<LesHouchesEvents version="3.0">
<header>
<!--
#*********************************************************************
#                                                                    *
#                        MadGraph5_aMC@NLO                           *
#                                                                    *
#                           Going Beyond                             *
#                                                                    *
#                   http://madgraph.hep.uiuc.edu                     *
#                   http://madgraph.phys.ucl.ac.be                   *
#                   http://amcatnlo.cern.ch                          *
#                                                                    *
#                     The MadGraph5_aMC@NLO team                     *
#                                                                    *
#....................................................................*
#                                                                    *
# This file contains all the information necessary to reproduce      *
# the events generated:                                              *
#                                                                    *
# 1. software version                                                *
# 2. proc_card          : code generation info including model       *
# 3. param_card         : model primary parameters in the LH format  *
# 4. run_card           : running parameters (collider and cuts)     *
# 5. pythia_card        : present only if pythia has been run        *
# 6. pgs_card           : present only if pgs has been run           *
# 7. delphes_cards      : present only if delphes has been run       *
#                                                                    *
#                                                                    *
#*********************************************************************
-->
<MGVersion>
#5.2.2.3
</MGVersion>
<MG5ProcCard>
#************************************************************
#*                     MadGraph5_aMC@NLO                    *
#*                                                          *
#*                *                       *                 *
#*                  *        * *        *                   *
#*                    * * * * 5 * * * *                     *
#*                  *        * *        *                   *
#*                *                       *                 *
#*                                                          *
#*                                                          *
#*         VERSION 2.2.3                 2015-02-10         *
#*                                                          *
#*    The MadGraph5_aMC@NLO Development Team - Find us at   *
#*    https://server06.fynu.ucl.ac.be/projects/madgraph     *
#*                                                          *
#************************************************************
#*                                                          *
#*               Command File for MadGraph5_aMC@NLO         *
#*                                                          *
#*     run as ./bin/mg5_aMC  filename                       *
#*                                                          *
#************************************************************
set group_subprocesses Auto
set ignore_six_quark_processes False
set loop_optimized_output True
set gauge unitary
set complex_mass_scheme False
import model sm
define p = g u c d s u~ c~ d~ s~
define j = g u c d s u~ c~ d~ s~
define l+ = e+ mu+
define l- = e- mu-
define vl = ve vm vt
define vl~ = ve~ vm~ vt~
import model Zprime_UFO
generate p p > zph, zph > j j
add process p p > zph, zph > b b~
output Dijet_signal
</MG5ProcCard>
<MGProcCard>
#*********************************************************************
#                        MadGraph/MadEvent                           *
#                   http://madgraph.hep.uiuc.edu                     *
#                                                                    *
#                          proc_card.dat                             *
#*********************************************************************
#                                                                    *
#            This Files is generated by MADGRAPH 5                   *
#                                                                    *
# WARNING: This Files is generated for MADEVENT (compatibility issue)*
#          This files is NOT a valid MG4 proc_card.dat               *
#          Running this in MG4 will NEVER reproduce the result of MG5*
#                                                                    *
#*********************************************************************
#*********************************************************************
# Process(es) requested : mg2 input                                  *
#*********************************************************************
# Begin PROCESS # This is TAG. Do not modify this line
p p > zph , zph > j j           #Process
# Be carefull the coupling are here in MG5 convention
          
end_coup           # End the couplings input

done               # this tells MG there are no more procs
# End PROCESS  # This is TAG. Do not modify this line
#*********************************************************************
# Model information                                                  *
#*********************************************************************
# Begin MODEL  # This is TAG. Do not modify this line
Zprime_UFO
# End   MODEL  # This is TAG. Do not modify this line
#*********************************************************************
# Start multiparticle definitions                                    *
#*********************************************************************
# Begin MULTIPARTICLES # This is TAG. Do not modify this line

# End  MULTIPARTICLES # This is TAG. Do not modify this line
</MGProcCard>
<MGRunCard>
#*********************************************************************
#                       MadGraph5_aMC@NLO                            *
#                                                                    *
#                     run_card.dat MadEvent                          *
#                                                                    *
#  This file is used to set the parameters of the run.               *
#                                                                    *
#  Some notation/conventions:                                        *
#                                                                    *
#   Lines starting with a '# ' are info or comments                  *
#                                                                    *
#   mind the format:   value    = variable     ! comment             *
#*********************************************************************
#
#*******************                                                 
# Running parameters
#*******************                                                 
#                                                                    
#*********************************************************************
# Tag name for the run (one word)                                    *
#*********************************************************************
  tag_1     = run_tag ! name of the run 
#*********************************************************************
# Run to generate the grid pack                                      *
#*********************************************************************
  .false.     = gridpack  !True = setting up the grid pack
#*********************************************************************
# Number of events and rnd seed                                      *
# Warning: Do not generate more than 1M events in a single run       *
# If you want to run Pythia, avoid more than 50k events in a run.    *
#*********************************************************************
  2000 = nevents ! Number of unweighted events requested 
 2739 = iseed   ! rnd seed (0=assigned automatically=default))
#*********************************************************************
# Collider type and energy                                           *
# lpp: 0=No PDF, 1=proton, -1=antiproton, 2=photon from proton,      *
#                                         3=photon from electron     *
#*********************************************************************
        1     = lpp1    ! beam 1 type 
        1     = lpp2    ! beam 2 type
     4000     = ebeam1  ! beam 1 total energy in GeV
     4000     = ebeam2  ! beam 2 total energy in GeV
#*********************************************************************
# Beam polarization from -100 (left-handed) to 100 (right-handed)    *
#*********************************************************************
        0     = polbeam1 ! beam polarization for beam 1
        0     = polbeam2 ! beam polarization for beam 2
#*********************************************************************
# PDF CHOICE: this automatically fixes also alpha_s and its evol.    *
#*********************************************************************
 'nn23lo1'    = pdlabel     ! PDF set                                     
 230000    = lhaid     ! if pdlabel=lhapdf, this is the lhapdf number
#*********************************************************************
# Renormalization and factorization scales                           *
#*********************************************************************
 F        = fixed_ren_scale  ! if .true. use fixed ren scale
 F        = fixed_fac_scale  ! if .true. use fixed fac scale
 91.1880  = scale            ! fixed ren scale
 91.1880  = dsqrt_q2fact1    ! fixed fact scale for pdf1
 91.1880  = dsqrt_q2fact2    ! fixed fact scale for pdf2
 1        = scalefact        ! scale factor for event-by-event scales
#*********************************************************************
# Matching - Warning! ickkw > 1 is still beta
#*********************************************************************
 0        = ickkw            ! 0 no matching, 1 MLM, 2 CKKW matching
 1        = highestmult      ! for ickkw=2, highest mult group
 1        = ktscheme         ! for ickkw=1, 1 Durham kT, 2 Pythia pTE
 1        = alpsfact         ! scale factor for QCD emission vx
 F        = chcluster        ! cluster only according to channel diag
 T        = pdfwgt           ! for ickkw=1, perform pdf reweighting
 5        = asrwgtflavor     ! highest quark flavor for a_s reweight
 T        = clusinfo         ! include clustering tag in output
 3.0      = lhe_version       ! Change the way clustering information pass to shower.        
#*********************************************************************
#**********************************************************
#
#**********************************************************
# Automatic ptj and mjj cuts if xqcut > 0
# (turn off for VBF and single top processes)
#**********************************************************
   T  = auto_ptj_mjj  ! Automatic setting of ptj and mjj
#**********************************************************
#                                                                    
#**********************************
# BW cutoff (M+/-bwcutoff*Gamma)
#**********************************
  15  = bwcutoff      ! (M+/-bwcutoff*Gamma)
#**********************************************************
# Apply pt/E/eta/dr/mij cuts on decay products or not
# (note that etmiss/ptll/ptheavy/ht/sorted cuts always apply)
#**********************************************************
   T  = cut_decays    ! Cut decay products 
#*************************************************************
# Number of helicities to sum per event (0 = all helicities)
# 0 gives more stable result, but longer run time (needed for
# long decay chains e.g.).
# Use >=2 if most helicities contribute, e.g. pure QCD.
#*************************************************************
   0  = nhel          ! Number of helicities used per event
#*******************                                                 
# Standard Cuts
#*******************                                                 
#                                                                    
#*********************************************************************
# Minimum and maximum pt's (for max, -1 means no cut)                *
#*********************************************************************
 20  = ptj       ! minimum pt for the jets 
  0  = ptb       ! minimum pt for the b 
 10  = pta       ! minimum pt for the photons 
 10  = ptl       ! minimum pt for the charged leptons 
  0  = misset    ! minimum missing Et (sum of neutrino's momenta)
  0  = ptheavy   ! minimum pt for one heavy final state
 1.0 = ptonium   ! minimum pt for the quarkonium states
 -1  = ptjmax    ! maximum pt for the jets
 -1  = ptbmax    ! maximum pt for the b
 -1  = ptamax    ! maximum pt for the photons
 -1  = ptlmax    ! maximum pt for the charged leptons
 -1  = missetmax ! maximum missing Et (sum of neutrino's momenta)
#*********************************************************************
# Minimum and maximum E's (in the center of mass frame)              *
#*********************************************************************
  0  = ej     ! minimum E for the jets 
  0  = eb     ! minimum E for the b 
  0  = ea     ! minimum E for the photons 
  0  = el     ! minimum E for the charged leptons 
 -1   = ejmax ! maximum E for the jets
 -1   = ebmax ! maximum E for the b
 -1   = eamax ! maximum E for the photons
 -1   = elmax ! maximum E for the charged leptons
#*********************************************************************
# Maximum and minimum absolute rapidity (for max, -1 means no cut)   *
#*********************************************************************
   5  = etaj    ! max rap for the jets 
  -1  = etab    ! max rap for the b
 2.5  = etaa    ! max rap for the photons 
 2.5  = etal    ! max rap for the charged leptons 
 0.6  = etaonium ! max rap for the quarkonium states
   0  = etajmin ! min rap for the jets
   0  = etabmin ! min rap for the b
   0  = etaamin ! min rap for the photons
   0  = etalmin ! main rap for the charged leptons
#*********************************************************************
# Minimum and maximum DeltaR distance                                *
#*********************************************************************
 0.4 = drjj    ! min distance between jets 
 0   = drbb    ! min distance between b's 
 0.4 = drll    ! min distance between leptons 
 0.4 = draa    ! min distance between gammas 
 0   = drbj    ! min distance between b and jet 
 0.4 = draj    ! min distance between gamma and jet 
 0.4 = drjl    ! min distance between jet and lepton 
 0   = drab    ! min distance between gamma and b 
 0   = drbl    ! min distance between b and lepton 
 0.4 = dral    ! min distance between gamma and lepton 
 -1  = drjjmax ! max distance between jets
 -1  = drbbmax ! max distance between b's
 -1  = drllmax ! max distance between leptons
 -1  = draamax ! max distance between gammas
 -1  = drbjmax ! max distance between b and jet
 -1  = drajmax ! max distance between gamma and jet
 -1  = drjlmax ! max distance between jet and lepton
 -1  = drabmax ! max distance between gamma and b
 -1  = drblmax ! max distance between b and lepton
 -1  = dralmax ! maxdistance between gamma and lepton
#*********************************************************************
# Minimum and maximum invariant mass for pairs                       *
# WARNING: for four lepton final state mmll cut require to have      *
#          different lepton masses for each flavor!                  *           
#*********************************************************************
 0   = mmjj    ! min invariant mass of a jet pair 
 0   = mmbb    ! min invariant mass of a b pair 
 0   = mmaa    ! min invariant mass of gamma gamma pair
 0   = mmll    ! min invariant mass of l+l- (same flavour) lepton pair
 -1  = mmjjmax ! max invariant mass of a jet pair
 -1  = mmbbmax ! max invariant mass of a b pair
 -1  = mmaamax ! max invariant mass of gamma gamma pair
 -1  = mmllmax ! max invariant mass of l+l- (same flavour) lepton pair
#*********************************************************************
# Minimum and maximum invariant mass for all letpons                 *
#*********************************************************************
 0   = mmnl    ! min invariant mass for all letpons (l+- and vl) 
 -1  = mmnlmax ! max invariant mass for all letpons (l+- and vl) 
#*********************************************************************
# Minimum and maximum pt for 4-momenta sum of leptons                *
#*********************************************************************
 0   = ptllmin  ! Minimum pt for 4-momenta sum of leptons(l and vl)
 -1  = ptllmax  ! Maximum pt for 4-momenta sum of leptons(l and vl)
#*********************************************************************
# Inclusive cuts                                                     *
#*********************************************************************
 0  = xptj ! minimum pt for at least one jet  
 0  = xptb ! minimum pt for at least one b 
 0  = xpta ! minimum pt for at least one photon 
 0  = xptl ! minimum pt for at least one charged lepton 
#*********************************************************************
# Control the pt's of the jets sorted by pt                          *
#*********************************************************************
 0   = ptj1min ! minimum pt for the leading jet in pt
 0   = ptj2min ! minimum pt for the second jet in pt
 0   = ptj3min ! minimum pt for the third jet in pt
 0   = ptj4min ! minimum pt for the fourth jet in pt
 -1  = ptj1max ! maximum pt for the leading jet in pt 
 -1  = ptj2max ! maximum pt for the second jet in pt
 -1  = ptj3max ! maximum pt for the third jet in pt
 -1  = ptj4max ! maximum pt for the fourth jet in pt
 0   = cutuse  ! reject event if fails any (0) / all (1) jet pt cuts
#*********************************************************************
# Control the pt's of leptons sorted by pt                           *
#*********************************************************************
 0   = ptl1min ! minimum pt for the leading lepton in pt
 0   = ptl2min ! minimum pt for the second lepton in pt
 0   = ptl3min ! minimum pt for the third lepton in pt
 0   = ptl4min ! minimum pt for the fourth lepton in pt
 -1  = ptl1max ! maximum pt for the leading lepton in pt 
 -1  = ptl2max ! maximum pt for the second lepton in pt
 -1  = ptl3max ! maximum pt for the third lepton in pt
 -1  = ptl4max ! maximum pt for the fourth lepton in pt
#*********************************************************************
# Control the Ht(k)=Sum of k leading jets                            *
#*********************************************************************
 0   = htjmin ! minimum jet HT=Sum(jet pt)
 -1  = htjmax ! maximum jet HT=Sum(jet pt)
 0   = ihtmin  !inclusive Ht for all partons (including b)
 -1  = ihtmax  !inclusive Ht for all partons (including b)
 0   = ht2min ! minimum Ht for the two leading jets
 0   = ht3min ! minimum Ht for the three leading jets
 0   = ht4min ! minimum Ht for the four leading jets
 -1  = ht2max ! maximum Ht for the two leading jets
 -1  = ht3max ! maximum Ht for the three leading jets
 -1  = ht4max ! maximum Ht for the four leading jets
#***********************************************************************
# Photon-isolation cuts, according to hep-ph/9801442                   *
# When ptgmin=0, all the other parameters are ignored                  *
# When ptgmin>0, pta and draj are not going to be used                 *
#***********************************************************************
   0 = ptgmin ! Min photon transverse momentum
 0.4 = R0gamma ! Radius of isolation code
 1.0 = xn ! n parameter of eq.(3.4) in hep-ph/9801442
 1.0 = epsgamma ! epsilon_gamma parameter of eq.(3.4) in hep-ph/9801442
 .true. = isoEM ! isolate photons from EM energy (photons and leptons)
#*********************************************************************
# WBF cuts                                                           *
#*********************************************************************
 0   = xetamin ! minimum rapidity for two jets in the WBF case  
 0   = deltaeta ! minimum rapidity for two jets in the WBF case 
#*********************************************************************
# KT DURHAM CUT                                                      *
#*********************************************************************
 -1    =  ktdurham        
 0.4  =  dparameter 
#*********************************************************************
# maximal pdg code for quark to be considered as a light jet         *
# (otherwise b cuts are applied)                                     *
#*********************************************************************
 4 = maxjetflavor    ! Maximum jet pdg code
#*********************************************************************
# Jet measure cuts                                                   *
#*********************************************************************
 0   = xqcut   ! minimum kt jet measure between partons
#*********************************************************************
#
#*********************************************************************
# Store info for systematics studies                                 *
# WARNING: If use_syst is T, matched Pythia output is                *
#          meaningful ONLY if plotted taking matchscale              *
#          reweighting into account!                                 *
#*********************************************************************
   F  = use_syst      ! Enable systematics studies
#
#**************************************
# Parameter of the systematics study
#  will be used by SysCalc (if installed)
#**************************************                                  
#
0.5 1 2 = sys_scalefact  # factorization/renormalization scale factor
0.5 1 2 = sys_alpsfact  # \alpha_s emission scale factors
30 50 = sys_matchscale # variation of merging scale
# PDF sets and number of members (0 or none for all members).
CT10nlo.LHgrid = sys_pdf # matching scales
# MSTW2008nlo68cl.LHgrid 1  = sys_pdf
</MGRunCard>
<slha>
######################################################################
## PARAM_CARD AUTOMATICALY GENERATED BY MG5 FOLLOWING UFO MODEL   ####
######################################################################
##                                                                  ##
##  Width set on Auto will be computed following the information    ##
##        present in the decay.py files of the model.               ##
##        See  arXiv:1402.1178 for more details.                    ##
##                                                                  ##
######################################################################

###################################
## INFORMATION FOR CKMBLOCK
###################################
Block ckmblock 
    1 2.277360e-01 # cabi 

###################################
## INFORMATION FOR FRBLOCK
###################################
Block frblock 
    1 1.400000e+00 # gz 

###################################
## INFORMATION FOR MASS
###################################
Block mass 
    1 5.040000e-03 # MD 
    2 2.550000e-03 # MU 
    3 1.010000e-01 # MS 
    4 1.270000e+00 # MC 
    5 4.700000e+00 # MB 
    6 1.720000e+02 # MT 
   11 5.110000e-04 # Me 
   13 1.056600e-01 # MM 
   15 1.777000e+00 # MTA 
   23 9.118760e+01 # MZ 
   25 1.200000e+02 # MH 
  10030 3.800000e+03 # MZph 
  10031 3.000000e+02 # MZpl 
## Dependent parameters, given by model restrictions.
## Those values should be edited following the 
## analytical expression. MG5 ignores those values 
## but they are important for interfacing the output of MG5
## to external program such as Pythia.
  12 0.000000 # ve : 0.0 
  14 0.000000 # vm : 0.0 
  16 0.000000 # vt : 0.0 
  21 0.000000 # g : 0.0 
  22 0.000000 # a : 0.0 
  24 79.824360 # w+ : cmath.sqrt(MZ__exp__2/2. + cmath.sqrt(MZ__exp__4/4. - (aEW*cmath.pi*MZ__exp__2)/(Gf*sqrt__2))) 

###################################
## INFORMATION FOR SMINPUTS
###################################
Block sminputs 
    1 1.279000e+02 # aEWM1 
    2 1.166370e-05 # Gf 
    3 1.184000e-01 # aS 

###################################
## INFORMATION FOR YUKAWA
###################################
Block yukawa 
    1 5.040000e-03 # ymdo 
    2 2.550000e-03 # ymup 
    3 1.010000e-01 # yms 
    4 1.270000e+00 # ymc 
    5 4.700000e+00 # ymb 
    6 1.720000e+02 # ymt 
   11 5.110000e-04 # yme 
   13 1.056600e-01 # ymm 
   15 1.777000e+00 # ymtau 

###################################
## INFORMATION FOR DECAY
###################################
DECAY   6 1.508336e+00 # WT 
DECAY  23 2.495200e+00 # WZ 
DECAY  24 2.085000e+00 # WW 
DECAY  25 5.753088e-03 # WH 
## Dependent parameters, given by model restrictions.
## Those values should be edited following the 
## analytical expression. MG5 ignores those values 
## but they are important for interfacing the output of MG5
## to external program such as Pythia.
DECAY  1 0.000000 # d : 0.0 
DECAY  2 0.000000 # u : 0.0 
DECAY  3 0.000000 # s : 0.0 
DECAY  4 0.000000 # c : 0.0 
DECAY  5 0.000000 # b : 0.0 
DECAY  11 0.000000 # e- : 0.0 
DECAY  12 0.000000 # ve : 0.0 
DECAY  13 0.000000 # mu- : 0.0 
DECAY  14 0.000000 # vm : 0.0 
DECAY  15 0.000000 # ta- : 0.0 
DECAY  16 0.000000 # vt : 0.0 
DECAY  21 0.000000 # g : 0.0 
DECAY  22 0.000000 # a : 0.0 
DECAY  10030 0.308725 # zph : (gz__exp__2*MZph*(5 + cmath.sqrt(1 - (4*MT__exp__2)/MZph__exp__2)))/(144.*cmath.pi) 
DECAY  10031 0.132629 # zpl : (5*gz__exp__2*MZpl)/(144.*cmath.pi) 
#===========================================================
# QUANTUM NUMBERS OF NEW STATE(S) (NON SM PDG CODE)
#===========================================================

Block QNUMBERS 10030  # zph 
        1 0  # 3 times electric charge
        2 3  # number of spin states (2S+1)
        3 1  # colour rep (1: singlet, 3: triplet, 8: octet)
        4 0  # Particle/Antiparticle distinction (0=own anti)
Block QNUMBERS 10031  # zpl 
        1 0  # 3 times electric charge
        2 3  # number of spin states (2S+1)
        3 1  # colour rep (1: singlet, 3: triplet, 8: octet)
        4 0  # Particle/Antiparticle distinction (0=own anti)
</slha>
## END BANNER##
<MGGenerationInfo>
#  Number of Events        :         3883
#  Integrated weight (pb)  :  0.20239E-03
#  Max wgt                 :  0.10702E-06
#  Average wgt             :  0.52122E-07
</MGGenerationInfo>
</header>
<init>
     2212     2212  0.40000000000E+04  0.40000000000E+04 0 0  247000  247000 2   1
  0.20260854537E-03  0.14741901473E-05  0.10702360000E-06   0
</init>
<event>
 5   0  0.7551495E-07  0.3808960E+04  0.7818609E-02  0.8044235E-01
        2   -1    0    0  501    0  0.00000000000E+00  0.00000000000E+00  0.25635974690E+04  0.25635974690E+04  0.25500000920E-02 0.  1.
       -2   -1    0    0    0  501  0.00000000000E+00  0.00000000000E+00 -0.14148255341E+04  0.14148255341E+04  0.25500000920E-02 0. -1.
    10030    2    1    2    0    0  0.00000000000E+00  0.00000000000E+00  0.11487719349E+04  0.39784230031E+04  0.38089595211E+04 0.  0.
        1    1    3    3  502    0 -0.15194977058E+04  0.19450524232E+03  0.17562481829E+04  0.23304748974E+04  0.50400001928E-02 0.  1.
       -1    1    3    3    0  502  0.15194977058E+04 -0.19450524232E+03 -0.60747624805E+03  0.16479481057E+04  0.50400001928E-02 0. -1.
</event>
<event>
 5   0  0.7551495E-07  0.3651036E+04  0.7818609E-02  0.8078900E-01
       -2   -1    0    0    0  501  0.00000000000E+00  0.00000000000E+00  0.20472087160E+04  0.20472087160E+04  0.25500000920E-02 0. -1.
        2   -1    0    0  501    0  0.00000000000E+00  0.00000000000E+00 -0.16278337344E+04  0.16278337344E+04  0.25500000920E-02 0.  1.
    10030    2    1    2    0    0  0.00000000000E+00  0.00000000000E+00  0.41937498155E+03  0.36750424504E+04  0.36510356938E+04 0.  0.
        1    1    3    3  502    0 -0.16684032132E+04  0.66307994766E+03  0.54242285331E+03  0.18754910959E+04  0.50400001928E-02 0. -1.
       -1    1    3    3    0  502  0.16684032132E+04 -0.66307994766E+03 -0.12304787175E+03  0.17995513545E+04  0.50400001928E-02 0.  1.
</event>
<event>
 5   0  0.8421677E-07  0.3265071E+04  0.7818609E-02  0.8171840E-01
        2   -1    0    0  501    0  0.00000000000E+00  0.00000000000E+00  0.21380540057E+04  0.21380540057E+04  0.25500000920E-02 0. -1.
       -2   -1    0    0    0  501  0.00000000000E+00  0.00000000000E+00 -0.12465412288E+04  0.12465412288E+04  0.25500000920E-02 0.  1.
    10030    2    1    2    0    0  0.00000000000E+00  0.00000000000E+00  0.89151277690E+03  0.33845952345E+04  0.32650711892E+04 0.  0.
        3    1    3    3  502    0 -0.13163783849E+04  0.90902956748E+03  0.10828448672E+03  0.16034064822E+04  0.10100000352E+00 0.  1.
       -3    1    3    3    0  502  0.13163783849E+04 -0.90902956748E+03  0.78322829019E+03  0.17811887524E+04  0.10100000352E+00 0. -1.
</event>
<event>
 5   0  0.7551495E-07  0.3781881E+04  0.7818609E-02  0.8050054E-01
       -2   -1    0    0    0  501  0.00000000000E+00  0.00000000000E+00  0.20545069150E+04  0.20545069150E+04  0.25500000920E-02 0.  1.
        2   -1    0    0  501    0  0.00000000000E+00  0.00000000000E+00 -0.17403964576E+04  0.17403964576E+04  0.25500000920E-02 0. -1.
    10030    2    1    2    0    0  0.00000000000E+00  0.00000000000E+00  0.31411045747E+03  0.37949033726E+04  0.37818813080E+04 0.  0.
        1    1    3    3  502    0  0.11477873344E+04  0.12392961587E+04 -0.69580415978E+03  0.18268590977E+04  0.50400001928E-02 0. -1.
       -1    1    3    3    0  502 -0.11477873344E+04 -0.12392961587E+04  0.10099146172E+04  0.19680442749E+04  0.50400001928E-02 0.  1.
</event>
<event>
 5   0  0.8421677E-07  0.3716114E+04  0.7818609E-02  0.8064400E-01
        2   -1    0    0  501    0  0.00000000000E+00  0.00000000000E+00  0.25396025197E+04  0.25396025197E+04  0.25500000920E-02 0. -1.
       -2   -1    0    0    0  501  0.00000000000E+00  0.00000000000E+00 -0.13594155567E+04  0.13594155567E+04  0.25500000920E-02 0.  1.
    10030    2    1    2    0    0  0.00000000000E+00  0.00000000000E+00  0.11801869630E+04  0.38990180764E+04  0.37161136544E+04 0.  0.
        3    1    3    3  502    0  0.30400469710E+03 -0.57873809134E+03 -0.12347695789E+04  0.13971444297E+04  0.10100000352E+00 0.  1.
       -3    1    3    3    0  502 -0.30400469710E+03  0.57873809134E+03  0.24149565420E+04  0.25018736467E+04  0.10100000352E+00 0. -1.
</event>
<event>
 5   0  0.2529875E-07  0.3863575E+04  0.7818609E-02  0.8032648E-01
        1   -1    0    0  501    0  0.00000000000E+00  0.00000000000E+00  0.12787623187E+04  0.12787623187E+04  0.50400001928E-02 0. -1.
       -1   -1    0    0    0  501  0.00000000000E+00  0.00000000000E+00 -0.29182924745E+04  0.29182924745E+04  0.50400001928E-02 0.  1.
    10030    2    1    2    0    0  0.00000000000E+00  0.00000000000E+00 -0.16395301558E+04  0.41970547932E+04  0.38635747444E+04 0.  0.
        1    1    3    3  502    0  0.77978502290E+03  0.10019127596E+04 -0.24014278331E+04  0.27163853735E+04  0.50400001928E-02 0.  1.
       -1    1    3    3    0  502 -0.77978502290E+03 -0.10019127596E+04  0.76189767734E+03  0.14806694197E+04  0.50400001928E-02 0. -1.
</event>
<event>
 5   0  0.2529875E-07  0.3788690E+04  0.7818609E-02  0.8048586E-01
        1   -1    0    0  501    0  0.00000000000E+00  0.00000000000E+00  0.11048332077E+04  0.11048332077E+04  0.50400001928E-02 0.  1.
       -1   -1    0    0    0  501  0.00000000000E+00  0.00000000000E+00 -0.32480409112E+04  0.32480409112E+04  0.50400001928E-02 0. -1.
    10030    2    1    2    0    0  0.00000000000E+00  0.00000000000E+00 -0.21432077035E+04  0.43528741189E+04  0.37886902532E+04 0.  0.
        3    1    3    3  502    0  0.24194121566E+03  0.17217324987E+04 -0.20751376693E+03  0.17509883844E+04  0.10100000352E+00 0.  1.
       -3    1    3    3    0  502 -0.24194121566E+03 -0.17217324987E+04 -0.19356939366E+04  0.26018857345E+04  0.10100000352E+00 0. -1.
</event>
<event>
 5   0  0.7551495E-07  0.3814726E+04  0.7818609E-02  0.8043002E-01
        2   -1    0    0  501    0  0.00000000000E+00  0.00000000000E+00  0.17071255515E+04  0.17071255515E+04  0.25500000920E-02 0. -1.
       -2   -1    0    0    0  501  0.00000000000E+00  0.00000000000E+00 -0.21310878013E+04  0.21310878013E+04  0.25500000920E-02 0.  1.
    10030    2    1    2    0    0  0.00000000000E+00  0.00000000000E+00 -0.42396224987E+03  0.38382133528E+04  0.38147264322E+04 0.  0.
        1    1    3    3  502    0 -0.65242402053E+03 -0.16881585689E+04  0.39380386724E+03  0.18521927390E+04  0.50400001928E-02 0. -1.
       -1    1    3    3    0  502  0.65242402053E+03  0.16881585689E+04 -0.81776611711E+03  0.19860206139E+04  0.50400001928E-02 0.  1.
</event>
<event>
 5   0  0.2907071E-07  0.3744641E+04  0.7818609E-02  0.8058140E-01
       -1   -1    0    0    0  501  0.00000000000E+00  0.00000000000E+00  0.14140401490E+04  0.14140401490E+04  0.50400001928E-02 0.  1.
        1   -1    0    0  501    0  0.00000000000E+00  0.00000000000E+00 -0.24791259849E+04  0.24791259849E+04  0.50400001928E-02 0. -1.
    10030    2    1    2    0    0  0.00000000000E+00  0.00000000000E+00 -0.10650858359E+04  0.38931661340E+04  0.37446407984E+04 0.  0.
        2    1    3    3  502    0  0.18615346166E+04 -0.10381655392E+03 -0.35399098610E+03  0.18977351301E+04  0.25500000920E-02 0.  1.
       -2    1    3    3    0  502 -0.18615346166E+04  0.10381655392E+03 -0.71109484980E+03  0.19954310039E+04  0.25500000920E-02 0. -1.
</event>
<event>
 5   0  0.7551495E-07  0.3046200E+04  0.7818609E-02  0.8230660E-01
        2   -1    0    0  501    0  0.00000000000E+00  0.00000000000E+00  0.10107795351E+04  0.10107795351E+04  0.25500000920E-02 0. -1.
       -2   -1    0    0    0  501  0.00000000000E+00  0.00000000000E+00 -0.22950940193E+04  0.22950940193E+04  0.25500000920E-02 0.  1.
    10030    2    1    2    0    0  0.00000000000E+00  0.00000000000E+00 -0.12843144842E+04  0.33058735544E+04  0.30462002993E+04 0.  0.
        1    1    3    3  502    0  0.20799169351E+03  0.13726828152E+04 -0.13219013716E+04  0.19170137955E+04  0.50400001928E-02 0.  1.
       -1    1    3    3    0  502 -0.20799169351E+03 -0.13726828152E+04  0.37586887426E+02  0.13888597589E+04  0.50400001928E-02 0. -1.
</event>
<event>
 5   0  0.7638805E-07  0.3812081E+04  0.7818609E-02  0.8043567E-01
        2   -1    0    0  501    0  0.00000000000E+00  0.00000000000E+00  0.20387787396E+04  0.20387787396E+04  0.25500000920E-02 0. -1.
       -2   -1    0    0    0  501  0.00000000000E+00  0.00000000000E+00 -0.17819443893E+04  0.17819443893E+04  0.25500000920E-02 0.  1.
    10030    2    1    2    0    0  0.00000000000E+00  0.00000000000E+00  0.25683435029E+03  0.38207231289E+04  0.38120809729E+04 0.  0.
        5    1    3    3  502    0  0.63262507590E+03  0.10510239726E+04  0.15905260322E+04  0.20086465659E+04  0.46999998093E+01 0. -1.
       -5    1    3    3    0  502 -0.63262507590E+03 -0.10510239726E+04 -0.13336916819E+04  0.18120765629E+04  0.46999998093E+01 0.  1.
</event>
<event>
 5   0  0.7638805E-07  0.3797453E+04  0.7818609E-02  0.8046702E-01
        2   -1    0    0  501    0  0.00000000000E+00  0.00000000000E+00  0.12671477671E+04  0.12671477671E+04  0.25500000920E-02 0. -1.
       -2   -1    0    0    0  501  0.00000000000E+00  0.00000000000E+00 -0.28451001241E+04  0.28451001241E+04  0.25500000920E-02 0.  1.
    10030    2    1    2    0    0  0.00000000000E+00  0.00000000000E+00 -0.15779523570E+04  0.41122478913E+04  0.37974529725E+04 0.  0.
        5    1    3    3  502    0  0.10320761357E+04  0.14917501164E+04 -0.13964034364E+04  0.22892060211E+04  0.46999998093E+01 0.  1.
       -5    1    3    3    0  502 -0.10320761357E+04 -0.14917501164E+04 -0.18154892056E+03  0.18230418702E+04  0.46999998093E+01 0. -1.
</event>
<event>
 5   0  0.2529875E-07  0.3753351E+04  0.7818609E-02  0.8056240E-01
       -1   -1    0    0    0  501  0.00000000000E+00  0.00000000000E+00  0.12357557810E+04  0.12357557810E+04  0.50400001928E-02 0.  1.
        1   -1    0    0  501    0  0.00000000000E+00  0.00000000000E+00 -0.28500054477E+04  0.28500054478E+04  0.50400001928E-02 0. -1.
    10030    2    1    2    0    0  0.00000000000E+00  0.00000000000E+00 -0.16142496668E+04  0.40857612287E+04  0.37533508804E+04 0.  0.
        5    1    3    3  502    0  0.56380375277E+03  0.17889918958E+04 -0.74252297974E+03  0.20173569690E+04  0.46999998093E+01 0. -1.
       -5    1    3    3    0  502 -0.56380375277E+03 -0.17889918958E+04 -0.87172668704E+03  0.20684042597E+04  0.46999998093E+01 0.  1.
</event>
<event>
 5   0  0.2529875E-07  0.2472671E+04  0.7818609E-02  0.8412787E-01
        1   -1    0    0  501    0  0.00000000000E+00  0.00000000000E+00  0.10000606284E+04  0.10000606285E+04  0.50400001928E-02 0.  1.
       -1   -1    0    0    0  501  0.00000000000E+00  0.00000000000E+00 -0.15284328080E+04  0.15284328080E+04  0.50400001928E-02 0. -1.
    10030    2    1    2    0    0  0.00000000000E+00  0.00000000000E+00 -0.52837217958E+03  0.25284934365E+04  0.24726710048E+04 0.  0.
        1    1    3    3  502    0 -0.70319989804E+03  0.72386148058E+03 -0.99449416023E+03  0.14168571468E+04  0.50400001928E-02 0. -1.
       -1    1    3    3    0  502  0.70319989804E+03 -0.72386148058E+03  0.46612198065E+03  0.11116362897E+04  0.50400001928E-02 0.  1.
</event>
<event>
 5   0  0.2529875E-07  0.3599609E+04  0.7818609E-02  0.8090581E-01
       -1   -1    0    0    0  501  0.00000000000E+00  0.00000000000E+00  0.14918919979E+04  0.14918919979E+04  0.50400001928E-02 0. -1.
        1   -1    0    0  501    0  0.00000000000E+00  0.00000000000E+00 -0.21712673192E+04  0.21712673192E+04  0.50400001928E-02 0.  1.
    10030    2    1    2    0    0  0.00000000000E+00  0.00000000000E+00 -0.67937532134E+03  0.36631593171E+04  0.35996090559E+04 0.  0.
        3    1    3    3  502    0 -0.14678623354E+04  0.46382240813E+03  0.60926941680E+03  0.16555845779E+04  0.10100000352E+00 0. -1.
       -3    1    3    3    0  502  0.14678623354E+04 -0.46382240813E+03 -0.12886447381E+04  0.20075747392E+04  0.10100000352E+00 0.  1.
</event>
<event>
 5   0  0.2529875E-07  0.3688519E+04  0.7818609E-02  0.8070511E-01
        1   -1    0    0  501    0  0.00000000000E+00  0.00000000000E+00  0.13476671755E+04  0.13476671755E+04  0.50400001928E-02 0.  1.
       -1   -1    0    0    0  501  0.00000000000E+00  0.00000000000E+00 -0.25238379567E+04  0.25238379567E+04  0.50400001928E-02 0. -1.
    10030    2    1    2    0    0  0.00000000000E+00  0.00000000000E+00 -0.11761707811E+04  0.38715051322E+04  0.36885192533E+04 0.  0.
        3    1    3    3  502    0 -0.50568247487E+03  0.17565193866E+04 -0.84565376280E+03  0.20140023380E+04  0.10100000352E+00 0. -1.
       -3    1    3    3    0  502  0.50568247487E+03 -0.17565193866E+04 -0.33051701834E+03  0.18575027942E+04  0.10100000352E+00 0.  1.
</event>
<event>
 5   0  0.7551495E-07  0.3799280E+04  0.7818609E-02  0.8046309E-01
       -2   -1    0    0    0  501  0.00000000000E+00  0.00000000000E+00  0.19595988665E+04  0.19595988665E+04  0.25500000920E-02 0. -1.
        2   -1    0    0  501    0  0.00000000000E+00  0.00000000000E+00 -0.18415158147E+04  0.18415158147E+04  0.25500000920E-02 0.  1.
    10030    2    1    2    0    0  0.00000000000E+00  0.00000000000E+00  0.11808305178E+03  0.38011146812E+04  0.37992800914E+04 0.  0.
        1    1    3    3  502    0  0.12614545712E+04 -0.32451185377E+03  0.14424806289E+04  0.19435343947E+04  0.50400001928E-02 0. -1.
       -1    1    3    3    0  502 -0.12614545712E+04  0.32451185377E+03 -0.13243975772E+04  0.18575802865E+04  0.50400001928E-02 0.  1.
</event>
<event>
 5   0  0.2529875E-07  0.2680833E+04  0.7818609E-02  0.8341251E-01
       -1   -1    0    0    0  501  0.00000000000E+00  0.00000000000E+00  0.12642812292E+04  0.12642812292E+04  0.50400001928E-02 0. -1.
        1   -1    0    0  501    0  0.00000000000E+00  0.00000000000E+00 -0.14211363225E+04  0.14211363225E+04  0.50400001928E-02 0.  1.
    10030    2    1    2    0    0  0.00000000000E+00  0.00000000000E+00 -0.15685509332E+03  0.26854175517E+04  0.26808326891E+04 0.  0.
        4    1    3    3  502    0  0.12582410302E+04  0.46210807574E+03 -0.78418327184E+02  0.13427082374E+04  0.12699999809E+01 0.  1.
       -4    1    3    3    0  502 -0.12582410302E+04 -0.46210807574E+03 -0.78436766133E+02  0.13427093144E+04  0.12699999809E+01 0. -1.
</event>
<event>
 5   0  0.2529875E-07  0.3796220E+04  0.7818609E-02  0.8046966E-01
        1   -1    0    0  501    0  0.00000000000E+00  0.00000000000E+00  0.21310549592E+04  0.21310549592E+04  0.50400001928E-02 0. -1.
       -1   -1    0    0    0  501  0.00000000000E+00  0.00000000000E+00 -0.16906286164E+04  0.16906286165E+04  0.50400001928E-02 0.  1.
    10030    2    1    2    0    0  0.00000000000E+00  0.00000000000E+00  0.44042634279E+03  0.38216835757E+04  0.37962204874E+04 0.  0.
        1    1    3    3  502    0 -0.73916288539E+03  0.71216777893E+03 -0.13871420954E+04  0.17256036362E+04  0.50400001928E-02 0.  1.
       -1    1    3    3    0  502  0.73916288539E+03 -0.71216777893E+03  0.18275684382E+04  0.20960799395E+04  0.50400001928E-02 0. -1.
</event>
<event>
 5   0  0.8038352E-07  0.3740780E+04  0.7818609E-02  0.8058984E-01
       -2   -1    0    0    0  501  0.00000000000E+00  0.00000000000E+00  0.14651477711E+04  0.14651477711E+04  0.25500000920E-02 0. -1.
        2   -1    0    0  501    0  0.00000000000E+00  0.00000000000E+00 -0.23877178248E+04  0.23877178248E+04  0.25500000920E-02 0.  1.
    10030    2    1    2    0    0  0.00000000000E+00  0.00000000000E+00 -0.92257005368E+03  0.38528655958E+04  0.37407803725E+04 0.  0.
        2    1    3    3  502    0  0.17710235287E+03  0.17107642128E+04  0.29577636617E+03  0.17451541749E+04  0.25500000920E-02 0. -1.
       -2    1    3    3    0  502 -0.17710235287E+03 -0.17107642128E+04 -0.12183464199E+04  0.21077114210E+04  0.25500000920E-02 0.  1.
</event>
<event>
 5   0  0.2529875E-07  0.3236072E+04  0.7818609E-02  0.8179355E-01
        1   -1    0    0  501    0  0.00000000000E+00  0.00000000000E+00  0.23117992093E+04  0.23117992093E+04  0.50400001928E-02 0.  1.
       -1   -1    0    0    0  501  0.00000000000E+00  0.00000000000E+00 -0.11324688436E+04  0.11324688436E+04  0.50400001928E-02 0. -1.
    10030    2    1    2    0    0  0.00000000000E+00  0.00000000000E+00  0.11793303658E+04  0.34442680529E+04  0.32360720494E+04 0.  0.
        3    1    3    3  502    0 -0.20798871329E+03 -0.15553013353E+04  0.10098003092E+04  0.18659898776E+04  0.10100000352E+00 0.  1.
       -3    1    3    3    0  502  0.20798871329E+03  0.15553013353E+04  0.16953005653E+03  0.15782781753E+04  0.10100000352E+00 0. -1.
</event>
<event>
 5   0  0.8421677E-07  0.3768115E+04  0.7818609E-02  0.8053032E-01
        2   -1    0    0  501    0  0.00000000000E+00  0.00000000000E+00  0.17828960177E+04  0.17828960177E+04  0.25500000920E-02 0.  1.
       -2   -1    0    0    0  501  0.00000000000E+00  0.00000000000E+00 -0.19909590972E+04  0.19909590972E+04  0.25500000920E-02 0. -1.
    10030    2    1    2    0    0  0.00000000000E+00  0.00000000000E+00 -0.20806307949E+03  0.37738551150E+04  0.37681152031E+04 0.  0.
        3    1    3    3  502    0 -0.25535643825E+03  0.10463127517E+04  0.14441873303E+04  0.18015699653E+04  0.10100000352E+00 0.  1.
       -3    1    3    3    0  502  0.25535643825E+03 -0.10463127517E+04 -0.16522504098E+04  0.19722851497E+04  0.10100000352E+00 0. -1.
</event>
<event>
 5   0  0.2529875E-07  0.3898652E+04  0.7818609E-02  0.8025310E-01
       -1   -1    0    0    0  501  0.00000000000E+00  0.00000000000E+00  0.17354998046E+04  0.17354998046E+04  0.50400001928E-02 0.  1.
        1   -1    0    0  501    0  0.00000000000E+00  0.00000000000E+00 -0.21894968918E+04  0.21894968918E+04  0.50400001928E-02 0. -1.
    10030    2    1    2    0    0  0.00000000000E+00  0.00000000000E+00 -0.45399708721E+03  0.39249966965E+04  0.38986517813E+04 0.  0.
        1    1    3    3  502    0  0.14660661190E+04  0.86010086427E+03 -0.11877785958E+04  0.20736299947E+04  0.50400001928E-02 0. -1.
       -1    1    3    3    0  502 -0.14660661190E+04 -0.86010086427E+03  0.73378150863E+03  0.18513667018E+04  0.50400001928E-02 0.  1.
</event>
<event>
 5   0  0.8038352E-07  0.2688804E+04  0.7818609E-02  0.8338647E-01
       -2   -1    0    0    0  501  0.00000000000E+00  0.00000000000E+00  0.15556902712E+04  0.15556902712E+04  0.25500000920E-02 0. -1.
        2   -1    0    0  501    0  0.00000000000E+00  0.00000000000E+00 -0.11618098768E+04  0.11618098768E+04  0.25500000920E-02 0.  1.
    10030    2    1    2    0    0  0.00000000000E+00  0.00000000000E+00  0.39388039432E+03  0.27175001480E+04  0.26888036911E+04 0.  0.
        2    1    3    3  502    0 -0.94931687930E+03  0.15491935093E+03  0.11462269038E+04  0.14963417583E+04  0.25500000920E-02 0. -1.
       -2    1    3    3    0  502  0.94931687930E+03 -0.15491935093E+03 -0.75234650943E+03  0.12211583898E+04  0.25500000920E-02 0.  1.
</event>
<event>
 5   0  0.2907071E-07  0.3754355E+04  0.7818609E-02  0.8056022E-01
        1   -1    0    0  501    0  0.00000000000E+00  0.00000000000E+00  0.19134926450E+04  0.19134926450E+04  0.50400001928E-02 0.  1.
       -1   -1    0    0    0  501  0.00000000000E+00  0.00000000000E+00 -0.18415511516E+04  0.18415511516E+04  0.50400001928E-02 0. -1.
    10030    2    1    2    0    0  0.00000000000E+00  0.00000000000E+00  0.71941493404E+02  0.37550437966E+04  0.37543545831E+04 0.  0.
        2    1    3    3  502    0 -0.18413543359E+04 -0.26640831118E+03  0.28548679279E+03  0.18823022838E+04  0.25500000920E-02 0. -1.
       -2    1    3    3    0  502  0.18413543359E+04  0.26640831118E+03 -0.21354529938E+03  0.18727415128E+04  0.25500000920E-02 0.  1.
</event>
<event>
 5   0  0.8421677E-07  0.3920874E+04  0.7818609E-02  0.8020702E-01
        2   -1    0    0  501    0  0.00000000000E+00  0.00000000000E+00  0.22958038590E+04  0.22958038590E+04  0.25500000920E-02 0. -1.
       -2   -1    0    0    0  501  0.00000000000E+00  0.00000000000E+00 -0.16740595274E+04  0.16740595274E+04  0.25500000920E-02 0.  1.
    10030    2    1    2    0    0  0.00000000000E+00  0.00000000000E+00  0.62174433168E+03  0.39698633864E+04  0.39208735369E+04 0.  0.
        3    1    3    3  502    0  0.18589532448E+04 -0.62257662906E+03  0.31276303109E+03  0.19852278330E+04  0.10100000352E+00 0. -1.
       -3    1    3    3    0  502 -0.18589532448E+04  0.62257662906E+03  0.30898130059E+03  0.19846355533E+04  0.10100000352E+00 0.  1.
</event>
<event>
 5   0  0.7638805E-07  0.3797966E+04  0.7818609E-02  0.8046591E-01
        2   -1    0    0  501    0  0.00000000000E+00  0.00000000000E+00  0.16527024887E+04  0.16527024887E+04  0.25500000920E-02 0. -1.
       -2   -1    0    0    0  501  0.00000000000E+00  0.00000000000E+00 -0.21819637093E+04  0.21819637093E+04  0.25500000920E-02 0.  1.
    10030    2    1    2    0    0  0.00000000000E+00  0.00000000000E+00 -0.52926122060E+03  0.38346661980E+04  0.37979662203E+04 0.  0.
        5    1    3    3  502    0 -0.15687978784E+04  0.27094518671E+03 -0.13098034018E+04  0.20615880090E+04  0.46999998093E+01 0.  1.
       -5    1    3    3    0  502  0.15687978784E+04 -0.27094518671E+03  0.78054218124E+03  0.17730781890E+04  0.46999998093E+01 0. -1.
</event>
<event>
 5   0  0.2907071E-07  0.3686869E+04  0.7818609E-02  0.8070878E-01
       -1   -1    0    0    0  501  0.00000000000E+00  0.00000000000E+00  0.14889419329E+04  0.14889419329E+04  0.50400001928E-02 0. -1.
        1   -1    0    0  501    0  0.00000000000E+00  0.00000000000E+00 -0.22823256498E+04  0.22823256498E+04  0.50400001928E-02 0.  1.
    10030    2    1    2    0    0  0.00000000000E+00  0.00000000000E+00 -0.79338371695E+03  0.37712675827E+04  0.36868687877E+04 0.  0.
        2    1    3    3  502    0  0.87902394654E+03  0.13357193633E+04 -0.13349802693E+04  0.20830270366E+04  0.25500000920E-02 0.  1.
       -2    1    3    3    0  502 -0.87902394654E+03 -0.13357193633E+04  0.54159655231E+03  0.16882405461E+04  0.25500000920E-02 0. -1.
</event>
<event>
 5   0  0.8421677E-07  0.3202816E+04  0.7818609E-02  0.8188074E-01
       -2   -1    0    0    0  501  0.00000000000E+00  0.00000000000E+00  0.11356105449E+04  0.11356105449E+04  0.25500000920E-02 0.  1.
        2   -1    0    0  501    0  0.00000000000E+00  0.00000000000E+00 -0.22582633856E+04  0.22582633856E+04  0.25500000920E-02 0. -1.
    10030    2    1    2    0    0  0.00000000000E+00  0.00000000000E+00 -0.11226528407E+04  0.33938739306E+04  0.32028160821E+04 0.  0.
        3    1    3    3  502    0  0.96757861127E+03  0.13919476344E+02 -0.19134145130E+04  0.21441915096E+04  0.10100000352E+00 0. -1.
       -3    1    3    3    0  502 -0.96757861127E+03 -0.13919476344E+02  0.79076167228E+03  0.12496824210E+04  0.10100000352E+00 0.  1.
</event>
<event>
 5   0  0.7551495E-07  0.2670112E+04  0.7818609E-02  0.8344768E-01
        2   -1    0    0  501    0  0.00000000000E+00  0.00000000000E+00  0.21624993240E+04  0.21624993240E+04  0.25500000920E-02 0. -1.
       -2   -1    0    0    0  501  0.00000000000E+00  0.00000000000E+00 -0.82421996358E+03  0.82421996358E+03  0.25500000920E-02 0.  1.
    10030    2    1    2    0    0  0.00000000000E+00  0.00000000000E+00  0.13382793605E+04  0.29867192876E+04  0.26701124427E+04 0.  0.
        1    1    3    3  502    0  0.11635024393E+04 -0.43405672437E+02  0.13998634188E+04  0.18207799346E+04  0.50400001928E-02 0. -1.
       -1    1    3    3    0  502 -0.11635024393E+04  0.43405672437E+02 -0.61584058349E+02  0.11659393531E+04  0.50400001928E-02 0.  1.
</event>
<event>
 5   0  0.2529875E-07  0.3884372E+04  0.7818609E-02  0.8028287E-01
        1   -1    0    0  501    0  0.00000000000E+00  0.00000000000E+00  0.17548234428E+04  0.17548234428E+04  0.50400001928E-02 0.  1.
       -1   -1    0    0    0  501  0.00000000000E+00  0.00000000000E+00 -0.21495536506E+04  0.21495536506E+04  0.50400001928E-02 0. -1.
    10030    2    1    2    0    0  0.00000000000E+00  0.00000000000E+00 -0.39473020780E+03  0.39043770934E+04  0.38843723496E+04 0.  0.
        5    1    3    3  502    0  0.73753052136E+03 -0.59921568231E+03 -0.18999167283E+04  0.21243155058E+04  0.46999998093E+01 0. -1.
       -5    1    3    3    0  502 -0.73753052136E+03  0.59921568231E+03  0.15051865205E+04  0.17800615875E+04  0.46999998093E+01 0.  1.
</event>
<event>
 5   0  0.8421677E-07  0.3798882E+04  0.7818609E-02  0.8046395E-01
        2   -1    0    0  501    0  0.00000000000E+00  0.00000000000E+00  0.21351062030E+04  0.21351062030E+04  0.25500000920E-02 0. -1.
       -2   -1    0    0    0  501  0.00000000000E+00  0.00000000000E+00 -0.16897880956E+04  0.16897880956E+04  0.25500000920E-02 0.  1.
    10030    2    1    2    0    0  0.00000000000E+00  0.00000000000E+00  0.44531810746E+03  0.38248942986E+04  0.37988824908E+04 0.  0.
        3    1    3    3  502    0 -0.99728343081E+03  0.36839545680E+03  0.18074722750E+04  0.20969610128E+04  0.10100000352E+00 0. -1.
       -3    1    3    3    0  502  0.99728343081E+03 -0.36839545680E+03 -0.13621541675E+04  0.17279332858E+04  0.10100000352E+00 0.  1.
</event>
<event>
 5   0  0.2529875E-07  0.3948388E+04  0.7818609E-02  0.8015040E-01
       -1   -1    0    0    0  501  0.00000000000E+00  0.00000000000E+00  0.18203964380E+04  0.18203964380E+04  0.50400001928E-02 0. -1.
        1   -1    0    0  501    0  0.00000000000E+00  0.00000000000E+00 -0.21409850295E+04  0.21409850295E+04  0.50400001928E-02 0.  1.
    10030    2    1    2    0    0  0.00000000000E+00  0.00000000000E+00 -0.32058859147E+03  0.39613814675E+04  0.39483877831E+04 0.  0.
        4    1    3    3  502    0  0.16661557623E+04 -0.96341696716E+03 -0.60127759814E+03  0.20163788433E+04  0.12699999809E+01 0. -1.
       -4    1    3    3    0  502 -0.16661557623E+04  0.96341696716E+03  0.28068900668E+03  0.19450026242E+04  0.12699999809E+01 0.  1.
</event>
<event>
 5   0  0.2529875E-07  0.3296447E+04  0.7818609E-02  0.8163800E-01
       -1   -1    0    0    0  501  0.00000000000E+00  0.00000000000E+00  0.14496989882E+04  0.14496989882E+04  0.50400001928E-02 0.  1.
        1   -1    0    0  501    0  0.00000000000E+00  0.00000000000E+00 -0.18739339640E+04  0.18739339640E+04  0.50400001928E-02 0. -1.
    10030    2    1    2    0    0  0.00000000000E+00  0.00000000000E+00 -0.42423497582E+03  0.33236329522E+04  0.32964466757E+04 0.  0.
        1    1    3    3  502    0  0.57425009587E+03 -0.98478326847E+03  0.98811124407E+03  0.15086169458E+04  0.50400001928E-02 0.  1.
       -1    1    3    3    0  502 -0.57425009587E+03  0.98478326847E+03 -0.14123462199E+04  0.18150160064E+04  0.50400001928E-02 0. -1.
</event>
<event>
 5   0  0.2529875E-07  0.2591801E+04  0.7818609E-02  0.8370992E-01
        1   -1    0    0  501    0  0.00000000000E+00  0.00000000000E+00  0.16745200755E+04  0.16745200755E+04  0.50400001928E-02 0.  1.
       -1   -1    0    0    0  501  0.00000000000E+00  0.00000000000E+00 -0.10028891815E+04  0.10028891816E+04  0.50400001928E-02 0. -1.
    10030    2    1    2    0    0  0.00000000000E+00  0.00000000000E+00  0.67163089399E+03  0.26774092571E+04  0.25918009708E+04 0.  0.
        3    1    3    3  502    0  0.10899499287E+04  0.12911745772E+02  0.10598220241E+04  0.15203224307E+04  0.10100000352E+00 0.  1.
       -3    1    3    3    0  502 -0.10899499287E+04 -0.12911745772E+02 -0.38819113010E+03  0.11570868264E+04  0.10100000352E+00 0. -1.
</event>
<event>
 5   0  0.7649458E-07  0.2451119E+04  0.7818609E-02  0.8420609E-01
        2   -1    0    0  501    0  0.00000000000E+00  0.00000000000E+00  0.10429027331E+04  0.10429027331E+04  0.25500000920E-02 0.  1.
       -2   -1    0    0    0  501  0.00000000000E+00  0.00000000000E+00 -0.14402074406E+04  0.14402074406E+04  0.25500000920E-02 0. -1.
    10030    2    1    2    0    0  0.00000000000E+00  0.00000000000E+00 -0.39730470743E+03  0.24831101737E+04  0.24511191534E+04 0.  0.
        4    1    3    3  502    0 -0.61636161717E+03  0.35719399159E+03 -0.12089169976E+04  0.14032003102E+04  0.12699999809E+01 0. -1.
       -4    1    3    3    0  502  0.61636161717E+03 -0.35719399159E+03  0.81161229014E+03  0.10799098634E+04  0.12699999809E+01 0.  1.
</event>
<event>
 5   0  0.7649458E-07  0.3518513E+04  0.7818609E-02  0.8109417E-01
        2   -1    0    0  501    0  0.00000000000E+00  0.00000000000E+00  0.26847039094E+04  0.26847039094E+04  0.25500000920E-02 0. -1.
       -2   -1    0    0    0  501  0.00000000000E+00  0.00000000000E+00 -0.11528208963E+04  0.11528208963E+04  0.25500000920E-02 0.  1.
    10030    2    1    2    0    0  0.00000000000E+00  0.00000000000E+00  0.15318830131E+04  0.38375248057E+04  0.35185126217E+04 0.  0.
        4    1    3    3  502    0  0.20449775797E+03  0.11161409246E+04 -0.70034274844E+03  0.13334434652E+04  0.12699999809E+01 0.  1.
       -4    1    3    3    0  502 -0.20449775797E+03 -0.11161409246E+04  0.22322257616E+04  0.25040813406E+04  0.12699999809E+01 0. -1.
</event>
<event>
 5   0  0.2907071E-07  0.3773503E+04  0.7818609E-02  0.8051865E-01
        1   -1    0    0  501    0  0.00000000000E+00  0.00000000000E+00  0.23955665706E+04  0.23955665706E+04  0.50400001928E-02 0. -1.
       -1   -1    0    0    0  501  0.00000000000E+00  0.00000000000E+00 -0.14860080639E+04  0.14860080639E+04  0.50400001928E-02 0.  1.
    10030    2    1    2    0    0  0.00000000000E+00  0.00000000000E+00  0.90955850675E+03  0.38815746345E+04  0.37735030099E+04 0.  0.
        2    1    3    3  502    0 -0.18571932808E+04 -0.96398485773E+02  0.78228700712E+03  0.20175312914E+04  0.25500000920E-02 0. -1.
       -2    1    3    3    0  502  0.18571932808E+04  0.96398485773E+02  0.12727149963E+03  0.18640433431E+04  0.25500000920E-02 0.  1.
</event>
<event>
 5   0  0.2529875E-07  0.3820076E+04  0.7818609E-02  0.8041860E-01
        1   -1    0    0  501    0  0.00000000000E+00  0.00000000000E+00  0.22807376166E+04  0.22807376166E+04  0.50400001928E-02 0. -1.
       -1   -1    0    0    0  501  0.00000000000E+00  0.00000000000E+00 -0.15995901007E+04  0.15995901007E+04  0.50400001928E-02 0.  1.
    10030    2    1    2    0    0  0.00000000000E+00  0.00000000000E+00  0.68114751592E+03  0.38803277173E+04  0.38200760798E+04 0.  0.
        5    1    3    3  502    0  0.16350539251E+03  0.11033659401E+04  0.19155362019E+04  0.22166306508E+04  0.46999998093E+01 0. -1.
       -5    1    3    3    0  502 -0.16350539251E+03 -0.11033659401E+04 -0.12343886860E+04  0.16636970665E+04  0.46999998093E+01 0.  1.
</event>
<event>
 5   0  0.2529875E-07  0.3191749E+04  0.7818609E-02  0.8191000E-01
       -1   -1    0    0    0  501  0.00000000000E+00  0.00000000000E+00  0.15463354776E+04  0.15463354776E+04  0.50400001928E-02 0. -1.
        1   -1    0    0  501    0  0.00000000000E+00  0.00000000000E+00 -0.16470002590E+04  0.16470002590E+04  0.50400001928E-02 0.  1.
    10030    2    1    2    0    0  0.00000000000E+00  0.00000000000E+00 -0.10066478136E+03  0.31933357366E+04  0.31917486944E+04 0.  0.
        5    1    3    3  502    0  0.15895767316E+04  0.11314799348E+03 -0.13544047369E+03  0.15993507639E+04  0.46999998093E+01 0. -1.
       -5    1    3    3    0  502 -0.15895767316E+04 -0.11314799348E+03  0.34775692325E+02  0.15939849726E+04  0.46999998093E+01 0.  1.
</event>
<event>
 5   0  0.8038352E-07  0.3824621E+04  0.7818609E-02  0.8040892E-01
        2   -1    0    0  501    0  0.00000000000E+00  0.00000000000E+00  0.21870993290E+04  0.21870993290E+04  0.25500000920E-02 0. -1.
       -2   -1    0    0    0  501  0.00000000000E+00  0.00000000000E+00 -0.16720464908E+04  0.16720464908E+04  0.25500000920E-02 0.  1.
    10030    2    1    2    0    0  0.00000000000E+00  0.00000000000E+00  0.51505283817E+03  0.38591458198E+04  0.38246211620E+04 0.  0.
        2    1    3    3  502    0 -0.84092282428E+03  0.89777877153E+03 -0.12198536938E+04  0.17323974582E+04  0.25500000920E-02 0.  1.
       -2    1    3    3    0  502  0.84092282428E+03 -0.89777877153E+03  0.17349065320E+04  0.21267483616E+04  0.25500000920E-02 0. -1.
</event>
<event>
 5   0  0.8421677E-07  0.3802324E+04  0.7818609E-02  0.8045656E-01
       -2   -1    0    0    0  501  0.00000000000E+00  0.00000000000E+00  0.12087291345E+04  0.12087291345E+04  0.25500000920E-02 0.  1.
        2   -1    0    0  501    0  0.00000000000E+00  0.00000000000E+00 -0.29902617627E+04  0.29902617627E+04  0.25500000920E-02 0. -1.
    10030    2    1    2    0    0  0.00000000000E+00  0.00000000000E+00 -0.17815326282E+04  0.41989908972E+04  0.38023237697E+04 0.  0.
        3    1    3    3  502    0  0.85611553106E+03  0.96421815058E+03 -0.24335666304E+04  0.27540691711E+04  0.10100000352E+00 0. -1.
       -3    1    3    3    0  502 -0.85611553106E+03 -0.96421815058E+03  0.65203400218E+03  0.14449217261E+04  0.10100000352E+00 0.  1.
</event>
<event>
 5   0  0.7551495E-07  0.3830125E+04  0.7818609E-02  0.8039721E-01
       -2   -1    0    0    0  501  0.00000000000E+00  0.00000000000E+00  0.14614469772E+04  0.14614469772E+04  0.25500000920E-02 0. -1.
        2   -1    0    0  501    0  0.00000000000E+00  0.00000000000E+00 -0.25094747741E+04  0.25094747741E+04  0.25500000920E-02 0.  1.
    10030    2    1    2    0    0  0.00000000000E+00  0.00000000000E+00 -0.10480277969E+04  0.39709217513E+04  0.38301249708E+04 0.  0.
        1    1    3    3  502    0  0.13039152591E+04 -0.43422248171E+03 -0.19067273821E+04  0.23503943236E+04  0.50400001928E-02 0.  1.
       -1    1    3    3    0  502 -0.13039152591E+04  0.43422248171E+03  0.85869958513E+03  0.16205274278E+04  0.50400001928E-02 0. -1.
</event>
<event>
 5   0  0.8038352E-07  0.3807999E+04  0.7818609E-02  0.8044440E-01
        2   -1    0    0  501    0  0.00000000000E+00  0.00000000000E+00  0.14845819715E+04  0.14845819715E+04  0.25500000920E-02 0. -1.
       -2   -1    0    0    0  501  0.00000000000E+00  0.00000000000E+00 -0.24419095764E+04  0.24419095764E+04  0.25500000920E-02 0.  1.
    10030    2    1    2    0    0  0.00000000000E+00  0.00000000000E+00 -0.95732760492E+03  0.39264915479E+04  0.38079994396E+04 0.  0.
        2    1    3    3  502    0  0.17904642431E+04  0.20392350107E+03 -0.11125011276E+04  0.21177832181E+04  0.25500000920E-02 0. -1.
       -2    1    3    3    0  502 -0.17904642431E+04 -0.20392350107E+03  0.15517352271E+03  0.18087083297E+04  0.25500000920E-02 0.  1.
</event>
<event>
 5   0  0.8421677E-07  0.2700163E+04  0.7818609E-02  0.8334952E-01
        2   -1    0    0  501    0  0.00000000000E+00  0.00000000000E+00  0.13654718367E+04  0.13654718367E+04  0.25500000920E-02 0. -1.
       -2   -1    0    0    0  501  0.00000000000E+00  0.00000000000E+00 -0.13348646282E+04  0.13348646282E+04  0.25500000920E-02 0.  1.
    10030    2    1    2    0    0  0.00000000000E+00  0.00000000000E+00  0.30607208465E+02  0.27003364649E+04  0.27001629992E+04 0.  0.
        3    1    3    3  502    0  0.13249073738E+04  0.19274991610E+03 -0.15845440290E+03  0.13481987566E+04  0.10100000352E+00 0.  1.
       -3    1    3    3    0  502 -0.13249073738E+04 -0.19274991610E+03  0.18906161137E+03  0.13521377083E+04  0.10100000352E+00 0. -1.
</event>
<event>
 5   0  0.2529875E-07  0.3920821E+04  0.7818609E-02  0.8020713E-01
        1   -1    0    0  501    0  0.00000000000E+00  0.00000000000E+00  0.25859253617E+04  0.25859253617E+04  0.50400001928E-02 0. -1.
       -1   -1    0    0    0  501  0.00000000000E+00  0.00000000000E+00 -0.14862028078E+04  0.14862028078E+04  0.50400001928E-02 0.  1.
    10030    2    1    2    0    0  0.00000000000E+00  0.00000000000E+00  0.10997225539E+04  0.40721281694E+04  0.39208211044E+04 0.  0.
        5    1    3    3  502    0 -0.84678035230E+03  0.16291653559E+04 -0.16365180592E+03  0.18433721072E+04  0.46999998093E+01 0.  1.
       -5    1    3    3    0  502  0.84678035230E+03 -0.16291653559E+04  0.12633743598E+04  0.22287560622E+04  0.46999998093E+01 0. -1.
</event>
<event>
 5   0  0.7638805E-07  0.3755403E+04  0.7818609E-02  0.8055794E-01
        2   -1    0    0  501    0  0.00000000000E+00  0.00000000000E+00  0.23318404055E+04  0.23318404055E+04  0.25500000920E-02 0. -1.
       -2   -1    0    0    0  501  0.00000000000E+00  0.00000000000E+00 -0.15120084064E+04  0.15120084064E+04  0.25500000920E-02 0.  1.
    10030    2    1    2    0    0  0.00000000000E+00  0.00000000000E+00  0.81983199901E+03  0.38438488119E+04  0.37554026658E+04 0.  0.
        5    1    3    3  502    0  0.14172737553E+04 -0.66401858513E+03 -0.65189476978E+03  0.16954570062E+04  0.46999998093E+01 0.  1.
       -5    1    3    3    0  502 -0.14172737553E+04  0.66401858513E+03  0.14717267688E+04  0.21483918057E+04  0.46999998093E+01 0. -1.
</event>
<event>
 5   0  0.2529875E-07  0.3858828E+04  0.7818609E-02  0.8033647E-01
        1   -1    0    0  501    0  0.00000000000E+00  0.00000000000E+00  0.20071847884E+04  0.20071847884E+04  0.50400001928E-02 0.  1.
       -1   -1    0    0    0  501  0.00000000000E+00  0.00000000000E+00 -0.18546565744E+04  0.18546565744E+04  0.50400001928E-02 0. -1.
    10030    2    1    2    0    0  0.00000000000E+00  0.00000000000E+00  0.15252821392E+03  0.38618413628E+04  0.38588280417E+04 0.  0.
        5    1    3    3  502    0  0.78441343226E+03  0.92241535039E+02  0.18379805940E+04  0.20005018589E+04  0.46999998093E+01 0.  1.
       -5    1    3    3    0  502 -0.78441343226E+03 -0.92241535039E+02 -0.16854523801E+04  0.18613395039E+04  0.46999998093E+01 0. -1.
</event>
<event>
 5   0  0.2529875E-07  0.3882756E+04  0.7818609E-02  0.8028625E-01
        1   -1    0    0  501    0  0.00000000000E+00  0.00000000000E+00  0.14267567659E+04  0.14267567659E+04  0.50400001928E-02 0. -1.
       -1   -1    0    0    0  501  0.00000000000E+00  0.00000000000E+00 -0.26416193260E+04  0.26416193260E+04  0.50400001928E-02 0.  1.
    10030    2    1    2    0    0  0.00000000000E+00  0.00000000000E+00 -0.12148625601E+04  0.40683760918E+04  0.38827558492E+04 0.  0.
        3    1    3    3  502    0  0.17665369906E+04  0.11827787698E+03  0.22707632241E+03  0.17849947512E+04  0.10100000352E+00 0.  1.
       -3    1    3    3    0  502 -0.17665369906E+04 -0.11827787698E+03 -0.14419388825E+04  0.22833813406E+04  0.10100000352E+00 0. -1.
</event>
<event>
 5   0  0.8421677E-07  0.3811154E+04  0.7818609E-02  0.8043766E-01
        2   -1    0    0  501    0  0.00000000000E+00  0.00000000000E+00  0.14677304102E+04  0.14677304102E+04  0.25500000920E-02 0.  1.
       -2   -1    0    0    0  501  0.00000000000E+00  0.00000000000E+00 -0.24740394947E+04  0.24740394947E+04  0.25500000920E-02 0. -1.
    10030    2    1    2    0    0  0.00000000000E+00  0.00000000000E+00 -0.10063090845E+04  0.39417699049E+04  0.38111536324E+04 0.  0.
        3    1    3    3  502    0  0.77310879836E+03 -0.77091924760E+03  0.11121683435E+04  0.15585031713E+04  0.10100000352E+00 0.  1.
       -3    1    3    3    0  502 -0.77310879836E+03  0.77091924760E+03 -0.21184774280E+04  0.23832667336E+04  0.10100000352E+00 0. -1.
</event>
<event>
 5   0  0.2529875E-07  0.3872321E+04  0.7818609E-02  0.8030811E-01
        1   -1    0    0  501    0  0.00000000000E+00  0.00000000000E+00  0.20137752736E+04  0.20137752736E+04  0.50400001928E-02 0. -1.
       -1   -1    0    0    0  501  0.00000000000E+00  0.00000000000E+00 -0.18615374981E+04  0.18615374981E+04  0.50400001928E-02 0.  1.
    10030    2    1    2    0    0  0.00000000000E+00  0.00000000000E+00  0.15223777544E+03  0.38753127717E+04  0.38723213630E+04 0.  0.
        1    1    3    3  502    0  0.16317063343E+04  0.99659028060E+03 -0.22917485866E+03  0.19256632272E+04  0.50400001928E-02 0.  1.
       -1    1    3    3    0  502 -0.16317063343E+04 -0.99659028060E+03  0.38141263411E+03  0.19496495445E+04  0.50400001928E-02 0. -1.
</event>
<event>
 5   0  0.2529875E-07  0.3706971E+04  0.7818609E-02  0.8066419E-01
       -1   -1    0    0    0  501  0.00000000000E+00  0.00000000000E+00  0.20826564174E+04  0.20826564174E+04  0.50400001928E-02 0. -1.
        1   -1    0    0  501    0  0.00000000000E+00  0.00000000000E+00 -0.16495324749E+04  0.16495324749E+04  0.50400001928E-02 0.  1.
    10030    2    1    2    0    0  0.00000000000E+00  0.00000000000E+00  0.43312394247E+03  0.37321888923E+04  0.37069714833E+04 0.  0.
        3    1    3    3  502    0  0.16838476089E+04 -0.75658801230E+03  0.38394937434E+03  0.18855199077E+04  0.10100000352E+00 0.  1.
       -3    1    3    3    0  502 -0.16838476089E+04  0.75658801230E+03  0.49174568135E+02  0.18466689846E+04  0.10100000352E+00 0. -1.
</event>
<event>
 5   0  0.2529875E-07  0.3116131E+04  0.7818609E-02  0.8211325E-01
        1   -1    0    0  501    0  0.00000000000E+00  0.00000000000E+00  0.15521404774E+04  0.15521404774E+04  0.50400001928E-02 0. -1.
       -1   -1    0    0    0  501  0.00000000000E+00  0.00000000000E+00 -0.15640127306E+04  0.15640127306E+04  0.50400001928E-02 0.  1.
    10030    2    1    2    0    0  0.00000000000E+00  0.00000000000E+00 -0.11872253195E+02  0.31161532080E+04  0.31161305919E+04 0.  0.
        4    1    3    3  502    0 -0.78785203855E+03  0.10085717280E+03  0.13344775892E+04  0.15529697527E+04  0.12699999809E+01 0. -1.
       -4    1    3    3    0  502  0.78785203855E+03 -0.10085717280E+03 -0.13463498424E+04  0.15631834553E+04  0.12699999809E+01 0.  1.
</event>
<event>
 5   0  0.2529875E-07  0.3933895E+04  0.7818609E-02  0.8018016E-01
       -1   -1    0    0    0  501  0.00000000000E+00  0.00000000000E+00  0.29985565680E+04  0.29985565680E+04  0.50400001928E-02 0. -1.
        1   -1    0    0  501    0  0.00000000000E+00  0.00000000000E+00 -0.12902485387E+04  0.12902485387E+04  0.50400001928E-02 0.  1.
    10030    2    1    2    0    0  0.00000000000E+00  0.00000000000E+00  0.17083080293E+04  0.42888051068E+04  0.39338953877E+04 0.  0.
        5    1    3    3  502    0 -0.38069171597E+03  0.63098499091E+03 -0.11340507281E+04  0.13524649294E+04  0.46999998093E+01 0.  1.
       -5    1    3    3    0  502  0.38069171597E+03 -0.63098499091E+03  0.28423587574E+04  0.29363401774E+04  0.46999998093E+01 0. -1.
</event>
<event>
 5   0  0.7649458E-07  0.3762825E+04  0.7818609E-02  0.8054180E-01
        2   -1    0    0  501    0  0.00000000000E+00  0.00000000000E+00  0.10991255919E+04  0.10991255919E+04  0.25500000920E-02 0. -1.
       -2   -1    0    0    0  501  0.00000000000E+00  0.00000000000E+00 -0.32204817722E+04  0.32204817722E+04  0.25500000920E-02 0.  1.
    10030    2    1    2    0    0  0.00000000000E+00  0.00000000000E+00 -0.21213561803E+04  0.43196073641E+04  0.37628254991E+04 0.  0.
        4    1    3    3  502    0 -0.11849368028E+04 -0.63135480524E+03  0.45230345136E+03  0.14167794965E+04  0.12699999809E+01 0. -1.
       -4    1    3    3    0  502  0.11849368028E+04  0.63135480524E+03 -0.25736596317E+04  0.29028278677E+04  0.12699999809E+01 0.  1.
</event>
<event>
 5   0  0.7551495E-07  0.3771789E+04  0.7818609E-02  0.8052236E-01
        2   -1    0    0  501    0  0.00000000000E+00  0.00000000000E+00  0.18672235685E+04  0.18672235685E+04  0.25500000920E-02 0.  1.
       -2   -1    0    0    0  501  0.00000000000E+00  0.00000000000E+00 -0.19047521825E+04  0.19047521825E+04  0.25500000920E-02 0. -1.
    10030    2    1    2    0    0  0.00000000000E+00  0.00000000000E+00 -0.37528613953E+02  0.37719757510E+04  0.37717890542E+04 0.  0.
        1    1    3    3  502    0  0.10023289092E+03  0.10589325696E+02  0.18645281543E+04  0.18672503861E+04  0.50400001928E-02 0.  1.
       -1    1    3    3    0  502 -0.10023289092E+03 -0.10589325696E+02 -0.19020567682E+04  0.19047253649E+04  0.50400001928E-02 0. -1.
</event>
<event>
 5   0  0.2529875E-07  0.2824835E+04  0.7818609E-02  0.8295599E-01
        1   -1    0    0  501    0  0.00000000000E+00  0.00000000000E+00  0.12562176567E+04  0.12562176567E+04  0.50400001928E-02 0. -1.
       -1   -1    0    0    0  501  0.00000000000E+00  0.00000000000E+00 -0.15880398801E+04  0.15880398801E+04  0.50400001928E-02 0.  1.
    10030    2    1    2    0    0  0.00000000000E+00  0.00000000000E+00 -0.33182222345E+03  0.28442575368E+04  0.28248353842E+04 0.  0.
        4    1    3    3  502    0 -0.57049677670E+03  0.11855915299E+04 -0.68308482522E+03  0.14824642793E+04  0.12699999809E+01 0.  1.
       -4    1    3    3    0  502  0.57049677670E+03 -0.11855915299E+04  0.35126260178E+03  0.13617932576E+04  0.12699999809E+01 0. -1.
</event>
<event>
 5   0  0.1070236E-06  0.2377139E+04  0.7818609E-02  0.8448112E-01
       -2   -1    0    0    0  501  0.00000000000E+00  0.00000000000E+00  0.93879934189E+03  0.93879934190E+03  0.25500000920E-02 0. -1.
        2   -1    0    0  501    0  0.00000000000E+00  0.00000000000E+00 -0.15047915495E+04  0.15047915495E+04  0.25500000920E-02 0.  1.
    10030    2    1    2    0    0  0.00000000000E+00  0.00000000000E+00 -0.56599220757E+03  0.24435908914E+04  0.23771388822E+04 0.  0.
        2    1    3    3  502    0  0.71393404912E+03  0.42879085328E+03  0.58872753091E+03  0.10198840758E+04  0.25500000920E-02 0. -1.
       -2    1    3    3    0  502 -0.71393404912E+03 -0.42879085328E+03 -0.11547197385E+04  0.14237068156E+04  0.25500000920E-02 0.  1.
</event>
<event>
 5   0  0.2529875E-07  0.3862132E+04  0.7818609E-02  0.8032951E-01
       -1   -1    0    0    0  501  0.00000000000E+00  0.00000000000E+00  0.29865218621E+04  0.29865218621E+04  0.50400001928E-02 0. -1.
        1   -1    0    0  501    0  0.00000000000E+00  0.00000000000E+00 -0.12486148319E+04  0.12486148319E+04  0.50400001928E-02 0.  1.
    10030    2    1    2    0    0  0.00000000000E+00  0.00000000000E+00  0.17379070302E+04  0.42351366940E+04  0.38621317911E+04 0.  0.
        5    1    3    3  502    0  0.16423551570E+04 -0.80573003848E+03  0.15471171764E+04  0.23958557979E+04  0.46999998093E+01 0. -1.
       -5    1    3    3    0  502 -0.16423551570E+04  0.80573003848E+03  0.19078985377E+03  0.18392808961E+04  0.46999998093E+01 0.  1.
</event>
<event>
 5   0  0.8038352E-07  0.3630343E+04  0.7818609E-02  0.8083576E-01
       -2   -1    0    0    0  501  0.00000000000E+00  0.00000000000E+00  0.17120792798E+04  0.17120792798E+04  0.25500000920E-02 0.  1.
        2   -1    0    0  501    0  0.00000000000E+00  0.00000000000E+00 -0.19244713840E+04  0.19244713840E+04  0.25500000920E-02 0. -1.
    10030    2    1    2    0    0  0.00000000000E+00  0.00000000000E+00 -0.21239210424E+03  0.36365506639E+04  0.36303430037E+04 0.  0.
        2    1    3    3  502    0  0.75310795340E+01  0.13984299447E+04  0.10530141590E+04  0.17505718627E+04  0.25500000920E-02 0.  1.
       -2    1    3    3    0  502 -0.75310795340E+01 -0.13984299447E+04 -0.12654062632E+04  0.18859788012E+04  0.25500000920E-02 0. -1.
</event>
<event>
 5   0  0.2529875E-07  0.2694974E+04  0.7818609E-02  0.8336638E-01
        1   -1    0    0  501    0  0.00000000000E+00  0.00000000000E+00  0.20078251092E+04  0.20078251092E+04  0.50400001928E-02 0. -1.
       -1   -1    0    0    0  501  0.00000000000E+00  0.00000000000E+00 -0.90432245040E+03  0.90432245042E+03  0.50400001928E-02 0.  1.
    10030    2    1    2    0    0  0.00000000000E+00  0.00000000000E+00  0.11035026588E+04  0.29121475596E+04  0.26949740798E+04 0.  0.
        4    1    3    3  502    0 -0.83838354210E+03 -0.99858202116E+02 -0.58304831499E+03  0.10260631436E+04  0.12699999809E+01 0.  1.
       -4    1    3    3    0  502  0.83838354210E+03  0.99858202116E+02  0.16865509738E+04  0.18860844160E+04  0.12699999809E+01 0. -1.
</event>
<event>
 5   0  0.2529875E-07  0.3730428E+04  0.7818609E-02  0.8061252E-01
        1   -1    0    0  501    0  0.00000000000E+00  0.00000000000E+00  0.27390911174E+04  0.27390911175E+04  0.50400001928E-02 0. -1.
       -1   -1    0    0    0  501  0.00000000000E+00  0.00000000000E+00 -0.12701379636E+04  0.12701379637E+04  0.50400001928E-02 0.  1.
    10030    2    1    2    0    0  0.00000000000E+00  0.00000000000E+00  0.14689531538E+04  0.40092290811E+04  0.37304281868E+04 0.  0.
        4    1    3    3  502    0  0.88154250741E+03  0.12979658458E+04 -0.34945811463E+03  0.16074685428E+04  0.12699999809E+01 0.  1.
       -4    1    3    3    0  502 -0.88154250741E+03 -0.12979658458E+04  0.18184112684E+04  0.24017605383E+04  0.12699999809E+01 0. -1.
</event>
<event>
 5   0  0.2529875E-07  0.2657826E+04  0.7818609E-02  0.8348820E-01
       -1   -1    0    0    0  501  0.00000000000E+00  0.00000000000E+00  0.13550739506E+04  0.13550739506E+04  0.50400001928E-02 0. -1.
        1   -1    0    0  501    0  0.00000000000E+00  0.00000000000E+00 -0.13032572553E+04  0.13032572554E+04  0.50400001928E-02 0.  1.
    10030    2    1    2    0    0  0.00000000000E+00  0.00000000000E+00  0.51816695273E+02  0.26583312060E+04  0.26578261476E+04 0.  0.
        4    1    3    3  502    0 -0.81764591786E+03 -0.24236339071E+03  0.10452798662E+04  0.13490353857E+04  0.12699999809E+01 0. -1.
       -4    1    3    3    0  502  0.81764591786E+03  0.24236339071E+03 -0.99346317096E+03  0.13092958203E+04  0.12699999809E+01 0.  1.
</event>
<event>
 5   0  0.8038352E-07  0.2349746E+04  0.7818609E-02  0.8458561E-01
        2   -1    0    0  501    0  0.00000000000E+00  0.00000000000E+00  0.76282989634E+03  0.76282989634E+03  0.25500000920E-02 0. -1.
       -2   -1    0    0    0  501  0.00000000000E+00  0.00000000000E+00 -0.18094821715E+04  0.18094821715E+04  0.25500000920E-02 0.  1.
    10030    2    1    2    0    0  0.00000000000E+00  0.00000000000E+00 -0.10466522752E+04  0.25723120679E+04  0.23497464521E+04 0.  0.
        2    1    3    3  502    0 -0.79119659930E+03  0.41911834191E+03 -0.13560863323E+04  0.16249991951E+04  0.25500000920E-02 0.  1.
       -2    1    3    3    0  502  0.79119659930E+03 -0.41911834191E+03  0.30943405712E+03  0.94731287280E+03  0.25500000920E-02 0. -1.
</event>
<event>
 5   0  0.2529875E-07  0.3851658E+04  0.7818609E-02  0.8035159E-01
        3   -1    0    0  501    0  0.00000000000E+00  0.00000000000E+00  0.25198977591E+04  0.25198977611E+04  0.10100000352E+00 0. -1.
       -3   -1    0    0    0  501  0.00000000000E+00  0.00000000000E+00 -0.14718124246E+04  0.14718124280E+04  0.10100000352E+00 0.  1.
    10030    2    1    2    0    0  0.00000000000E+00  0.00000000000E+00  0.10480853345E+04  0.39917101891E+04  0.38516577425E+04 0.  0.
        3    1    3    3  502    0 -0.80550726952E+03  0.17418536198E+04  0.69089636057E+03  0.20396651160E+04  0.10100000352E+00 0.  1.
       -3    1    3    3    0  502  0.80550726952E+03 -0.17418536198E+04  0.35718897391E+03  0.19520450731E+04  0.10100000352E+00 0. -1.
</event>
<event>
 5   0  0.7638805E-07  0.3815219E+04  0.7818609E-02  0.8042897E-01
        2   -1    0    0  501    0  0.00000000000E+00  0.00000000000E+00  0.17986139033E+04  0.17986139033E+04  0.25500000920E-02 0.  1.
       -2   -1    0    0    0  501  0.00000000000E+00  0.00000000000E+00 -0.20232106164E+04  0.20232106164E+04  0.25500000920E-02 0. -1.
    10030    2    1    2    0    0  0.00000000000E+00  0.00000000000E+00 -0.22459671316E+03  0.38218245197E+04  0.38152193877E+04 0.  0.
        5    1    3    3  502    0  0.78892985345E+03  0.16722021764E+04 -0.58245323842E+03  0.19385417966E+04  0.46999998093E+01 0. -1.
       -5    1    3    3    0  502 -0.78892985345E+03 -0.16722021764E+04  0.35785652526E+03  0.18832827231E+04  0.46999998093E+01 0.  1.
</event>
<event>
 5   0  0.7638805E-07  0.3639588E+04  0.7818609E-02  0.8081483E-01
        2   -1    0    0  501    0  0.00000000000E+00  0.00000000000E+00  0.30647448824E+04  0.30647448824E+04  0.25500000920E-02 0. -1.
       -2   -1    0    0    0  501  0.00000000000E+00  0.00000000000E+00 -0.10805629321E+04  0.10805629321E+04  0.25500000920E-02 0.  1.
    10030    2    1    2    0    0  0.00000000000E+00  0.00000000000E+00  0.19841819502E+04  0.41453078145E+04  0.36395877329E+04 0.  0.
        5    1    3    3  502    0  0.13511682922E+04  0.67026645575E+03  0.21517604654E+04  0.26277382035E+04  0.46999998093E+01 0. -1.
       -5    1    3    3    0  502 -0.13511682922E+04 -0.67026645575E+03 -0.16757851511E+03  0.15175696110E+04  0.46999998093E+01 0.  1.
</event>
<event>
 5   0  0.7649458E-07  0.3714601E+04  0.7818609E-02  0.8064734E-01
        2   -1    0    0  501    0  0.00000000000E+00  0.00000000000E+00  0.19358982419E+04  0.19358982419E+04  0.25500000920E-02 0.  1.
       -2   -1    0    0    0  501  0.00000000000E+00  0.00000000000E+00 -0.17818938717E+04  0.17818938717E+04  0.25500000920E-02 0. -1.
    10030    2    1    2    0    0  0.00000000000E+00  0.00000000000E+00  0.15400437016E+03  0.37177921136E+04  0.37146010357E+04 0.  0.
        4    1    3    3  502    0  0.89386373153E+03 -0.16072748905E+04 -0.18252475116E+03  0.18481455143E+04  0.12699999809E+01 0.  1.
       -4    1    3    3    0  502 -0.89386373153E+03  0.16072748905E+04  0.33652912132E+03  0.18696465994E+04  0.12699999809E+01 0. -1.
</event>
<event>
 5   0  0.2529875E-07  0.3801165E+04  0.7818609E-02  0.8045905E-01
       -1   -1    0    0    0  501  0.00000000000E+00  0.00000000000E+00  0.18214042314E+04  0.18214042315E+04  0.50400001928E-02 0. -1.
        1   -1    0    0  501    0  0.00000000000E+00  0.00000000000E+00 -0.19832027319E+04  0.19832027319E+04  0.50400001928E-02 0.  1.
    10030    2    1    2    0    0  0.00000000000E+00  0.00000000000E+00 -0.16179850040E+03  0.38046069633E+04  0.38011650044E+04 0.  0.
        4    1    3    3  502    0  0.49414480534E+03 -0.32108152898E+03 -0.18894498543E+04  0.19792157037E+04  0.12699999809E+01 0.  1.
       -4    1    3    3    0  502 -0.49414480534E+03  0.32108152898E+03  0.17276513539E+04  0.18253912596E+04  0.12699999809E+01 0. -1.
</event>
<event>
 5   0  0.2907071E-07  0.3761864E+04  0.7818609E-02  0.8054389E-01
       -1   -1    0    0    0  501  0.00000000000E+00  0.00000000000E+00  0.15226776075E+04  0.15226776075E+04  0.50400001928E-02 0. -1.
        1   -1    0    0  501    0  0.00000000000E+00  0.00000000000E+00 -0.23234763798E+04  0.23234763798E+04  0.50400001928E-02 0.  1.
    10030    2    1    2    0    0  0.00000000000E+00  0.00000000000E+00 -0.80079877232E+03  0.38461539873E+04  0.37618641417E+04 0.  0.
        2    1    3    3  502    0 -0.92034211054E+03 -0.15601881530E+04 -0.91839610109E+03  0.20309278844E+04  0.25500000920E-02 0.  1.
       -2    1    3    3    0  502  0.92034211054E+03  0.15601881530E+04  0.11759732877E+03  0.18152261029E+04  0.25500000920E-02 0. -1.
</event>
<event>
 5   0  0.8038352E-07  0.3799975E+04  0.7818609E-02  0.8046160E-01
        2   -1    0    0  501    0  0.00000000000E+00  0.00000000000E+00  0.19141824925E+04  0.19141824925E+04  0.25500000920E-02 0.  1.
       -2   -1    0    0    0  501  0.00000000000E+00  0.00000000000E+00 -0.18858979730E+04  0.18858979730E+04  0.25500000920E-02 0. -1.
    10030    2    1    2    0    0  0.00000000000E+00  0.00000000000E+00  0.28284519561E+02  0.38000804655E+04  0.37999752012E+04 0.  0.
        2    1    3    3  502    0  0.13476024662E+04  0.11813565703E+04  0.64528344638E+03  0.19047379031E+04  0.25500000920E-02 0.  1.
       -2    1    3    3    0  502 -0.13476024662E+04 -0.11813565703E+04 -0.61699892681E+03  0.18953425624E+04  0.25500000920E-02 0. -1.
</event>
<event>
 5   0  0.2907071E-07  0.3763595E+04  0.7818609E-02  0.8054013E-01
       -1   -1    0    0    0  501  0.00000000000E+00  0.00000000000E+00  0.19304589979E+04  0.19304589979E+04  0.50400001928E-02 0.  1.
        1   -1    0    0  501    0  0.00000000000E+00  0.00000000000E+00 -0.18343624537E+04  0.18343624537E+04  0.50400001928E-02 0. -1.
    10030    2    1    2    0    0  0.00000000000E+00  0.00000000000E+00  0.96096544189E+02  0.37648214516E+04  0.37635948263E+04 0.  0.
        2    1    3    3  502    0 -0.48836195019E+03 -0.17093551436E+04  0.66531429478E+03  0.18981663552E+04  0.25500000920E-02 0.  1.
       -2    1    3    3    0  502  0.48836195019E+03  0.17093551436E+04 -0.56921775060E+03  0.18666550964E+04  0.25500000920E-02 0. -1.
</event>
<event>
 5   0  0.8421677E-07  0.3765164E+04  0.7818609E-02  0.8053672E-01
       -2   -1    0    0    0  501  0.00000000000E+00  0.00000000000E+00  0.21802368887E+04  0.21802368887E+04  0.25500000920E-02 0.  1.
        2   -1    0    0  501    0  0.00000000000E+00  0.00000000000E+00 -0.16255641171E+04  0.16255641171E+04  0.25500000920E-02 0. -1.
    10030    2    1    2    0    0  0.00000000000E+00  0.00000000000E+00  0.55467277158E+03  0.38058010058E+04  0.37651639290E+04 0.  0.
        3    1    3    3  502    0 -0.14477493887E+04  0.44920258703E+03  0.14057876851E+04  0.20673655416E+04  0.10100000352E+00 0. -1.
       -3    1    3    3    0  502  0.14477493887E+04 -0.44920258703E+03 -0.85111491355E+03  0.17384354642E+04  0.10100000352E+00 0.  1.
</event>
<event>
 5   0  0.7638805E-07  0.2433752E+04  0.7818609E-02  0.8426974E-01
       -2   -1    0    0    0  501  0.00000000000E+00  0.00000000000E+00  0.78598585386E+03  0.78598585386E+03  0.25500000920E-02 0.  1.
        2   -1    0    0  501    0  0.00000000000E+00  0.00000000000E+00 -0.18839865523E+04  0.18839865523E+04  0.25500000920E-02 0. -1.
    10030    2    1    2    0    0  0.00000000000E+00  0.00000000000E+00 -0.10980006984E+04  0.26699724062E+04  0.24337516545E+04 0.  0.
        5    1    3    3  502    0 -0.58833580498E+02  0.10280573170E+04 -0.12603164134E+04  0.16275081533E+04  0.46999998093E+01 0. -1.
       -5    1    3    3    0  502  0.58833580498E+02 -0.10280573170E+04  0.16231571496E+03  0.10424642529E+04  0.46999998093E+01 0.  1.
</event>
<event>
 5   0  0.2529875E-07  0.3761700E+04  0.7818609E-02  0.8054424E-01
        1   -1    0    0  501    0  0.00000000000E+00  0.00000000000E+00  0.24904166522E+04  0.24904166522E+04  0.50400001928E-02 0.  1.
       -1   -1    0    0    0  501  0.00000000000E+00  0.00000000000E+00 -0.14204841813E+04  0.14204841813E+04  0.50400001928E-02 0. -1.
    10030    2    1    2    0    0  0.00000000000E+00  0.00000000000E+00  0.10699324709E+04  0.39109008334E+04  0.37617003917E+04 0.  0.
        5    1    3    3  502    0 -0.48230543774E+03  0.93632921750E+03 -0.10851224996E+04  0.15122314201E+04  0.46999998093E+01 0. -1.
       -5    1    3    3    0  502  0.48230543774E+03 -0.93632921750E+03  0.21550549705E+04  0.23986694133E+04  0.46999998093E+01 0.  1.
</event>
<event>
 5   0  0.2529875E-07  0.3913137E+04  0.7818609E-02  0.8022302E-01
        1   -1    0    0  501    0  0.00000000000E+00  0.00000000000E+00  0.12251562999E+04  0.12251562999E+04  0.50400001928E-02 0.  1.
       -1   -1    0    0    0  501  0.00000000000E+00  0.00000000000E+00 -0.31246301358E+04  0.31246301358E+04  0.50400001928E-02 0. -1.
    10030    2    1    2    0    0  0.00000000000E+00  0.00000000000E+00 -0.18994738358E+04  0.43497864357E+04  0.39131370003E+04 0.  0.
        3    1    3    3  502    0 -0.16926143824E+04 -0.66177515964E+03 -0.17553645939E+04  0.25266963959E+04  0.10100000352E+00 0. -1.
       -3    1    3    3    0  502  0.16926143824E+04  0.66177515964E+03 -0.14410924195E+03  0.18230900398E+04  0.10100000352E+00 0.  1.
</event>
<event>
 5   0  0.8421677E-07  0.3789452E+04  0.7818609E-02  0.8048422E-01
       -2   -1    0    0    0  501  0.00000000000E+00  0.00000000000E+00  0.14178837740E+04  0.14178837740E+04  0.25500000920E-02 0. -1.
        2   -1    0    0  501    0  0.00000000000E+00  0.00000000000E+00 -0.25319327394E+04  0.25319327394E+04  0.25500000920E-02 0.  1.
    10030    2    1    2    0    0  0.00000000000E+00  0.00000000000E+00 -0.11140489655E+04  0.39498165134E+04  0.37894518591E+04 0.  0.
        3    1    3    3  502    0  0.17355091623E+04 -0.16489684439E+02 -0.13492706034E+04  0.21983619205E+04  0.10100000352E+00 0.  1.
       -3    1    3    3    0  502 -0.17355091623E+04  0.16489684439E+02  0.23522163798E+03  0.17514545929E+04  0.10100000352E+00 0. -1.
</event>
<event>
 5   0  0.7551495E-07  0.3693306E+04  0.7818609E-02  0.8069447E-01
       -2   -1    0    0    0  501  0.00000000000E+00  0.00000000000E+00  0.12329434380E+04  0.12329434380E+04  0.25500000920E-02 0.  1.
        2   -1    0    0  501    0  0.00000000000E+00  0.00000000000E+00 -0.27658430527E+04  0.27658430527E+04  0.25500000920E-02 0. -1.
    10030    2    1    2    0    0  0.00000000000E+00  0.00000000000E+00 -0.15328996146E+04  0.39987864907E+04  0.36933064007E+04 0.  0.
        1    1    3    3  502    0 -0.34079142820E+03  0.12558849073E+04 -0.21850677132E+04  0.25432079367E+04  0.50400001928E-02 0. -1.
       -1    1    3    3    0  502  0.34079142820E+03 -0.12558849073E+04  0.65216809856E+03  0.14555785540E+04  0.50400001928E-02 0.  1.
</event>
<event>
 5   0  0.7551495E-07  0.4063233E+04  0.7818609E-02  0.7991910E-01
        2   -1    0    0  501    0  0.00000000000E+00  0.00000000000E+00  0.23636281191E+04  0.23636281191E+04  0.25500000920E-02 0.  1.
       -2   -1    0    0    0  501  0.00000000000E+00  0.00000000000E+00 -0.17462418361E+04  0.17462418361E+04  0.25500000920E-02 0. -1.
    10030    2    1    2    0    0  0.00000000000E+00  0.00000000000E+00  0.61738628304E+03  0.41098699552E+04  0.40632333463E+04 0.  0.
        1    1    3    3  502    0 -0.42243889072E+03 -0.15991038921E+04  0.15020132771E+04  0.22341959983E+04  0.50400001928E-02 0.  1.
       -1    1    3    3    0  502  0.42243889072E+03  0.15991038921E+04 -0.88462699408E+03  0.18756739569E+04  0.50400001928E-02 0. -1.
</event>
<event>
 5   0  0.8038352E-07  0.3882415E+04  0.7818609E-02  0.8028697E-01
        2   -1    0    0  501    0  0.00000000000E+00  0.00000000000E+00  0.11715806545E+04  0.11715806545E+04  0.25500000920E-02 0.  1.
       -2   -1    0    0    0  501  0.00000000000E+00  0.00000000000E+00 -0.32164123086E+04  0.32164123086E+04  0.25500000920E-02 0. -1.
    10030    2    1    2    0    0  0.00000000000E+00  0.00000000000E+00 -0.20448316541E+04  0.43879929631E+04  0.38824149379E+04 0.  0.
        2    1    3    3  502    0 -0.46295810571E+03  0.85883600791E+03 -0.29191559058E+04  0.30778890003E+04  0.25500000920E-02 0. -1.
       -2    1    3    3    0  502  0.46295810571E+03 -0.85883600791E+03  0.87432425167E+03  0.13101039627E+04  0.25500000920E-02 0.  1.
</event>
<event>
 5   0  0.2529875E-07  0.2475964E+04  0.7818609E-02  0.8411599E-01
       -1   -1    0    0    0  501  0.00000000000E+00  0.00000000000E+00  0.14533514153E+04  0.14533514154E+04  0.50400001928E-02 0. -1.
        1   -1    0    0  501    0  0.00000000000E+00  0.00000000000E+00 -0.10545276455E+04  0.10545276455E+04  0.50400001928E-02 0.  1.
    10030    2    1    2    0    0  0.00000000000E+00  0.00000000000E+00  0.39882376990E+03  0.25078790608E+04  0.24759638495E+04 0.  0.
        1    1    3    3  502    0 -0.10260454711E+04  0.33238832205E+03  0.81498569023E+03  0.13518331926E+04  0.50400001928E-02 0. -1.
       -1    1    3    3    0  502  0.10260454711E+04 -0.33238832205E+03 -0.41616192033E+03  0.11560458682E+04  0.50400001928E-02 0.  1.
</event>
<event>
 5   0  0.7551495E-07  0.2870601E+04  0.7818609E-02  0.8281679E-01
        2   -1    0    0  501    0  0.00000000000E+00  0.00000000000E+00  0.94845761653E+03  0.94845761654E+03  0.25500000920E-02 0. -1.
       -2   -1    0    0    0  501  0.00000000000E+00  0.00000000000E+00 -0.21720394416E+04  0.21720394416E+04  0.25500000920E-02 0.  1.
    10030    2    1    2    0    0  0.00000000000E+00  0.00000000000E+00 -0.12235818250E+04  0.31204970581E+04  0.28706008791E+04 0.  0.
        1    1    3    3  502    0 -0.18942334591E+03  0.40361192934E+03 -0.20948538021E+04  0.21417740884E+04  0.50400001928E-02 0.  1.
       -1    1    3    3    0  502  0.18942334591E+03 -0.40361192934E+03  0.87127197705E+03  0.97872296974E+03  0.50400001928E-02 0. -1.
</event>
<event>
 5   0  0.7649458E-07  0.3832032E+04  0.7818609E-02  0.8039316E-01
        2   -1    0    0  501    0  0.00000000000E+00  0.00000000000E+00  0.17850823595E+04  0.17850823595E+04  0.25500000920E-02 0. -1.
       -2   -1    0    0    0  501  0.00000000000E+00  0.00000000000E+00 -0.20565529585E+04  0.20565529585E+04  0.25500000920E-02 0.  1.
    10030    2    1    2    0    0  0.00000000000E+00  0.00000000000E+00 -0.27147059907E+03  0.38416353180E+04  0.38320315278E+04 0.  0.
        4    1    3    3  502    0  0.15633708957E+04 -0.33736460126E+03 -0.11934488655E+04  0.19955613844E+04  0.12699999809E+01 0.  1.
       -4    1    3    3    0  502 -0.15633708957E+04  0.33736460126E+03  0.92197826640E+03  0.18460739336E+04  0.12699999809E+01 0. -1.
</event>
<event>
 5   0  0.8421677E-07  0.3328513E+04  0.7818609E-02  0.8155678E-01
        2   -1    0    0  501    0  0.00000000000E+00  0.00000000000E+00  0.16506885570E+04  0.16506885570E+04  0.25500000920E-02 0.  1.
       -2   -1    0    0    0  501  0.00000000000E+00  0.00000000000E+00 -0.16779360127E+04  0.16779360127E+04  0.25500000920E-02 0. -1.
    10030    2    1    2    0    0  0.00000000000E+00  0.00000000000E+00 -0.27247455750E+02  0.33286245697E+04  0.33285130467E+04 0.  0.
        3    1    3    3  502    0 -0.12424160391E+04  0.85235392752E+03 -0.72050307783E+03  0.16700986580E+04  0.10100000352E+00 0.  1.
       -3    1    3    3    0  502  0.12424160391E+04 -0.85235392752E+03  0.69325562208E+03  0.16585259117E+04  0.10100000352E+00 0. -1.
</event>
<event>
 5   0  0.2529875E-07  0.3769963E+04  0.7818609E-02  0.8052632E-01
       -1   -1    0    0    0  501  0.00000000000E+00  0.00000000000E+00  0.18500059828E+04  0.18500059828E+04  0.50400001928E-02 0.  1.
        1   -1    0    0  501    0  0.00000000000E+00  0.00000000000E+00 -0.19206177909E+04  0.19206177909E+04  0.50400001928E-02 0. -1.
    10030    2    1    2    0    0  0.00000000000E+00  0.00000000000E+00 -0.70611808160E+02  0.37706237737E+04  0.37699625483E+04 0.  0.
        5    1    3    3  502    0  0.18358438765E+03  0.13573927211E+04 -0.13304902065E+04  0.19095665755E+04  0.46999998093E+01 0. -1.
       -5    1    3    3    0  502 -0.18358438765E+03 -0.13573927211E+04  0.12598783983E+04  0.18610571983E+04  0.46999998093E+01 0.  1.
</event>
<event>
 5   0  0.2907071E-07  0.3092597E+04  0.7818609E-02  0.8217773E-01
        1   -1    0    0  501    0  0.00000000000E+00  0.00000000000E+00  0.31401531831E+04  0.31401531831E+04  0.50400001928E-02 0.  1.
       -1   -1    0    0    0  501  0.00000000000E+00  0.00000000000E+00 -0.76144002259E+03  0.76144002260E+03  0.50400001928E-02 0. -1.
    10030    2    1    2    0    0  0.00000000000E+00  0.00000000000E+00  0.23787131605E+04  0.39015932057E+04  0.30925965212E+04 0.  0.
        2    1    3    3  502    0 -0.12553742370E+04 -0.22579672218E+03  0.22921416790E+04  0.26231397430E+04  0.25500000920E-02 0.  1.
       -2    1    3    3    0  502  0.12553742370E+04  0.22579672218E+03  0.86571481422E+02  0.12784534626E+04  0.25500000920E-02 0. -1.
</event>
<event>
 5   0  0.7551495E-07  0.2419094E+04  0.7818609E-02  0.8432390E-01
       -2   -1    0    0    0  501  0.00000000000E+00  0.00000000000E+00  0.11235446290E+04  0.11235446290E+04  0.25500000920E-02 0.  1.
        2   -1    0    0  501    0  0.00000000000E+00  0.00000000000E+00 -0.13021323087E+04  0.13021323087E+04  0.25500000920E-02 0. -1.
    10030    2    1    2    0    0  0.00000000000E+00  0.00000000000E+00 -0.17858767972E+03  0.24256769377E+04  0.24190938483E+04 0.  0.
        1    1    3    3  502    0  0.17752610289E+03  0.83093845047E+02  0.11075134366E+04  0.11247249071E+04  0.50400001928E-02 0.  1.
       -1    1    3    3    0  502 -0.17752610289E+03 -0.83093845047E+02 -0.12861011164E+04  0.13009520306E+04  0.50400001928E-02 0. -1.
</event>
<event>
 5   0  0.7649458E-07  0.3769161E+04  0.7818609E-02  0.8052805E-01
       -2   -1    0    0    0  501  0.00000000000E+00  0.00000000000E+00  0.12891955854E+04  0.12891955854E+04  0.25500000920E-02 0.  1.
        2   -1    0    0  501    0  0.00000000000E+00  0.00000000000E+00 -0.27549299607E+04  0.27549299607E+04  0.25500000920E-02 0. -1.
    10030    2    1    2    0    0  0.00000000000E+00  0.00000000000E+00 -0.14657343753E+04  0.40441255462E+04  0.37691609377E+04 0.  0.
        4    1    3    3  502    0 -0.13714345999E+04  0.10314745601E+03 -0.21153386834E+04  0.25231194221E+04  0.12699999809E+01 0. -1.
       -4    1    3    3    0  502  0.13714345999E+04 -0.10314745601E+03  0.64960430815E+03  0.15210061241E+04  0.12699999809E+01 0.  1.
</event>
<event>
 5   0  0.8421677E-07  0.3696506E+04  0.7818609E-02  0.8068737E-01
       -2   -1    0    0    0  501  0.00000000000E+00  0.00000000000E+00  0.19781801120E+04  0.19781801120E+04  0.25500000920E-02 0. -1.
        2   -1    0    0  501    0  0.00000000000E+00  0.00000000000E+00 -0.17268597425E+04  0.17268597425E+04  0.25500000920E-02 0.  1.
    10030    2    1    2    0    0  0.00000000000E+00  0.00000000000E+00  0.25132036955E+03  0.37050398545E+04  0.36965062417E+04 0.  0.
        3    1    3    3  502    0  0.36085756785E+03  0.60852321805E+03 -0.15857713083E+04  0.17364300572E+04  0.10100000352E+00 0.  1.
       -3    1    3    3    0  502 -0.36085756785E+03 -0.60852321805E+03  0.18370916778E+04  0.19686097973E+04  0.10100000352E+00 0. -1.
</event>
<event>
 5   0  0.2529875E-07  0.2367964E+04  0.7818609E-02  0.8451596E-01
        1   -1    0    0  501    0  0.00000000000E+00  0.00000000000E+00  0.17801423044E+04  0.17801423044E+04  0.50400001928E-02 0.  1.
       -1   -1    0    0    0  501  0.00000000000E+00  0.00000000000E+00 -0.78747258042E+03  0.78747258044E+03  0.50400001928E-02 0. -1.
    10030    2    1    2    0    0  0.00000000000E+00  0.00000000000E+00  0.99266972397E+03  0.25676148848E+04  0.23679638967E+04 0.  0.
        1    1    3    3  502    0 -0.84730169540E+03 -0.27566295041E+03  0.13417537796E+04  0.16106562111E+04  0.50400001928E-02 0.  1.
       -1    1    3    3    0  502  0.84730169540E+03  0.27566295041E+03 -0.34908405566E+03  0.95695867371E+03  0.50400001928E-02 0. -1.
</event>
<event>
 5   0  0.8038352E-07  0.3452834E+04  0.7818609E-02  0.8125059E-01
       -2   -1    0    0    0  501  0.00000000000E+00  0.00000000000E+00  0.13097681941E+04  0.13097681941E+04  0.25500000920E-02 0. -1.
        2   -1    0    0  501    0  0.00000000000E+00  0.00000000000E+00 -0.22756057994E+04  0.22756057994E+04  0.25500000920E-02 0.  1.
    10030    2    1    2    0    0  0.00000000000E+00  0.00000000000E+00 -0.96583760531E+03  0.35853739936E+04  0.34528342552E+04 0.  0.
        2    1    3    3  502    0  0.83334523370E+03 -0.95154390325E+03 -0.17030181270E+04  0.21213606057E+04  0.25500000920E-02 0.  1.
       -2    1    3    3    0  502 -0.83334523370E+03  0.95154390325E+03  0.73718052172E+03  0.14640133879E+04  0.25500000920E-02 0. -1.
</event>
<event>
 5   0  0.2529875E-07  0.3858522E+04  0.7818609E-02  0.8033712E-01
       -1   -1    0    0    0  501  0.00000000000E+00  0.00000000000E+00  0.14234185244E+04  0.14234185244E+04  0.50400001928E-02 0. -1.
        1   -1    0    0  501    0  0.00000000000E+00  0.00000000000E+00 -0.26148654826E+04  0.26148654826E+04  0.50400001928E-02 0.  1.
    10030    2    1    2    0    0  0.00000000000E+00  0.00000000000E+00 -0.11914469583E+04  0.40382840070E+04  0.38585219795E+04 0.  0.
        1    1    3    3  502    0 -0.16642303062E+04 -0.20702967126E+03  0.40239708367E+03  0.17246585777E+04  0.50400001928E-02 0. -1.
       -1    1    3    3    0  502  0.16642303062E+04  0.20702967126E+03 -0.15938440419E+04  0.23136254292E+04  0.50400001928E-02 0.  1.
</event>
<event>
 5   0  0.2907071E-07  0.3840956E+04  0.7818609E-02  0.8037423E-01
       -1   -1    0    0    0  501  0.00000000000E+00  0.00000000000E+00  0.24167931753E+04  0.24167931753E+04  0.50400001928E-02 0.  1.
        1   -1    0    0  501    0  0.00000000000E+00  0.00000000000E+00 -0.15260867006E+04  0.15260867006E+04  0.50400001928E-02 0. -1.
    10030    2    1    2    0    0  0.00000000000E+00  0.00000000000E+00  0.89070647470E+03  0.39428798760E+04  0.38409560909E+04 0.  0.
        2    1    3    3  502    0  0.13940810844E+04  0.90757824862E+03 -0.53984094069E+03  0.17488820968E+04  0.25500000920E-02 0. -1.
       -2    1    3    3    0  502 -0.13940810844E+04 -0.90757824862E+03  0.14305474154E+04  0.21939977792E+04  0.25500000920E-02 0.  1.
</event>
<event>
 5   0  0.7638805E-07  0.3823492E+04  0.7818609E-02  0.8041132E-01
       -2   -1    0    0    0  501  0.00000000000E+00  0.00000000000E+00  0.21440182127E+04  0.21440182127E+04  0.25500000920E-02 0. -1.
        2   -1    0    0  501    0  0.00000000000E+00  0.00000000000E+00 -0.17046373698E+04  0.17046373698E+04  0.25500000920E-02 0.  1.
    10030    2    1    2    0    0  0.00000000000E+00  0.00000000000E+00  0.43938084289E+03  0.38486555825E+04  0.38234924176E+04 0.  0.
        5    1    3    3  502    0 -0.72212773200E+03 -0.14080196596E+04  0.12994868398E+04  0.20476024908E+04  0.46999998093E+01 0. -1.
       -5    1    3    3    0  502  0.72212773200E+03  0.14080196596E+04 -0.86010599696E+03  0.18010530917E+04  0.46999998093E+01 0.  1.
</event>
<event>
 5   0  0.2529875E-07  0.3571674E+04  0.7818609E-02  0.8097011E-01
        1   -1    0    0  501    0  0.00000000000E+00  0.00000000000E+00  0.28010144432E+04  0.28010144433E+04  0.50400001928E-02 0.  1.
       -1   -1    0    0    0  501  0.00000000000E+00  0.00000000000E+00 -0.11385925308E+04  0.11385925308E+04  0.50400001928E-02 0. -1.
    10030    2    1    2    0    0  0.00000000000E+00  0.00000000000E+00  0.16624219125E+04  0.39396069740E+04  0.35716741865E+04 0.  0.
        1    1    3    3  502    0 -0.89957504031E+03  0.23183322601E+03 -0.85110512537E+03  0.12599054855E+04  0.50400001928E-02 0. -1.
       -1    1    3    3    0  502  0.89957504031E+03 -0.23183322601E+03  0.25135270379E+04  0.26797014886E+04  0.50400001928E-02 0.  1.
</event>
<event>
 5   0  0.7649458E-07  0.2812030E+04  0.7818609E-02  0.8299543E-01
        2   -1    0    0  501    0  0.00000000000E+00  0.00000000000E+00  0.18829778506E+04  0.18829778506E+04  0.25500000920E-02 0. -1.
       -2   -1    0    0    0  501  0.00000000000E+00  0.00000000000E+00 -0.10498678685E+04  0.10498678685E+04  0.25500000920E-02 0.  1.
    10030    2    1    2    0    0  0.00000000000E+00  0.00000000000E+00  0.83310998209E+03  0.29328457191E+04  0.28120298309E+04 0.  0.
        4    1    3    3  502    0 -0.76511751267E+03  0.19179346224E+03  0.16304712884E+04  0.18112503348E+04  0.12699999809E+01 0. -1.
       -4    1    3    3    0  502  0.76511751267E+03 -0.19179346224E+03 -0.79736130628E+03  0.11215953843E+04  0.12699999809E+01 0.  1.
</event>
<event>
 5   0  0.2529875E-07  0.3784282E+04  0.7818609E-02  0.8049536E-01
       -3   -1    0    0    0  501  0.00000000000E+00  0.00000000000E+00  0.20435010634E+04  0.20435010659E+04  0.10100000352E+00 0. -1.
        3   -1    0    0  501    0  0.00000000000E+00  0.00000000000E+00 -0.17519916771E+04  0.17519916800E+04  0.10100000352E+00 0.  1.
    10030    2    1    2    0    0  0.00000000000E+00  0.00000000000E+00  0.29150938630E+03  0.37954927459E+04  0.37842816309E+04 0.  0.
        5    1    3    3  502    0 -0.12757092388E+04  0.12522972987E+04 -0.47615664838E+03  0.18499810350E+04  0.46999998093E+01 0.  1.
       -5    1    3    3    0  502  0.12757092388E+04 -0.12522972987E+04  0.76766603468E+03  0.19455117108E+04  0.46999998093E+01 0. -1.
</event>
<event>
 5   0  0.8421677E-07  0.3077764E+04  0.7818609E-02  0.8221867E-01
        2   -1    0    0  501    0  0.00000000000E+00  0.00000000000E+00  0.22856769015E+04  0.22856769015E+04  0.25500000920E-02 0.  1.
       -2   -1    0    0    0  501  0.00000000000E+00  0.00000000000E+00 -0.10360863209E+04  0.10360863209E+04  0.25500000920E-02 0. -1.
    10030    2    1    2    0    0  0.00000000000E+00  0.00000000000E+00  0.12495905806E+04  0.33217632224E+04  0.30777644950E+04 0.  0.
        3    1    3    3  502    0 -0.11890768858E+04  0.62300073490E+03  0.14368576473E+04  0.19663655979E+04  0.10100000352E+00 0.  1.
       -3    1    3    3    0  502  0.11890768858E+04 -0.62300073490E+03 -0.18726706668E+03  0.13553976245E+04  0.10100000352E+00 0. -1.
</event>
<event>
 5   0  0.8421677E-07  0.2948467E+04  0.7818609E-02  0.8258601E-01
       -2   -1    0    0    0  501  0.00000000000E+00  0.00000000000E+00  0.28821571236E+04  0.28821571236E+04  0.25500000920E-02 0.  1.
        2   -1    0    0  501    0  0.00000000000E+00  0.00000000000E+00 -0.75407555069E+03  0.75407555069E+03  0.25500000920E-02 0. -1.
    10030    2    1    2    0    0  0.00000000000E+00  0.00000000000E+00  0.21280815729E+04  0.36362326743E+04  0.29484668695E+04 0.  0.
        3    1    3    3  502    0 -0.13215277647E+04  0.23611096747E+03  0.31268124395E+03  0.13783880413E+04  0.10100000352E+00 0. -1.
       -3    1    3    3    0  502  0.13215277647E+04 -0.23611096747E+03  0.18154003289E+04  0.22578446329E+04  0.10100000352E+00 0.  1.
</event>
<event>
 5   0  0.2529875E-07  0.3918489E+04  0.7818609E-02  0.8021195E-01
       -1   -1    0    0    0  501  0.00000000000E+00  0.00000000000E+00  0.13535968546E+04  0.13535968546E+04  0.50400001928E-02 0. -1.
        1   -1    0    0  501    0  0.00000000000E+00  0.00000000000E+00 -0.28358807168E+04  0.28358807168E+04  0.50400001928E-02 0.  1.
    10030    2    1    2    0    0  0.00000000000E+00  0.00000000000E+00 -0.14822838622E+04  0.41894775714E+04  0.39184891060E+04 0.  0.
        3    1    3    3  502    0 -0.96354965276E+03  0.16694275387E+04 -0.36583459091E+03  0.19619508655E+04  0.10100000352E+00 0.  1.
       -3    1    3    3    0  502  0.96354965276E+03 -0.16694275387E+04 -0.11164492713E+04  0.22275267060E+04  0.10100000352E+00 0. -1.
</event>
<event>
 5   0  0.8038352E-07  0.2643763E+04  0.7818609E-02  0.8353486E-01
       -2   -1    0    0    0  501  0.00000000000E+00  0.00000000000E+00  0.19325059710E+04  0.19325059710E+04  0.25500000920E-02 0.  1.
        2   -1    0    0  501    0  0.00000000000E+00  0.00000000000E+00 -0.90419939541E+03  0.90419939541E+03  0.25500000920E-02 0. -1.
    10030    2    1    2    0    0  0.00000000000E+00  0.00000000000E+00  0.10283065756E+04  0.28367053665E+04  0.26437630232E+04 0.  0.
        2    1    3    3  502    0 -0.66769634063E+03 -0.68876292491E+03 -0.46170315350E+03  0.10646044204E+04  0.25500000920E-02 0. -1.
       -2    1    3    3    0  502  0.66769634063E+03  0.68876292491E+03  0.14900097291E+04  0.17721009460E+04  0.25500000920E-02 0.  1.
</event>
<event>
 5   0  0.7649458E-07  0.2355577E+04  0.7818609E-02  0.8456325E-01
       -2   -1    0    0    0  501  0.00000000000E+00  0.00000000000E+00  0.13290560908E+04  0.13290560908E+04  0.25500000920E-02 0. -1.
        2   -1    0    0  501    0  0.00000000000E+00  0.00000000000E+00 -0.10437374651E+04  0.10437374651E+04  0.25500000920E-02 0.  1.
    10030    2    1    2    0    0  0.00000000000E+00  0.00000000000E+00  0.28531862570E+03  0.23727935559E+04  0.23555769019E+04 0.  0.
        4    1    3    3  502    0 -0.48338468830E+03 -0.28297632963E+02  0.12241556528E+04  0.13164422464E+04  0.12699999809E+01 0. -1.
       -4    1    3    3    0  502  0.48338468830E+03  0.28297632963E+02 -0.93883702708E+03  0.10563513096E+04  0.12699999809E+01 0.  1.
</event>
<event>
 5   0  0.7649458E-07  0.3782098E+04  0.7818609E-02  0.8050007E-01
       -2   -1    0    0    0  501  0.00000000000E+00  0.00000000000E+00  0.15464640276E+04  0.15464640276E+04  0.25500000920E-02 0.  1.
        2   -1    0    0  501    0  0.00000000000E+00  0.00000000000E+00 -0.23124151676E+04  0.23124151676E+04  0.25500000920E-02 0. -1.
    10030    2    1    2    0    0  0.00000000000E+00  0.00000000000E+00 -0.76595114006E+03  0.38588791952E+04  0.37820982925E+04 0.  0.
        4    1    3    3  502    0 -0.87957030899E+03 -0.21518675513E+03 -0.20768340278E+04  0.22656545324E+04  0.12699999809E+01 0. -1.
       -4    1    3    3    0  502  0.87957030899E+03  0.21518675513E+03  0.13108828877E+04  0.15932246629E+04  0.12699999809E+01 0.  1.
</event>
<event>
 5   0  0.2529875E-07  0.3854153E+04  0.7818609E-02  0.8034633E-01
       -1   -1    0    0    0  501  0.00000000000E+00  0.00000000000E+00  0.25745835812E+04  0.25745835812E+04  0.50400001928E-02 0. -1.
        1   -1    0    0  501    0  0.00000000000E+00  0.00000000000E+00 -0.14424174881E+04  0.14424174881E+04  0.50400001928E-02 0.  1.
    10030    2    1    2    0    0  0.00000000000E+00  0.00000000000E+00  0.11321660932E+04  0.40170010693E+04  0.38541532830E+04 0.  0.
        4    1    3    3  502    0  0.10193966729E+04 -0.16296876717E+04  0.42404851475E+03  0.19684690091E+04  0.12699999809E+01 0.  1.
       -4    1    3    3    0  502 -0.10193966729E+04  0.16296876717E+04  0.70811757841E+03  0.20485320602E+04  0.12699999809E+01 0. -1.
</event>
<event>
 5   0  0.2529875E-07  0.3789225E+04  0.7818609E-02  0.8048471E-01
        1   -1    0    0  501    0  0.00000000000E+00  0.00000000000E+00  0.21328985784E+04  0.21328985784E+04  0.50400001928E-02 0.  1.
       -1   -1    0    0    0  501  0.00000000000E+00  0.00000000000E+00 -0.16829472625E+04  0.16829472625E+04  0.50400001928E-02 0. -1.
    10030    2    1    2    0    0  0.00000000000E+00  0.00000000000E+00  0.44995131587E+03  0.38158458410E+04  0.37892246298E+04 0.  0.
        5    1    3    3  502    0  0.99240888437E+02  0.44266561121E+03  0.20773913764E+04  0.21263533616E+04  0.46999998093E+01 0.  1.
       -5    1    3    3    0  502 -0.99240888437E+02 -0.44266561121E+03 -0.16274400606E+04  0.16894924794E+04  0.46999998093E+01 0. -1.
</event>
<event>
 5   0  0.2529875E-07  0.3731183E+04  0.7818609E-02  0.8061086E-01
        1   -1    0    0  501    0  0.00000000000E+00  0.00000000000E+00  0.24355958578E+04  0.24355958579E+04  0.50400001928E-02 0.  1.
       -1   -1    0    0    0  501  0.00000000000E+00  0.00000000000E+00 -0.14289857214E+04  0.14289857214E+04  0.50400001928E-02 0. -1.
    10030    2    1    2    0    0  0.00000000000E+00  0.00000000000E+00  0.10066101364E+04  0.38645815793E+04  0.37311830317E+04 0.  0.
        1    1    3    3  502    0  0.80661547975E+03 -0.98890634350E+03  0.19127914068E+04  0.22994206345E+04  0.50400001928E-02 0.  1.
       -1    1    3    3    0  502 -0.80661547975E+03  0.98890634350E+03 -0.90618127034E+03  0.15651609448E+04  0.50400001928E-02 0. -1.
</event>
<event>
 5   0  0.2529875E-07  0.3787470E+04  0.7818609E-02  0.8048849E-01
        1   -1    0    0  501    0  0.00000000000E+00  0.00000000000E+00  0.18601100897E+04  0.18601100897E+04  0.50400001928E-02 0.  1.
       -1   -1    0    0    0  501  0.00000000000E+00  0.00000000000E+00 -0.19279681777E+04  0.19279681777E+04  0.50400001928E-02 0. -1.
    10030    2    1    2    0    0  0.00000000000E+00  0.00000000000E+00 -0.67858088034E+02  0.37880782675E+04  0.37874704277E+04 0.  0.
        4    1    3    3  502    0  0.65460394285E+03 -0.82120235595E+03  0.15421892800E+04  0.18658051933E+04  0.12699999809E+01 0.  1.
       -4    1    3    3    0  502 -0.65460394285E+03  0.82120235595E+03 -0.16100473680E+04  0.19222730741E+04  0.12699999809E+01 0. -1.
</event>
<event>
 5   0  0.2529875E-07  0.2716293E+04  0.7818609E-02  0.8329738E-01
       -1   -1    0    0    0  501  0.00000000000E+00  0.00000000000E+00  0.88077900891E+03  0.88077900893E+03  0.50400001928E-02 0.  1.
        1   -1    0    0  501    0  0.00000000000E+00  0.00000000000E+00 -0.20942393973E+04  0.20942393973E+04  0.50400001928E-02 0. -1.
    10030    2    1    2    0    0  0.00000000000E+00  0.00000000000E+00 -0.12134603883E+04  0.29750184062E+04  0.27162931364E+04 0.  0.
        1    1    3    3  502    0  0.12540476237E+04 -0.10047287520E+03 -0.46296463794E+02  0.12589176318E+04  0.50400001928E-02 0.  1.
       -1    1    3    3    0  502 -0.12540476237E+04  0.10047287520E+03 -0.11671639246E+04  0.17161007744E+04  0.50400001928E-02 0. -1.
</event>
<event>
 5   0  0.8038352E-07  0.4035224E+04  0.7818609E-02  0.7997478E-01
       -2   -1    0    0    0  501  0.00000000000E+00  0.00000000000E+00  0.16851949508E+04  0.16851949508E+04  0.25500000920E-02 0.  1.
        2   -1    0    0  501    0  0.00000000000E+00  0.00000000000E+00 -0.24156009461E+04  0.24156009461E+04  0.25500000920E-02 0. -1.
    10030    2    1    2    0    0  0.00000000000E+00  0.00000000000E+00 -0.73040599538E+03  0.41007958969E+04  0.40352241660E+04 0.  0.
        2    1    3    3  502    0 -0.14541906040E+03  0.52828520080E+03  0.16081350555E+04  0.16989203375E+04  0.25500000920E-02 0.  1.
       -2    1    3    3    0  502  0.14541906040E+03 -0.52828520080E+03 -0.23385410508E+04  0.24018755594E+04  0.25500000920E-02 0. -1.
</event>
<event>
 5   0  0.2529875E-07  0.3844317E+04  0.7818609E-02  0.8036711E-01
       -1   -1    0    0    0  501  0.00000000000E+00  0.00000000000E+00  0.14744725167E+04  0.14744725167E+04  0.50400001928E-02 0. -1.
        1   -1    0    0  501    0  0.00000000000E+00  0.00000000000E+00 -0.25057726237E+04  0.25057726237E+04  0.50400001928E-02 0.  1.
    10030    2    1    2    0    0  0.00000000000E+00  0.00000000000E+00 -0.10313001070E+04  0.39802451405E+04  0.38443167751E+04 0.  0.
        4    1    3    3  502    0  0.64400741149E+03 -0.18007488036E+04 -0.71547541700E+03  0.20418982553E+04  0.12699999809E+01 0. -1.
       -4    1    3    3    0  502 -0.64400741149E+03  0.18007488036E+04 -0.31582469001E+03  0.19383468852E+04  0.12699999809E+01 0.  1.
</event>
<event>
 5   0  0.8038352E-07  0.3818350E+04  0.7818609E-02  0.8042228E-01
       -2   -1    0    0    0  501  0.00000000000E+00  0.00000000000E+00  0.16977858474E+04  0.16977858474E+04  0.25500000920E-02 0.  1.
        2   -1    0    0  501    0  0.00000000000E+00  0.00000000000E+00 -0.21468841348E+04  0.21468841348E+04  0.25500000920E-02 0. -1.
    10030    2    1    2    0    0  0.00000000000E+00  0.00000000000E+00 -0.44909828734E+03  0.38446699822E+04  0.38183501673E+04 0.  0.
        2    1    3    3  502    0  0.19443638657E+03 -0.55583119301E+03  0.16040626752E+04  0.17087337093E+04  0.25500000920E-02 0.  1.
       -2    1    3    3    0  502 -0.19443638657E+03  0.55583119301E+03 -0.20531609625E+04  0.21359362728E+04  0.25500000920E-02 0. -1.
</event>
<event>
 5   0  0.2529875E-07  0.3731783E+04  0.7818609E-02  0.8060955E-01
        1   -1    0    0  501    0  0.00000000000E+00  0.00000000000E+00  0.20587792912E+04  0.20587792912E+04  0.50400001928E-02 0. -1.
       -1   -1    0    0    0  501  0.00000000000E+00  0.00000000000E+00 -0.16910755490E+04  0.16910755490E+04  0.50400001928E-02 0.  1.
    10030    2    1    2    0    0  0.00000000000E+00  0.00000000000E+00  0.36770374224E+03  0.37498548402E+04  0.37317831234E+04 0.  0.
        1    1    3    3  502    0  0.13177732154E+04 -0.85309429728E+03 -0.82962307621E+03  0.17755479650E+04  0.50400001928E-02 0.  1.
       -1    1    3    3    0  502 -0.13177732154E+04  0.85309429728E+03  0.11973268185E+04  0.19743068752E+04  0.50400001928E-02 0. -1.
</event>
<event>
 5   0  0.2529875E-07  0.3840450E+04  0.7818609E-02  0.8037530E-01
       -1   -1    0    0    0  501  0.00000000000E+00  0.00000000000E+00  0.17463179018E+04  0.17463179018E+04  0.50400001928E-02 0. -1.
        1   -1    0    0  501    0  0.00000000000E+00  0.00000000000E+00 -0.21114506108E+04  0.21114506108E+04  0.50400001928E-02 0.  1.
    10030    2    1    2    0    0  0.00000000000E+00  0.00000000000E+00 -0.36513270906E+03  0.38577685126E+04  0.38404499738E+04 0.  0.
        3    1    3    3  502    0  0.14799788584E+04 -0.98680127741E+03  0.54398628818E+03  0.18601170055E+04  0.10100000352E+00 0. -1.
       -3    1    3    3    0  502 -0.14799788584E+04  0.98680127741E+03 -0.90911899724E+03  0.19976515071E+04  0.10100000352E+00 0.  1.
</event>
<event>
 5   0  0.8038352E-07  0.3730535E+04  0.7818609E-02  0.8061228E-01
       -2   -1    0    0    0  501  0.00000000000E+00  0.00000000000E+00  0.19734702499E+04  0.19734702499E+04  0.25500000920E-02 0. -1.
        2   -1    0    0  501    0  0.00000000000E+00  0.00000000000E+00 -0.17629974426E+04  0.17629974426E+04  0.25500000920E-02 0.  1.
    10030    2    1    2    0    0  0.00000000000E+00  0.00000000000E+00  0.21047280736E+03  0.37364676925E+04  0.37305350842E+04 0.  0.
        2    1    3    3  502    0  0.13544253375E+04  0.11098992115E+03 -0.11744637359E+04  0.17961491654E+04  0.25500000920E-02 0.  1.
       -2    1    3    3    0  502 -0.13544253375E+04 -0.11098992115E+03  0.13849365433E+04  0.19403185271E+04  0.25500000920E-02 0. -1.
</event>
<event>
 5   0  0.7551495E-07  0.3826315E+04  0.7818609E-02  0.8040531E-01
       -2   -1    0    0    0  501  0.00000000000E+00  0.00000000000E+00  0.13044186760E+04  0.13044186760E+04  0.25500000920E-02 0. -1.
        2   -1    0    0  501    0  0.00000000000E+00  0.00000000000E+00 -0.28059792982E+04  0.28059792982E+04  0.25500000920E-02 0.  1.
    10030    2    1    2    0    0  0.00000000000E+00  0.00000000000E+00 -0.15015606222E+04  0.41103979743E+04  0.38263150948E+04 0.  0.
        1    1    3    3  502    0 -0.12579697031E+04 -0.13099322048E+04 -0.10465849902E+03  0.18191656210E+04  0.50400001928E-02 0. -1.
       -1    1    3    3    0  502  0.12579697031E+04  0.13099322048E+04 -0.13969021232E+04  0.22912323533E+04  0.50400001928E-02 0.  1.
</event>
<event>
 5   0  0.7638805E-07  0.2981733E+04  0.7818609E-02  0.8248967E-01
       -2   -1    0    0    0  501  0.00000000000E+00  0.00000000000E+00  0.14027656012E+04  0.14027656012E+04  0.25500000920E-02 0. -1.
        2   -1    0    0  501    0  0.00000000000E+00  0.00000000000E+00 -0.15845003126E+04  0.15845003126E+04  0.25500000920E-02 0.  1.
    10030    2    1    2    0    0  0.00000000000E+00  0.00000000000E+00 -0.18173471139E+03  0.29872659137E+04  0.29817327402E+04 0.  0.
        5    1    3    3  502    0  0.51569620869E+03  0.79871456599E+03 -0.12413767717E+04  0.15636258878E+04  0.46999998093E+01 0.  1.
       -5    1    3    3    0  502 -0.51569620869E+03 -0.79871456599E+03  0.10596420603E+04  0.14236400260E+04  0.46999998093E+01 0. -1.
</event>
<event>
 5   0  0.2529875E-07  0.3826713E+04  0.7818609E-02  0.8040446E-01
        1   -1    0    0  501    0  0.00000000000E+00  0.00000000000E+00  0.11800000670E+04  0.11800000670E+04  0.50400001928E-02 0.  1.
       -1   -1    0    0    0  501  0.00000000000E+00  0.00000000000E+00 -0.31024858623E+04  0.31024858623E+04  0.50400001928E-02 0. -1.
    10030    2    1    2    0    0  0.00000000000E+00  0.00000000000E+00 -0.19224857953E+04  0.42824859293E+04  0.38267132244E+04 0.  0.
        4    1    3    3  502    0 -0.12044670162E+04  0.13123386767E+04 -0.17429811974E+04  0.24921795005E+04  0.12699999809E+01 0. -1.
       -4    1    3    3    0  502  0.12044670162E+04 -0.13123386767E+04 -0.17950459789E+03  0.17903064288E+04  0.12699999809E+01 0.  1.
</event>
<event>
 5   0  0.2529875E-07  0.3920053E+04  0.7818609E-02  0.8020871E-01
        1   -1    0    0  501    0  0.00000000000E+00  0.00000000000E+00  0.30115982759E+04  0.30115982759E+04  0.50400001928E-02 0. -1.
       -1   -1    0    0    0  501  0.00000000000E+00  0.00000000000E+00 -0.12756360693E+04  0.12756360693E+04  0.50400001928E-02 0.  1.
    10030    2    1    2    0    0  0.00000000000E+00  0.00000000000E+00  0.17359622066E+04  0.42872343452E+04  0.39200527481E+04 0.  0.
        1    1    3    3  502    0  0.11531293881E+04 -0.82276443755E+03  0.23495089447E+04  0.27435088822E+04  0.50400001928E-02 0. -1.
       -1    1    3    3    0  502 -0.11531293881E+04  0.82276443755E+03 -0.61354673807E+03  0.15437254630E+04  0.50400001928E-02 0.  1.
</event>
<event>
 5   0  0.2529875E-07  0.3509068E+04  0.7818609E-02  0.8111644E-01
       -1   -1    0    0    0  501  0.00000000000E+00  0.00000000000E+00  0.23773711993E+04  0.23773711993E+04  0.50400001928E-02 0.  1.
        1   -1    0    0  501    0  0.00000000000E+00  0.00000000000E+00 -0.12948711822E+04  0.12948711822E+04  0.50400001928E-02 0. -1.
    10030    2    1    2    0    0  0.00000000000E+00  0.00000000000E+00  0.10825000171E+04  0.36722423815E+04  0.35090679420E+04 0.  0.
        5    1    3    3  502    0 -0.18022999841E+03  0.56938805214E+03  0.22677168146E+04  0.23450473871E+04  0.46999998093E+01 0.  1.
       -5    1    3    3    0  502  0.18022999841E+03 -0.56938805214E+03 -0.11852167975E+04  0.13271949945E+04  0.46999998093E+01 0. -1.
</event>
<event>
 5   0  0.8421677E-07  0.3756132E+04  0.7818609E-02  0.8055635E-01
       -2   -1    0    0    0  501  0.00000000000E+00  0.00000000000E+00  0.16364810770E+04  0.16364810770E+04  0.25500000920E-02 0. -1.
        2   -1    0    0  501    0  0.00000000000E+00  0.00000000000E+00 -0.21553145402E+04  0.21553145402E+04  0.25500000920E-02 0.  1.
    10030    2    1    2    0    0  0.00000000000E+00  0.00000000000E+00 -0.51883346326E+03  0.37917956172E+04  0.37561317655E+04 0.  0.
        3    1    3    3  502    0 -0.13133718031E+04 -0.12669899546E+04  0.18855609784E+03  0.18346014419E+04  0.10100000352E+00 0. -1.
       -3    1    3    3    0  502  0.13133718031E+04  0.12669899546E+04 -0.70738956110E+03  0.19571941753E+04  0.10100000352E+00 0.  1.
</event>
<event>
 5   0  0.8038352E-07  0.2343337E+04  0.7818609E-02  0.8461027E-01
       -2   -1    0    0    0  501  0.00000000000E+00  0.00000000000E+00  0.49246448468E+03  0.49246448468E+03  0.25500000920E-02 0.  1.
        2   -1    0    0  501    0  0.00000000000E+00  0.00000000000E+00 -0.27876257735E+04  0.27876257735E+04  0.25500000920E-02 0. -1.
    10030    2    1    2    0    0  0.00000000000E+00  0.00000000000E+00 -0.22951612888E+04  0.32800902582E+04  0.23433366724E+04 0.  0.
        2    1    3    3  502    0 -0.42856400802E+03 -0.18965228508E+03 -0.26507159401E+04  0.26918265348E+04  0.25500000920E-02 0. -1.
       -2    1    3    3    0  502  0.42856400802E+03  0.18965228508E+03  0.35555465129E+03  0.58826372340E+03  0.25500000920E-02 0.  1.
</event>
<event>
 5   0  0.2907071E-07  0.3642423E+04  0.7818609E-02  0.8080843E-01
        1   -1    0    0  501    0  0.00000000000E+00  0.00000000000E+00  0.23103065146E+04  0.23103065146E+04  0.50400001928E-02 0.  1.
       -1   -1    0    0    0  501  0.00000000000E+00  0.00000000000E+00 -0.14356585041E+04  0.14356585041E+04  0.50400001928E-02 0. -1.
    10030    2    1    2    0    0  0.00000000000E+00  0.00000000000E+00  0.87464801054E+03  0.37459650187E+04  0.36424229270E+04 0.  0.
        2    1    3    3  502    0  0.85959135167E+03  0.39511735335E+02  0.20880538652E+04  0.22584125870E+04  0.25500000920E-02 0.  1.
       -2    1    3    3    0  502 -0.85959135167E+03 -0.39511735335E+02 -0.12134058546E+04  0.14875524317E+04  0.25500000920E-02 0. -1.
</event>
<event>
 5   0  0.2907071E-07  0.2731903E+04  0.7818609E-02  0.8324727E-01
        1   -1    0    0  501    0  0.00000000000E+00  0.00000000000E+00  0.61478363498E+03  0.61478363500E+03  0.50400001928E-02 0.  1.
       -1   -1    0    0    0  501  0.00000000000E+00  0.00000000000E+00 -0.30349260871E+04  0.30349260871E+04  0.50400001928E-02 0. -1.
    10030    2    1    2    0    0  0.00000000000E+00  0.00000000000E+00 -0.24201424522E+04  0.36497097221E+04  0.27319025545E+04 0.  0.
        2    1    3    3  502    0  0.25144311000E+01  0.11484164761E+04 -0.22204293144E+03  0.11696879021E+04  0.25500000920E-02 0. -1.
       -2    1    3    3    0  502 -0.25144311000E+01 -0.11484164761E+04 -0.21980995207E+04  0.24800218201E+04  0.25500000920E-02 0.  1.
</event>
<event>
 5   0  0.7649458E-07  0.3812713E+04  0.7818609E-02  0.8043432E-01
        2   -1    0    0  501    0  0.00000000000E+00  0.00000000000E+00  0.23407523067E+04  0.23407523067E+04  0.25500000920E-02 0. -1.
       -2   -1    0    0    0  501  0.00000000000E+00  0.00000000000E+00 -0.15525759474E+04  0.15525759474E+04  0.25500000920E-02 0.  1.
    10030    2    1    2    0    0  0.00000000000E+00  0.00000000000E+00  0.78817635931E+03  0.38933282542E+04  0.38127133280E+04 0.  0.
        4    1    3    3  502    0  0.32889692428E+02 -0.11492416336E+04  0.19468835315E+04  0.22610164003E+04  0.12699999809E+01 0. -1.
       -4    1    3    3    0  502 -0.32889692428E+02  0.11492416336E+04 -0.11587071722E+04  0.16323118538E+04  0.12699999809E+01 0.  1.
</event>
<event>
 5   0  0.2529875E-07  0.3829172E+04  0.7818609E-02  0.8039923E-01
       -1   -1    0    0    0  501  0.00000000000E+00  0.00000000000E+00  0.17571536634E+04  0.17571536634E+04  0.50400001928E-02 0.  1.
        1   -1    0    0  501    0  0.00000000000E+00  0.00000000000E+00 -0.20861235465E+04  0.20861235465E+04  0.50400001928E-02 0. -1.
    10030    2    1    2    0    0  0.00000000000E+00  0.00000000000E+00 -0.32896988310E+03  0.38432772100E+04  0.38291720422E+04 0.  0.
        3    1    3    3  502    0 -0.19111598513E+04  0.10911536420E+03 -0.19927502668E+03  0.19246165037E+04  0.10100000352E+00 0. -1.
       -3    1    3    3    0  502  0.19111598513E+04 -0.10911536420E+03 -0.12969485642E+03  0.19186607063E+04  0.10100000352E+00 0.  1.
</event>
<event>
 5   0  0.7551495E-07  0.3805768E+04  0.7818609E-02  0.8044918E-01
       -2   -1    0    0    0  501  0.00000000000E+00  0.00000000000E+00  0.28924712938E+04  0.28924712938E+04  0.25500000920E-02 0.  1.
        2   -1    0    0  501    0  0.00000000000E+00  0.00000000000E+00 -0.12518597153E+04  0.12518597153E+04  0.25500000920E-02 0. -1.
    10030    2    1    2    0    0  0.00000000000E+00  0.00000000000E+00  0.16406115785E+04  0.41443310091E+04  0.38057684062E+04 0.  0.
        1    1    3    3  502    0  0.14996334502E+04  0.11064477907E+04  0.40159933083E+03  0.19064126576E+04  0.50400001928E-02 0. -1.
       -1    1    3    3    0  502 -0.14996334502E+04 -0.11064477907E+04  0.12390122476E+04  0.22379183515E+04  0.50400001928E-02 0.  1.
</event>
<event>
 5   0  0.2907071E-07  0.3673617E+04  0.7818609E-02  0.8073834E-01
       -1   -1    0    0    0  501  0.00000000000E+00  0.00000000000E+00  0.12036455391E+04  0.12036455392E+04  0.50400001928E-02 0. -1.
        1   -1    0    0  501    0  0.00000000000E+00  0.00000000000E+00 -0.28030391861E+04  0.28030391861E+04  0.50400001928E-02 0.  1.
    10030    2    1    2    0    0  0.00000000000E+00  0.00000000000E+00 -0.15993936470E+04  0.40066847253E+04  0.36736170799E+04 0.  0.
        2    1    3    3  502    0 -0.21803614188E+03  0.45097669532E+03  0.11277105380E+04  0.12339573722E+04  0.25500000920E-02 0. -1.
       -2    1    3    3    0  502  0.21803614188E+03 -0.45097669532E+03 -0.27271041850E+04  0.27727273531E+04  0.25500000920E-02 0.  1.
</event>
<event>
 5   0  0.2529875E-07  0.3192190E+04  0.7818609E-02  0.8190883E-01
       -1   -1    0    0    0  501  0.00000000000E+00  0.00000000000E+00  0.10782047360E+04  0.10782047361E+04  0.50400001928E-02 0.  1.
        1   -1    0    0  501    0  0.00000000000E+00  0.00000000000E+00 -0.23627421908E+04  0.23627421908E+04  0.50400001928E-02 0. -1.
    10030    2    1    2    0    0  0.00000000000E+00  0.00000000000E+00 -0.12845374548E+04  0.34409469269E+04  0.31921903579E+04 0.  0.
        4    1    3    3  502    0  0.88985158741E+03 -0.10616032339E+04 -0.14969502940E+04  0.20395340324E+04  0.12699999809E+01 0. -1.
       -4    1    3    3    0  502 -0.88985158741E+03  0.10616032339E+04  0.21241283918E+03  0.14014128945E+04  0.12699999809E+01 0.  1.
</event>
<event>
 5   0  0.7649458E-07  0.3538452E+04  0.7818609E-02  0.8104737E-01
        2   -1    0    0  501    0  0.00000000000E+00  0.00000000000E+00  0.15989913156E+04  0.15989913156E+04  0.25500000920E-02 0.  1.
       -2   -1    0    0    0  501  0.00000000000E+00  0.00000000000E+00 -0.19575848422E+04  0.19575848422E+04  0.25500000920E-02 0. -1.
    10030    2    1    2    0    0  0.00000000000E+00  0.00000000000E+00 -0.35859352667E+03  0.35565761578E+04  0.35384522957E+04 0.  0.
        4    1    3    3  502    0  0.40676219672E+03  0.16704311416E+04 -0.59900453643E+03  0.18206053199E+04  0.12699999809E+01 0.  1.
       -4    1    3    3    0  502 -0.40676219672E+03 -0.16704311416E+04  0.24041100977E+03  0.17359708379E+04  0.12699999809E+01 0. -1.
</event>
<event>
 5   0  0.8038352E-07  0.3723215E+04  0.7818609E-02  0.8062836E-01
       -2   -1    0    0    0  501  0.00000000000E+00  0.00000000000E+00  0.22914990039E+04  0.22914990039E+04  0.25500000920E-02 0. -1.
        2   -1    0    0  501    0  0.00000000000E+00  0.00000000000E+00 -0.15123648667E+04  0.15123648667E+04  0.25500000920E-02 0.  1.
    10030    2    1    2    0    0  0.00000000000E+00  0.00000000000E+00  0.77913413713E+03  0.38038638706E+04  0.37232150546E+04 0.  0.
        2    1    3    3  502    0 -0.86040198467E+03 -0.14073594174E+03  0.20700316440E+04  0.22461365024E+04  0.25500000920E-02 0. -1.
       -2    1    3    3    0  502  0.86040198467E+03  0.14073594174E+03 -0.12908975068E+04  0.15577273682E+04  0.25500000920E-02 0.  1.
</event>
<event>
 5   0  0.2529875E-07  0.2854768E+04  0.7818609E-02  0.8286464E-01
       -1   -1    0    0    0  501  0.00000000000E+00  0.00000000000E+00  0.11233938119E+04  0.11233938119E+04  0.50400001928E-02 0.  1.
        1   -1    0    0  501    0  0.00000000000E+00  0.00000000000E+00 -0.18136338471E+04  0.18136338471E+04  0.50400001928E-02 0. -1.
    10030    2    1    2    0    0  0.00000000000E+00  0.00000000000E+00 -0.69024003516E+03  0.29370276590E+04  0.28547679702E+04 0.  0.
        5    1    3    3  502    0 -0.22419066269E+02 -0.55071664991E+03 -0.16997263816E+04  0.17868640982E+04  0.46999998093E+01 0. -1.
       -5    1    3    3    0  502  0.22419066269E+02  0.55071664991E+03  0.10094863465E+04  0.11501635609E+04  0.46999998093E+01 0.  1.
</event>
<event>
 5   0  0.7638805E-07  0.3496321E+04  0.7818609E-02  0.8114662E-01
       -2   -1    0    0    0  501  0.00000000000E+00  0.00000000000E+00  0.19532321483E+04  0.19532321483E+04  0.25500000920E-02 0. -1.
        2   -1    0    0  501    0  0.00000000000E+00  0.00000000000E+00 -0.15646196128E+04  0.15646196128E+04  0.25500000920E-02 0.  1.
    10030    2    1    2    0    0  0.00000000000E+00  0.00000000000E+00  0.38861253553E+03  0.35178517611E+04  0.34963211108E+04 0.  0.
        5    1    3    3  502    0  0.15397378561E+04  0.67294008683E+03 -0.29074355544E+03  0.17053430537E+04  0.46999998093E+01 0.  1.
       -5    1    3    3    0  502 -0.15397378561E+04 -0.67294008683E+03  0.67935609098E+03  0.18125087073E+04  0.46999998093E+01 0. -1.
</event>
<event>
 5   0  0.8038352E-07  0.3793255E+04  0.7818609E-02  0.8047604E-01
        2   -1    0    0  501    0  0.00000000000E+00  0.00000000000E+00  0.13314005506E+04  0.13314005506E+04  0.25500000920E-02 0. -1.
       -2   -1    0    0    0  501  0.00000000000E+00  0.00000000000E+00 -0.27018130523E+04  0.27018130523E+04  0.25500000920E-02 0.  1.
    10030    2    1    2    0    0  0.00000000000E+00  0.00000000000E+00 -0.13704125017E+04  0.40332136029E+04  0.37932547425E+04 0.  0.
        2    1    3    3  502    0 -0.45826273909E+03  0.12694557876E+04 -0.21020457854E+04  0.24980230621E+04  0.25500000920E-02 0. -1.
       -2    1    3    3    0  502  0.45826273909E+03 -0.12694557876E+04  0.73163328370E+03  0.15351905408E+04  0.25500000920E-02 0.  1.
</event>
<event>
 5   0  0.7638805E-07  0.3922330E+04  0.7818609E-02  0.8020401E-01
        2   -1    0    0  501    0  0.00000000000E+00  0.00000000000E+00  0.18780737084E+04  0.18780737084E+04  0.25500000920E-02 0. -1.
       -2   -1    0    0    0  501  0.00000000000E+00  0.00000000000E+00 -0.20479325021E+04  0.20479325021E+04  0.25500000920E-02 0.  1.
    10030    2    1    2    0    0  0.00000000000E+00  0.00000000000E+00 -0.16985879377E+03  0.39260062105E+04  0.39223300161E+04 0.  0.
        5    1    3    3  502    0  0.39328787088E+03  0.56582802756E+02 -0.20072160609E+04  0.20461709039E+04  0.46999998093E+01 0.  1.
       -5    1    3    3    0  502 -0.39328787088E+03 -0.56582802756E+02  0.18373572671E+04  0.18798353066E+04  0.46999998093E+01 0. -1.
</event>
<event>
 5   0  0.2529875E-07  0.4124874E+04  0.7818609E-02  0.7979819E-01
        1   -1    0    0  501    0  0.00000000000E+00  0.00000000000E+00  0.28254287246E+04  0.28254287246E+04  0.50400001928E-02 0. -1.
       -1   -1    0    0    0  501  0.00000000000E+00  0.00000000000E+00 -0.15054872368E+04  0.15054872369E+04  0.50400001928E-02 0.  1.
    10030    2    1    2    0    0  0.00000000000E+00  0.00000000000E+00  0.13199414878E+04  0.43309159615E+04  0.41248742447E+04 0.  0.
        3    1    3    3  502    0  0.30570032120E+03 -0.27265348208E+03  0.27822888539E+04  0.28122809043E+04  0.10100000352E+00 0. -1.
       -3    1    3    3    0  502 -0.30570032120E+03  0.27265348208E+03 -0.14623473661E+04  0.15186350572E+04  0.10100000352E+00 0.  1.
</event>
<event>
 5   0  0.7551495E-07  0.3783361E+04  0.7818609E-02  0.8049735E-01
        2   -1    0    0  501    0  0.00000000000E+00  0.00000000000E+00  0.23008568226E+04  0.23008568226E+04  0.25500000920E-02 0. -1.
       -2   -1    0    0    0  501  0.00000000000E+00  0.00000000000E+00 -0.15552705927E+04  0.15552705927E+04  0.25500000920E-02 0.  1.
    10030    2    1    2    0    0  0.00000000000E+00  0.00000000000E+00  0.74558622987E+03  0.38561274153E+04  0.37833609155E+04 0.  0.
        1    1    3    3  502    0  0.30026886141E+03  0.75841003341E+03 -0.13668168212E+04  0.15917083246E+04  0.50400001928E-02 0.  1.
       -1    1    3    3    0  502 -0.30026886141E+03 -0.75841003341E+03  0.21124030511E+04  0.22644190907E+04  0.50400001928E-02 0. -1.
</event>
<event>
 5   0  0.2529875E-07  0.3765903E+04  0.7818609E-02  0.8053512E-01
       -1   -1    0    0    0  501  0.00000000000E+00  0.00000000000E+00  0.30109614864E+04  0.30109614864E+04  0.50400001928E-02 0.  1.
        1   -1    0    0  501    0  0.00000000000E+00  0.00000000000E+00 -0.11775331451E+04  0.11775331451E+04  0.50400001928E-02 0. -1.
    10030    2    1    2    0    0  0.00000000000E+00  0.00000000000E+00  0.18334283413E+04  0.41884946314E+04  0.37659033172E+04 0.  0.
        3    1    3    3  502    0  0.29371509488E+03 -0.11713447175E+04 -0.69011527929E+03  0.13908904029E+04  0.10100000352E+00 0. -1.
       -3    1    3    3    0  502 -0.29371509488E+03  0.11713447175E+04  0.25235436206E+04  0.27976042285E+04  0.10100000352E+00 0.  1.
</event>
<event>
 5   0  0.8038352E-07  0.3786243E+04  0.7818609E-02  0.8049114E-01
        2   -1    0    0  501    0  0.00000000000E+00  0.00000000000E+00  0.28889914513E+04  0.28889914513E+04  0.25500000920E-02 0. -1.
       -2   -1    0    0    0  501  0.00000000000E+00  0.00000000000E+00 -0.12405396482E+04  0.12405396482E+04  0.25500000920E-02 0.  1.
    10030    2    1    2    0    0  0.00000000000E+00  0.00000000000E+00  0.16484518031E+04  0.41295310995E+04  0.37862426962E+04 0.  0.
        2    1    3    3  502    0 -0.18830324920E+04 -0.16502097898E+03  0.71053907713E+03  0.20193833390E+04  0.25500000920E-02 0.  1.
       -2    1    3    3    0  502  0.18830324920E+04  0.16502097898E+03  0.93791272602E+03  0.21101477605E+04  0.25500000920E-02 0. -1.
</event>
<event>
 5   0  0.7551495E-07  0.2579697E+04  0.7818609E-02  0.8375131E-01
       -2   -1    0    0    0  501  0.00000000000E+00  0.00000000000E+00  0.12520940451E+04  0.12520940451E+04  0.25500000920E-02 0. -1.
        2   -1    0    0  501    0  0.00000000000E+00  0.00000000000E+00 -0.13287411362E+04  0.13287411362E+04  0.25500000920E-02 0.  1.
    10030    2    1    2    0    0  0.00000000000E+00  0.00000000000E+00 -0.76647091125E+02  0.25808351813E+04  0.25796967761E+04 0.  0.
        1    1    3    3  502    0 -0.11289767366E+04  0.62209779683E+03 -0.84329962251E+02  0.12917839150E+04  0.50400001928E-02 0.  1.
       -1    1    3    3    0  502  0.11289767366E+04 -0.62209779683E+03  0.76828711258E+01  0.12890512663E+04  0.50400001928E-02 0. -1.
</event>
<event>
 5   0  0.7551495E-07  0.3770789E+04  0.7818609E-02  0.8052453E-01
       -2   -1    0    0    0  501  0.00000000000E+00  0.00000000000E+00  0.14793466102E+04  0.14793466102E+04  0.25500000920E-02 0.  1.
        2   -1    0    0  501    0  0.00000000000E+00  0.00000000000E+00 -0.24028932985E+04  0.24028932985E+04  0.25500000920E-02 0. -1.
    10030    2    1    2    0    0  0.00000000000E+00  0.00000000000E+00 -0.92354668826E+03  0.38822399087E+04  0.37707888065E+04 0.  0.
        1    1    3    3  502    0 -0.41667323393E+03 -0.15701690182E+04  0.52341304387E+03  0.17067538030E+04  0.50400001928E-02 0.  1.
       -1    1    3    3    0  502  0.41667323393E+03  0.15701690182E+04 -0.14469597321E+04  0.21754861057E+04  0.50400001928E-02 0. -1.
</event>
<event>
 5   0  0.7638805E-07  0.3878885E+04  0.7818609E-02  0.8029435E-01
        2   -1    0    0  501    0  0.00000000000E+00  0.00000000000E+00  0.26483406615E+04  0.26483406615E+04  0.25500000920E-02 0.  1.
       -2   -1    0    0    0  501  0.00000000000E+00  0.00000000000E+00 -0.14202995466E+04  0.14202995466E+04  0.25500000920E-02 0. -1.
    10030    2    1    2    0    0  0.00000000000E+00  0.00000000000E+00  0.12280411149E+04  0.40686402081E+04  0.38788849123E+04 0.  0.
        5    1    3    3  502    0 -0.73703237362E+03 -0.12860302103E+04 -0.69789481257E+03  0.16383435784E+04  0.46999998093E+01 0. -1.
       -5    1    3    3    0  502  0.73703237362E+03  0.12860302103E+04  0.19259359275E+04  0.24302966297E+04  0.46999998093E+01 0.  1.
</event>
<event>
 5   0  0.2529875E-07  0.2725576E+04  0.7818609E-02  0.8326754E-01
        1   -1    0    0  501    0  0.00000000000E+00  0.00000000000E+00  0.15923176690E+04  0.15923176690E+04  0.50400001928E-02 0. -1.
       -1   -1    0    0    0  501  0.00000000000E+00  0.00000000000E+00 -0.11663442177E+04  0.11663442177E+04  0.50400001928E-02 0.  1.
    10030    2    1    2    0    0  0.00000000000E+00  0.00000000000E+00  0.42597345129E+03  0.27586618868E+04  0.27255755400E+04 0.  0.
        4    1    3    3  502    0  0.11847454620E+04 -0.19061499499E+03  0.86676363937E+03  0.14802826438E+04  0.12699999809E+01 0. -1.
       -4    1    3    3    0  502 -0.11847454620E+04  0.19061499499E+03 -0.44079018808E+03  0.12783792430E+04  0.12699999809E+01 0.  1.
</event>
<event>
 5   0  0.2529875E-07  0.2789793E+04  0.7818609E-02  0.8306444E-01
        1   -1    0    0  501    0  0.00000000000E+00  0.00000000000E+00  0.17844742968E+04  0.17844742968E+04  0.50400001928E-02 0. -1.
       -1   -1    0    0    0  501  0.00000000000E+00  0.00000000000E+00 -0.10903690834E+04  0.10903690834E+04  0.50400001928E-02 0.  1.
    10030    2    1    2    0    0  0.00000000000E+00  0.00000000000E+00  0.69410521339E+03  0.28748433802E+04  0.27897925394E+04 0.  0.
        5    1    3    3  502    0  0.58439977051E+03 -0.28786778837E+03  0.16180742137E+04  0.17442984855E+04  0.46999998093E+01 0. -1.
       -5    1    3    3    0  502 -0.58439977051E+03  0.28786778837E+03 -0.92396900031E+03  0.11305448947E+04  0.46999998093E+01 0.  1.
</event>
<event>
 5   0  0.7649458E-07  0.2983760E+04  0.7818609E-02  0.8248383E-01
        2   -1    0    0  501    0  0.00000000000E+00  0.00000000000E+00  0.14442159005E+04  0.14442159005E+04  0.25500000920E-02 0. -1.
       -2   -1    0    0    0  501  0.00000000000E+00  0.00000000000E+00 -0.15411176485E+04  0.15411176485E+04  0.25500000920E-02 0.  1.
    10030    2    1    2    0    0  0.00000000000E+00  0.00000000000E+00 -0.96901748009E+02  0.29853335491E+04  0.29837604546E+04 0.  0.
        4    1    3    3  502    0  0.27417366207E+03 -0.14498692776E+04  0.17169440173E+03  0.14855210196E+04  0.12699999809E+01 0. -1.
       -4    1    3    3    0  502 -0.27417366207E+03  0.14498692776E+04 -0.26859614974E+03  0.14998125295E+04  0.12699999809E+01 0.  1.
</event>
<event>
 5   0  0.2529875E-07  0.3739770E+04  0.7818609E-02  0.8059205E-01
        1   -1    0    0  501    0  0.00000000000E+00  0.00000000000E+00  0.20380959758E+04  0.20380959758E+04  0.50400001928E-02 0. -1.
       -1   -1    0    0    0  501  0.00000000000E+00  0.00000000000E+00 -0.17155566486E+04  0.17155566486E+04  0.50400001928E-02 0.  1.
    10030    2    1    2    0    0  0.00000000000E+00  0.00000000000E+00  0.32253932719E+03  0.37536526243E+04  0.37397695660E+04 0.  0.
        4    1    3    3  502    0  0.15006504823E+04 -0.78895097482E+03 -0.63037366340E+03  0.18088029409E+04  0.12699999809E+01 0.  1.
       -4    1    3    3    0  502 -0.15006504823E+04  0.78895097482E+03  0.95291299059E+03  0.19448496834E+04  0.12699999809E+01 0. -1.
</event>
<event>
 5   0  0.2688697E-07  0.2384615E+04  0.7818609E-02  0.8445286E-01
        1   -1    0    0  501    0  0.00000000000E+00  0.00000000000E+00  0.14328597558E+04  0.14328597558E+04  0.50400001928E-02 0.  1.
       -1   -1    0    0    0  501  0.00000000000E+00  0.00000000000E+00 -0.99213964498E+03  0.99213964499E+03  0.50400001928E-02 0. -1.
    10030    2    1    2    0    0  0.00000000000E+00  0.00000000000E+00  0.44072011084E+03  0.24249994008E+04  0.23846148280E+04 0.  0.
        1    1    3    3  502    0  0.32891466477E+03 -0.44953244579E+03  0.12924110418E+04  0.14073345648E+04  0.50400001928E-02 0.  1.
       -1    1    3    3    0  502 -0.32891466477E+03  0.44953244579E+03 -0.85169093092E+03  0.10176648360E+04  0.50400001928E-02 0. -1.
</event>
<event>
 5   0  0.7551495E-07  0.3787755E+04  0.7818609E-02  0.8048788E-01
       -2   -1    0    0    0  501  0.00000000000E+00  0.00000000000E+00  0.16908469087E+04  0.16908469087E+04  0.25500000920E-02 0.  1.
        2   -1    0    0  501    0  0.00000000000E+00  0.00000000000E+00 -0.21212871415E+04  0.21212871415E+04  0.25500000920E-02 0. -1.
    10030    2    1    2    0    0  0.00000000000E+00  0.00000000000E+00 -0.43044023277E+03  0.38121340502E+04  0.37877549053E+04 0.  0.
        1    1    3    3  502    0  0.14760506722E+04  0.32297315537E+02  0.97858606139E+03  0.17712705562E+04  0.50400001928E-02 0.  1.
       -1    1    3    3    0  502 -0.14760506722E+04 -0.32297315537E+02 -0.14090262942E+04  0.20408634940E+04  0.50400001928E-02 0. -1.
</event>
<event>
 5   0  0.2529875E-07  0.3819486E+04  0.7818609E-02  0.8041986E-01
        1   -1    0    0  501    0  0.00000000000E+00  0.00000000000E+00  0.18500882387E+04  0.18500882387E+04  0.50400001928E-02 0. -1.
       -1   -1    0    0    0  501  0.00000000000E+00  0.00000000000E+00 -0.19713212923E+04  0.19713212923E+04  0.50400001928E-02 0.  1.
    10030    2    1    2    0    0  0.00000000000E+00  0.00000000000E+00 -0.12123305366E+03  0.38214095310E+04  0.38194860060E+04 0.  0.
        5    1    3    3  502    0 -0.16678892375E+04 -0.58933514602E+03 -0.78064959513E+03  0.19335475953E+04  0.46999998093E+01 0.  1.
       -5    1    3    3    0  502  0.16678892375E+04  0.58933514602E+03  0.65941654147E+03  0.18878619357E+04  0.46999998093E+01 0. -1.
</event>
<event>
 5   0  0.7649458E-07  0.3618595E+04  0.7818609E-02  0.8086246E-01
       -2   -1    0    0    0  501  0.00000000000E+00  0.00000000000E+00  0.15115004513E+04  0.15115004513E+04  0.25500000920E-02 0.  1.
        2   -1    0    0  501    0  0.00000000000E+00  0.00000000000E+00 -0.21657668819E+04  0.21657668819E+04  0.25500000920E-02 0. -1.
    10030    2    1    2    0    0  0.00000000000E+00  0.00000000000E+00 -0.65426643063E+03  0.36772673332E+04  0.36185950972E+04 0.  0.
        4    1    3    3  502    0  0.31729911083E+03 -0.29208852851E+03  0.14585031701E+04  0.15209298288E+04  0.12699999809E+01 0.  1.
       -4    1    3    3    0  502 -0.31729911083E+03  0.29208852851E+03 -0.21127696007E+04  0.21563375044E+04  0.12699999809E+01 0. -1.
</event>
<event>
 5   0  0.7551495E-07  0.3389949E+04  0.7818609E-02  0.8140378E-01
       -2   -1    0    0    0  501  0.00000000000E+00  0.00000000000E+00  0.14415758966E+04  0.14415758966E+04  0.25500000920E-02 0.  1.
        2   -1    0    0  501    0  0.00000000000E+00  0.00000000000E+00 -0.19929148349E+04  0.19929148349E+04  0.25500000920E-02 0. -1.
    10030    2    1    2    0    0  0.00000000000E+00  0.00000000000E+00 -0.55133893834E+03  0.34344907314E+04  0.33899486662E+04 0.  0.
        1    1    3    3  502    0 -0.62784156780E+03 -0.14079460673E+04  0.43817396990E+03  0.16026520491E+04  0.50400001928E-02 0.  1.
       -1    1    3    3    0  502  0.62784156780E+03  0.14079460673E+04 -0.98951290823E+03  0.18318386823E+04  0.50400001928E-02 0. -1.
</event>
<event>
 5   0  0.8421677E-07  0.3829189E+04  0.7818609E-02  0.8039920E-01
        2   -1    0    0  501    0  0.00000000000E+00  0.00000000000E+00  0.24624185555E+04  0.24624185555E+04  0.25500000920E-02 0. -1.
       -2   -1    0    0    0  501  0.00000000000E+00  0.00000000000E+00 -0.14886473630E+04  0.14886473630E+04  0.25500000920E-02 0.  1.
    10030    2    1    2    0    0  0.00000000000E+00  0.00000000000E+00  0.97377119253E+03  0.39510659185E+04  0.38291894125E+04 0.  0.
        3    1    3    3  502    0 -0.16223047775E+04 -0.25737708377E+03  0.15018381334E+04  0.22256759745E+04  0.10100000352E+00 0. -1.
       -3    1    3    3    0  502  0.16223047775E+04  0.25737708377E+03 -0.52806694090E+03  0.17253899439E+04  0.10100000352E+00 0.  1.
</event>
<event>
 5   0  0.8038352E-07  0.3747691E+04  0.7818609E-02  0.8057474E-01
        2   -1    0    0  501    0  0.00000000000E+00  0.00000000000E+00  0.13668500430E+04  0.13668500430E+04  0.25500000920E-02 0. -1.
       -2   -1    0    0    0  501  0.00000000000E+00  0.00000000000E+00 -0.25688976706E+04  0.25688976706E+04  0.25500000920E-02 0.  1.
    10030    2    1    2    0    0  0.00000000000E+00  0.00000000000E+00 -0.12020476276E+04  0.39357477137E+04  0.37476914983E+04 0.  0.
        2    1    3    3  502    0  0.71611574938E+03  0.15455927971E+04  0.21893620438E+03  0.17174434263E+04  0.25500000920E-02 0. -1.
       -2    1    3    3    0  502 -0.71611574938E+03 -0.15455927971E+04 -0.14209838320E+04  0.22183042874E+04  0.25500000920E-02 0.  1.
</event>
<event>
 5   0  0.7551495E-07  0.3816641E+04  0.7818609E-02  0.8042593E-01
        2   -1    0    0  501    0  0.00000000000E+00  0.00000000000E+00  0.29926949641E+04  0.29926949641E+04  0.25500000920E-02 0. -1.
       -2   -1    0    0    0  501  0.00000000000E+00  0.00000000000E+00 -0.12168585449E+04  0.12168585449E+04  0.25500000920E-02 0.  1.
    10030    2    1    2    0    0  0.00000000000E+00  0.00000000000E+00  0.17758364191E+04  0.42095535090E+04  0.38166406377E+04 0.  0.
        1    1    3    3  502    0  0.91088119166E+03 -0.63970134287E+03  0.25975804901E+04  0.28260125188E+04  0.50400001928E-02 0. -1.
       -1    1    3    3    0  502 -0.91088119166E+03  0.63970134287E+03 -0.82174407102E+03  0.13835409902E+04  0.50400001928E-02 0.  1.
</event>
<event>
 5   0  0.7638805E-07  0.3808335E+04  0.7818609E-02  0.8044369E-01
        2   -1    0    0  501    0  0.00000000000E+00  0.00000000000E+00  0.15837007202E+04  0.15837007202E+04  0.25500000920E-02 0.  1.
       -2   -1    0    0    0  501  0.00000000000E+00  0.00000000000E+00 -0.22894821407E+04  0.22894821407E+04  0.25500000920E-02 0. -1.
    10030    2    1    2    0    0  0.00000000000E+00  0.00000000000E+00 -0.70578142050E+03  0.38731828609E+04  0.38083353399E+04 0.  0.
        5    1    3    3  502    0 -0.24485540747E+03 -0.86617836506E+03 -0.20594419087E+04  0.22475636134E+04  0.46999998093E+01 0. -1.
       -5    1    3    3    0  502  0.24485540747E+03  0.86617836506E+03  0.13536604882E+04  0.16256192476E+04  0.46999998093E+01 0.  1.
</event>
<event>
 5   0  0.8038352E-07  0.3780242E+04  0.7818609E-02  0.8050408E-01
        2   -1    0    0  501    0  0.00000000000E+00  0.00000000000E+00  0.20200521501E+04  0.20200521501E+04  0.25500000920E-02 0. -1.
       -2   -1    0    0    0  501  0.00000000000E+00  0.00000000000E+00 -0.17685472842E+04  0.17685472842E+04  0.25500000920E-02 0.  1.
    10030    2    1    2    0    0  0.00000000000E+00  0.00000000000E+00  0.25150486588E+03  0.37885994344E+04  0.37802421849E+04 0.  0.
        2    1    3    3  502    0 -0.17671065828E+04  0.65851961943E+03 -0.19812073362E+01  0.18858201636E+04  0.25500000920E-02 0. -1.
       -2    1    3    3    0  502  0.17671065828E+04 -0.65851961943E+03  0.25348607321E+03  0.19027792708E+04  0.25500000920E-02 0.  1.
</event>
<event>
 5   0  0.2529875E-07  0.3732389E+04  0.7818609E-02  0.8060822E-01
       -1   -1    0    0    0  501  0.00000000000E+00  0.00000000000E+00  0.15583106058E+04  0.15583106058E+04  0.50400001928E-02 0. -1.
        1   -1    0    0  501    0  0.00000000000E+00  0.00000000000E+00 -0.22349083635E+04  0.22349083635E+04  0.50400001928E-02 0.  1.
    10030    2    1    2    0    0  0.00000000000E+00  0.00000000000E+00 -0.67659775766E+03  0.37932189693E+04  0.37323887289E+04 0.  0.
        3    1    3    3  502    0  0.12108007534E+04 -0.39826323159E+03 -0.17236100202E+04  0.21437079041E+04  0.10100000352E+00 0.  1.
       -3    1    3    3    0  502 -0.12108007534E+04  0.39826323159E+03  0.10470122626E+04  0.16495110652E+04  0.10100000352E+00 0. -1.
</event>
<event>
 5   0  0.2529875E-07  0.3800335E+04  0.7818609E-02  0.8046083E-01
       -1   -1    0    0    0  501  0.00000000000E+00  0.00000000000E+00  0.30460093820E+04  0.30460093820E+04  0.50400001928E-02 0.  1.
        1   -1    0    0  501    0  0.00000000000E+00  0.00000000000E+00 -0.11853660013E+04  0.11853660013E+04  0.50400001928E-02 0. -1.
    10030    2    1    2    0    0  0.00000000000E+00  0.00000000000E+00  0.18606433807E+04  0.42313753832E+04  0.38003347016E+04 0.  0.
        1    1    3    3  502    0  0.54694946765E+03 -0.62253072318E+03 -0.97357670674E+03  0.12784951409E+04  0.50400001928E-02 0. -1.
       -1    1    3    3    0  502 -0.54694946765E+03  0.62253072318E+03  0.28342200874E+04  0.29528802423E+04  0.50400001928E-02 0.  1.
</event>
<event>
 5   0  0.8038352E-07  0.3768288E+04  0.7818609E-02  0.8052995E-01
       -2   -1    0    0    0  501  0.00000000000E+00  0.00000000000E+00  0.13966937634E+04  0.13966937634E+04  0.25500000920E-02 0.  1.
        2   -1    0    0  501    0  0.00000000000E+00  0.00000000000E+00 -0.25417158234E+04  0.25417158234E+04  0.25500000920E-02 0. -1.
    10030    2    1    2    0    0  0.00000000000E+00  0.00000000000E+00 -0.11450220600E+04  0.39384095868E+04  0.37682880138E+04 0.  0.
        2    1    3    3  502    0  0.55988832281E+03 -0.95360495212E+03 -0.21668844077E+04  0.24327403016E+04  0.25500000920E-02 0. -1.
       -2    1    3    3    0  502 -0.55988832281E+03  0.95360495212E+03  0.10218623477E+04  0.15056692852E+04  0.25500000920E-02 0.  1.
</event>
<event>
 5   0  0.7638805E-07  0.3920177E+04  0.7818609E-02  0.8020846E-01
       -2   -1    0    0    0  501  0.00000000000E+00  0.00000000000E+00  0.15790423528E+04  0.15790423528E+04  0.25500000920E-02 0.  1.
        2   -1    0    0  501    0  0.00000000000E+00  0.00000000000E+00 -0.24330861085E+04  0.24330861085E+04  0.25500000920E-02 0. -1.
    10030    2    1    2    0    0  0.00000000000E+00  0.00000000000E+00 -0.85404375568E+03  0.40121284613E+04  0.39201765335E+04 0.  0.
        5    1    3    3  502    0  0.95370467331E+03  0.14785163586E+04 -0.13112077801E+04  0.21942769103E+04  0.46999998093E+01 0. -1.
       -5    1    3    3    0  502 -0.95370467331E+03 -0.14785163586E+04  0.45716402439E+03  0.18178515511E+04  0.46999998093E+01 0.  1.
</event>
<event>
 5   0  0.7638805E-07  0.3815820E+04  0.7818609E-02  0.8042769E-01
       -2   -1    0    0    0  501  0.00000000000E+00  0.00000000000E+00  0.13232845390E+04  0.13232845390E+04  0.25500000920E-02 0.  1.
        2   -1    0    0  501    0  0.00000000000E+00  0.00000000000E+00 -0.27508216253E+04  0.27508216253E+04  0.25500000920E-02 0. -1.
    10030    2    1    2    0    0  0.00000000000E+00  0.00000000000E+00 -0.14275370863E+04  0.40741061643E+04  0.38158195588E+04 0.  0.
        5    1    3    3  502    0 -0.68104306758E+02  0.15131118550E+04  0.52491192817E+03  0.16030284790E+04  0.46999998093E+01 0. -1.
       -5    1    3    3    0  502  0.68104306758E+02 -0.15131118550E+04 -0.19524490145E+04  0.24710776852E+04  0.46999998093E+01 0.  1.
</event>
<event>
 5   0  0.2529875E-07  0.2552611E+04  0.7818609E-02  0.8384479E-01
       -1   -1    0    0    0  501  0.00000000000E+00  0.00000000000E+00  0.19700050827E+04  0.19700050827E+04  0.50400001928E-02 0.  1.
        1   -1    0    0  501    0  0.00000000000E+00  0.00000000000E+00 -0.82687871169E+03  0.82687871171E+03  0.50400001928E-02 0. -1.
    10030    2    1    2    0    0  0.00000000000E+00  0.00000000000E+00  0.11431263710E+04  0.27968837944E+04  0.25526106360E+04 0.  0.
        4    1    3    3  502    0 -0.52832738459E+02 -0.10512034567E+04 -0.21941481550E+03  0.10751578860E+04  0.12699999809E+01 0. -1.
       -4    1    3    3    0  502  0.52832738459E+02  0.10512034567E+04  0.13625411865E+04  0.17217259083E+04  0.12699999809E+01 0.  1.
</event>
<event>
 5   0  0.2529875E-07  0.3766937E+04  0.7818609E-02  0.8053288E-01
       -1   -1    0    0    0  501  0.00000000000E+00  0.00000000000E+00  0.29795050135E+04  0.29795050135E+04  0.50400001928E-02 0. -1.
        1   -1    0    0  501    0  0.00000000000E+00  0.00000000000E+00 -0.11906182230E+04  0.11906182230E+04  0.50400001928E-02 0.  1.
    10030    2    1    2    0    0  0.00000000000E+00  0.00000000000E+00  0.17888867905E+04  0.41701232365E+04  0.37669366677E+04 0.  0.
        5    1    3    3  502    0  0.13089296108E+04  0.95658468629E+03 -0.16685425317E+03  0.16297893790E+04  0.46999998093E+01 0.  1.
       -5    1    3    3    0  502 -0.13089296108E+04 -0.95658468629E+03  0.19557410436E+04  0.25403338575E+04  0.46999998093E+01 0. -1.
</event>
<event>
 5   0  0.7551495E-07  0.3482012E+04  0.7818609E-02  0.8118066E-01
        2   -1    0    0  501    0  0.00000000000E+00  0.00000000000E+00  0.22429476042E+04  0.22429476042E+04  0.25500000920E-02 0. -1.
       -2   -1    0    0    0  501  0.00000000000E+00  0.00000000000E+00 -0.13513920753E+04  0.13513920753E+04  0.25500000920E-02 0.  1.
    10030    2    1    2    0    0  0.00000000000E+00  0.00000000000E+00  0.89155552887E+03  0.35943396796E+04  0.34820118425E+04 0.  0.
        1    1    3    3  502    0 -0.14626139077E+04  0.40309887970E+03  0.13273620782E+04  0.20158418183E+04  0.50400001928E-02 0. -1.
       -1    1    3    3    0  502  0.14626139077E+04 -0.40309887970E+03 -0.43580654929E+03  0.15784978613E+04  0.50400001928E-02 0.  1.
</event>
<event>
 5   0  0.7649458E-07  0.3867002E+04  0.7818609E-02  0.8031927E-01
        2   -1    0    0  501    0  0.00000000000E+00  0.00000000000E+00  0.23001439386E+04  0.23001439386E+04  0.25500000920E-02 0.  1.
       -2   -1    0    0    0  501  0.00000000000E+00  0.00000000000E+00 -0.16253009082E+04  0.16253009082E+04  0.25500000920E-02 0. -1.
    10030    2    1    2    0    0  0.00000000000E+00  0.00000000000E+00  0.67484303044E+03  0.39254448468E+04  0.38670019562E+04 0.  0.
        4    1    3    3  502    0  0.14008530354E+04 -0.12747439056E+04  0.73196400575E+03  0.20305502137E+04  0.12699999809E+01 0.  1.
       -4    1    3    3    0  502 -0.14008530354E+04  0.12747439056E+04 -0.57120975307E+02  0.18948946331E+04  0.12699999809E+01 0. -1.
</event>
<event>
 5   0  0.8038352E-07  0.3699161E+04  0.7818609E-02  0.8068148E-01
        2   -1    0    0  501    0  0.00000000000E+00  0.00000000000E+00  0.18094586036E+04  0.18094586036E+04  0.25500000920E-02 0.  1.
       -2   -1    0    0    0  501  0.00000000000E+00  0.00000000000E+00 -0.18905917009E+04  0.18905917009E+04  0.25500000920E-02 0. -1.
    10030    2    1    2    0    0  0.00000000000E+00  0.00000000000E+00 -0.81133097376E+02  0.37000503045E+04  0.36991606719E+04 0.  0.
        2    1    3    3  502    0  0.33185835560E+03 -0.21410306230E+03  0.17667928359E+04  0.18103941600E+04  0.25500000920E-02 0.  1.
       -2    1    3    3    0  502 -0.33185835560E+03  0.21410306230E+03 -0.18479259333E+04  0.18896561445E+04  0.25500000920E-02 0. -1.
</event>
<event>
 5   0  0.8038352E-07  0.3220197E+04  0.7818609E-02  0.8183504E-01
       -2   -1    0    0    0  501  0.00000000000E+00  0.00000000000E+00  0.16286339996E+04  0.16286339996E+04  0.25500000920E-02 0. -1.
        2   -1    0    0  501    0  0.00000000000E+00  0.00000000000E+00 -0.15917738749E+04  0.15917738749E+04  0.25500000920E-02 0.  1.
    10030    2    1    2    0    0  0.00000000000E+00  0.00000000000E+00  0.36860124708E+02  0.32204078746E+04  0.32201969210E+04 0.  0.
        2    1    3    3  502    0  0.11597305001E+04 -0.11168829773E+04  0.14604305603E+02  0.16101601485E+04  0.25500000920E-02 0.  1.
       -2    1    3    3    0  502 -0.11597305001E+04  0.11168829773E+04  0.22255819105E+02  0.16102477261E+04  0.25500000920E-02 0. -1.
</event>
<event>
 5   0  0.2907071E-07  0.3779138E+04  0.7818609E-02  0.8050647E-01
       -1   -1    0    0    0  501  0.00000000000E+00  0.00000000000E+00  0.21333497361E+04  0.21333497361E+04  0.50400001928E-02 0.  1.
        1   -1    0    0  501    0  0.00000000000E+00  0.00000000000E+00 -0.16736454312E+04  0.16736454312E+04  0.50400001928E-02 0. -1.
    10030    2    1    2    0    0  0.00000000000E+00  0.00000000000E+00  0.45970430492E+03  0.38069951673E+04  0.37791380176E+04 0.  0.
        2    1    3    3  502    0 -0.86342734465E+03  0.53594744585E+03  0.18346185309E+04  0.20972771868E+04  0.25500000920E-02 0.  1.
       -2    1    3    3    0  502  0.86342734465E+03 -0.53594744585E+03 -0.13749142260E+04  0.17097179805E+04  0.25500000920E-02 0. -1.
</event>
<event>
 5   0  0.2584117E-07  0.2360495E+04  0.7818609E-02  0.8454443E-01
       -1   -1    0    0    0  501  0.00000000000E+00  0.00000000000E+00  0.13706985052E+04  0.13706985052E+04  0.50400001928E-02 0.  1.
        1   -1    0    0  501    0  0.00000000000E+00  0.00000000000E+00 -0.10162587529E+04  0.10162587529E+04  0.50400001928E-02 0. -1.
    10030    2    1    2    0    0  0.00000000000E+00  0.00000000000E+00  0.35443975230E+03  0.23869572581E+04  0.23604951629E+04 0.  0.
        3    1    3    3  502    0 -0.10490728902E+04 -0.53227135756E+03  0.27377652495E+03  0.12078163448E+04  0.10100000352E+00 0.  1.
       -3    1    3    3    0  502  0.10490728902E+04  0.53227135756E+03  0.80663227345E+02  0.11791409133E+04  0.10100000352E+00 0. -1.
</event>
<event>
 5   0  0.7638805E-07  0.3819961E+04  0.7818609E-02  0.8041885E-01
       -2   -1    0    0    0  501  0.00000000000E+00  0.00000000000E+00  0.23638876378E+04  0.23638876378E+04  0.25500000920E-02 0.  1.
        2   -1    0    0  501    0  0.00000000000E+00  0.00000000000E+00 -0.15432315176E+04  0.15432315176E+04  0.25500000920E-02 0. -1.
    10030    2    1    2    0    0  0.00000000000E+00  0.00000000000E+00  0.82065612017E+03  0.39071191554E+04  0.38199612075E+04 0.  0.
        5    1    3    3  502    0  0.85609144867E+03 -0.60144056604E+02  0.21555700316E+04  0.23201323512E+04  0.46999998093E+01 0.  1.
       -5    1    3    3    0  502 -0.85609144867E+03  0.60144056604E+02 -0.13349139114E+04  0.15869868042E+04  0.46999998093E+01 0. -1.
</event>
<event>
 5   0  0.7551495E-07  0.3853620E+04  0.7818609E-02  0.8034745E-01
       -2   -1    0    0    0  501  0.00000000000E+00  0.00000000000E+00  0.12398949931E+04  0.12398949931E+04  0.25500000920E-02 0.  1.
        2   -1    0    0  501    0  0.00000000000E+00  0.00000000000E+00 -0.29942825446E+04  0.29942825446E+04  0.25500000920E-02 0. -1.
    10030    2    1    2    0    0  0.00000000000E+00  0.00000000000E+00 -0.17543875515E+04  0.42341775377E+04  0.38536195635E+04 0.  0.
        1    1    3    3  502    0 -0.18173503676E+03 -0.60090835979E+03  0.11243710552E+04  0.12877611387E+04  0.50400001928E-02 0.  1.
       -1    1    3    3    0  502  0.18173503676E+03  0.60090835979E+03 -0.28787586067E+04  0.29464163990E+04  0.50400001928E-02 0. -1.
</event>
<event>
 5   0  0.2529875E-07  0.3757545E+04  0.7818609E-02  0.8055327E-01
        1   -1    0    0  501    0  0.00000000000E+00  0.00000000000E+00  0.12219841886E+04  0.12219841886E+04  0.50400001928E-02 0.  1.
       -1   -1    0    0    0  501  0.00000000000E+00  0.00000000000E+00 -0.28885700295E+04  0.28885700295E+04  0.50400001928E-02 0. -1.
    10030    2    1    2    0    0  0.00000000000E+00  0.00000000000E+00 -0.16665858409E+04  0.41105542181E+04  0.37575454241E+04 0.  0.
        4    1    3    3  502    0  0.59397507163E+03 -0.16721499699E+04 -0.15814667701E+03  0.17815453663E+04  0.12699999809E+01 0.  1.
       -4    1    3    3    0  502 -0.59397507163E+03  0.16721499699E+04 -0.15084391639E+04  0.23290088518E+04  0.12699999809E+01 0. -1.
</event>
<event>
 5   0  0.2529875E-07  0.3026842E+04  0.7818609E-02  0.8236107E-01
        1   -1    0    0  501    0  0.00000000000E+00  0.00000000000E+00  0.17711919690E+04  0.17711919690E+04  0.50400001928E-02 0. -1.
       -1   -1    0    0    0  501  0.00000000000E+00  0.00000000000E+00 -0.12931647502E+04  0.12931647502E+04  0.50400001928E-02 0.  1.
    10030    2    1    2    0    0  0.00000000000E+00  0.00000000000E+00  0.47802721879E+03  0.30643567192E+04  0.30268419319E+04 0.  0.
        3    1    3    3  502    0 -0.26211296210E+03  0.86309148624E+02  0.17455057833E+04  0.17671850282E+04  0.10100000352E+00 0. -1.
       -3    1    3    3    0  502  0.26211296210E+03 -0.86309148624E+02 -0.12674785646E+04  0.12971716910E+04  0.10100000352E+00 0.  1.
</event>
<event>
 5   0  0.7638805E-07  0.3682731E+04  0.7818609E-02  0.8071800E-01
       -2   -1    0    0    0  501  0.00000000000E+00  0.00000000000E+00  0.23565050798E+04  0.23565050798E+04  0.25500000920E-02 0. -1.
        2   -1    0    0  501    0  0.00000000000E+00  0.00000000000E+00 -0.14388369693E+04  0.14388369693E+04  0.25500000920E-02 0.  1.
    10030    2    1    2    0    0  0.00000000000E+00  0.00000000000E+00  0.91766811043E+03  0.37953420491E+04  0.36827308494E+04 0.  0.
        5    1    3    3  502    0  0.91073766693E+03  0.12469845295E+03 -0.11854506779E+04  0.15001027304E+04  0.46999998093E+01 0.  1.
       -5    1    3    3    0  502 -0.91073766693E+03 -0.12469845295E+03  0.21031187883E+04  0.22952393187E+04  0.46999998093E+01 0. -1.
</event>
<event>
 5   0  0.7638805E-07  0.3805474E+04  0.7818609E-02  0.8044981E-01
       -2   -1    0    0    0  501  0.00000000000E+00  0.00000000000E+00  0.14140838946E+04  0.14140838946E+04  0.25500000920E-02 0. -1.
        2   -1    0    0  501    0  0.00000000000E+00  0.00000000000E+00 -0.25602492653E+04  0.25602492653E+04  0.25500000920E-02 0.  1.
    10030    2    1    2    0    0  0.00000000000E+00  0.00000000000E+00 -0.11461653708E+04  0.39743331599E+04  0.38054735591E+04 0.  0.
        5    1    3    3  502    0  0.69408099315E+03 -0.52192763773E+03  0.11950341108E+04  0.14772560713E+04  0.46999998093E+01 0. -1.
       -5    1    3    3    0  502 -0.69408099315E+03  0.52192763773E+03 -0.23411994816E+04  0.24970770886E+04  0.46999998093E+01 0.  1.
</event>
<event>
 5   0  0.8038352E-07  0.3822168E+04  0.7818609E-02  0.8041414E-01
        2   -1    0    0  501    0  0.00000000000E+00  0.00000000000E+00  0.19187685890E+04  0.19187685890E+04  0.25500000920E-02 0.  1.
       -2   -1    0    0    0  501  0.00000000000E+00  0.00000000000E+00 -0.19034305390E+04  0.19034305390E+04  0.25500000920E-02 0. -1.
    10030    2    1    2    0    0  0.00000000000E+00  0.00000000000E+00  0.15338049990E+02  0.38221991280E+04  0.38221683529E+04 0.  0.
        2    1    3    3  502    0 -0.11540052767E+03  0.70025645035E+03  0.17821033164E+04  0.19182201668E+04  0.25500000920E-02 0.  1.
       -2    1    3    3    0  502  0.11540052767E+03 -0.70025645035E+03 -0.17667652664E+04  0.19039789612E+04  0.25500000920E-02 0. -1.
</event>
<event>
 5   0  0.7649458E-07  0.3620507E+04  0.7818609E-02  0.8085810E-01
        2   -1    0    0  501    0  0.00000000000E+00  0.00000000000E+00  0.22891718032E+04  0.22891718032E+04  0.25500000920E-02 0. -1.
       -2   -1    0    0    0  501  0.00000000000E+00  0.00000000000E+00 -0.14315301813E+04  0.14315301813E+04  0.25500000920E-02 0.  1.
    10030    2    1    2    0    0  0.00000000000E+00  0.00000000000E+00  0.85764162189E+03  0.37207019845E+04  0.36205074377E+04 0.  0.
        4    1    3    3  502    0  0.73025475396E+03  0.15530455477E+04  0.10207775792E+04  0.19968001798E+04  0.12699999809E+01 0. -1.
       -4    1    3    3    0  502 -0.73025475396E+03 -0.15530455477E+04 -0.16313595736E+03  0.17239018047E+04  0.12699999809E+01 0.  1.
</event>
<event>
 5   0  0.2529875E-07  0.3503525E+04  0.7818609E-02  0.8112955E-01
       -1   -1    0    0    0  501  0.00000000000E+00  0.00000000000E+00  0.12775145542E+04  0.12775145542E+04  0.50400001928E-02 0. -1.
        1   -1    0    0  501    0  0.00000000000E+00  0.00000000000E+00 -0.24020641530E+04  0.24020641530E+04  0.50400001928E-02 0.  1.
    10030    2    1    2    0    0  0.00000000000E+00  0.00000000000E+00 -0.11245495988E+04  0.36795787071E+04  0.35035250337E+04 0.  0.
        1    1    3    3  502    0  0.11568433617E+04  0.11405215311E+04  0.12609685841E+03  0.16294098147E+04  0.50400001928E-02 0. -1.
       -1    1    3    3    0  502 -0.11568433617E+04 -0.11405215311E+04 -0.12506464572E+04  0.20501688924E+04  0.50400001928E-02 0.  1.
</event>
<event>
 5   0  0.2529875E-07  0.3303420E+04  0.7818609E-02  0.8162026E-01
        1   -1    0    0  501    0  0.00000000000E+00  0.00000000000E+00  0.16704917831E+04  0.16704917831E+04  0.50400001928E-02 0.  1.
       -1   -1    0    0    0  501  0.00000000000E+00  0.00000000000E+00 -0.16331398765E+04  0.16331398765E+04  0.50400001928E-02 0. -1.
    10030    2    1    2    0    0  0.00000000000E+00  0.00000000000E+00  0.37351906639E+02  0.33036316597E+04  0.33034204967E+04 0.  0.
        1    1    3    3  502    0  0.11866635084E+04 -0.47528464859E+03  0.10647260680E+04  0.16636428040E+04  0.50400001928E-02 0.  1.
       -1    1    3    3    0  502 -0.11866635084E+04  0.47528464859E+03 -0.10273741614E+04  0.16399888557E+04  0.50400001928E-02 0. -1.
</event>
<event>
 5   0  0.2529875E-07  0.3819634E+04  0.7818609E-02  0.8041955E-01
       -1   -1    0    0    0  501  0.00000000000E+00  0.00000000000E+00  0.19986474848E+04  0.19986474848E+04  0.50400001928E-02 0.  1.
        1   -1    0    0  501    0  0.00000000000E+00  0.00000000000E+00 -0.18249344148E+04  0.18249344148E+04  0.50400001928E-02 0. -1.
    10030    2    1    2    0    0  0.00000000000E+00  0.00000000000E+00  0.17371307001E+03  0.38235818996E+04  0.38196337929E+04 0.  0.
        5    1    3    3  502    0  0.33726226361E+03  0.11861930518E+04  0.15466432253E+04  0.19781120158E+04  0.46999998093E+01 0.  1.
       -5    1    3    3    0  502 -0.33726226361E+03 -0.11861930518E+04 -0.13729301553E+04  0.18454698838E+04  0.46999998093E+01 0. -1.
</event>
<event>
 5   0  0.7551495E-07  0.3939602E+04  0.7818609E-02  0.8016843E-01
        2   -1    0    0  501    0  0.00000000000E+00  0.00000000000E+00  0.30993236443E+04  0.30993236443E+04  0.25500000920E-02 0.  1.
       -2   -1    0    0    0  501  0.00000000000E+00  0.00000000000E+00 -0.12519236057E+04  0.12519236057E+04  0.25500000920E-02 0. -1.
    10030    2    1    2    0    0  0.00000000000E+00  0.00000000000E+00  0.18474000386E+04  0.43512472500E+04  0.39396022297E+04 0.  0.
        1    1    3    3  502    0 -0.60650182231E+02  0.13481948360E+04  0.25084814785E+04  0.28484710089E+04  0.50400001928E-02 0. -1.
       -1    1    3    3    0  502  0.60650182231E+02 -0.13481948360E+04 -0.66108143991E+03  0.15027762411E+04  0.50400001928E-02 0.  1.
</event>
<event>
 5   0  0.7649458E-07  0.3922299E+04  0.7818609E-02  0.8020407E-01
        2   -1    0    0  501    0  0.00000000000E+00  0.00000000000E+00  0.14929964951E+04  0.14929964951E+04  0.25500000920E-02 0.  1.
       -2   -1    0    0    0  501  0.00000000000E+00  0.00000000000E+00 -0.25760993671E+04  0.25760993671E+04  0.25500000920E-02 0. -1.
    10030    2    1    2    0    0  0.00000000000E+00  0.00000000000E+00 -0.10831028721E+04  0.40690958622E+04  0.39222989820E+04 0.  0.
        4    1    3    3  502    0 -0.13390815828E+04 -0.27596991382E+03  0.91705908911E+03  0.16462982308E+04  0.12699999809E+01 0.  1.
       -4    1    3    3    0  502  0.13390815828E+04  0.27596991382E+03 -0.20001619612E+04  0.24227976314E+04  0.12699999809E+01 0. -1.
</event>
<event>
 5   0  0.2529875E-07  0.3847841E+04  0.7818609E-02  0.8035966E-01
       -1   -1    0    0    0  501  0.00000000000E+00  0.00000000000E+00  0.17083142460E+04  0.17083142460E+04  0.50400001928E-02 0.  1.
        1   -1    0    0  501    0  0.00000000000E+00  0.00000000000E+00 -0.21667383798E+04  0.21667383798E+04  0.50400001928E-02 0. -1.
    10030    2    1    2    0    0  0.00000000000E+00  0.00000000000E+00 -0.45842413379E+03  0.38750526257E+04  0.38478409746E+04 0.  0.
        4    1    3    3  502    0  0.76771197114E+02  0.18471930568E+04 -0.76537967943E+03  0.20009556897E+04  0.12699999809E+01 0. -1.
       -4    1    3    3    0  502 -0.76771197114E+02 -0.18471930568E+04  0.30695554564E+03  0.18740969360E+04  0.12699999809E+01 0.  1.
</event>
<event>
 5   0  0.2529875E-07  0.3811745E+04  0.7818609E-02  0.8043639E-01
        1   -1    0    0  501    0  0.00000000000E+00  0.00000000000E+00  0.26285025789E+04  0.26285025789E+04  0.50400001928E-02 0.  1.
       -1   -1    0    0    0  501  0.00000000000E+00  0.00000000000E+00 -0.13819082607E+04  0.13819082607E+04  0.50400001928E-02 0. -1.
    10030    2    1    2    0    0  0.00000000000E+00  0.00000000000E+00  0.12465943182E+04  0.40104108396E+04  0.38117447066E+04 0.  0.
        5    1    3    3  502    0  0.74994488302E+03  0.91684080010E+03 -0.94761021975E+03  0.15169052702E+04  0.46999998093E+01 0. -1.
       -5    1    3    3    0  502 -0.74994488302E+03 -0.91684080010E+03  0.21942045379E+04  0.24935055694E+04  0.46999998093E+01 0.  1.
</event>
<event>
 5   0  0.7551495E-07  0.3773809E+04  0.7818609E-02  0.8051799E-01
       -2   -1    0    0    0  501  0.00000000000E+00  0.00000000000E+00  0.30794196103E+04  0.30794196103E+04  0.25500000920E-02 0. -1.
        2   -1    0    0  501    0  0.00000000000E+00  0.00000000000E+00 -0.11561944516E+04  0.11561944516E+04  0.25500000920E-02 0.  1.
    10030    2    1    2    0    0  0.00000000000E+00  0.00000000000E+00  0.19232251587E+04  0.42356140619E+04  0.37738086160E+04 0.  0.
        1    1    3    3  502    0 -0.15947636405E+04 -0.83111627462E+03  0.16028221065E+04  0.24089549676E+04  0.50400001928E-02 0. -1.
       -1    1    3    3    0  502  0.15947636405E+04  0.83111627462E+03  0.32040305223E+03  0.18266590943E+04  0.50400001928E-02 0.  1.
</event>
<event>
 5   0  0.2529875E-07  0.3565251E+04  0.7818609E-02  0.8098498E-01
        1   -1    0    0  501    0  0.00000000000E+00  0.00000000000E+00  0.17407720982E+04  0.17407720982E+04  0.50400001928E-02 0.  1.
       -1   -1    0    0    0  501  0.00000000000E+00  0.00000000000E+00 -0.18254847193E+04  0.18254847193E+04  0.50400001928E-02 0. -1.
    10030    2    1    2    0    0  0.00000000000E+00  0.00000000000E+00 -0.84712621125E+02  0.35662568175E+04  0.35652505466E+04 0.  0.
        3    1    3    3  502    0  0.66668254266E+03  0.40332062572E+03  0.15614114420E+04  0.17450326190E+04  0.10100000352E+00 0.  1.
       -3    1    3    3    0  502 -0.66668254266E+03 -0.40332062572E+03 -0.16461240631E+04  0.18212241985E+04  0.10100000352E+00 0. -1.
</event>
<event>
 5   0  0.8038352E-07  0.3064637E+04  0.7818609E-02  0.8225511E-01
       -2   -1    0    0    0  501  0.00000000000E+00  0.00000000000E+00  0.11413849940E+04  0.11413849940E+04  0.25500000920E-02 0. -1.
        2   -1    0    0  501    0  0.00000000000E+00  0.00000000000E+00 -0.20571494073E+04  0.20571494073E+04  0.25500000920E-02 0.  1.
    10030    2    1    2    0    0  0.00000000000E+00  0.00000000000E+00 -0.91576441332E+03  0.31985344013E+04  0.30646366597E+04 0.  0.
        2    1    3    3  502    0 -0.10958289149E+04  0.54217073408E+03  0.50616840891E+03  0.13232522714E+04  0.25500000920E-02 0. -1.
       -2    1    3    3    0  502  0.10958289149E+04 -0.54217073408E+03 -0.14219328222E+04  0.18752821299E+04  0.25500000920E-02 0.  1.
</event>
<event>
 5   0  0.8038352E-07  0.3974397E+04  0.7818609E-02  0.8009732E-01
       -2   -1    0    0    0  501  0.00000000000E+00  0.00000000000E+00  0.13667725443E+04  0.13667725443E+04  0.25500000920E-02 0.  1.
        2   -1    0    0  501    0  0.00000000000E+00  0.00000000000E+00 -0.28892573768E+04  0.28892573768E+04  0.25500000920E-02 0. -1.
    10030    2    1    2    0    0  0.00000000000E+00  0.00000000000E+00 -0.15224848325E+04  0.42560299211E+04  0.39743968881E+04 0.  0.
        2    1    3    3  502    0  0.10284996343E+04 -0.95539364029E+03 -0.22674578869E+04  0.26668246614E+04  0.25500000920E-02 0. -1.
       -2    1    3    3    0  502 -0.10284996343E+04  0.95539364029E+03  0.74497305439E+03  0.15892052597E+04  0.25500000920E-02 0.  1.
</event>
<event>
 5   0  0.7649458E-07  0.3811616E+04  0.7818609E-02  0.8043667E-01
        2   -1    0    0  501    0  0.00000000000E+00  0.00000000000E+00  0.25875267216E+04  0.25875267216E+04  0.25500000920E-02 0. -1.
       -2   -1    0    0    0  501  0.00000000000E+00  0.00000000000E+00 -0.14036975038E+04  0.14036975038E+04  0.25500000920E-02 0.  1.
    10030    2    1    2    0    0  0.00000000000E+00  0.00000000000E+00  0.11838292178E+04  0.39912242254E+04  0.38116163502E+04 0.  0.
        4    1    3    3  502    0  0.66464985602E+02  0.32029332287E+03  0.25579101558E+04  0.25787422099E+04  0.12699999809E+01 0. -1.
       -4    1    3    3    0  502 -0.66464985602E+02 -0.32029332287E+03 -0.13740809381E+04  0.14124820155E+04  0.12699999809E+01 0.  1.
</event>
<event>
 5   0  0.8421677E-07  0.3692293E+04  0.7818609E-02  0.8069672E-01
       -2   -1    0    0    0  501  0.00000000000E+00  0.00000000000E+00  0.14387942776E+04  0.14387942776E+04  0.25500000920E-02 0.  1.
        2   -1    0    0  501    0  0.00000000000E+00  0.00000000000E+00 -0.23688281494E+04  0.23688281494E+04  0.25500000920E-02 0. -1.
    10030    2    1    2    0    0  0.00000000000E+00  0.00000000000E+00 -0.93003387178E+03  0.38076224271E+04  0.36922927219E+04 0.  0.
        3    1    3    3  502    0  0.12915658588E+03 -0.33356543717E+03 -0.23327514020E+04  0.23600161945E+04  0.10100000352E+00 0. -1.
       -3    1    3    3    0  502 -0.12915658588E+03  0.33356543717E+03  0.14027175303E+04  0.14476062325E+04  0.10100000352E+00 0.  1.
</event>
<event>
 5   0  0.7551495E-07  0.3686629E+04  0.7818609E-02  0.8070932E-01
       -2   -1    0    0    0  501  0.00000000000E+00  0.00000000000E+00  0.16815859668E+04  0.16815859668E+04  0.25500000920E-02 0. -1.
        2   -1    0    0  501    0  0.00000000000E+00  0.00000000000E+00 -0.20205969979E+04  0.20205969979E+04  0.25500000920E-02 0.  1.
    10030    2    1    2    0    0  0.00000000000E+00  0.00000000000E+00 -0.33901103110E+03  0.37021829646E+04  0.36866285715E+04 0.  0.
        1    1    3    3  502    0  0.53029321452E+03 -0.11400253372E+04  0.11841203807E+04  0.17271391776E+04  0.50400001928E-02 0. -1.
       -1    1    3    3    0  502 -0.53029321452E+03  0.11400253372E+04 -0.15231314118E+04  0.19750437870E+04  0.50400001928E-02 0.  1.
</event>
<event>
 5   0  0.7638805E-07  0.3788950E+04  0.7818609E-02  0.8048530E-01
        2   -1    0    0  501    0  0.00000000000E+00  0.00000000000E+00  0.28183789335E+04  0.28183789335E+04  0.25500000920E-02 0. -1.
       -2   -1    0    0    0  501  0.00000000000E+00  0.00000000000E+00 -0.12734394737E+04  0.12734394737E+04  0.25500000920E-02 0.  1.
    10030    2    1    2    0    0  0.00000000000E+00  0.00000000000E+00  0.15449394598E+04  0.40918184073E+04  0.37889497151E+04 0.  0.
        5    1    3    3  502    0 -0.99738201169E+03  0.15592063766E+04  0.12086316843E+04  0.22105899756E+04  0.46999998093E+01 0. -1.
       -5    1    3    3    0  502  0.99738201169E+03 -0.15592063766E+04  0.33630777558E+03  0.18812284316E+04  0.46999998093E+01 0.  1.
</event>
<event>
 5   0  0.2529875E-07  0.2472876E+04  0.7818609E-02  0.8412713E-01
       -1   -1    0    0    0  501  0.00000000000E+00  0.00000000000E+00  0.99884754120E+03  0.99884754122E+03  0.50400001928E-02 0. -1.
        1   -1    0    0  501    0  0.00000000000E+00  0.00000000000E+00 -0.15305424512E+04  0.15305424512E+04  0.50400001928E-02 0.  1.
    10030    2    1    2    0    0  0.00000000000E+00  0.00000000000E+00 -0.53169491000E+03  0.25293899924E+04  0.24728757058E+04 0.  0.
        4    1    3    3  502    0 -0.47535612807E+03  0.80925128248E+03  0.55748676532E+03  0.10916245660E+04  0.12699999809E+01 0. -1.
       -4    1    3    3    0  502  0.47535612807E+03 -0.80925128248E+03 -0.10891816753E+04  0.14377654264E+04  0.12699999809E+01 0.  1.
</event>
<event>
 5   0  0.2529875E-07  0.3210402E+04  0.7818609E-02  0.8186075E-01
        1   -1    0    0  501    0  0.00000000000E+00  0.00000000000E+00  0.23246165029E+04  0.23246165029E+04  0.50400001928E-02 0. -1.
       -1   -1    0    0    0  501  0.00000000000E+00  0.00000000000E+00 -0.11084283374E+04  0.11084283374E+04  0.50400001928E-02 0.  1.
    10030    2    1    2    0    0  0.00000000000E+00  0.00000000000E+00  0.12161881655E+04  0.34330448403E+04  0.32104023457E+04 0.  0.
        5    1    3    3  502    0  0.71011798197E+03  0.32975243341E+03 -0.89038762089E+03  0.11856712955E+04  0.46999998093E+01 0.  1.
       -5    1    3    3    0  502 -0.71011798197E+03 -0.32975243341E+03  0.21065757864E+04  0.22473735447E+04  0.46999998093E+01 0. -1.
</event>
<event>
 5   0  0.7649458E-07  0.3901839E+04  0.7818609E-02  0.8024647E-01
        2   -1    0    0  501    0  0.00000000000E+00  0.00000000000E+00  0.19242142011E+04  0.19242142011E+04  0.25500000920E-02 0. -1.
       -2   -1    0    0    0  501  0.00000000000E+00  0.00000000000E+00 -0.19779952917E+04  0.19779952917E+04  0.25500000920E-02 0.  1.
    10030    2    1    2    0    0  0.00000000000E+00  0.00000000000E+00 -0.53781090653E+02  0.39022094928E+04  0.39018388639E+04 0.  0.
        4    1    3    3  502    0  0.52466293659E+03 -0.16721706159E+04 -0.88409462018E+03  0.19629189174E+04  0.12699999809E+01 0.  1.
       -4    1    3    3    0  502 -0.52466293659E+03  0.16721706159E+04  0.83031352952E+03  0.19392905754E+04  0.12699999809E+01 0. -1.
</event>
<event>
 5   0  0.8038352E-07  0.3799663E+04  0.7818609E-02  0.8046227E-01
        2   -1    0    0  501    0  0.00000000000E+00  0.00000000000E+00  0.13781538438E+04  0.13781538438E+04  0.25500000920E-02 0. -1.
       -2   -1    0    0    0  501  0.00000000000E+00  0.00000000000E+00 -0.26189823521E+04  0.26189823521E+04  0.25500000920E-02 0.  1.
    10030    2    1    2    0    0  0.00000000000E+00  0.00000000000E+00 -0.12408285084E+04  0.39971361959E+04  0.37996634564E+04 0.  0.
        2    1    3    3  502    0  0.10172293382E+04 -0.12326231944E+04  0.46022438618E+03  0.16631061156E+04  0.25500000920E-02 0. -1.
       -2    1    3    3    0  502 -0.10172293382E+04  0.12326231944E+04 -0.17010528945E+04  0.23340300804E+04  0.25500000920E-02 0.  1.
</event>
<event>
 5   0  0.2529875E-07  0.3756125E+04  0.7818609E-02  0.8055636E-01
        1   -1    0    0  501    0  0.00000000000E+00  0.00000000000E+00  0.13457848649E+04  0.13457848649E+04  0.50400001928E-02 0.  1.
       -1   -1    0    0    0  501  0.00000000000E+00  0.00000000000E+00 -0.26208638864E+04  0.26208638864E+04  0.50400001928E-02 0. -1.
    10030    2    1    2    0    0  0.00000000000E+00  0.00000000000E+00 -0.12750790215E+04  0.39666487513E+04  0.37561251051E+04 0.  0.
        5    1    3    3  502    0 -0.14394011832E+04  0.12063001717E+04 -0.64578690088E+03  0.19859754988E+04  0.46999998093E+01 0. -1.
       -5    1    3    3    0  502  0.14394011832E+04 -0.12063001717E+04 -0.62929212059E+03  0.19806732525E+04  0.46999998093E+01 0.  1.
</event>
<event>
 5   0  0.2529875E-07  0.2680458E+04  0.7818609E-02  0.8341374E-01
       -1   -1    0    0    0  501  0.00000000000E+00  0.00000000000E+00  0.69733351761E+03  0.69733351762E+03  0.50400001928E-02 0.  1.
        1   -1    0    0  501    0  0.00000000000E+00  0.00000000000E+00 -0.25758320060E+04  0.25758320060E+04  0.50400001928E-02 0. -1.
    10030    2    1    2    0    0  0.00000000000E+00  0.00000000000E+00 -0.18784984884E+04  0.32731655236E+04  0.26804581650E+04 0.  0.
        4    1    3    3  502    0  0.12142765228E+03  0.10276050842E+04  0.10085362695E+03  0.10396585742E+04  0.12699999809E+01 0.  1.
       -4    1    3    3    0  502 -0.12142765228E+03 -0.10276050842E+04 -0.19793521154E+04  0.22335069495E+04  0.12699999809E+01 0. -1.
</event>
<event>
 5   0  0.7638805E-07  0.3635011E+04  0.7818609E-02  0.8082519E-01
       -2   -1    0    0    0  501  0.00000000000E+00  0.00000000000E+00  0.24576635852E+04  0.24576635852E+04  0.25500000920E-02 0.  1.
        2   -1    0    0  501    0  0.00000000000E+00  0.00000000000E+00 -0.13440918155E+04  0.13440918155E+04  0.25500000920E-02 0. -1.
    10030    2    1    2    0    0  0.00000000000E+00  0.00000000000E+00  0.11135717696E+04  0.38017554007E+04  0.36350105971E+04 0.  0.
        5    1    3    3  502    0  0.21654225883E+03  0.55766810309E+03  0.23517345972E+04  0.24266359366E+04  0.46999998093E+01 0.  1.
       -5    1    3    3    0  502 -0.21654225883E+03 -0.55766810309E+03 -0.12381628276E+04  0.13751194641E+04  0.46999998093E+01 0. -1.
</event>
<event>
 5   0  0.2907071E-07  0.3418489E+04  0.7818609E-02  0.8133383E-01
       -1   -1    0    0    0  501  0.00000000000E+00  0.00000000000E+00  0.29789146561E+04  0.29789146561E+04  0.50400001928E-02 0. -1.
        1   -1    0    0  501    0  0.00000000000E+00  0.00000000000E+00 -0.98073199403E+03  0.98073199404E+03  0.50400001928E-02 0.  1.
    10030    2    1    2    0    0  0.00000000000E+00  0.00000000000E+00  0.19981826620E+04  0.39596466501E+04  0.34184890877E+04 0.  0.
        2    1    3    3  502    0  0.42368037284E+03 -0.98702822501E+03 -0.54096717172E+03  0.12026534231E+04  0.25500000920E-02 0.  1.
       -2    1    3    3    0  502 -0.42368037284E+03  0.98702822501E+03  0.25391498337E+04  0.27569932270E+04  0.25500000920E-02 0. -1.
</event>
<event>
 5   0  0.2529875E-07  0.3835724E+04  0.7818609E-02  0.8038532E-01
        1   -1    0    0  501    0  0.00000000000E+00  0.00000000000E+00  0.17445083253E+04  0.17445083253E+04  0.50400001928E-02 0.  1.
       -1   -1    0    0    0  501  0.00000000000E+00  0.00000000000E+00 -0.21084425299E+04  0.21084425299E+04  0.50400001928E-02 0. -1.
    10030    2    1    2    0    0  0.00000000000E+00  0.00000000000E+00 -0.36393420462E+03  0.38529508553E+04  0.38357244671E+04 0.  0.
        3    1    3    3  502    0 -0.98355620867E+03 -0.15262192516E+04 -0.80237147215E+03  0.19850763233E+04  0.10100000352E+00 0. -1.
       -3    1    3    3    0  502  0.98355620867E+03  0.15262192516E+04  0.43843726753E+03  0.18678745320E+04  0.10100000352E+00 0.  1.
</event>
<event>
 5   0  0.2529875E-07  0.2578123E+04  0.7818609E-02  0.8375670E-01
        1   -1    0    0  501    0  0.00000000000E+00  0.00000000000E+00  0.14054932174E+04  0.14054932174E+04  0.50400001928E-02 0.  1.
       -1   -1    0    0    0  501  0.00000000000E+00  0.00000000000E+00 -0.11822751013E+04  0.11822751013E+04  0.50400001928E-02 0. -1.
    10030    2    1    2    0    0  0.00000000000E+00  0.00000000000E+00  0.22321811609E+03  0.25877683186E+04  0.25781230660E+04 0.  0.
        1    1    3    3  502    0  0.10152202656E+04  0.77042288089E+03  0.30586872291E+03  0.13106407894E+04  0.50400001928E-02 0. -1.
       -1    1    3    3    0  502 -0.10152202656E+04 -0.77042288089E+03 -0.82650606826E+02  0.12771275292E+04  0.50400001928E-02 0.  1.
</event>
<event>
 5   0  0.7551495E-07  0.3899392E+04  0.7818609E-02  0.8025156E-01
       -2   -1    0    0    0  501  0.00000000000E+00  0.00000000000E+00  0.28312057167E+04  0.28312057167E+04  0.25500000920E-02 0. -1.
        2   -1    0    0  501    0  0.00000000000E+00  0.00000000000E+00 -0.13426485534E+04  0.13426485534E+04  0.25500000920E-02 0.  1.
    10030    2    1    2    0    0  0.00000000000E+00  0.00000000000E+00  0.14885571633E+04  0.41738542700E+04  0.38993918807E+04 0.  0.
        1    1    3    3  502    0 -0.39404879417E+03 -0.98415640139E+02  0.27854218373E+04  0.28148774222E+04  0.50400001928E-02 0. -1.
       -1    1    3    3    0  502  0.39404879417E+03  0.98415640139E+02 -0.12968646739E+04  0.13589768478E+04  0.50400001928E-02 0.  1.
</event>
<event>
 5   0  0.8421677E-07  0.3920733E+04  0.7818609E-02  0.8020731E-01
        2   -1    0    0  501    0  0.00000000000E+00  0.00000000000E+00  0.19383620051E+04  0.19383620051E+04  0.25500000920E-02 0.  1.
       -2   -1    0    0    0  501  0.00000000000E+00  0.00000000000E+00 -0.19826204845E+04  0.19826204845E+04  0.25500000920E-02 0. -1.
    10030    2    1    2    0    0  0.00000000000E+00  0.00000000000E+00 -0.44258479402E+02  0.39209824897E+04  0.39207326957E+04 0.  0.
        3    1    3    3  502    0  0.74399682204E+03 -0.81327146574E+02 -0.18341196254E+04  0.19809442663E+04  0.10100000352E+00 0. -1.
       -3    1    3    3    0  502 -0.74399682204E+03  0.81327146574E+02  0.17898611460E+04  0.19400382233E+04  0.10100000352E+00 0.  1.
</event>
<event>
 5   0  0.7638805E-07  0.3744369E+04  0.7818609E-02  0.8058200E-01
       -2   -1    0    0    0  501  0.00000000000E+00  0.00000000000E+00  0.31246957729E+04  0.31246957729E+04  0.25500000920E-02 0. -1.
        2   -1    0    0  501    0  0.00000000000E+00  0.00000000000E+00 -0.11217329694E+04  0.11217329694E+04  0.25500000920E-02 0.  1.
    10030    2    1    2    0    0  0.00000000000E+00  0.00000000000E+00  0.20029628034E+04  0.42464287423E+04  0.37443687147E+04 0.  0.
        5    1    3    3  502    0 -0.18326801169E+03 -0.41447182413E+03 -0.10585840620E+04  0.11515191546E+04  0.46999998093E+01 0.  1.
       -5    1    3    3    0  502  0.18326801169E+03  0.41447182413E+03  0.30615468654E+04  0.30949095877E+04  0.46999998093E+01 0. -1.
</event>
<event>
 5   0  0.7649458E-07  0.3345965E+04  0.7818609E-02  0.8151297E-01
        2   -1    0    0  501    0  0.00000000000E+00  0.00000000000E+00  0.17240235173E+04  0.17240235173E+04  0.25500000920E-02 0.  1.
       -2   -1    0    0    0  501  0.00000000000E+00  0.00000000000E+00 -0.16234526964E+04  0.16234526964E+04  0.25500000920E-02 0. -1.
    10030    2    1    2    0    0  0.00000000000E+00  0.00000000000E+00  0.10057082090E+03  0.33474762138E+04  0.33459651092E+04 0.  0.
        4    1    3    3  502    0  0.98534226737E+03 -0.30849883652E+02  0.14025681191E+04  0.17143657838E+04  0.12699999809E+01 0.  1.
       -4    1    3    3    0  502 -0.98534226737E+03  0.30849883652E+02 -0.13019972982E+04  0.16331104300E+04  0.12699999809E+01 0. -1.
</event>
<event>
 5   0  0.7551495E-07  0.3807788E+04  0.7818609E-02  0.8044486E-01
        2   -1    0    0  501    0  0.00000000000E+00  0.00000000000E+00  0.14493494352E+04  0.14493494352E+04  0.25500000920E-02 0. -1.
       -2   -1    0    0    0  501  0.00000000000E+00  0.00000000000E+00 -0.25009927132E+04  0.25009927133E+04  0.25500000920E-02 0.  1.
    10030    2    1    2    0    0  0.00000000000E+00  0.00000000000E+00 -0.10516432780E+04  0.39503421485E+04  0.38077880070E+04 0.  0.
        1    1    3    3  502    0 -0.91921367765E+03 -0.15276812485E+04 -0.12186936824E+04  0.21596245215E+04  0.50400001928E-02 0.  1.
       -1    1    3    3    0  502  0.91921367765E+03  0.15276812485E+04  0.16705040436E+03  0.17907176270E+04  0.50400001928E-02 0. -1.
</event>
<event>
 5   0  0.2907071E-07  0.3937489E+04  0.7818609E-02  0.8017277E-01
       -1   -1    0    0    0  501  0.00000000000E+00  0.00000000000E+00  0.17320416066E+04  0.17320416066E+04  0.50400001928E-02 0. -1.
        1   -1    0    0  501    0  0.00000000000E+00  0.00000000000E+00 -0.22377957739E+04  0.22377957739E+04  0.50400001928E-02 0.  1.
    10030    2    1    2    0    0  0.00000000000E+00  0.00000000000E+00 -0.50575416738E+03  0.39698373805E+04  0.39374892444E+04 0.  0.
        2    1    3    3  502    0  0.57781109167E+03 -0.84327491705E+03 -0.19492507336E+04  0.22010353622E+04  0.25500000920E-02 0.  1.
       -2    1    3    3    0  502 -0.57781109167E+03  0.84327491705E+03  0.14434965662E+04  0.17688020183E+04  0.25500000920E-02 0. -1.
</event>
<event>
 5   0  0.2529875E-07  0.3794848E+04  0.7818609E-02  0.8047261E-01
        1   -1    0    0  501    0  0.00000000000E+00  0.00000000000E+00  0.17684323036E+04  0.17684323036E+04  0.50400001928E-02 0. -1.
       -1   -1    0    0    0  501  0.00000000000E+00  0.00000000000E+00 -0.20358248844E+04  0.20358248844E+04  0.50400001928E-02 0.  1.
    10030    2    1    2    0    0  0.00000000000E+00  0.00000000000E+00 -0.26739258082E+03  0.38042571881E+04  0.37948483449E+04 0.  0.
        3    1    3    3  502    0  0.14607218909E+04 -0.72916791426E+03  0.83556399040E+03  0.18340014945E+04  0.10100000352E+00 0. -1.
       -3    1    3    3    0  502 -0.14607218909E+04  0.72916791426E+03 -0.11029565712E+04  0.19702556935E+04  0.10100000352E+00 0.  1.
</event>
<event>
 5   0  0.8421677E-07  0.3833946E+04  0.7818609E-02  0.8038909E-01
       -2   -1    0    0    0  501  0.00000000000E+00  0.00000000000E+00  0.12532090252E+04  0.12532090252E+04  0.25500000920E-02 0. -1.
        2   -1    0    0  501    0  0.00000000000E+00  0.00000000000E+00 -0.29323006378E+04  0.29323006378E+04  0.25500000920E-02 0.  1.
    10030    2    1    2    0    0  0.00000000000E+00  0.00000000000E+00 -0.16790916126E+04  0.41855096631E+04  0.38339460737E+04 0.  0.
        3    1    3    3  502    0  0.15860135600E+03  0.18472500888E+04 -0.30774414111E+03  0.18794131390E+04  0.10100000352E+00 0.  1.
       -3    1    3    3    0  502 -0.15860135600E+03 -0.18472500888E+04 -0.13713474715E+04  0.23060965241E+04  0.10100000352E+00 0. -1.
</event>
<event>
 5   0  0.8421677E-07  0.4006380E+04  0.7818609E-02  0.8003261E-01
       -2   -1    0    0    0  501  0.00000000000E+00  0.00000000000E+00  0.18523803568E+04  0.18523803568E+04  0.25500000920E-02 0. -1.
        2   -1    0    0  501    0  0.00000000000E+00  0.00000000000E+00 -0.21662772484E+04  0.21662772484E+04  0.25500000920E-02 0.  1.
    10030    2    1    2    0    0  0.00000000000E+00  0.00000000000E+00 -0.31389689164E+03  0.40186576052E+04  0.40063796237E+04 0.  0.
        3    1    3    3  502    0  0.90602647789E+03  0.84965412982E+03 -0.17333796966E+04  0.21324636695E+04  0.10100000352E+00 0.  1.
       -3    1    3    3    0  502 -0.90602647789E+03 -0.84965412982E+03  0.14194828050E+04  0.18861939356E+04  0.10100000352E+00 0. -1.
</event>
<event>
 5   0  0.2529875E-07  0.3782322E+04  0.7818609E-02  0.8049959E-01
        1   -1    0    0  501    0  0.00000000000E+00  0.00000000000E+00  0.25326975753E+04  0.25326975753E+04  0.50400001928E-02 0. -1.
       -1   -1    0    0    0  501  0.00000000000E+00  0.00000000000E+00 -0.14121263558E+04  0.14121263558E+04  0.50400001928E-02 0.  1.
    10030    2    1    2    0    0  0.00000000000E+00  0.00000000000E+00  0.11205712195E+04  0.39448239311E+04  0.37823215079E+04 0.  0.
        4    1    3    3  502    0 -0.18029204375E+04  0.21276879043E+03  0.77168785181E+01  0.18154486567E+04  0.12699999809E+01 0. -1.
       -4    1    3    3    0  502  0.18029204375E+04 -0.21276879043E+03  0.11128543410E+04  0.21293752744E+04  0.12699999809E+01 0.  1.
</event>
<event>
 5   0  0.2529875E-07  0.3804389E+04  0.7818609E-02  0.8045214E-01
       -1   -1    0    0    0  501  0.00000000000E+00  0.00000000000E+00  0.14973099563E+04  0.14973099564E+04  0.50400001928E-02 0.  1.
        1   -1    0    0  501    0  0.00000000000E+00  0.00000000000E+00 -0.24165629385E+04  0.24165629385E+04  0.50400001928E-02 0. -1.
    10030    2    1    2    0    0  0.00000000000E+00  0.00000000000E+00 -0.91925298212E+03  0.39138728948E+04  0.38043889117E+04 0.  0.
        1    1    3    3  502    0  0.65075965536E+03  0.10701533683E+04  0.10132260492E+04  0.16110069484E+04  0.50400001928E-02 0.  1.
       -1    1    3    3    0  502 -0.65075965536E+03 -0.10701533683E+04 -0.19324790313E+04  0.23028659465E+04  0.50400001928E-02 0. -1.
</event>
<event>
 5   0  0.7638805E-07  0.3525489E+04  0.7818609E-02  0.8107776E-01
        2   -1    0    0  501    0  0.00000000000E+00  0.00000000000E+00  0.18937964996E+04  0.18937964996E+04  0.25500000920E-02 0.  1.
       -2   -1    0    0    0  501  0.00000000000E+00  0.00000000000E+00 -0.16407609801E+04  0.16407609801E+04  0.25500000920E-02 0. -1.
    10030    2    1    2    0    0  0.00000000000E+00  0.00000000000E+00  0.25303551944E+03  0.35345574797E+04  0.35254885623E+04 0.  0.
        5    1    3    3  502    0 -0.83881289897E+03 -0.63095391670E+03  0.15463299584E+04  0.18689217091E+04  0.46999998093E+01 0.  1.
       -5    1    3    3    0  502  0.83881289897E+03  0.63095391670E+03 -0.12932944390E+04  0.16656357706E+04  0.46999998093E+01 0. -1.
</event>
<event>
 5   0  0.2529875E-07  0.3821014E+04  0.7818609E-02  0.8041660E-01
        1   -1    0    0  501    0  0.00000000000E+00  0.00000000000E+00  0.14694796329E+04  0.14694796329E+04  0.50400001928E-02 0. -1.
       -1   -1    0    0    0  501  0.00000000000E+00  0.00000000000E+00 -0.24838974425E+04  0.24838974425E+04  0.50400001928E-02 0.  1.
    10030    2    1    2    0    0  0.00000000000E+00  0.00000000000E+00 -0.10144178096E+04  0.39533770754E+04  0.38210138456E+04 0.  0.
        4    1    3    3  502    0 -0.67461597111E+03  0.17789805191E+04 -0.68688135348E+03  0.20227916360E+04  0.12699999809E+01 0. -1.
       -4    1    3    3    0  502  0.67461597111E+03 -0.17789805191E+04 -0.32753645611E+03  0.19305854394E+04  0.12699999809E+01 0.  1.
</event>
<event>
 5   0  0.2529875E-07  0.3852736E+04  0.7818609E-02  0.8034932E-01
        1   -1    0    0  501    0  0.00000000000E+00  0.00000000000E+00  0.24539573497E+04  0.24539573497E+04  0.50400001928E-02 0.  1.
       -1   -1    0    0    0  501  0.00000000000E+00  0.00000000000E+00 -0.15122075558E+04  0.15122075558E+04  0.50400001928E-02 0. -1.
    10030    2    1    2    0    0  0.00000000000E+00  0.00000000000E+00  0.94174979389E+03  0.39661649055E+04  0.38527355714E+04 0.  0.
        1    1    3    3  502    0 -0.15186051461E+04  0.43140988346E+03  0.16072851401E+04  0.22529184625E+04  0.50400001928E-02 0.  1.
       -1    1    3    3    0  502  0.15186051461E+04 -0.43140988346E+03 -0.66553534622E+03  0.17132464430E+04  0.50400001928E-02 0. -1.
</event>
<event>
 5   0  0.7649458E-07  0.3426514E+04  0.7818609E-02  0.8131429E-01
       -2   -1    0    0    0  501  0.00000000000E+00  0.00000000000E+00  0.16201771335E+04  0.16201771335E+04  0.25500000920E-02 0.  1.
        2   -1    0    0  501    0  0.00000000000E+00  0.00000000000E+00 -0.18116843739E+04  0.18116843739E+04  0.25500000920E-02 0. -1.
    10030    2    1    2    0    0  0.00000000000E+00  0.00000000000E+00 -0.19150724041E+03  0.34318615074E+04  0.34265140278E+04 0.  0.
        4    1    3    3  502    0  0.34432896012E+03  0.16572640787E+04  0.16953958408E+03  0.17011266687E+04  0.12699999809E+01 0. -1.
       -4    1    3    3    0  502 -0.34432896012E+03 -0.16572640787E+04 -0.36104682449E+03  0.17307348387E+04  0.12699999809E+01 0.  1.
</event>
<event>
 5   0  0.2529875E-07  0.3617233E+04  0.7818609E-02  0.8086556E-01
        1   -1    0    0  501    0  0.00000000000E+00  0.00000000000E+00  0.21779185256E+04  0.21779185256E+04  0.50400001928E-02 0. -1.
       -1   -1    0    0    0  501  0.00000000000E+00  0.00000000000E+00 -0.15019357774E+04  0.15019357774E+04  0.50400001928E-02 0.  1.
    10030    2    1    2    0    0  0.00000000000E+00  0.00000000000E+00  0.67598274816E+03  0.36798543030E+04  0.36172330607E+04 0.  0.
        3    1    3    3  502    0  0.17123809992E+04  0.55951561967E+03  0.17462701633E+03  0.18099174070E+04  0.10100000352E+00 0.  1.
       -3    1    3    3    0  502 -0.17123809992E+04 -0.55951561967E+03  0.50135573184E+03  0.18699368960E+04  0.10100000352E+00 0. -1.
</event>
<event>
 5   0  0.2529875E-07  0.3768543E+04  0.7818609E-02  0.8052939E-01
       -1   -1    0    0    0  501  0.00000000000E+00  0.00000000000E+00  0.18455009094E+04  0.18455009094E+04  0.50400001928E-02 0. -1.
        1   -1    0    0  501    0  0.00000000000E+00  0.00000000000E+00 -0.19238564140E+04  0.19238564141E+04  0.50400001928E-02 0.  1.
    10030    2    1    2    0    0  0.00000000000E+00  0.00000000000E+00 -0.78355504696E+02  0.37693573234E+04  0.37685428280E+04 0.  0.
        3    1    3    3  502    0  0.16394396726E+04 -0.69871991184E+03  0.57292411669E+03  0.18719545958E+04  0.10100000352E+00 0. -1.
       -3    1    3    3    0  502 -0.16394396726E+04  0.69871991184E+03 -0.65127962139E+03  0.18974027276E+04  0.10100000352E+00 0.  1.
</event>
<event>
 5   0  0.2529875E-07  0.3782607E+04  0.7818609E-02  0.8049898E-01
        1   -1    0    0  501    0  0.00000000000E+00  0.00000000000E+00  0.12869300324E+04  0.12869300324E+04  0.50400001928E-02 0. -1.
       -1   -1    0    0    0  501  0.00000000000E+00  0.00000000000E+00 -0.27795059129E+04  0.27795059129E+04  0.50400001928E-02 0.  1.
    10030    2    1    2    0    0  0.00000000000E+00  0.00000000000E+00 -0.14925758805E+04  0.40664359453E+04  0.37826073730E+04 0.  0.
        1    1    3    3  502    0 -0.12168708987E+04 -0.13895009272E+04 -0.11836859483E+04  0.21937638968E+04  0.50400001928E-02 0.  1.
       -1    1    3    3    0  502  0.12168708987E+04  0.13895009272E+04 -0.30888993217E+03  0.18726720485E+04  0.50400001928E-02 0. -1.
</event>
<event>
 5   0  0.2529875E-07  0.2595137E+04  0.7818609E-02  0.8369855E-01
       -1   -1    0    0    0  501  0.00000000000E+00  0.00000000000E+00  0.14991172558E+04  0.14991172558E+04  0.50400001928E-02 0. -1.
        1   -1    0    0  501    0  0.00000000000E+00  0.00000000000E+00 -0.11231165849E+04  0.11231165849E+04  0.50400001928E-02 0.  1.
    10030    2    1    2    0    0  0.00000000000E+00  0.00000000000E+00  0.37600067087E+03  0.26222338407E+04  0.25951365688E+04 0.  0.
        5    1    3    3  502    0  0.25588916189E+03  0.29505538613E+03  0.14383066993E+04  0.14903976635E+04  0.46999998093E+01 0. -1.
       -5    1    3    3    0  502 -0.25588916189E+03 -0.29505538613E+03 -0.10623060284E+04  0.11318361772E+04  0.46999998093E+01 0.  1.
</event>
<event>
 5   0  0.2529875E-07  0.3609889E+04  0.7818609E-02  0.8088230E-01
        1   -1    0    0  501    0  0.00000000000E+00  0.00000000000E+00  0.31906893306E+04  0.31906893306E+04  0.50400001928E-02 0. -1.
       -1   -1    0    0    0  501  0.00000000000E+00  0.00000000000E+00 -0.10210409835E+04  0.10210409835E+04  0.50400001928E-02 0.  1.
    10030    2    1    2    0    0  0.00000000000E+00  0.00000000000E+00  0.21696483471E+04  0.42117303141E+04  0.36098889580E+04 0.  0.
        5    1    3    3  502    0  0.12880327525E+04 -0.91227759104E+03  0.21063033259E+04  0.26320741945E+04  0.46999998093E+01 0. -1.
       -5    1    3    3    0  502 -0.12880327525E+04  0.91227759104E+03  0.63345021133E+02  0.15796561196E+04  0.46999998093E+01 0.  1.
</event>
<event>
 5   0  0.2907071E-07  0.3379675E+04  0.7818609E-02  0.8142913E-01
        1   -1    0    0  501    0  0.00000000000E+00  0.00000000000E+00  0.20220600091E+04  0.20220600091E+04  0.50400001928E-02 0.  1.
       -1   -1    0    0    0  501  0.00000000000E+00  0.00000000000E+00 -0.14121987928E+04  0.14121987928E+04  0.50400001928E-02 0. -1.
    10030    2    1    2    0    0  0.00000000000E+00  0.00000000000E+00  0.60986121625E+03  0.34342588019E+04  0.33796749571E+04 0.  0.
        2    1    3    3  502    0 -0.72935395201E+03  0.22442858729E+03 -0.12271419342E+04  0.14450614882E+04  0.25500000920E-02 0. -1.
       -2    1    3    3    0  502  0.72935395201E+03 -0.22442858729E+03  0.18370031504E+04  0.19891973137E+04  0.25500000920E-02 0.  1.
</event>
<event>
 5   0  0.2907071E-07  0.3730801E+04  0.7818609E-02  0.8061170E-01
       -1   -1    0    0    0  501  0.00000000000E+00  0.00000000000E+00  0.23117388273E+04  0.23117388273E+04  0.50400001928E-02 0. -1.
        1   -1    0    0  501    0  0.00000000000E+00  0.00000000000E+00 -0.15052385710E+04  0.15052385710E+04  0.50400001928E-02 0.  1.
    10030    2    1    2    0    0  0.00000000000E+00  0.00000000000E+00  0.80650025628E+03  0.38169773983E+04  0.37308006910E+04 0.  0.
        2    1    3    3  502    0 -0.40285174127E+03  0.17769396779E+04  0.81238000667E+03  0.19949349411E+04  0.25500000920E-02 0. -1.
       -2    1    3    3    0  502  0.40285174127E+03 -0.17769396779E+04 -0.58797503926E+01  0.18220424571E+04  0.25500000920E-02 0.  1.
</event>
<event>
 5   0  0.2907071E-07  0.3722555E+04  0.7818609E-02  0.8062982E-01
       -1   -1    0    0    0  501  0.00000000000E+00  0.00000000000E+00  0.14920295672E+04  0.14920295672E+04  0.50400001928E-02 0. -1.
        1   -1    0    0  501    0  0.00000000000E+00  0.00000000000E+00 -0.23219068918E+04  0.23219068918E+04  0.50400001928E-02 0.  1.
    10030    2    1    2    0    0  0.00000000000E+00  0.00000000000E+00 -0.82987732461E+03  0.38139364591E+04  0.37225548941E+04 0.  0.
        2    1    3    3  502    0 -0.46913367723E+03  0.13654418446E+04 -0.16184385723E+04  0.21688386870E+04  0.25500000920E-02 0.  1.
       -2    1    3    3    0  502  0.46913367723E+03 -0.13654418446E+04  0.78856124767E+03  0.16450977720E+04  0.25500000920E-02 0. -1.
</event>
<event>
 5   0  0.7638805E-07  0.2319885E+04  0.7818609E-02  0.8470122E-01
        2   -1    0    0  501    0  0.00000000000E+00  0.00000000000E+00  0.11551305764E+04  0.11551305764E+04  0.25500000920E-02 0.  1.
       -2   -1    0    0    0  501  0.00000000000E+00  0.00000000000E+00 -0.11647742046E+04  0.11647742046E+04  0.25500000920E-02 0. -1.
    10030    2    1    2    0    0  0.00000000000E+00  0.00000000000E+00 -0.96436281938E+01  0.23199047810E+04  0.23198847370E+04 0.  0.
        5    1    3    3  502    0  0.28498165708E+03  0.11128049501E+04 -0.16574183738E+03  0.11606213200E+04  0.46999998093E+01 0. -1.
       -5    1    3    3    0  502 -0.28498165708E+03 -0.11128049501E+04  0.15609820919E+03  0.11592834609E+04  0.46999998093E+01 0.  1.
</event>
<event>
 5   0  0.2529875E-07  0.3747874E+04  0.7818609E-02  0.8057434E-01
       -1   -1    0    0    0  501  0.00000000000E+00  0.00000000000E+00  0.14374876389E+04  0.14374876389E+04  0.50400001928E-02 0. -1.
        1   -1    0    0  501    0  0.00000000000E+00  0.00000000000E+00 -0.24429014697E+04  0.24429014697E+04  0.50400001928E-02 0.  1.
    10030    2    1    2    0    0  0.00000000000E+00  0.00000000000E+00 -0.10054138308E+04  0.38803891086E+04  0.37478744193E+04 0.  0.
        1    1    3    3  502    0 -0.51838178507E+03 -0.58913710332E+03  0.12591774942E+04  0.14836880277E+04  0.50400001928E-02 0. -1.
       -1    1    3    3    0  502  0.51838178507E+03  0.58913710332E+03 -0.22645913250E+04  0.23967010809E+04  0.50400001928E-02 0.  1.
</event>
<event>
 5   0  0.8421677E-07  0.3763446E+04  0.7818609E-02  0.8054045E-01
        2   -1    0    0  501    0  0.00000000000E+00  0.00000000000E+00  0.16488060316E+04  0.16488060316E+04  0.25500000920E-02 0.  1.
       -2   -1    0    0    0  501  0.00000000000E+00  0.00000000000E+00 -0.21475425037E+04  0.21475425037E+04  0.25500000920E-02 0. -1.
    10030    2    1    2    0    0  0.00000000000E+00  0.00000000000E+00 -0.49873647206E+03  0.37963485353E+04  0.37634457792E+04 0.  0.
        3    1    3    3  502    0  0.13595066627E+04 -0.88465977289E+03 -0.12116473259E+04  0.20245914482E+04  0.10100000352E+00 0. -1.
       -3    1    3    3    0  502 -0.13595066627E+04  0.88465977289E+03  0.71291085382E+03  0.17717570870E+04  0.10100000352E+00 0.  1.
</event>
<event>
 5   0  0.2529875E-07  0.3395847E+04  0.7818609E-02  0.8138926E-01
        1   -1    0    0  501    0  0.00000000000E+00  0.00000000000E+00  0.11315765139E+04  0.11315765139E+04  0.50400001928E-02 0.  1.
       -1   -1    0    0    0  501  0.00000000000E+00  0.00000000000E+00 -0.25477236413E+04  0.25477236413E+04  0.50400001928E-02 0. -1.
    10030    2    1    2    0    0  0.00000000000E+00  0.00000000000E+00 -0.14161471274E+04  0.36793001552E+04  0.33958470145E+04 0.  0.
        4    1    3    3  502    0  0.41243041418E+03  0.57414676623E+03 -0.23806935444E+04  0.24834344608E+04  0.12699999809E+01 0. -1.
       -4    1    3    3    0  502 -0.41243041418E+03 -0.57414676623E+03  0.96454641703E+03  0.11958656945E+04  0.12699999809E+01 0.  1.
</event>
<event>
 5   0  0.7649458E-07  0.3805282E+04  0.7818609E-02  0.8045022E-01
       -2   -1    0    0    0  501  0.00000000000E+00  0.00000000000E+00  0.16793068796E+04  0.16793068796E+04  0.25500000920E-02 0.  1.
        2   -1    0    0  501    0  0.00000000000E+00  0.00000000000E+00 -0.21556770091E+04  0.21556770091E+04  0.25500000920E-02 0. -1.
    10030    2    1    2    0    0  0.00000000000E+00  0.00000000000E+00 -0.47637012951E+03  0.38349838887E+04  0.38052822400E+04 0.  0.
        4    1    3    3  502    0 -0.13238170141E+04 -0.13430733238E+04  0.16181854479E+02  0.18858952530E+04  0.12699999809E+01 0. -1.
       -4    1    3    3    0  502  0.13238170141E+04  0.13430733238E+04 -0.49255198399E+03  0.19490886357E+04  0.12699999809E+01 0.  1.
</event>
<event>
 5   0  0.7551495E-07  0.3718786E+04  0.7818609E-02  0.8063811E-01
        2   -1    0    0  501    0  0.00000000000E+00  0.00000000000E+00  0.22189423417E+04  0.22189423417E+04  0.25500000920E-02 0. -1.
       -2   -1    0    0    0  501  0.00000000000E+00  0.00000000000E+00 -0.15581038246E+04  0.15581038246E+04  0.25500000920E-02 0.  1.
    10030    2    1    2    0    0  0.00000000000E+00  0.00000000000E+00  0.66083851711E+03  0.37770461663E+04  0.37187861187E+04 0.  0.
        1    1    3    3  502    0 -0.72309466897E+03  0.10970240905E+04 -0.10058730901E+04  0.16547230671E+04  0.50400001928E-02 0.  1.
       -1    1    3    3    0  502  0.72309466897E+03 -0.10970240905E+04  0.16667116072E+04  0.21223230991E+04  0.50400001928E-02 0. -1.
</event>
<event>
 5   0  0.2529875E-07  0.3258213E+04  0.7818609E-02  0.8173610E-01
       -1   -1    0    0    0  501  0.00000000000E+00  0.00000000000E+00  0.18550071168E+04  0.18550071168E+04  0.50400001928E-02 0. -1.
        1   -1    0    0  501    0  0.00000000000E+00  0.00000000000E+00 -0.14307158061E+04  0.14307158061E+04  0.50400001928E-02 0.  1.
    10030    2    1    2    0    0  0.00000000000E+00  0.00000000000E+00  0.42429131071E+03  0.32857229228E+04  0.32582130086E+04 0.  0.
        3    1    3    3  502    0 -0.11579689677E+03  0.14930777876E+04  0.85888555184E+03  0.17263761475E+04  0.10100000352E+00 0. -1.
       -3    1    3    3    0  502  0.11579689677E+03 -0.14930777876E+04 -0.43459424112E+03  0.15593467754E+04  0.10100000352E+00 0.  1.
</event>
<event>
 5   0  0.8421677E-07  0.3799536E+04  0.7818609E-02  0.8046255E-01
        2   -1    0    0  501    0  0.00000000000E+00  0.00000000000E+00  0.21314069209E+04  0.21314069209E+04  0.25500000920E-02 0.  1.
       -2   -1    0    0    0  501  0.00000000000E+00  0.00000000000E+00 -0.16933031073E+04  0.16933031073E+04  0.25500000920E-02 0. -1.
    10030    2    1    2    0    0  0.00000000000E+00  0.00000000000E+00  0.43810381367E+03  0.38247100282E+04  0.37995357411E+04 0.  0.
        3    1    3    3  502    0  0.63178444499E+03 -0.11358605129E+03 -0.15808286462E+04  0.17061865651E+04  0.10100000352E+00 0. -1.
       -3    1    3    3    0  502 -0.63178444499E+03  0.11358605129E+03  0.20189324599E+04  0.21185234631E+04  0.10100000352E+00 0.  1.
</event>
<event>
 5   0  0.2529875E-07  0.3484223E+04  0.7818609E-02  0.8117539E-01
       -1   -1    0    0    0  501  0.00000000000E+00  0.00000000000E+00  0.12932504200E+04  0.12932504200E+04  0.50400001928E-02 0.  1.
        1   -1    0    0  501    0  0.00000000000E+00  0.00000000000E+00 -0.23467632685E+04  0.23467632685E+04  0.50400001928E-02 0. -1.
    10030    2    1    2    0    0  0.00000000000E+00  0.00000000000E+00 -0.10535128485E+04  0.36400136885E+04  0.34842230598E+04 0.  0.
        4    1    3    3  502    0 -0.17394504883E+04  0.33075938499E+02 -0.43233289940E+03  0.17926782666E+04  0.12699999809E+01 0. -1.
       -4    1    3    3    0  502  0.17394504883E+04 -0.33075938499E+02 -0.62117994915E+03  0.18473354219E+04  0.12699999809E+01 0.  1.
</event>
<event>
 5   0  0.8038352E-07  0.3951750E+04  0.7818609E-02  0.8014351E-01
       -2   -1    0    0    0  501  0.00000000000E+00  0.00000000000E+00  0.27598556283E+04  0.27598556283E+04  0.25500000920E-02 0. -1.
        2   -1    0    0  501    0  0.00000000000E+00  0.00000000000E+00 -0.14145967489E+04  0.14145967489E+04  0.25500000920E-02 0.  1.
    10030    2    1    2    0    0  0.00000000000E+00  0.00000000000E+00  0.13452588794E+04  0.41744523772E+04  0.39517503966E+04 0.  0.
        2    1    3    3  502    0 -0.37552518876E+03 -0.16830479761E+04 -0.34630894609E+03  0.17588631395E+04  0.25500000920E-02 0.  1.
       -2    1    3    3    0  502  0.37552518876E+03  0.16830479761E+04  0.16915678254E+04  0.24155892377E+04  0.25500000920E-02 0. -1.
</event>
<event>
 5   0  0.2529875E-07  0.3856819E+04  0.7818609E-02  0.8034070E-01
       -1   -1    0    0    0  501  0.00000000000E+00  0.00000000000E+00  0.12026907486E+04  0.12026907486E+04  0.50400001928E-02 0.  1.
        1   -1    0    0  501    0  0.00000000000E+00  0.00000000000E+00 -0.30920365868E+04  0.30920365868E+04  0.50400001928E-02 0. -1.
    10030    2    1    2    0    0  0.00000000000E+00  0.00000000000E+00 -0.18893458382E+04  0.42947273354E+04  0.38568193099E+04 0.  0.
        4    1    3    3  502    0  0.42985728508E+03 -0.17817510005E+04 -0.27715322480E+03  0.18537069445E+04  0.12699999809E+01 0.  1.
       -4    1    3    3    0  502 -0.42985728508E+03  0.17817510005E+04 -0.16121926134E+04  0.24410203909E+04  0.12699999809E+01 0. -1.
</event>
<event>
 5   0  0.2529875E-07  0.2380077E+04  0.7818609E-02  0.8447000E-01
        1   -1    0    0  501    0  0.00000000000E+00  0.00000000000E+00  0.17718366828E+04  0.17718366828E+04  0.50400001928E-02 0. -1.
       -1   -1    0    0    0  501  0.00000000000E+00  0.00000000000E+00 -0.79927913323E+03  0.79927913324E+03  0.50400001928E-02 0.  1.
    10030    2    1    2    0    0  0.00000000000E+00  0.00000000000E+00  0.97255754956E+03  0.25711158160E+04  0.23800773837E+04 0.  0.
        4    1    3    3  502    0  0.10104925989E+02  0.11343440791E+04  0.87480194864E+03  0.14325217840E+04  0.12699999809E+01 0. -1.
       -4    1    3    3    0  502 -0.10104925989E+02 -0.11343440791E+04  0.97755600918E+02  0.11385940320E+04  0.12699999809E+01 0.  1.
</event>
<event>
 5   0  0.2907071E-07  0.3845669E+04  0.7818609E-02  0.8036425E-01
       -1   -1    0    0    0  501  0.00000000000E+00  0.00000000000E+00  0.12638241170E+04  0.12638241170E+04  0.50400001928E-02 0. -1.
        1   -1    0    0  501    0  0.00000000000E+00  0.00000000000E+00 -0.29254803871E+04  0.29254803871E+04  0.50400001928E-02 0.  1.
    10030    2    1    2    0    0  0.00000000000E+00  0.00000000000E+00 -0.16616562702E+04  0.41893045041E+04  0.38456690793E+04 0.  0.
        2    1    3    3  502    0 -0.14981682984E+03  0.20482881285E+03 -0.29071577874E+04  0.29182128651E+04  0.25500000920E-02 0.  1.
       -2    1    3    3    0  502  0.14981682984E+03 -0.20482881285E+03  0.12455015173E+04  0.12710916390E+04  0.25500000920E-02 0. -1.
</event>
<event>
 5   0  0.8038352E-07  0.3725933E+04  0.7818609E-02  0.8062239E-01
        2   -1    0    0  501    0  0.00000000000E+00  0.00000000000E+00  0.16449579471E+04  0.16449579471E+04  0.25500000920E-02 0.  1.
       -2   -1    0    0    0  501  0.00000000000E+00  0.00000000000E+00 -0.21098678455E+04  0.21098678455E+04  0.25500000920E-02 0. -1.
    10030    2    1    2    0    0  0.00000000000E+00  0.00000000000E+00 -0.46490989840E+03  0.37548257927E+04  0.37259328389E+04 0.  0.
        2    1    3    3  502    0 -0.65851391318E+03  0.11703720382E+04  0.10687714533E+04  0.17162994205E+04  0.25500000920E-02 0.  1.
       -2    1    3    3    0  502  0.65851391318E+03 -0.11703720382E+04 -0.15336813517E+04  0.20385263722E+04  0.25500000920E-02 0. -1.
</event>
<event>
 5   0  0.7551495E-07  0.2488876E+04  0.7818609E-02  0.8406959E-01
        2   -1    0    0  501    0  0.00000000000E+00  0.00000000000E+00  0.19935207722E+04  0.19935207722E+04  0.25500000920E-02 0. -1.
       -2   -1    0    0    0  501  0.00000000000E+00  0.00000000000E+00 -0.77682975891E+03  0.77682975892E+03  0.25500000920E-02 0.  1.
    10030    2    1    2    0    0  0.00000000000E+00  0.00000000000E+00  0.12166910133E+04  0.27703505311E+04  0.24888762612E+04 0.  0.
        1    1    3    3  502    0  0.43205078251E+03  0.27868430935E+03 -0.65308563930E+03  0.83117607957E+03  0.50400001928E-02 0.  1.
       -1    1    3    3    0  502 -0.43205078251E+03 -0.27868430935E+03  0.18697766526E+04  0.19391744515E+04  0.50400001928E-02 0. -1.
</event>
<event>
 5   0  0.7638805E-07  0.3816545E+04  0.7818609E-02  0.8042614E-01
        2   -1    0    0  501    0  0.00000000000E+00  0.00000000000E+00  0.13728869520E+04  0.13728869520E+04  0.25500000920E-02 0.  1.
       -2   -1    0    0    0  501  0.00000000000E+00  0.00000000000E+00 -0.26524429688E+04  0.26524429688E+04  0.25500000920E-02 0. -1.
    10030    2    1    2    0    0  0.00000000000E+00  0.00000000000E+00 -0.12795560168E+04  0.40253299208E+04  0.38165452141E+04 0.  0.
        5    1    3    3  502    0  0.50400181405E+02 -0.69252368231E+03 -0.25144709657E+04  0.26085849720E+04  0.46999998093E+01 0. -1.
       -5    1    3    3    0  502 -0.50400181405E+02  0.69252368231E+03  0.12349149489E+04  0.14167449488E+04  0.46999998093E+01 0.  1.
</event>
<event>
 5   0  0.7551495E-07  0.3680425E+04  0.7818609E-02  0.8072314E-01
        2   -1    0    0  501    0  0.00000000000E+00  0.00000000000E+00  0.26608194912E+04  0.26608194912E+04  0.25500000920E-02 0.  1.
       -2   -1    0    0    0  501  0.00000000000E+00  0.00000000000E+00 -0.12726841631E+04  0.12726841631E+04  0.25500000920E-02 0. -1.
    10030    2    1    2    0    0  0.00000000000E+00  0.00000000000E+00  0.13881353280E+04  0.39335036543E+04  0.36804254251E+04 0.  0.
        1    1    3    3  502    0 -0.12080620405E+03 -0.45691247531E+03  0.25948504169E+04  0.26375389732E+04  0.50400001928E-02 0.  1.
       -1    1    3    3    0  502  0.12080620405E+03  0.45691247531E+03 -0.12067150889E+04  0.12959646811E+04  0.50400001928E-02 0. -1.
</event>
<event>
 5   0  0.2529875E-07  0.3814582E+04  0.7818609E-02  0.8043033E-01
        1   -1    0    0  501    0  0.00000000000E+00  0.00000000000E+00  0.16228022840E+04  0.16228022841E+04  0.50400001928E-02 0.  1.
       -1   -1    0    0    0  501  0.00000000000E+00  0.00000000000E+00 -0.22416531308E+04  0.22416531308E+04  0.50400001928E-02 0. -1.
    10030    2    1    2    0    0  0.00000000000E+00  0.00000000000E+00 -0.61885084673E+03  0.38644554148E+04  0.38145824520E+04 0.  0.
        1    1    3    3  502    0 -0.81378253153E+03  0.17099908104E+04 -0.53921523984E+03  0.19690260677E+04  0.50400001928E-02 0. -1.
       -1    1    3    3    0  502  0.81378253153E+03 -0.17099908104E+04 -0.79635606889E+02  0.18954293472E+04  0.50400001928E-02 0.  1.
</event>
<event>
 5   0  0.7638805E-07  0.3785589E+04  0.7818609E-02  0.8049254E-01
        2   -1    0    0  501    0  0.00000000000E+00  0.00000000000E+00  0.10233817775E+04  0.10233817775E+04  0.25500000920E-02 0. -1.
       -2   -1    0    0    0  501  0.00000000000E+00  0.00000000000E+00 -0.35008163951E+04  0.35008163951E+04  0.25500000920E-02 0.  1.
    10030    2    1    2    0    0  0.00000000000E+00  0.00000000000E+00 -0.24774346176E+04  0.45241981725E+04  0.37855893623E+04 0.  0.
        5    1    3    3  502    0 -0.33449825288E+03 -0.55809576312E+01 -0.34651957483E+04  0.34813106572E+04  0.46999998093E+01 0.  1.
       -5    1    3    3    0  502  0.33449825288E+03  0.55809576312E+01  0.98776113068E+03  0.10428875153E+04  0.46999998093E+01 0. -1.
</event>
<event>
 5   0  0.7649458E-07  0.3553915E+04  0.7818609E-02  0.8101130E-01
        2   -1    0    0  501    0  0.00000000000E+00  0.00000000000E+00  0.21217685023E+04  0.21217685023E+04  0.25500000920E-02 0. -1.
       -2   -1    0    0    0  501  0.00000000000E+00  0.00000000000E+00 -0.14881819547E+04  0.14881819547E+04  0.25500000920E-02 0.  1.
    10030    2    1    2    0    0  0.00000000000E+00  0.00000000000E+00  0.63358654765E+03  0.36099504570E+04  0.35539147976E+04 0.  0.
        4    1    3    3  502    0  0.14601508912E+04  0.56435377748E+03 -0.53732158092E+03  0.16550685501E+04  0.12699999809E+01 0. -1.
       -4    1    3    3    0  502 -0.14601508912E+04 -0.56435377748E+03  0.11709081286E+04  0.19548819069E+04  0.12699999809E+01 0.  1.
</event>
<event>
 5   0  0.7649458E-07  0.3785920E+04  0.7818609E-02  0.8049183E-01
        2   -1    0    0  501    0  0.00000000000E+00  0.00000000000E+00  0.18338765942E+04  0.18338765942E+04  0.25500000920E-02 0.  1.
       -2   -1    0    0    0  501  0.00000000000E+00  0.00000000000E+00 -0.19539465459E+04  0.19539465459E+04  0.25500000920E-02 0. -1.
    10030    2    1    2    0    0  0.00000000000E+00  0.00000000000E+00 -0.12006995176E+03  0.37878231401E+04  0.37859196171E+04 0.  0.
        4    1    3    3  502    0 -0.13355136436E+04 -0.83458455324E+03  0.99081075835E+03  0.18606008816E+04  0.12699999809E+01 0.  1.
       -4    1    3    3    0  502  0.13355136436E+04  0.83458455324E+03 -0.11108807101E+04  0.19272222585E+04  0.12699999809E+01 0. -1.
</event>
<event>
 5   0  0.2907071E-07  0.3715543E+04  0.7818609E-02  0.8064526E-01
       -1   -1    0    0    0  501  0.00000000000E+00  0.00000000000E+00  0.27055765529E+04  0.27055765529E+04  0.50400001928E-02 0. -1.
        1   -1    0    0  501    0  0.00000000000E+00  0.00000000000E+00 -0.12756302492E+04  0.12756302492E+04  0.50400001928E-02 0.  1.
    10030    2    1    2    0    0  0.00000000000E+00  0.00000000000E+00  0.14299463036E+04  0.39812068021E+04  0.37155431864E+04 0.  0.
        2    1    3    3  502    0 -0.11798157289E+04  0.13676184588E+04  0.24918468786E+03  0.18233042565E+04  0.25500000920E-02 0. -1.
       -2    1    3    3    0  502  0.11798157289E+04 -0.13676184588E+04  0.11807616158E+04  0.21579025456E+04  0.25500000920E-02 0.  1.
</event>
<event>
 5   0  0.2529875E-07  0.3753036E+04  0.7818609E-02  0.8056309E-01
       -1   -1    0    0    0  501  0.00000000000E+00  0.00000000000E+00  0.36361631497E+04  0.36361631497E+04  0.50400001928E-02 0. -1.
        1   -1    0    0  501    0  0.00000000000E+00  0.00000000000E+00 -0.96841638544E+03  0.96841638545E+03  0.50400001928E-02 0.  1.
    10030    2    1    2    0    0  0.00000000000E+00  0.00000000000E+00  0.26677467643E+04  0.46045795352E+04  0.37530360906E+04 0.  0.
        3    1    3    3  502    0 -0.15154420216E+04 -0.72943222154E+03  0.31275794813E+03  0.17106879993E+04  0.10100000352E+00 0.  1.
       -3    1    3    3    0  502  0.15154420216E+04  0.72943222154E+03  0.23549888162E+04  0.28938915358E+04  0.10100000352E+00 0. -1.
</event>
<event>
 5   0  0.2529875E-07  0.2660850E+04  0.7818609E-02  0.8347821E-01
       -1   -1    0    0    0  501  0.00000000000E+00  0.00000000000E+00  0.12149413414E+04  0.12149413414E+04  0.50400001928E-02 0.  1.
        1   -1    0    0  501    0  0.00000000000E+00  0.00000000000E+00 -0.14568855826E+04  0.14568855826E+04  0.50400001928E-02 0. -1.
    10030    2    1    2    0    0  0.00000000000E+00  0.00000000000E+00 -0.24194424126E+03  0.26718269240E+04  0.26608498822E+04 0.  0.
        5    1    3    3  502    0 -0.68135877417E+03  0.11390964267E+04 -0.29945036504E+02  0.13276706082E+04  0.46999998093E+01 0.  1.
       -5    1    3    3    0  502  0.68135877417E+03 -0.11390964267E+04 -0.21199920476E+03  0.13441563158E+04  0.46999998093E+01 0. -1.
</event>
<event>
 5   0  0.7649458E-07  0.3792319E+04  0.7818609E-02  0.8047805E-01
       -2   -1    0    0    0  501  0.00000000000E+00  0.00000000000E+00  0.14350299552E+04  0.14350299553E+04  0.25500000920E-02 0.  1.
        2   -1    0    0  501    0  0.00000000000E+00  0.00000000000E+00 -0.25054670682E+04  0.25054670682E+04  0.25500000920E-02 0. -1.
    10030    2    1    2    0    0  0.00000000000E+00  0.00000000000E+00 -0.10704371130E+04  0.39404970235E+04  0.37923187075E+04 0.  0.
        4    1    3    3  502    0 -0.16871877018E+04  0.85999620522E+03 -0.63500675191E+03  0.19973560028E+04  0.12699999809E+01 0.  1.
       -4    1    3    3    0  502  0.16871877018E+04 -0.85999620522E+03 -0.43543036107E+03  0.19431410207E+04  0.12699999809E+01 0. -1.
</event>
<event>
 5   0  0.7638805E-07  0.3916558E+04  0.7818609E-02  0.8021594E-01
       -2   -1    0    0    0  501  0.00000000000E+00  0.00000000000E+00  0.15017863644E+04  0.15017863644E+04  0.25500000920E-02 0.  1.
        2   -1    0    0  501    0  0.00000000000E+00  0.00000000000E+00 -0.25535294846E+04  0.25535294846E+04  0.25500000920E-02 0. -1.
    10030    2    1    2    0    0  0.00000000000E+00  0.00000000000E+00 -0.10517431202E+04  0.40553158490E+04  0.39165575502E+04 0.  0.
        5    1    3    3  502    0 -0.23402213909E+03  0.21542384155E+03 -0.25265972513E+04  0.25465446301E+04  0.46999998093E+01 0. -1.
       -5    1    3    3    0  502  0.23402213909E+03 -0.21542384155E+03  0.14748541310E+04  0.15087712189E+04  0.46999998093E+01 0.  1.
</event>
<event>
 5   0  0.7551495E-07  0.2592769E+04  0.7818609E-02  0.8370661E-01
        2   -1    0    0  501    0  0.00000000000E+00  0.00000000000E+00  0.28405548754E+04  0.28405548754E+04  0.25500000920E-02 0.  1.
       -2   -1    0    0    0  501  0.00000000000E+00  0.00000000000E+00 -0.59164964618E+03  0.59164964618E+03  0.25500000920E-02 0. -1.
    10030    2    1    2    0    0  0.00000000000E+00  0.00000000000E+00  0.22489052292E+04  0.34322045216E+04  0.25927693974E+04 0.  0.
        1    1    3    3  502    0 -0.10254938412E+04 -0.21067730621E+03  0.21365801341E+04  0.23792850219E+04  0.50400001928E-02 0.  1.
       -1    1    3    3    0  502  0.10254938412E+04  0.21067730621E+03  0.11232509507E+03  0.10529194997E+04  0.50400001928E-02 0. -1.
</event>
<event>
 5   0  0.7551495E-07  0.3789744E+04  0.7818609E-02  0.8048359E-01
        2   -1    0    0  501    0  0.00000000000E+00  0.00000000000E+00  0.17496469837E+04  0.17496469837E+04  0.25500000920E-02 0. -1.
       -2   -1    0    0    0  501  0.00000000000E+00  0.00000000000E+00 -0.20521505474E+04  0.20521505474E+04  0.25500000920E-02 0.  1.
    10030    2    1    2    0    0  0.00000000000E+00  0.00000000000E+00 -0.30250356372E+03  0.38017975312E+04  0.37897435351E+04 0.  0.
        1    1    3    3  502    0 -0.98940770786E+03 -0.16048453040E+04  0.39307541049E+02  0.18857362342E+04  0.50400001928E-02 0. -1.
       -1    1    3    3    0  502  0.98940770786E+03  0.16048453040E+04 -0.34181110477E+03  0.19160612969E+04  0.50400001928E-02 0.  1.
</event>
<event>
 5   0  0.2529875E-07  0.3716210E+04  0.7818609E-02  0.8064379E-01
       -3   -1    0    0    0  501  0.00000000000E+00  0.00000000000E+00  0.17447350805E+04  0.17447350834E+04  0.10100000352E+00 0.  1.
        3   -1    0    0  501    0  0.00000000000E+00  0.00000000000E+00 -0.19788419079E+04  0.19788419105E+04  0.10100000352E+00 0. -1.
    10030    2    1    2    0    0  0.00000000000E+00  0.00000000000E+00 -0.23410682737E+03  0.37235769939E+04  0.37162103846E+04 0.  0.
        1    1    3    3  502    0 -0.14275334672E+04 -0.10925145621E+04 -0.58821425110E+03  0.18914110800E+04  0.50400001928E-02 0. -1.
       -1    1    3    3    0  502  0.14275334672E+04  0.10925145621E+04  0.35410742373E+03  0.18321659139E+04  0.50400001928E-02 0.  1.
</event>
<event>
 5   0  0.2529875E-07  0.3015631E+04  0.7818609E-02  0.8239281E-01
        3   -1    0    0  501    0  0.00000000000E+00  0.00000000000E+00  0.10343647777E+04  0.10343647826E+04  0.10100000352E+00 0.  1.
       -3   -1    0    0    0  501  0.00000000000E+00  0.00000000000E+00 -0.21979752830E+04  0.21979752854E+04  0.10100000352E+00 0. -1.
    10030    2    1    2    0    0  0.00000000000E+00  0.00000000000E+00 -0.11636105054E+04  0.32323400679E+04  0.30156314275E+04 0.  0.
        1    1    3    3  502    0  0.14395345110E+04  0.43948178581E+03 -0.67829888120E+03  0.16509067874E+04  0.50400001928E-02 0.  1.
       -1    1    3    3    0  502 -0.14395345110E+04 -0.43948178581E+03 -0.48531162417E+03  0.15814332806E+04  0.50400001928E-02 0. -1.
</event>
<event>
 5   0  0.7649458E-07  0.3813318E+04  0.7818609E-02  0.8043303E-01
        2   -1    0    0  501    0  0.00000000000E+00  0.00000000000E+00  0.17400501594E+04  0.17400501594E+04  0.25500000920E-02 0.  1.
       -2   -1    0    0    0  501  0.00000000000E+00  0.00000000000E+00 -0.20892210366E+04  0.20892210366E+04  0.25500000920E-02 0. -1.
    10030    2    1    2    0    0  0.00000000000E+00  0.00000000000E+00 -0.34917087719E+03  0.38292711959E+04  0.38133184486E+04 0.  0.
        4    1    3    3  502    0 -0.13267505275E+04  0.39896067986E+03  0.11408224884E+04  0.17946905441E+04  0.12699999809E+01 0. -1.
       -4    1    3    3    0  502  0.13267505275E+04 -0.39896067986E+03 -0.14899933656E+04  0.20345806518E+04  0.12699999809E+01 0.  1.
</event>
<event>
 5   0  0.2529875E-07  0.3810738E+04  0.7818609E-02  0.8043855E-01
        1   -1    0    0  501    0  0.00000000000E+00  0.00000000000E+00  0.21123031386E+04  0.21123031386E+04  0.50400001928E-02 0.  1.
       -1   -1    0    0    0  501  0.00000000000E+00  0.00000000000E+00 -0.17187070153E+04  0.17187070153E+04  0.50400001928E-02 0. -1.
    10030    2    1    2    0    0  0.00000000000E+00  0.00000000000E+00  0.39359612330E+03  0.38310101539E+04  0.38107375784E+04 0.  0.
        4    1    3    3  502    0 -0.11739141749E+04 -0.69087057013E+03 -0.11426004052E+04  0.17778959287E+04  0.12699999809E+01 0. -1.
       -4    1    3    3    0  502  0.11739141749E+04  0.69087057013E+03  0.15361965285E+04  0.20531142252E+04  0.12699999809E+01 0.  1.
</event>
<event>
 5   0  0.7649458E-07  0.3297161E+04  0.7818609E-02  0.8163618E-01
       -2   -1    0    0    0  501  0.00000000000E+00  0.00000000000E+00  0.23513943817E+04  0.23513943817E+04  0.25500000920E-02 0. -1.
        2   -1    0    0  501    0  0.00000000000E+00  0.00000000000E+00 -0.11558320107E+04  0.11558320107E+04  0.25500000920E-02 0.  1.
    10030    2    1    2    0    0  0.00000000000E+00  0.00000000000E+00  0.11955623710E+04  0.35072263924E+04  0.32971605337E+04 0.  0.
        4    1    3    3  502    0 -0.11118661169E+04  0.90568004332E+03 -0.26724077461E+03  0.14587398148E+04  0.12699999809E+01 0.  1.
       -4    1    3    3    0  502  0.11118661169E+04 -0.90568004332E+03  0.14628031457E+04  0.20484865776E+04  0.12699999809E+01 0. -1.
</event>
<event>
 5   0  0.2529875E-07  0.2768478E+04  0.7818609E-02  0.8313122E-01
       -1   -1    0    0    0  501  0.00000000000E+00  0.00000000000E+00  0.84242610267E+03  0.84242610269E+03  0.50400001928E-02 0.  1.
        1   -1    0    0  501    0  0.00000000000E+00  0.00000000000E+00 -0.22745232976E+04  0.22745232976E+04  0.50400001928E-02 0. -1.
    10030    2    1    2    0    0  0.00000000000E+00  0.00000000000E+00 -0.14320971949E+04  0.31169494003E+04  0.27684781358E+04 0.  0.
        3    1    3    3  502    0 -0.13680679256E+04 -0.20897719174E+03 -0.74861082498E+03  0.15734355701E+04  0.10100000352E+00 0. -1.
       -3    1    3    3    0  502  0.13680679256E+04  0.20897719174E+03 -0.68348636995E+03  0.15435138302E+04  0.10100000352E+00 0.  1.
</event>
<event>
 5   0  0.2529875E-07  0.3910196E+04  0.7818609E-02  0.8022912E-01
        1   -1    0    0  501    0  0.00000000000E+00  0.00000000000E+00  0.18093255325E+04  0.18093255325E+04  0.50400001928E-02 0.  1.
       -1   -1    0    0    0  501  0.00000000000E+00  0.00000000000E+00 -0.21126150996E+04  0.21126150996E+04  0.50400001928E-02 0. -1.
    10030    2    1    2    0    0  0.00000000000E+00  0.00000000000E+00 -0.30328956711E+03  0.39219406322E+04  0.39101961282E+04 0.  0.
        4    1    3    3  502    0  0.12318571963E+04 -0.14077083676E+04  0.41865057473E+03  0.19168685184E+04  0.12699999809E+01 0.  1.
       -4    1    3    3    0  502 -0.12318571963E+04  0.14077083676E+04 -0.72194014184E+03  0.20050721138E+04  0.12699999809E+01 0. -1.
</event>
<event>
 5   0  0.2907071E-07  0.3827981E+04  0.7818609E-02  0.8040177E-01
        1   -1    0    0  501    0  0.00000000000E+00  0.00000000000E+00  0.16926178724E+04  0.16926178724E+04  0.50400001928E-02 0.  1.
       -1   -1    0    0    0  501  0.00000000000E+00  0.00000000000E+00 -0.21643156398E+04  0.21643156398E+04  0.50400001928E-02 0. -1.
    10030    2    1    2    0    0  0.00000000000E+00  0.00000000000E+00 -0.47169776742E+03  0.38569335122E+04  0.38279808429E+04 0.  0.
        2    1    3    3  502    0 -0.41523125970E+02  0.39362527600E+03 -0.21226292602E+04  0.21592174518E+04  0.25500000920E-02 0. -1.
       -2    1    3    3    0  502  0.41523125970E+02 -0.39362527600E+03  0.16509314928E+04  0.16977160604E+04  0.25500000920E-02 0.  1.
</event>
<event>
 5   0  0.7551495E-07  0.2985206E+04  0.7818609E-02  0.8247968E-01
        2   -1    0    0  501    0  0.00000000000E+00  0.00000000000E+00  0.15712804832E+04  0.15712804832E+04  0.25500000920E-02 0.  1.
       -2   -1    0    0    0  501  0.00000000000E+00  0.00000000000E+00 -0.14178648567E+04  0.14178648567E+04  0.25500000920E-02 0. -1.
    10030    2    1    2    0    0  0.00000000000E+00  0.00000000000E+00  0.15341562654E+03  0.29891453400E+04  0.29852057733E+04 0.  0.
        1    1    3    3  502    0  0.50029489419E+03 -0.25254268832E+03 -0.13085160555E+04  0.14234771013E+04  0.50400001928E-02 0. -1.
       -1    1    3    3    0  502 -0.50029489419E+03  0.25254268832E+03  0.14619316820E+04  0.15656682386E+04  0.50400001928E-02 0.  1.
</event>
<event>
 5   0  0.3245877E-07  0.2392145E+04  0.7818609E-02  0.8442450E-01
        1   -1    0    0  501    0  0.00000000000E+00  0.00000000000E+00  0.13734735382E+04  0.13734735382E+04  0.50400001928E-02 0.  1.
       -1   -1    0    0    0  501  0.00000000000E+00  0.00000000000E+00 -0.10415852014E+04  0.10415852014E+04  0.50400001928E-02 0. -1.
    10030    2    1    2    0    0  0.00000000000E+00  0.00000000000E+00  0.33188833682E+03  0.24150587396E+04  0.23921452397E+04 0.  0.
        3    1    3    3  502    0 -0.10781795371E+04 -0.42346296429E+03  0.46678794047E+03  0.12488726868E+04  0.10100000352E+00 0. -1.
       -3    1    3    3    0  502  0.10781795371E+04  0.42346296429E+03 -0.13489960365E+03  0.11661860528E+04  0.10100000352E+00 0.  1.
</event>
<event>
 5   0  0.7551495E-07  0.3737499E+04  0.7818609E-02  0.8059702E-01
       -2   -1    0    0    0  501  0.00000000000E+00  0.00000000000E+00  0.11612476007E+04  0.11612476007E+04  0.25500000920E-02 0.  1.
        2   -1    0    0  501    0  0.00000000000E+00  0.00000000000E+00 -0.30073040550E+04  0.30073040550E+04  0.25500000920E-02 0. -1.
    10030    2    1    2    0    0  0.00000000000E+00  0.00000000000E+00 -0.18460564542E+04  0.41685516557E+04  0.37374989597E+04 0.  0.
        1    1    3    3  502    0 -0.12598684972E+04 -0.78832265539E+03 -0.21866078548E+04  0.26438561137E+04  0.50400001928E-02 0. -1.
       -1    1    3    3    0  502  0.12598684972E+04  0.78832265539E+03  0.34055140060E+03  0.15246955420E+04  0.50400001928E-02 0.  1.
</event>
<event>
 5   0  0.8038352E-07  0.3755591E+04  0.7818609E-02  0.8055753E-01
        2   -1    0    0  501    0  0.00000000000E+00  0.00000000000E+00  0.15559144880E+04  0.15559144880E+04  0.25500000920E-02 0. -1.
       -2   -1    0    0    0  501  0.00000000000E+00  0.00000000000E+00 -0.22662658981E+04  0.22662658981E+04  0.25500000920E-02 0.  1.
    10030    2    1    2    0    0  0.00000000000E+00  0.00000000000E+00 -0.71035141015E+03  0.38221803861E+04  0.37555910025E+04 0.  0.
        2    1    3    3  502    0 -0.73278870307E+03 -0.50858576981E+03  0.13265383929E+04  0.15985439864E+04  0.25500000920E-02 0. -1.
       -2    1    3    3    0  502  0.73278870307E+03  0.50858576981E+03 -0.20368898030E+04  0.22236363997E+04  0.25500000920E-02 0.  1.
</event>
<event>
 5   0  0.7649458E-07  0.3753024E+04  0.7818609E-02  0.8056312E-01
        2   -1    0    0  501    0  0.00000000000E+00  0.00000000000E+00  0.25584957765E+04  0.25584957765E+04  0.25500000920E-02 0. -1.
       -2   -1    0    0    0  501  0.00000000000E+00  0.00000000000E+00 -0.13763153476E+04  0.13763153476E+04  0.25500000920E-02 0.  1.
    10030    2    1    2    0    0  0.00000000000E+00  0.00000000000E+00  0.11821804289E+04  0.39348111241E+04  0.37530238497E+04 0.  0.
        4    1    3    3  502    0  0.18034016479E+04 -0.11592946750E+03  0.11211459045E+04  0.21266562715E+04  0.12699999809E+01 0. -1.
       -4    1    3    3    0  502 -0.18034016479E+04  0.11592946750E+03  0.61034524376E+02  0.18081548526E+04  0.12699999809E+01 0.  1.
</event>
<event>
 5   0  0.2529875E-07  0.2618173E+04  0.7818609E-02  0.8362054E-01
       -1   -1    0    0    0  501  0.00000000000E+00  0.00000000000E+00  0.11680070965E+04  0.11680070965E+04  0.50400001928E-02 0. -1.
        1   -1    0    0  501    0  0.00000000000E+00  0.00000000000E+00 -0.14672065611E+04  0.14672065611E+04  0.50400001928E-02 0.  1.
    10030    2    1    2    0    0  0.00000000000E+00  0.00000000000E+00 -0.29919946455E+03  0.26352136576E+04  0.26181731611E+04 0.  0.
        4    1    3    3  502    0 -0.49698430457E+03  0.28672304979E+03  0.10347074062E+04  0.11831418071E+04  0.12699999809E+01 0. -1.
       -4    1    3    3    0  502  0.49698430457E+03 -0.28672304979E+03 -0.13339068708E+04  0.14520718505E+04  0.12699999809E+01 0.  1.
</event>
<event>
 5   0  0.2529875E-07  0.3737865E+04  0.7818609E-02  0.8059622E-01
        1   -1    0    0  501    0  0.00000000000E+00  0.00000000000E+00  0.17665358395E+04  0.17665358395E+04  0.50400001928E-02 0. -1.
       -1   -1    0    0    0  501  0.00000000000E+00  0.00000000000E+00 -0.19772650360E+04  0.19772650360E+04  0.50400001928E-02 0.  1.
    10030    2    1    2    0    0  0.00000000000E+00  0.00000000000E+00 -0.21072919645E+03  0.37438008755E+04  0.37378654605E+04 0.  0.
        1    1    3    3  502    0  0.31959811894E+03  0.43392953256E+03  0.16870221731E+04  0.17710114651E+04  0.50400001928E-02 0. -1.
       -1    1    3    3    0  502 -0.31959811894E+03 -0.43392953256E+03 -0.18977513696E+04  0.19727894104E+04  0.50400001928E-02 0.  1.
</event>
<event>
 5   0  0.7649458E-07  0.3659389E+04  0.7818609E-02  0.8077022E-01
       -2   -1    0    0    0  501  0.00000000000E+00  0.00000000000E+00  0.19735254416E+04  0.19735254416E+04  0.25500000920E-02 0. -1.
        2   -1    0    0  501    0  0.00000000000E+00  0.00000000000E+00 -0.16963461065E+04  0.16963461065E+04  0.25500000920E-02 0.  1.
    10030    2    1    2    0    0  0.00000000000E+00  0.00000000000E+00  0.27717933506E+03  0.36698715481E+04  0.36593891287E+04 0.  0.
        4    1    3    3  502    0 -0.15544674649E+04 -0.48506997897E+03  0.97531687238E+03  0.18981323975E+04  0.12699999809E+01 0. -1.
       -4    1    3    3    0  502  0.15544674649E+04  0.48506997897E+03 -0.69813753732E+03  0.17717391506E+04  0.12699999809E+01 0.  1.
</event>
<event>
 5   0  0.8421677E-07  0.3613457E+04  0.7818609E-02  0.8087416E-01
        2   -1    0    0  501    0  0.00000000000E+00  0.00000000000E+00  0.28708082682E+04  0.28708082682E+04  0.25500000920E-02 0.  1.
       -2   -1    0    0    0  501  0.00000000000E+00  0.00000000000E+00 -0.11370550850E+04  0.11370550850E+04  0.25500000920E-02 0. -1.
    10030    2    1    2    0    0  0.00000000000E+00  0.00000000000E+00  0.17337531832E+04  0.40078633532E+04  0.36134565942E+04 0.  0.
        3    1    3    3  502    0 -0.87894565439E+02 -0.92894523394E+03  0.25828718047E+04  0.27462504387E+04  0.10100000352E+00 0.  1.
       -3    1    3    3    0  502  0.87894565439E+02  0.92894523394E+03 -0.84911862158E+03  0.12616129145E+04  0.10100000352E+00 0. -1.
</event>
<event>
 5   0  0.2907071E-07  0.2357381E+04  0.7818609E-02  0.8455634E-01
       -1   -1    0    0    0  501  0.00000000000E+00  0.00000000000E+00  0.14519147533E+04  0.14519147533E+04  0.50400001928E-02 0.  1.
        1   -1    0    0  501    0  0.00000000000E+00  0.00000000000E+00 -0.95688235609E+03  0.95688235610E+03  0.50400001928E-02 0. -1.
    10030    2    1    2    0    0  0.00000000000E+00  0.00000000000E+00  0.49503239722E+03  0.24087971094E+04  0.23573812674E+04 0.  0.
        2    1    3    3  502    0 -0.44325954002E+03 -0.51499556918E+03  0.12316487760E+04  0.14066478463E+04  0.25500000920E-02 0.  1.
       -2    1    3    3    0  502  0.44325954002E+03  0.51499556918E+03 -0.73661637877E+03  0.10021492631E+04  0.25500000920E-02 0. -1.
</event>
<event>
 5   0  0.2529875E-07  0.3821620E+04  0.7818609E-02  0.8041531E-01
       -1   -1    0    0    0  501  0.00000000000E+00  0.00000000000E+00  0.34622255907E+04  0.34622255907E+04  0.50400001928E-02 0.  1.
        1   -1    0    0  501    0  0.00000000000E+00  0.00000000000E+00 -0.10545804025E+04  0.10545804025E+04  0.50400001928E-02 0. -1.
    10030    2    1    2    0    0  0.00000000000E+00  0.00000000000E+00  0.24076451882E+04  0.45168059932E+04  0.38216202098E+04 0.  0.
        3    1    3    3  502    0 -0.10159566382E+04  0.12548824554E+04  0.24116253220E+04  0.29022120135E+04  0.10100000352E+00 0.  1.
       -3    1    3    3    0  502  0.10159566382E+04 -0.12548824554E+04 -0.39801337528E+01  0.16145939797E+04  0.10100000352E+00 0. -1.
</event>
<event>
 5   0  0.8038352E-07  0.3802470E+04  0.7818609E-02  0.8045625E-01
       -2   -1    0    0    0  501  0.00000000000E+00  0.00000000000E+00  0.20476965959E+04  0.20476965959E+04  0.25500000920E-02 0. -1.
        2   -1    0    0  501    0  0.00000000000E+00  0.00000000000E+00 -0.17652494703E+04  0.17652494703E+04  0.25500000920E-02 0.  1.
    10030    2    1    2    0    0  0.00000000000E+00  0.00000000000E+00  0.28244712566E+03  0.38129460662E+04  0.38024704240E+04 0.  0.
        2    1    3    3  502    0 -0.11100557526E+04  0.13341690887E+03  0.16832088317E+04  0.20206968641E+04  0.25500000920E-02 0. -1.
       -2    1    3    3    0  502  0.11100557526E+04 -0.13341690887E+03 -0.14007617060E+04  0.17922492021E+04  0.25500000920E-02 0.  1.
</event>
<event>
 5   0  0.7649458E-07  0.3633874E+04  0.7818609E-02  0.8082776E-01
        2   -1    0    0  501    0  0.00000000000E+00  0.00000000000E+00  0.17292272455E+04  0.17292272455E+04  0.25500000920E-02 0. -1.
       -2   -1    0    0    0  501  0.00000000000E+00  0.00000000000E+00 -0.19090957759E+04  0.19090957759E+04  0.25500000920E-02 0.  1.
    10030    2    1    2    0    0  0.00000000000E+00  0.00000000000E+00 -0.17986853035E+03  0.36383230214E+04  0.36338742025E+04 0.  0.
        4    1    3    3  502    0 -0.75796076769E+03 -0.21975006415E+03  0.15486707838E+04  0.17381534528E+04  0.12699999809E+01 0. -1.
       -4    1    3    3    0  502  0.75796076769E+03  0.21975006415E+03 -0.17285393141E+04  0.19001695686E+04  0.12699999809E+01 0.  1.
</event>
<event>
 5   0  0.2529875E-07  0.3185942E+04  0.7818609E-02  0.8192540E-01
        1   -1    0    0  501    0  0.00000000000E+00  0.00000000000E+00  0.26180386782E+04  0.26180386783E+04  0.50400001928E-02 0.  1.
       -1   -1    0    0    0  501  0.00000000000E+00  0.00000000000E+00 -0.96925852685E+03  0.96925852686E+03  0.50400001928E-02 0. -1.
    10030    2    1    2    0    0  0.00000000000E+00  0.00000000000E+00  0.16487801514E+04  0.35872972051E+04  0.31859418153E+04 0.  0.
        1    1    3    3  502    0 -0.15593806211E+04  0.21521932021E+03  0.10992046765E+04  0.19199578636E+04  0.50400001928E-02 0.  1.
       -1    1    3    3    0  502  0.15593806211E+04 -0.21521932021E+03  0.54957547485E+03  0.16673393415E+04  0.50400001928E-02 0. -1.
</event>
<event>
 5   0  0.2529875E-07  0.3761960E+04  0.7818609E-02  0.8054368E-01
        1   -1    0    0  501    0  0.00000000000E+00  0.00000000000E+00  0.11958626534E+04  0.11958626534E+04  0.50400001928E-02 0. -1.
       -1   -1    0    0    0  501  0.00000000000E+00  0.00000000000E+00 -0.29586057317E+04  0.29586057317E+04  0.50400001928E-02 0.  1.
    10030    2    1    2    0    0  0.00000000000E+00  0.00000000000E+00 -0.17627430783E+04  0.41544683851E+04  0.37619601809E+04 0.  0.
        1    1    3    3  502    0  0.88279841191E+03 -0.40660089482E+03 -0.26598083000E+04  0.28318258273E+04  0.50400001928E-02 0.  1.
       -1    1    3    3    0  502 -0.88279841191E+03  0.40660089482E+03  0.89706522161E+03  0.13226425578E+04  0.50400001928E-02 0. -1.
</event>
<event>
 5   0  0.8421677E-07  0.2656037E+04  0.7818609E-02  0.8349412E-01
        2   -1    0    0  501    0  0.00000000000E+00  0.00000000000E+00  0.27662797651E+04  0.27662797651E+04  0.25500000920E-02 0. -1.
       -2   -1    0    0    0  501  0.00000000000E+00  0.00000000000E+00 -0.63754697366E+03  0.63754697367E+03  0.25500000920E-02 0.  1.
    10030    2    1    2    0    0  0.00000000000E+00  0.00000000000E+00  0.21287327915E+04  0.34038267388E+04  0.26560371176E+04 0.  0.
        3    1    3    3  502    0 -0.87482519983E+02  0.50984002254E+03  0.26318585619E+04  0.26822135523E+04  0.10100000352E+00 0. -1.
       -3    1    3    3    0  502  0.87482519983E+02 -0.50984002254E+03 -0.50312577044E+03  0.72161318652E+03  0.10100000352E+00 0.  1.
</event>
<event>
 5   0  0.2529875E-07  0.3286267E+04  0.7818609E-02  0.8166398E-01
        1   -1    0    0  501    0  0.00000000000E+00  0.00000000000E+00  0.22531334399E+04  0.22531334399E+04  0.50400001928E-02 0. -1.
       -1   -1    0    0    0  501  0.00000000000E+00  0.00000000000E+00 -0.11982816659E+04  0.11982816659E+04  0.50400001928E-02 0.  1.
    10030    2    1    2    0    0  0.00000000000E+00  0.00000000000E+00  0.10548517739E+04  0.34514151058E+04  0.32862674826E+04 0.  0.
        4    1    3    3  502    0 -0.58759497301E+03  0.64640484615E+03  0.19890456602E+04  0.21724206150E+04  0.12699999809E+01 0. -1.
       -4    1    3    3    0  502  0.58759497301E+03 -0.64640484615E+03 -0.93419388622E+03  0.12789944908E+04  0.12699999809E+01 0.  1.
</event>
<event>
 5   0  0.2529875E-07  0.3706372E+04  0.7818609E-02  0.8066551E-01
       -1   -1    0    0    0  501  0.00000000000E+00  0.00000000000E+00  0.20580811253E+04  0.20580811253E+04  0.50400001928E-02 0.  1.
        1   -1    0    0  501    0  0.00000000000E+00  0.00000000000E+00 -0.16686896247E+04  0.16686896247E+04  0.50400001928E-02 0. -1.
    10030    2    1    2    0    0  0.00000000000E+00  0.00000000000E+00  0.38939150057E+03  0.37267707500E+04  0.37063721457E+04 0.  0.
        3    1    3    3  502    0  0.14699596902E+04 -0.84820847691E+03  0.94314413833E+03  0.19415869764E+04  0.10100000352E+00 0.  1.
       -3    1    3    3    0  502 -0.14699596902E+04  0.84820847691E+03 -0.55375263776E+03  0.17851837735E+04  0.10100000352E+00 0. -1.
</event>
<event>
 5   0  0.2529875E-07  0.2678516E+04  0.7818609E-02  0.8342010E-01
        1   -1    0    0  501    0  0.00000000000E+00  0.00000000000E+00  0.92856173580E+03  0.92856173582E+03  0.50400001928E-02 0. -1.
       -1   -1    0    0    0  501  0.00000000000E+00  0.00000000000E+00 -0.19316019476E+04  0.19316019476E+04  0.50400001928E-02 0.  1.
    10030    2    1    2    0    0  0.00000000000E+00  0.00000000000E+00 -0.10030402118E+04  0.28601636834E+04  0.26785157512E+04 0.  0.
        1    1    3    3  502    0  0.50131311085E+03 -0.11566089668E+04 -0.98446669206E+03  0.15994479689E+04  0.50400001928E-02 0.  1.
       -1    1    3    3    0  502 -0.50131311085E+03  0.11566089668E+04 -0.18573519748E+02  0.12607157146E+04  0.50400001928E-02 0. -1.
</event>
<event>
 5   0  0.2529875E-07  0.3723918E+04  0.7818609E-02  0.8062682E-01
        1   -1    0    0  501    0  0.00000000000E+00  0.00000000000E+00  0.20410662873E+04  0.20410662873E+04  0.50400001928E-02 0.  1.
       -1   -1    0    0    0  501  0.00000000000E+00  0.00000000000E+00 -0.16985686023E+04  0.16985686023E+04  0.50400001928E-02 0. -1.
    10030    2    1    2    0    0  0.00000000000E+00  0.00000000000E+00  0.34249768501E+03  0.37396348896E+04  0.37239178889E+04 0.  0.
        3    1    3    3  502    0  0.11061866888E+04 -0.14331554145E+04  0.60818019506E+03  0.19098341794E+04  0.10100000352E+00 0.  1.
       -3    1    3    3    0  502 -0.11061866888E+04  0.14331554145E+04 -0.26568251005E+03  0.18298007102E+04  0.10100000352E+00 0. -1.
</event>
<event>
 5   0  0.7638805E-07  0.3783777E+04  0.7818609E-02  0.8049645E-01
       -2   -1    0    0    0  501  0.00000000000E+00  0.00000000000E+00  0.23571477626E+04  0.23571477626E+04  0.25500000920E-02 0. -1.
        2   -1    0    0  501    0  0.00000000000E+00  0.00000000000E+00 -0.15184632109E+04  0.15184632109E+04  0.25500000920E-02 0.  1.
    10030    2    1    2    0    0  0.00000000000E+00  0.00000000000E+00  0.83868455172E+03  0.38756109735E+04  0.37837770336E+04 0.  0.
        5    1    3    3  502    0  0.15703525056E+04  0.69510796333E+03  0.12323562518E+04  0.21137422014E+04  0.46999998093E+01 0. -1.
       -5    1    3    3    0  502 -0.15703525056E+04 -0.69510796333E+03 -0.39367170008E+03  0.17618687721E+04  0.46999998093E+01 0.  1.
</event>
<event>
 5   0  0.2529875E-07  0.2688145E+04  0.7818609E-02  0.8338862E-01
        1   -1    0    0  501    0  0.00000000000E+00  0.00000000000E+00  0.20257184369E+04  0.20257184369E+04  0.50400001928E-02 0.  1.
       -1   -1    0    0    0  501  0.00000000000E+00  0.00000000000E+00 -0.89179755748E+03  0.89179755749E+03  0.50400001928E-02 0. -1.
    10030    2    1    2    0    0  0.00000000000E+00  0.00000000000E+00  0.11339208794E+04  0.29175159944E+04  0.26881449025E+04 0.  0.
        4    1    3    3  502    0 -0.99100981124E+02  0.13374089469E+04  0.46961051513E+03  0.14209220051E+04  0.12699999809E+01 0. -1.
       -4    1    3    3    0  502  0.99100981124E+02 -0.13374089469E+04  0.66431036429E+03  0.14965939893E+04  0.12699999809E+01 0.  1.
</event>
<event>
 5   0  0.2529875E-07  0.3235201E+04  0.7818609E-02  0.8179582E-01
        1   -1    0    0  501    0  0.00000000000E+00  0.00000000000E+00  0.26167031366E+04  0.26167031366E+04  0.50400001928E-02 0. -1.
       -1   -1    0    0    0  501  0.00000000000E+00  0.00000000000E+00 -0.99997252916E+03  0.99997252918E+03  0.50400001928E-02 0.  1.
    10030    2    1    2    0    0  0.00000000000E+00  0.00000000000E+00  0.16167306074E+04  0.36166756658E+04  0.32352009233E+04 0.  0.
        1    1    3    3  502    0  0.88432304945E+03  0.13427329909E+04  0.60941398371E+03  0.17194023800E+04  0.50400001928E-02 0.  1.
       -1    1    3    3    0  502 -0.88432304945E+03 -0.13427329909E+04  0.10073166237E+04  0.18972732858E+04  0.50400001928E-02 0. -1.
</event>
<event>
 5   0  0.2529875E-07  0.3806382E+04  0.7818609E-02  0.8044787E-01
       -1   -1    0    0    0  501  0.00000000000E+00  0.00000000000E+00  0.18181147898E+04  0.18181147898E+04  0.50400001928E-02 0.  1.
        1   -1    0    0  501    0  0.00000000000E+00  0.00000000000E+00 -0.19922482266E+04  0.19922482266E+04  0.50400001928E-02 0. -1.
    10030    2    1    2    0    0  0.00000000000E+00  0.00000000000E+00 -0.17413343685E+03  0.38103630164E+04  0.38063819912E+04 0.  0.
        3    1    3    3  502    0 -0.14227797646E+04  0.26311772980E+03  0.11505931317E+04  0.18486205027E+04  0.10100000352E+00 0.  1.
       -3    1    3    3    0  502  0.14227797646E+04 -0.26311772980E+03 -0.13247265685E+04  0.19617425137E+04  0.10100000352E+00 0. -1.
</event>
<event>
 5   0  0.7638805E-07  0.3735885E+04  0.7818609E-02  0.8060056E-01
       -2   -1    0    0    0  501  0.00000000000E+00  0.00000000000E+00  0.18660460871E+04  0.18660460871E+04  0.25500000920E-02 0.  1.
        2   -1    0    0  501    0  0.00000000000E+00  0.00000000000E+00 -0.18698404315E+04  0.18698404315E+04  0.25500000920E-02 0. -1.
    10030    2    1    2    0    0  0.00000000000E+00  0.00000000000E+00 -0.37943444188E+01  0.37358865186E+04  0.37358845917E+04 0.  0.
        5    1    3    3  502    0  0.41554839011E+03  0.12531573612E+03  0.18149146610E+04  0.18660980186E+04  0.46999998093E+01 0.  1.
       -5    1    3    3    0  502 -0.41554839011E+03 -0.12531573612E+03 -0.18187090054E+04  0.18697885000E+04  0.46999998093E+01 0. -1.
</event>
<event>
 5   0  0.7649458E-07  0.3191503E+04  0.7818609E-02  0.8191065E-01
        2   -1    0    0  501    0  0.00000000000E+00  0.00000000000E+00  0.20418703399E+04  0.20418703399E+04  0.25500000920E-02 0.  1.
       -2   -1    0    0    0  501  0.00000000000E+00  0.00000000000E+00 -0.12471028790E+04  0.12471028790E+04  0.25500000920E-02 0. -1.
    10030    2    1    2    0    0  0.00000000000E+00  0.00000000000E+00  0.79476746087E+03  0.32889732189E+04  0.31915027053E+04 0.  0.
        4    1    3    3  502    0 -0.31838130864E+02 -0.15581445619E+04  0.75077446713E+03  0.17298820930E+04  0.12699999809E+01 0.  1.
       -4    1    3    3    0  502  0.31838130864E+02  0.15581445619E+04  0.43992993746E+02  0.15590911259E+04  0.12699999809E+01 0. -1.
</event>
<event>
 5   0  0.2529875E-07  0.2863026E+04  0.7818609E-02  0.8283964E-01
       -1   -1    0    0    0  501  0.00000000000E+00  0.00000000000E+00  0.92896757524E+03  0.92896757526E+03  0.50400001928E-02 0. -1.
        1   -1    0    0  501    0  0.00000000000E+00  0.00000000000E+00 -0.22059215866E+04  0.22059215866E+04  0.50400001928E-02 0.  1.
    10030    2    1    2    0    0  0.00000000000E+00  0.00000000000E+00 -0.12769540113E+04  0.31348891618E+04  0.28630261106E+04 0.  0.
        5    1    3    3  502    0  0.87847377347E+03  0.14338096408E+03 -0.18660660158E+04  0.20674860911E+04  0.46999998093E+01 0.  1.
       -5    1    3    3    0  502 -0.87847377347E+03 -0.14338096408E+03  0.58911200450E+03  0.10674030707E+04  0.46999998093E+01 0. -1.
</event>
<event>
 5   0  0.7649458E-07  0.3729197E+04  0.7818609E-02  0.8061522E-01
       -2   -1    0    0    0  501  0.00000000000E+00  0.00000000000E+00  0.11429636160E+04  0.11429636160E+04  0.25500000920E-02 0. -1.
        2   -1    0    0  501    0  0.00000000000E+00  0.00000000000E+00 -0.30418526934E+04  0.30418526934E+04  0.25500000920E-02 0.  1.
    10030    2    1    2    0    0  0.00000000000E+00  0.00000000000E+00 -0.18988890773E+04  0.41848163094E+04  0.37291966716E+04 0.  0.
        4    1    3    3  502    0  0.26522031096E+03  0.16934175302E+04 -0.12579416199E+03  0.17186711521E+04  0.12699999809E+01 0. -1.
       -4    1    3    3    0  502 -0.26522031096E+03 -0.16934175302E+04 -0.17730949153E+04  0.24661451573E+04  0.12699999809E+01 0.  1.
</event>
<event>
 5   0  0.2529875E-07  0.3807852E+04  0.7818609E-02  0.8044472E-01
       -1   -1    0    0    0  501  0.00000000000E+00  0.00000000000E+00  0.11922748878E+04  0.11922748878E+04  0.50400001928E-02 0. -1.
        1   -1    0    0  501    0  0.00000000000E+00  0.00000000000E+00 -0.30403507768E+04  0.30403507768E+04  0.50400001928E-02 0.  1.
    10030    2    1    2    0    0  0.00000000000E+00  0.00000000000E+00 -0.18480758890E+04  0.42326256647E+04  0.38078518256E+04 0.  0.
        3    1    3    3  502    0 -0.72352232803E+02  0.18606023710E+04 -0.13656723524E+04  0.23091420513E+04  0.10100000352E+00 0.  1.
       -3    1    3    3    0  502  0.72352232803E+02 -0.18606023710E+04 -0.48240353663E+03  0.19234836134E+04  0.10100000352E+00 0. -1.
</event>
<event>
 5   0  0.8038352E-07  0.3372480E+04  0.7818609E-02  0.8144694E-01
       -2   -1    0    0    0  501  0.00000000000E+00  0.00000000000E+00  0.16673121341E+04  0.16673121341E+04  0.25500000920E-02 0. -1.
        2   -1    0    0  501    0  0.00000000000E+00  0.00000000000E+00 -0.17053826009E+04  0.17053826009E+04  0.25500000920E-02 0.  1.
    10030    2    1    2    0    0  0.00000000000E+00  0.00000000000E+00 -0.38070466798E+02  0.33726947351E+04  0.33724798614E+04 0.  0.
        2    1    3    3  502    0 -0.72393425093E+03 -0.10591341993E+04  0.10753649033E+04  0.16739939447E+04  0.25500000920E-02 0. -1.
       -2    1    3    3    0  502  0.72393425093E+03  0.10591341993E+04 -0.11134353701E+04  0.16987007904E+04  0.25500000920E-02 0.  1.
</event>
<event>
 5   0  0.7551495E-07  0.3838770E+04  0.7818609E-02  0.8037886E-01
        2   -1    0    0  501    0  0.00000000000E+00  0.00000000000E+00  0.22220332622E+04  0.22220332622E+04  0.25500000920E-02 0.  1.
       -2   -1    0    0    0  501  0.00000000000E+00  0.00000000000E+00 -0.16579581186E+04  0.16579581186E+04  0.25500000920E-02 0. -1.
    10030    2    1    2    0    0  0.00000000000E+00  0.00000000000E+00  0.56407514356E+03  0.38799913807E+04  0.38387696397E+04 0.  0.
        1    1    3    3  502    0  0.10223340474E+04  0.10822976896E+04  0.15064513063E+04  0.21180015892E+04  0.50400001928E-02 0.  1.
       -1    1    3    3    0  502 -0.10223340474E+04 -0.10822976896E+04 -0.94237616273E+03  0.17619897916E+04  0.50400001928E-02 0. -1.
</event>
<event>
 5   0  0.2529875E-07  0.2515731E+04  0.7818609E-02  0.8397403E-01
       -1   -1    0    0    0  501  0.00000000000E+00  0.00000000000E+00  0.59907666836E+03  0.59907666838E+03  0.50400001928E-02 0.  1.
        1   -1    0    0  501    0  0.00000000000E+00  0.00000000000E+00 -0.26411060112E+04  0.26411060112E+04  0.50400001928E-02 0. -1.
    10030    2    1    2    0    0  0.00000000000E+00  0.00000000000E+00 -0.20420293428E+04  0.32401826796E+04  0.25157305023E+04 0.  0.
        4    1    3    3  502    0  0.10083200016E+04  0.29064041607E+03 -0.19143140141E+04  0.21830668415E+04  0.12699999809E+01 0. -1.
       -4    1    3    3    0  502 -0.10083200016E+04 -0.29064041607E+03 -0.12771532873E+03  0.10571158381E+04  0.12699999809E+01 0.  1.
</event>
<event>
 5   0  0.7551495E-07  0.3420834E+04  0.7818609E-02  0.8132812E-01
        2   -1    0    0  501    0  0.00000000000E+00  0.00000000000E+00  0.23574328208E+04  0.23574328208E+04  0.25500000920E-02 0. -1.
       -2   -1    0    0    0  501  0.00000000000E+00  0.00000000000E+00 -0.12409794374E+04  0.12409794374E+04  0.25500000920E-02 0.  1.
    10030    2    1    2    0    0  0.00000000000E+00  0.00000000000E+00  0.11164533834E+04  0.35984122581E+04  0.34208336151E+04 0.  0.
        1    1    3    3  502    0 -0.16096219779E+04 -0.48462695542E+03  0.22595026146E+03  0.16961131208E+04  0.50400001928E-02 0. -1.
       -1    1    3    3    0  502  0.16096219779E+04  0.48462695542E+03  0.89050312194E+03  0.19022991374E+04  0.50400001928E-02 0.  1.
</event>
<event>
 5   0  0.2907071E-07  0.3825784E+04  0.7818609E-02  0.8040644E-01
        1   -1    0    0  501    0  0.00000000000E+00  0.00000000000E+00  0.26209910001E+04  0.26209910001E+04  0.50400001928E-02 0. -1.
       -1   -1    0    0    0  501  0.00000000000E+00  0.00000000000E+00 -0.13960965645E+04  0.13960965645E+04  0.50400001928E-02 0.  1.
    10030    2    1    2    0    0  0.00000000000E+00  0.00000000000E+00  0.12248944356E+04  0.40170875646E+04  0.38257843801E+04 0.  0.
        2    1    3    3  502    0 -0.80976559129E+03 -0.17328801757E+04  0.58754387339E+03  0.20009502291E+04  0.25500000920E-02 0.  1.
       -2    1    3    3    0  502  0.80976559129E+03  0.17328801757E+04  0.63735056226E+03  0.20161373355E+04  0.25500000920E-02 0. -1.
</event>
<event>
 5   0  0.7649458E-07  0.3766395E+04  0.7818609E-02  0.8053405E-01
       -2   -1    0    0    0  501  0.00000000000E+00  0.00000000000E+00  0.27459762958E+04  0.27459762958E+04  0.25500000920E-02 0. -1.
        2   -1    0    0  501    0  0.00000000000E+00  0.00000000000E+00 -0.12915013619E+04  0.12915013619E+04  0.25500000920E-02 0.  1.
    10030    2    1    2    0    0  0.00000000000E+00  0.00000000000E+00  0.14544749339E+04  0.40374776578E+04  0.37663946293E+04 0.  0.
        4    1    3    3  502    0  0.69478090101E+03  0.15756284437E+04 -0.89931045433E+02  0.17243592140E+04  0.12699999809E+01 0.  1.
       -4    1    3    3    0  502 -0.69478090101E+03 -0.15756284437E+04  0.15444059794E+04  0.23131184438E+04  0.12699999809E+01 0. -1.
</event>
<event>
 5   0  0.8421677E-07  0.3804176E+04  0.7818609E-02  0.8045259E-01
        2   -1    0    0  501    0  0.00000000000E+00  0.00000000000E+00  0.12847977698E+04  0.12847977698E+04  0.25500000920E-02 0.  1.
       -2   -1    0    0    0  501  0.00000000000E+00  0.00000000000E+00 -0.28159592532E+04  0.28159592532E+04  0.25500000920E-02 0. -1.
    10030    2    1    2    0    0  0.00000000000E+00  0.00000000000E+00 -0.15311614834E+04  0.41007570230E+04  0.38041756890E+04 0.  0.
        3    1    3    3  502    0  0.68182592661E+03 -0.14026597228E+04  0.40815969296E+03  0.16121213470E+04  0.10100000352E+00 0.  1.
       -3    1    3    3    0  502 -0.68182592661E+03  0.14026597228E+04 -0.19393211764E+04  0.24886356760E+04  0.10100000352E+00 0. -1.
</event>
<event>
 5   0  0.2907071E-07  0.3783633E+04  0.7818609E-02  0.8049676E-01
        1   -1    0    0  501    0  0.00000000000E+00  0.00000000000E+00  0.19256655502E+04  0.19256655503E+04  0.50400001928E-02 0. -1.
       -1   -1    0    0    0  501  0.00000000000E+00  0.00000000000E+00 -0.18585624158E+04  0.18585624158E+04  0.50400001928E-02 0.  1.
    10030    2    1    2    0    0  0.00000000000E+00  0.00000000000E+00  0.67103134467E+02  0.37842279660E+04  0.37836329722E+04 0.  0.
        2    1    3    3  502    0 -0.76544566026E+03  0.48114545173E+03 -0.16285044540E+04  0.18626418768E+04  0.25500000920E-02 0.  1.
       -2    1    3    3    0  502  0.76544566026E+03 -0.48114545173E+03  0.16956075884E+04  0.19215860893E+04  0.25500000920E-02 0. -1.
</event>
<event>
 5   0  0.2529875E-07  0.3441430E+04  0.7818609E-02  0.8127812E-01
       -1   -1    0    0    0  501  0.00000000000E+00  0.00000000000E+00  0.13608468214E+04  0.13608468214E+04  0.50400001928E-02 0.  1.
        1   -1    0    0  501    0  0.00000000000E+00  0.00000000000E+00 -0.21757484259E+04  0.21757484259E+04  0.50400001928E-02 0. -1.
    10030    2    1    2    0    0  0.00000000000E+00  0.00000000000E+00 -0.81490160455E+03  0.35365952473E+04  0.34414301268E+04 0.  0.
        4    1    3    3  502    0  0.80386354048E+03 -0.12231443464E+04  0.52232229568E+03  0.15540594832E+04  0.12699999809E+01 0.  1.
       -4    1    3    3    0  502 -0.80386354048E+03  0.12231443464E+04 -0.13372239002E+04  0.19825357641E+04  0.12699999809E+01 0. -1.
</event>
<event>
 5   0  0.2529875E-07  0.3869099E+04  0.7818609E-02  0.8031487E-01
        1   -1    0    0  501    0  0.00000000000E+00  0.00000000000E+00  0.27192569314E+04  0.27192569314E+04  0.50400001928E-02 0.  1.
       -1   -1    0    0    0  501  0.00000000000E+00  0.00000000000E+00 -0.13762880949E+04  0.13762880949E+04  0.50400001928E-02 0. -1.
    10030    2    1    2    0    0  0.00000000000E+00  0.00000000000E+00  0.13429688365E+04  0.40955450263E+04  0.38690985729E+04 0.  0.
        3    1    3    3  502    0 -0.67395260971E+03  0.69501289773E+03 -0.11014220695E+04  0.14664193239E+04  0.10100000352E+00 0. -1.
       -3    1    3    3    0  502  0.67395260971E+03 -0.69501289773E+03  0.24443909059E+04  0.26291257025E+04  0.10100000352E+00 0.  1.
</event>
<event>
 5   0  0.2529875E-07  0.3799749E+04  0.7818609E-02  0.8046209E-01
       -1   -1    0    0    0  501  0.00000000000E+00  0.00000000000E+00  0.13872595274E+04  0.13872595274E+04  0.50400001928E-02 0.  1.
        1   -1    0    0  501    0  0.00000000000E+00  0.00000000000E+00 -0.26019087698E+04  0.26019087698E+04  0.50400001928E-02 0. -1.
    10030    2    1    2    0    0  0.00000000000E+00  0.00000000000E+00 -0.12146492425E+04  0.39891682972E+04  0.37997487971E+04 0.  0.
        3    1    3    3  502    0  0.17877474708E+04 -0.34100117192E+03 -0.34987646876E+02  0.18203150728E+04  0.10100000352E+00 0.  1.
       -3    1    3    3    0  502 -0.17877474708E+04  0.34100117192E+03 -0.11796615956E+04  0.21688532244E+04  0.10100000352E+00 0. -1.
</event>
<event>
 5   0  0.7551495E-07  0.3830789E+04  0.7818609E-02  0.8039580E-01
       -2   -1    0    0    0  501  0.00000000000E+00  0.00000000000E+00  0.15150844335E+04  0.15150844335E+04  0.25500000920E-02 0.  1.
        2   -1    0    0  501    0  0.00000000000E+00  0.00000000000E+00 -0.24214729602E+04  0.24214729602E+04  0.25500000920E-02 0. -1.
    10030    2    1    2    0    0  0.00000000000E+00  0.00000000000E+00 -0.90638852676E+03  0.39365573937E+04  0.38307889464E+04 0.  0.
        1    1    3    3  502    0  0.18816526975E+04 -0.21950378372E+03 -0.74373219228E+03  0.20351747735E+04  0.50400001928E-02 0. -1.
       -1    1    3    3    0  502 -0.18816526975E+04  0.21950378372E+03 -0.16265633448E+03  0.19013826201E+04  0.50400001928E-02 0.  1.
</event>
<event>
 5   0  0.7638805E-07  0.3701417E+04  0.7818609E-02  0.8067648E-01
        2   -1    0    0  501    0  0.00000000000E+00  0.00000000000E+00  0.22563899619E+04  0.22563899619E+04  0.25500000920E-02 0.  1.
       -2   -1    0    0    0  501  0.00000000000E+00  0.00000000000E+00 -0.15179650318E+04  0.15179650318E+04  0.25500000920E-02 0. -1.
    10030    2    1    2    0    0  0.00000000000E+00  0.00000000000E+00  0.73842493016E+03  0.37743549937E+04  0.37014165182E+04 0.  0.
        5    1    3    3  502    0  0.40004930850E+03  0.17890751054E+04  0.11070194526E+03  0.18366018057E+04  0.46999998093E+01 0. -1.
       -5    1    3    3    0  502 -0.40004930850E+03 -0.17890751054E+04  0.62772298490E+03  0.19377531880E+04  0.46999998093E+01 0.  1.
</event>
<event>
 5   0  0.8038352E-07  0.3786694E+04  0.7818609E-02  0.8049016E-01
       -2   -1    0    0    0  501  0.00000000000E+00  0.00000000000E+00  0.18231060235E+04  0.18231060235E+04  0.25500000920E-02 0. -1.
        2   -1    0    0  501    0  0.00000000000E+00  0.00000000000E+00 -0.19662947249E+04  0.19662947249E+04  0.25500000920E-02 0.  1.
    10030    2    1    2    0    0  0.00000000000E+00  0.00000000000E+00 -0.14318870137E+03  0.37894007483E+04  0.37866944724E+04 0.  0.
        2    1    3    3  502    0 -0.11990754489E+04 -0.47174086736E+03  0.13166398096E+04  0.18422436772E+04  0.25500000920E-02 0. -1.
       -2    1    3    3    0  502  0.11990754489E+04  0.47174086736E+03 -0.14598285110E+04  0.19471570711E+04  0.25500000920E-02 0.  1.
</event>
<event>
 5   0  0.2529875E-07  0.3553777E+04  0.7818609E-02  0.8101162E-01
       -1   -1    0    0    0  501  0.00000000000E+00  0.00000000000E+00  0.16418642812E+04  0.16418642812E+04  0.50400001928E-02 0.  1.
        1   -1    0    0  501    0  0.00000000000E+00  0.00000000000E+00 -0.19230167292E+04  0.19230167292E+04  0.50400001928E-02 0. -1.
    10030    2    1    2    0    0  0.00000000000E+00  0.00000000000E+00 -0.28115244796E+03  0.35648810104E+04  0.35537768527E+04 0.  0.
        1    1    3    3  502    0  0.12262667090E+04 -0.11312805255E+04 -0.75388402553E+03  0.18308104197E+04  0.50400001928E-02 0. -1.
       -1    1    3    3    0  502 -0.12262667090E+04  0.11312805255E+04  0.47273157757E+03  0.17340705907E+04  0.50400001928E-02 0.  1.
</event>
<event>
 5   0  0.8038352E-07  0.3835939E+04  0.7818609E-02  0.8038486E-01
        2   -1    0    0  501    0  0.00000000000E+00  0.00000000000E+00  0.29980848265E+04  0.29980848265E+04  0.25500000920E-02 0.  1.
       -2   -1    0    0    0  501  0.00000000000E+00  0.00000000000E+00 -0.12269853128E+04  0.12269853128E+04  0.25500000920E-02 0. -1.
    10030    2    1    2    0    0  0.00000000000E+00  0.00000000000E+00  0.17710995137E+04  0.42250701394E+04  0.38359385025E+04 0.  0.
        2    1    3    3  502    0  0.15207790520E+04  0.48002523199E+02  0.21717100410E+04  0.26516782741E+04  0.25500000920E-02 0.  1.
       -2    1    3    3    0  502 -0.15207790520E+04 -0.48002523199E+02 -0.40061052733E+03  0.15733918653E+04  0.25500000920E-02 0. -1.
</event>
<event>
 5   0  0.2529875E-07  0.3783263E+04  0.7818609E-02  0.8049756E-01
       -1   -1    0    0    0  501  0.00000000000E+00  0.00000000000E+00  0.22527184572E+04  0.22527184572E+04  0.50400001928E-02 0.  1.
        1   -1    0    0  501    0  0.00000000000E+00  0.00000000000E+00 -0.15884233112E+04  0.15884233112E+04  0.50400001928E-02 0. -1.
    10030    2    1    2    0    0  0.00000000000E+00  0.00000000000E+00  0.66429514605E+03  0.38411417684E+04  0.37832634119E+04 0.  0.
        1    1    3    3  502    0  0.63631536356E+03  0.81642380555E+03  0.19396654176E+04  0.21985784053E+04  0.50400001928E-02 0.  1.
       -1    1    3    3    0  502 -0.63631536356E+03 -0.81642380555E+03 -0.12753702715E+04  0.16425633631E+04  0.50400001928E-02 0. -1.
</event>
<event>
 5   0  0.2529875E-07  0.3790043E+04  0.7818609E-02  0.8048295E-01
       -1   -1    0    0    0  501  0.00000000000E+00  0.00000000000E+00  0.15034640028E+04  0.15034640028E+04  0.50400001928E-02 0.  1.
        1   -1    0    0  501    0  0.00000000000E+00  0.00000000000E+00 -0.23885549971E+04  0.23885549971E+04  0.50400001928E-02 0. -1.
    10030    2    1    2    0    0  0.00000000000E+00  0.00000000000E+00 -0.88509099428E+03  0.38920190000E+04  0.37900429850E+04 0.  0.
        5    1    3    3  502    0 -0.53387443881E+03  0.12883212270E+04 -0.17601470577E+04  0.22456476249E+04  0.46999998093E+01 0. -1.
       -5    1    3    3    0  502  0.53387443881E+03 -0.12883212270E+04  0.87505606346E+03  0.16463713751E+04  0.46999998093E+01 0.  1.
</event>
<event>
 5   0  0.7649458E-07  0.3698341E+04  0.7818609E-02  0.8068330E-01
        2   -1    0    0  501    0  0.00000000000E+00  0.00000000000E+00  0.18722061375E+04  0.18722061375E+04  0.25500000920E-02 0.  1.
       -2   -1    0    0    0  501  0.00000000000E+00  0.00000000000E+00 -0.18264180500E+04  0.18264180500E+04  0.25500000920E-02 0. -1.
    10030    2    1    2    0    0  0.00000000000E+00  0.00000000000E+00  0.45788087493E+02  0.36986241874E+04  0.36983407538E+04 0.  0.
        4    1    3    3  502    0  0.61050815783E+03 -0.12369060766E+04  0.12545616574E+04  0.18645598457E+04  0.12699999809E+01 0.  1.
       -4    1    3    3    0  502 -0.61050815783E+03  0.12369060766E+04 -0.12087735699E+04  0.18340643417E+04  0.12699999809E+01 0. -1.
</event>
<event>
 5   0  0.2529875E-07  0.3331499E+04  0.7818609E-02  0.8154926E-01
        1   -1    0    0  501    0  0.00000000000E+00  0.00000000000E+00  0.24290693771E+04  0.24290693771E+04  0.50400001928E-02 0.  1.
       -1   -1    0    0    0  501  0.00000000000E+00  0.00000000000E+00 -0.11422980914E+04  0.11422980914E+04  0.50400001928E-02 0. -1.
    10030    2    1    2    0    0  0.00000000000E+00  0.00000000000E+00  0.12867712857E+04  0.35713674685E+04  0.33314989499E+04 0.  0.
        3    1    3    3  502    0 -0.11872234901E+04 -0.11072025683E+04  0.10435220563E+04  0.19298537340E+04  0.10100000352E+00 0.  1.
       -3    1    3    3    0  502  0.11872234901E+04  0.11072025683E+04  0.24324922943E+03  0.16415137344E+04  0.10100000352E+00 0. -1.
</event>
<event>
 5   0  0.2529875E-07  0.3773457E+04  0.7818609E-02  0.8051875E-01
       -1   -1    0    0    0  501  0.00000000000E+00  0.00000000000E+00  0.23515370076E+04  0.23515370076E+04  0.50400001928E-02 0.  1.
        1   -1    0    0  501    0  0.00000000000E+00  0.00000000000E+00 -0.15137951088E+04  0.15137951088E+04  0.50400001928E-02 0. -1.
    10030    2    1    2    0    0  0.00000000000E+00  0.00000000000E+00  0.83774189876E+03  0.38653321164E+04  0.37734574174E+04 0.  0.
        1    1    3    3  502    0  0.72945237022E+03 -0.47758942815E+03 -0.12950535746E+04  0.15612034408E+04  0.50400001928E-02 0. -1.
       -1    1    3    3    0  502 -0.72945237022E+03  0.47758942815E+03  0.21327954734E+04  0.23041286756E+04  0.50400001928E-02 0.  1.
</event>
<event>
 5   0  0.2907071E-07  0.3785638E+04  0.7818609E-02  0.8049244E-01
       -1   -1    0    0    0  501  0.00000000000E+00  0.00000000000E+00  0.15267766907E+04  0.15267766907E+04  0.50400001928E-02 0. -1.
        1   -1    0    0  501    0  0.00000000000E+00  0.00000000000E+00 -0.23466191506E+04  0.23466191506E+04  0.50400001928E-02 0.  1.
    10030    2    1    2    0    0  0.00000000000E+00  0.00000000000E+00 -0.81984245991E+03  0.38733958412E+04  0.37856378173E+04 0.  0.
        2    1    3    3  502    0  0.75902249875E+02  0.10641383779E+04 -0.20096920494E+04  0.22753052042E+04  0.25500000920E-02 0.  1.
       -2    1    3    3    0  502 -0.75902249875E+02 -0.10641383779E+04  0.11898495894E+04  0.15980906371E+04  0.25500000920E-02 0. -1.
</event>
<event>
 5   0  0.2529875E-07  0.3817380E+04  0.7818609E-02  0.8042436E-01
        1   -1    0    0  501    0  0.00000000000E+00  0.00000000000E+00  0.24727630284E+04  0.24727630284E+04  0.50400001928E-02 0.  1.
       -1   -1    0    0    0  501  0.00000000000E+00  0.00000000000E+00 -0.14732898962E+04  0.14732898962E+04  0.50400001928E-02 0. -1.
    10030    2    1    2    0    0  0.00000000000E+00  0.00000000000E+00  0.99947313220E+03  0.39460529246E+04  0.38173796172E+04 0.  0.
        4    1    3    3  502    0  0.29690037397E+03  0.27807182690E+03  0.24274332722E+04  0.24612817142E+04  0.12699999809E+01 0.  1.
       -4    1    3    3    0  502 -0.29690037397E+03 -0.27807182690E+03 -0.14279601400E+04  0.14847712104E+04  0.12699999809E+01 0. -1.
</event>
<event>
 5   0  0.2529875E-07  0.3134125E+04  0.7818609E-02  0.8206435E-01
       -3   -1    0    0    0  501  0.00000000000E+00  0.00000000000E+00  0.20907005842E+04  0.20907005866E+04  0.10100000352E+00 0.  1.
        3   -1    0    0  501    0  0.00000000000E+00  0.00000000000E+00 -0.11745748821E+04  0.11745748864E+04  0.10100000352E+00 0. -1.
    10030    2    1    2    0    0  0.00000000000E+00  0.00000000000E+00  0.91612570211E+03  0.32652754730E+04  0.31341246964E+04 0.  0.
        1    1    3    3  502    0 -0.50143206801E+03  0.12553587627E+04 -0.36777656526E+03  0.14009351676E+04  0.50400001928E-02 0. -1.
       -1    1    3    3    0  502  0.50143206801E+03 -0.12553587627E+04  0.12839022674E+04  0.18643403054E+04  0.50400001928E-02 0.  1.
</event>
<event>
 5   0  0.7551495E-07  0.2362371E+04  0.7818609E-02  0.8453727E-01
        2   -1    0    0  501    0  0.00000000000E+00  0.00000000000E+00  0.95153231163E+03  0.95153231163E+03  0.25500000920E-02 0. -1.
       -2   -1    0    0    0  501  0.00000000000E+00  0.00000000000E+00 -0.14662661109E+04  0.14662661109E+04  0.25500000920E-02 0.  1.
    10030    2    1    2    0    0  0.00000000000E+00  0.00000000000E+00 -0.51473379924E+03  0.24177984225E+04  0.23623713357E+04 0.  0.
        1    1    3    3  502    0 -0.41664777348E+03  0.27782655987E+03 -0.13522405478E+04  0.14419907988E+04  0.50400001928E-02 0.  1.
       -1    1    3    3    0  502  0.41664777348E+03 -0.27782655987E+03  0.83750674861E+03  0.97580762372E+03  0.50400001928E-02 0. -1.
</event>
<event>
 5   0  0.2907071E-07  0.2699541E+04  0.7818609E-02  0.8335154E-01
        1   -1    0    0  501    0  0.00000000000E+00  0.00000000000E+00  0.20315614377E+04  0.20315614377E+04  0.50400001928E-02 0. -1.
       -1   -1    0    0    0  501  0.00000000000E+00  0.00000000000E+00 -0.89678818887E+03  0.89678818889E+03  0.50400001928E-02 0.  1.
    10030    2    1    2    0    0  0.00000000000E+00  0.00000000000E+00  0.11347732488E+04  0.29283496266E+04  0.26995409257E+04 0.  0.
        2    1    3    3  502    0 -0.43195073685E+03  0.68429995136E+03  0.17392432390E+04  0.19182843655E+04  0.25500000920E-02 0. -1.
       -2    1    3    3    0  502  0.43195073685E+03 -0.68429995136E+03 -0.60446999022E+03  0.10100652611E+04  0.25500000920E-02 0.  1.
</event>
<event>
 5   0  0.8421677E-07  0.3813566E+04  0.7818609E-02  0.8043250E-01
        2   -1    0    0  501    0  0.00000000000E+00  0.00000000000E+00  0.23861211262E+04  0.23861211262E+04  0.25500000920E-02 0. -1.
       -2   -1    0    0    0  501  0.00000000000E+00  0.00000000000E+00 -0.15237370679E+04  0.15237370679E+04  0.25500000920E-02 0.  1.
    10030    2    1    2    0    0  0.00000000000E+00  0.00000000000E+00  0.86238405824E+03  0.39098581941E+04  0.38135658948E+04 0.  0.
        3    1    3    3  502    0 -0.91108165614E+03  0.41387060438E+03 -0.12328939633E+04  0.15878873374E+04  0.10100000352E+00 0.  1.
       -3    1    3    3    0  502  0.91108165614E+03 -0.41387060438E+03  0.20952780216E+04  0.23219708567E+04  0.10100000352E+00 0. -1.
</event>
<event>
 5   0  0.2529875E-07  0.3721726E+04  0.7818609E-02  0.8063164E-01
       -1   -1    0    0    0  501  0.00000000000E+00  0.00000000000E+00  0.17630122104E+04  0.17630122104E+04  0.50400001928E-02 0.  1.
        1   -1    0    0  501    0  0.00000000000E+00  0.00000000000E+00 -0.19641451288E+04  0.19641451288E+04  0.50400001928E-02 0. -1.
    10030    2    1    2    0    0  0.00000000000E+00  0.00000000000E+00 -0.20113291843E+03  0.37271573392E+04  0.37217263978E+04 0.  0.
        4    1    3    3  502    0 -0.17899899531E+04  0.50439748865E+03 -0.34672470424E+02  0.18600227558E+04  0.12699999809E+01 0.  1.
       -4    1    3    3    0  502  0.17899899531E+04 -0.50439748865E+03 -0.16646044801E+03  0.18671345834E+04  0.12699999809E+01 0. -1.
</event>
<event>
 5   0  0.7551495E-07  0.3831094E+04  0.7818609E-02  0.8039515E-01
       -2   -1    0    0    0  501  0.00000000000E+00  0.00000000000E+00  0.15589130520E+04  0.15589130520E+04  0.25500000920E-02 0. -1.
        2   -1    0    0  501    0  0.00000000000E+00  0.00000000000E+00 -0.23537687667E+04  0.23537687667E+04  0.25500000920E-02 0.  1.
    10030    2    1    2    0    0  0.00000000000E+00  0.00000000000E+00 -0.79485571465E+03  0.39126818187E+04  0.38310942833E+04 0.  0.
        1    1    3    3  502    0  0.12668578465E+03 -0.13537008923E+04 -0.17755213914E+04  0.22362986396E+04  0.50400001928E-02 0.  1.
       -1    1    3    3    0  502 -0.12668578465E+03  0.13537008923E+04  0.98066567677E+03  0.16763831792E+04  0.50400001928E-02 0. -1.
</event>
<event>
 5   0  0.2529875E-07  0.3914875E+04  0.7818609E-02  0.8021943E-01
       -1   -1    0    0    0  501  0.00000000000E+00  0.00000000000E+00  0.16102688979E+04  0.16102688979E+04  0.50400001928E-02 0. -1.
        1   -1    0    0  501    0  0.00000000000E+00  0.00000000000E+00 -0.23794539590E+04  0.23794539590E+04  0.50400001928E-02 0.  1.
    10030    2    1    2    0    0  0.00000000000E+00  0.00000000000E+00 -0.76918506110E+03  0.39897228569E+04  0.39148745595E+04 0.  0.
        3    1    3    3  502    0  0.83812839049E+03 -0.10813182455E+04 -0.18113053204E+04  0.22699196728E+04  0.10100000352E+00 0.  1.
       -3    1    3    3    0  502 -0.83812839049E+03  0.10813182455E+04  0.10421202593E+04  0.17198031841E+04  0.10100000352E+00 0. -1.
</event>
<event>
 5   0  0.7649458E-07  0.3749331E+04  0.7818609E-02  0.8057117E-01
       -2   -1    0    0    0  501  0.00000000000E+00  0.00000000000E+00  0.16039063793E+04  0.16039063793E+04  0.25500000920E-02 0.  1.
        2   -1    0    0  501    0  0.00000000000E+00  0.00000000000E+00 -0.21911321996E+04  0.21911321996E+04  0.25500000920E-02 0. -1.
    10030    2    1    2    0    0  0.00000000000E+00  0.00000000000E+00 -0.58722582039E+03  0.37950385789E+04  0.37493310938E+04 0.  0.
        4    1    3    3  502    0  0.10068945296E+04  0.61182815515E+03 -0.17695381438E+04  0.21258967850E+04  0.12699999809E+01 0. -1.
       -4    1    3    3    0  502 -0.10068945296E+04 -0.61182815515E+03  0.11823123234E+04  0.16691417939E+04  0.12699999809E+01 0.  1.
</event>
<event>
 5   0  0.7649458E-07  0.3774210E+04  0.7818609E-02  0.8051712E-01
        2   -1    0    0  501    0  0.00000000000E+00  0.00000000000E+00  0.23068030567E+04  0.23068030567E+04  0.25500000920E-02 0.  1.
       -2   -1    0    0    0  501  0.00000000000E+00  0.00000000000E+00 -0.15437668747E+04  0.15437668747E+04  0.25500000920E-02 0. -1.
    10030    2    1    2    0    0  0.00000000000E+00  0.00000000000E+00  0.76303618195E+03  0.38505699314E+04  0.37742104581E+04 0.  0.
        4    1    3    3  502    0  0.19620438334E+03  0.83973995843E+03 -0.13309846002E+04  0.15859322106E+04  0.12699999809E+01 0. -1.
       -4    1    3    3    0  502 -0.19620438334E+03 -0.83973995843E+03  0.20940207821E+04  0.22646377208E+04  0.12699999809E+01 0.  1.
</event>
<event>
 5   0  0.7638805E-07  0.3838265E+04  0.7818609E-02  0.8037993E-01
       -2   -1    0    0    0  501  0.00000000000E+00  0.00000000000E+00  0.21638403975E+04  0.21638403975E+04  0.25500000920E-02 0. -1.
        2   -1    0    0  501    0  0.00000000000E+00  0.00000000000E+00 -0.17020983384E+04  0.17020983384E+04  0.25500000920E-02 0.  1.
    10030    2    1    2    0    0  0.00000000000E+00  0.00000000000E+00  0.46174205902E+03  0.38659387359E+04  0.38382647877E+04 0.  0.
        5    1    3    3  502    0  0.97211082833E+03  0.13246943897E+04 -0.76785902418E+03  0.18136825135E+04  0.46999998093E+01 0.  1.
       -5    1    3    3    0  502 -0.97211082833E+03 -0.13246943897E+04  0.12296010832E+04  0.20522562224E+04  0.46999998093E+01 0. -1.
</event>
<event>
 5   0  0.8038352E-07  0.3702004E+04  0.7818609E-02  0.8067518E-01
       -2   -1    0    0    0  501  0.00000000000E+00  0.00000000000E+00  0.13615313095E+04  0.13615313095E+04  0.25500000920E-02 0. -1.
        2   -1    0    0  501    0  0.00000000000E+00  0.00000000000E+00 -0.25164379916E+04  0.25164379916E+04  0.25500000920E-02 0.  1.
    10030    2    1    2    0    0  0.00000000000E+00  0.00000000000E+00 -0.11549066821E+04  0.38779693011E+04  0.37020043836E+04 0.  0.
        2    1    3    3  502    0  0.80334494262E+02 -0.12524325036E+04 -0.20027011803E+04  0.23634408867E+04  0.25500000920E-02 0.  1.
       -2    1    3    3    0  502 -0.80334494262E+02  0.12524325036E+04  0.84779449822E+03  0.15145284145E+04  0.25500000920E-02 0. -1.
</event>
<event>
 5   0  0.8421677E-07  0.3691114E+04  0.7818609E-02  0.8069934E-01
       -2   -1    0    0    0  501  0.00000000000E+00  0.00000000000E+00  0.21593274086E+04  0.21593274086E+04  0.25500000920E-02 0. -1.
        2   -1    0    0  501    0  0.00000000000E+00  0.00000000000E+00 -0.15773802555E+04  0.15773802555E+04  0.25500000920E-02 0.  1.
    10030    2    1    2    0    0  0.00000000000E+00  0.00000000000E+00  0.58194715319E+03  0.37367076641E+04  0.36911138804E+04 0.  0.
        3    1    3    3  502    0  0.14087713586E+04 -0.10702670244E+04  0.82279315137E+03  0.19511783170E+04  0.10100000352E+00 0. -1.
       -3    1    3    3    0  502 -0.14087713586E+04  0.10702670244E+04 -0.24084599817E+03  0.17855293471E+04  0.10100000352E+00 0.  1.
</event>
<event>
 5   0  0.8421677E-07  0.2380404E+04  0.7818609E-02  0.8446877E-01
       -2   -1    0    0    0  501  0.00000000000E+00  0.00000000000E+00  0.15142891512E+04  0.15142891512E+04  0.25500000920E-02 0. -1.
        2   -1    0    0  501    0  0.00000000000E+00  0.00000000000E+00 -0.93547563768E+03  0.93547563768E+03  0.25500000920E-02 0.  1.
    10030    2    1    2    0    0  0.00000000000E+00  0.00000000000E+00  0.57881351356E+03  0.24497647889E+04  0.23804038392E+04 0.  0.
        3    1    3    3  502    0  0.72147953419E+03  0.85718996519E+03  0.70269676679E+03  0.13225317051E+04  0.10100000352E+00 0. -1.
       -3    1    3    3    0  502 -0.72147953419E+03 -0.85718996519E+03 -0.12388325322E+03  0.11272330838E+04  0.10100000352E+00 0.  1.
</event>
<event>
 5   0  0.8038352E-07  0.3813298E+04  0.7818609E-02  0.8043307E-01
       -2   -1    0    0    0  501  0.00000000000E+00  0.00000000000E+00  0.12432697050E+04  0.12432697050E+04  0.25500000920E-02 0.  1.
        2   -1    0    0  501    0  0.00000000000E+00  0.00000000000E+00 -0.29239922797E+04  0.29239922797E+04  0.25500000920E-02 0. -1.
    10030    2    1    2    0    0  0.00000000000E+00  0.00000000000E+00 -0.16807225748E+04  0.41672619847E+04  0.38132983198E+04 0.  0.
        2    1    3    3  502    0 -0.15095541567E+04 -0.87725249818E+03 -0.30949266098E+01  0.17459482455E+04  0.25500000920E-02 0.  1.
       -2    1    3    3    0  502  0.15095541567E+04  0.87725249818E+03 -0.16776276482E+04  0.24213137392E+04  0.25500000920E-02 0. -1.
</event>
<event>
 5   0  0.7638805E-07  0.3855451E+04  0.7818609E-02  0.8034359E-01
        2   -1    0    0  501    0  0.00000000000E+00  0.00000000000E+00  0.12759423423E+04  0.12759423423E+04  0.25500000920E-02 0.  1.
       -2   -1    0    0    0  501  0.00000000000E+00  0.00000000000E+00 -0.29124553762E+04  0.29124553762E+04  0.25500000920E-02 0. -1.
    10030    2    1    2    0    0  0.00000000000E+00  0.00000000000E+00 -0.16365130339E+04  0.41883977184E+04  0.38554507568E+04 0.  0.
        5    1    3    3  502    0  0.27586175322E+03 -0.77239544715E+03  0.10769340511E+04  0.13536999203E+04  0.46999998093E+01 0.  1.
       -5    1    3    3    0  502 -0.27586175322E+03  0.77239544715E+03 -0.27134470850E+04  0.28346977982E+04  0.46999998093E+01 0. -1.
</event>
<event>
 5   0  0.8421677E-07  0.3787931E+04  0.7818609E-02  0.8048750E-01
       -2   -1    0    0    0  501  0.00000000000E+00  0.00000000000E+00  0.30819417562E+04  0.30819417562E+04  0.25500000920E-02 0. -1.
        2   -1    0    0  501    0  0.00000000000E+00  0.00000000000E+00 -0.11639110968E+04  0.11639110968E+04  0.25500000920E-02 0.  1.
    10030    2    1    2    0    0  0.00000000000E+00  0.00000000000E+00  0.19180306594E+04  0.42458528530E+04  0.37879314723E+04 0.  0.
        3    1    3    3  502    0  0.44954103031E+02 -0.90386371368E+03 -0.90588208036E+03  0.12804736772E+04  0.10100000352E+00 0.  1.
       -3    1    3    3    0  502 -0.44954103031E+02  0.90386371368E+03  0.28239127398E+04  0.29653791758E+04  0.10100000352E+00 0. -1.
</event>
<event>
 5   0  0.2529875E-07  0.3858482E+04  0.7818609E-02  0.8033720E-01
        1   -1    0    0  501    0  0.00000000000E+00  0.00000000000E+00  0.22741402237E+04  0.22741402237E+04  0.50400001928E-02 0.  1.
       -1   -1    0    0    0  501  0.00000000000E+00  0.00000000000E+00 -0.16366497356E+04  0.16366497356E+04  0.50400001928E-02 0. -1.
    10030    2    1    2    0    0  0.00000000000E+00  0.00000000000E+00  0.63749048803E+03  0.39107899593E+04  0.38584820828E+04 0.  0.
        1    1    3    3  502    0 -0.16364383229E+04 -0.60035092450E+03  0.11567667928E+04  0.20919992902E+04  0.50400001928E-02 0.  1.
       -1    1    3    3    0  502  0.16364383229E+04  0.60035092450E+03 -0.51927630475E+03  0.18187906691E+04  0.50400001928E-02 0. -1.
</event>
<event>
 5   0  0.7551495E-07  0.3642413E+04  0.7818609E-02  0.8080845E-01
       -2   -1    0    0    0  501  0.00000000000E+00  0.00000000000E+00  0.12051980660E+04  0.12051980660E+04  0.25500000920E-02 0. -1.
        2   -1    0    0  501    0  0.00000000000E+00  0.00000000000E+00 -0.27520727300E+04  0.27520727300E+04  0.25500000920E-02 0.  1.
    10030    2    1    2    0    0  0.00000000000E+00  0.00000000000E+00 -0.15468746640E+04  0.39572707960E+04  0.36424127892E+04 0.  0.
        1    1    3    3  502    0  0.17319944202E+04  0.39861045672E+03 -0.34145153147E+03  0.18097746036E+04  0.50400001928E-02 0. -1.
       -1    1    3    3    0  502 -0.17319944202E+04 -0.39861045672E+03 -0.12054231325E+04  0.21474961923E+04  0.50400001928E-02 0.  1.
</event>
<event>
 5   0  0.8038352E-07  0.3794545E+04  0.7818609E-02  0.8047327E-01
        2   -1    0    0  501    0  0.00000000000E+00  0.00000000000E+00  0.25642962704E+04  0.25642962704E+04  0.25500000920E-02 0.  1.
       -2   -1    0    0    0  501  0.00000000000E+00  0.00000000000E+00 -0.14037547402E+04  0.14037547402E+04  0.25500000920E-02 0. -1.
    10030    2    1    2    0    0  0.00000000000E+00  0.00000000000E+00  0.11605415302E+04  0.39680510106E+04  0.37945450556E+04 0.  0.
        2    1    3    3  502    0 -0.13602317222E+03 -0.86861543380E+03 -0.11778689929E+04  0.14698198664E+04  0.25500000920E-02 0. -1.
       -2    1    3    3    0  502  0.13602317222E+03  0.86861543380E+03  0.23384105231E+04  0.24982311442E+04  0.25500000920E-02 0.  1.
</event>
<event>
 5   0  0.2907071E-07  0.3849097E+04  0.7818609E-02  0.8035700E-01
        1   -1    0    0  501    0  0.00000000000E+00  0.00000000000E+00  0.25149776670E+04  0.25149776670E+04  0.50400001928E-02 0.  1.
       -1   -1    0    0    0  501  0.00000000000E+00  0.00000000000E+00 -0.14727319127E+04  0.14727319127E+04  0.50400001928E-02 0. -1.
    10030    2    1    2    0    0  0.00000000000E+00  0.00000000000E+00  0.10422457544E+04  0.39877095797E+04  0.38490974890E+04 0.  0.
        2    1    3    3  502    0 -0.47909871741E+03  0.16327554008E+04  0.14526477182E+04  0.22373223221E+04  0.25500000920E-02 0.  1.
       -2    1    3    3    0  502  0.47909871741E+03 -0.16327554008E+04 -0.41040196387E+03  0.17503872576E+04  0.25500000920E-02 0. -1.
</event>
<event>
 5   0  0.7638805E-07  0.2435840E+04  0.7818609E-02  0.8426206E-01
       -2   -1    0    0    0  501  0.00000000000E+00  0.00000000000E+00  0.72740482225E+03  0.72740482225E+03  0.25500000920E-02 0. -1.
        2   -1    0    0  501    0  0.00000000000E+00  0.00000000000E+00 -0.20392079283E+04  0.20392079283E+04  0.25500000920E-02 0.  1.
    10030    2    1    2    0    0  0.00000000000E+00  0.00000000000E+00 -0.13118031060E+04  0.27666127505E+04  0.24358404550E+04 0.  0.
        5    1    3    3  502    0 -0.67938512216E+02  0.90422076832E+03  0.26757415785E+03  0.94543580388E+03  0.46999998093E+01 0. -1.
       -5    1    3    3    0  502  0.67938512216E+02 -0.90422076832E+03 -0.15793772639E+04  0.18211769466E+04  0.46999998093E+01 0.  1.
</event>
<event>
 5   0  0.2529875E-07  0.2658196E+04  0.7818609E-02  0.8348698E-01
       -1   -1    0    0    0  501  0.00000000000E+00  0.00000000000E+00  0.13767853877E+04  0.13767853877E+04  0.50400001928E-02 0.  1.
        1   -1    0    0  501    0  0.00000000000E+00  0.00000000000E+00 -0.12830626527E+04  0.12830626527E+04  0.50400001928E-02 0. -1.
    10030    2    1    2    0    0  0.00000000000E+00  0.00000000000E+00  0.93722734992E+02  0.26598480404E+04  0.26581963146E+04 0.  0.
        3    1    3    3  502    0 -0.20785138607E+03 -0.81172804218E+03  0.10791987496E+04  0.13662995881E+04  0.10100000352E+00 0.  1.
       -3    1    3    3    0  502  0.20785138607E+03  0.81172804218E+03 -0.98547601456E+03  0.12935484524E+04  0.10100000352E+00 0. -1.
</event>
<event>
 5   0  0.2529875E-07  0.3802471E+04  0.7818609E-02  0.8045625E-01
       -1   -1    0    0    0  501  0.00000000000E+00  0.00000000000E+00  0.21831995124E+04  0.21831995124E+04  0.50400001928E-02 0. -1.
        1   -1    0    0  501    0  0.00000000000E+00  0.00000000000E+00 -0.16556875637E+04  0.16556875637E+04  0.50400001928E-02 0.  1.
    10030    2    1    2    0    0  0.00000000000E+00  0.00000000000E+00  0.52751194870E+03  0.38388870761E+04  0.38024709238E+04 0.  0.
        3    1    3    3  502    0  0.42230959907E+03  0.23518778043E+03 -0.15926135686E+04  0.16643547334E+04  0.10100000352E+00 0.  1.
       -3    1    3    3    0  502 -0.42230959907E+03 -0.23518778043E+03  0.21201255173E+04  0.21745323426E+04  0.10100000352E+00 0. -1.
</event>
<event>
 5   0  0.2529875E-07  0.3846855E+04  0.7818609E-02  0.8036174E-01
       -1   -1    0    0    0  501  0.00000000000E+00  0.00000000000E+00  0.20400858609E+04  0.20400858609E+04  0.50400001928E-02 0.  1.
        1   -1    0    0  501    0  0.00000000000E+00  0.00000000000E+00 -0.18134400023E+04  0.18134400023E+04  0.50400001928E-02 0. -1.
    10030    2    1    2    0    0  0.00000000000E+00  0.00000000000E+00  0.22664585859E+03  0.38535258631E+04  0.38468549794E+04 0.  0.
        4    1    3    3  502    0 -0.75565697226E+03 -0.17472884445E+04 -0.16199422447E+03  0.19105701007E+04  0.12699999809E+01 0. -1.
       -4    1    3    3    0  502  0.75565697226E+03  0.17472884445E+04  0.38864008306E+03  0.19429557625E+04  0.12699999809E+01 0.  1.
</event>
<event>
 5   0  0.7649458E-07  0.2688192E+04  0.7818609E-02  0.8338846E-01
       -2   -1    0    0    0  501  0.00000000000E+00  0.00000000000E+00  0.82367714681E+03  0.82367714682E+03  0.25500000920E-02 0. -1.
        2   -1    0    0  501    0  0.00000000000E+00  0.00000000000E+00 -0.21933281827E+04  0.21933281827E+04  0.25500000920E-02 0.  1.
    10030    2    1    2    0    0  0.00000000000E+00  0.00000000000E+00 -0.13696510359E+04  0.30170053295E+04  0.26881921803E+04 0.  0.
        4    1    3    3  502    0  0.52529397678E+03  0.11374101376E+04 -0.13850107677E+03  0.12604839326E+04  0.12699999809E+01 0. -1.
       -4    1    3    3    0  502 -0.52529397678E+03 -0.11374101376E+04 -0.12311499591E+04  0.17565213969E+04  0.12699999809E+01 0.  1.
</event>
<event>
 5   0  0.8038352E-07  0.3908269E+04  0.7818609E-02  0.8023312E-01
       -2   -1    0    0    0  501  0.00000000000E+00  0.00000000000E+00  0.20242213825E+04  0.20242213825E+04  0.25500000920E-02 0. -1.
        2   -1    0    0  501    0  0.00000000000E+00  0.00000000000E+00 -0.18864741440E+04  0.18864741440E+04  0.25500000920E-02 0.  1.
    10030    2    1    2    0    0  0.00000000000E+00  0.00000000000E+00  0.13774723851E+03  0.39106955265E+04  0.39082688238E+04 0.  0.
        2    1    3    3  502    0  0.11973663777E+04  0.11053432344E+04  0.11480475167E+04  0.19933597290E+04  0.25500000920E-02 0. -1.
       -2    1    3    3    0  502 -0.11973663777E+04 -0.11053432344E+04 -0.10103002782E+04  0.19173357975E+04  0.25500000920E-02 0.  1.
</event>
<event>
 5   0  0.7649458E-07  0.2648986E+04  0.7818609E-02  0.8351749E-01
       -2   -1    0    0    0  501  0.00000000000E+00  0.00000000000E+00  0.10544357446E+04  0.10544357446E+04  0.25500000920E-02 0.  1.
        2   -1    0    0  501    0  0.00000000000E+00  0.00000000000E+00 -0.16637165015E+04  0.16637165015E+04  0.25500000920E-02 0. -1.
    10030    2    1    2    0    0  0.00000000000E+00  0.00000000000E+00 -0.60928075690E+03  0.27181522461E+04  0.26489863330E+04 0.  0.
        4    1    3    3  502    0 -0.26808875949E+03  0.22441447223E+03  0.10062319753E+04  0.10652407424E+04  0.12699999809E+01 0.  1.
       -4    1    3    3    0  502  0.26808875949E+03 -0.22441447223E+03 -0.16155127322E+04  0.16529115037E+04  0.12699999809E+01 0. -1.
</event>
<event>
 5   0  0.7551495E-07  0.3799971E+04  0.7818609E-02  0.8046161E-01
        2   -1    0    0  501    0  0.00000000000E+00  0.00000000000E+00  0.14078868407E+04  0.14078868407E+04  0.25500000920E-02 0.  1.
       -2   -1    0    0    0  501  0.00000000000E+00  0.00000000000E+00 -0.25640868177E+04  0.25640868177E+04  0.25500000920E-02 0. -1.
    10030    2    1    2    0    0  0.00000000000E+00  0.00000000000E+00 -0.11561999770E+04  0.39719736585E+04  0.37999705732E+04 0.  0.
        1    1    3    3  502    0 -0.11935540854E+04  0.79128578082E+03  0.72711648621E+03  0.16060519687E+04  0.50400001928E-02 0.  1.
       -1    1    3    3    0  502  0.11935540854E+04 -0.79128578082E+03 -0.18833164632E+04  0.23659216898E+04  0.50400001928E-02 0. -1.
</event>
<event>
 5   0  0.8421677E-07  0.3842796E+04  0.7818609E-02  0.8037033E-01
       -2   -1    0    0    0  501  0.00000000000E+00  0.00000000000E+00  0.22371821925E+04  0.22371821925E+04  0.25500000920E-02 0.  1.
        2   -1    0    0  501    0  0.00000000000E+00  0.00000000000E+00 -0.16501875061E+04  0.16501875061E+04  0.25500000920E-02 0. -1.
    10030    2    1    2    0    0  0.00000000000E+00  0.00000000000E+00  0.58699468638E+03  0.38873696986E+04  0.38427959108E+04 0.  0.
        3    1    3    3  502    0 -0.16115753092E+04  0.10426852744E+04  0.20646137980E+03  0.19305423772E+04  0.10100000352E+00 0. -1.
       -3    1    3    3    0  502  0.16115753092E+04 -0.10426852744E+04  0.38053330659E+03  0.19568273215E+04  0.10100000352E+00 0.  1.
</event>
<event>
 5   0  0.2529875E-07  0.2446402E+04  0.7818609E-02  0.8422333E-01
        1   -1    0    0  501    0  0.00000000000E+00  0.00000000000E+00  0.13517343469E+04  0.13517343469E+04  0.50400001928E-02 0. -1.
       -1   -1    0    0    0  501  0.00000000000E+00  0.00000000000E+00 -0.11068893928E+04  0.11068893928E+04  0.50400001928E-02 0.  1.
    10030    2    1    2    0    0  0.00000000000E+00  0.00000000000E+00  0.24484495406E+03  0.24586237398E+04  0.24464017745E+04 0.  0.
        1    1    3    3  502    0  0.67081677031E+03  0.39166637085E+03  0.10720360329E+04  0.13238802594E+04  0.50400001928E-02 0. -1.
       -1    1    3    3    0  502 -0.67081677031E+03 -0.39166637085E+03 -0.82719107880E+03  0.11347434804E+04  0.50400001928E-02 0.  1.
</event>
<event>
 5   0  0.8038352E-07  0.3791731E+04  0.7818609E-02  0.8047932E-01
        2   -1    0    0  501    0  0.00000000000E+00  0.00000000000E+00  0.16395713232E+04  0.16395713232E+04  0.25500000920E-02 0. -1.
       -2   -1    0    0    0  501  0.00000000000E+00  0.00000000000E+00 -0.21922226862E+04  0.21922226862E+04  0.25500000920E-02 0.  1.
    10030    2    1    2    0    0  0.00000000000E+00  0.00000000000E+00 -0.55265136300E+03  0.38317940094E+04  0.37917307132E+04 0.  0.
        2    1    3    3  502    0 -0.62651352246E+03 -0.13249474419E+04 -0.14916549046E+04  0.20911813102E+04  0.25500000920E-02 0.  1.
       -2    1    3    3    0  502  0.62651352246E+03  0.13249474419E+04  0.93900354157E+03  0.17406126992E+04  0.25500000920E-02 0. -1.
</event>
<event>
 5   0  0.2529875E-07  0.3757100E+04  0.7818609E-02  0.8055424E-01
       -1   -1    0    0    0  501  0.00000000000E+00  0.00000000000E+00  0.10920588295E+04  0.10920588295E+04  0.50400001928E-02 0.  1.
        1   -1    0    0  501    0  0.00000000000E+00  0.00000000000E+00 -0.32314655665E+04  0.32314655665E+04  0.50400001928E-02 0. -1.
    10030    2    1    2    0    0  0.00000000000E+00  0.00000000000E+00 -0.21394067370E+04  0.43235243960E+04  0.37571002138E+04 0.  0.
        4    1    3    3  502    0  0.49875225468E+03  0.41396288129E+02 -0.31533376708E+04  0.31928055912E+04  0.12699999809E+01 0. -1.
       -4    1    3    3    0  502 -0.49875225468E+03 -0.41396288129E+02  0.10139309337E+04  0.11307188048E+04  0.12699999809E+01 0.  1.
</event>
<event>
 5   0  0.8038352E-07  0.3774437E+04  0.7818609E-02  0.8051663E-01
        2   -1    0    0  501    0  0.00000000000E+00  0.00000000000E+00  0.21704344741E+04  0.21704344741E+04  0.25500000920E-02 0. -1.
       -2   -1    0    0    0  501  0.00000000000E+00  0.00000000000E+00 -0.16409584507E+04  0.16409584507E+04  0.25500000920E-02 0.  1.
    10030    2    1    2    0    0  0.00000000000E+00  0.00000000000E+00  0.52947602345E+03  0.38113929248E+04  0.37744365365E+04 0.  0.
        2    1    3    3  502    0 -0.12449798671E+04  0.68039336773E+03  0.15213836602E+04  0.20802687917E+04  0.25500000920E-02 0. -1.
       -2    1    3    3    0  502  0.12449798671E+04 -0.68039336773E+03 -0.99190763672E+03  0.17311241331E+04  0.25500000920E-02 0.  1.
</event>
<event>
 5   0  0.7649458E-07  0.2947186E+04  0.7818609E-02  0.8258975E-01
        2   -1    0    0  501    0  0.00000000000E+00  0.00000000000E+00  0.25200152680E+04  0.25200152680E+04  0.25500000920E-02 0.  1.
       -2   -1    0    0    0  501  0.00000000000E+00  0.00000000000E+00 -0.86169179223E+03  0.86169179224E+03  0.25500000920E-02 0. -1.
    10030    2    1    2    0    0  0.00000000000E+00  0.00000000000E+00  0.16583234757E+04  0.33817070602E+04  0.29471860971E+04 0.  0.
        4    1    3    3  502    0  0.26637208117E+03 -0.14446367859E+04  0.96270538631E+03  0.17563407421E+04  0.12699999809E+01 0.  1.
       -4    1    3    3    0  502 -0.26637208117E+03  0.14446367859E+04  0.69561808943E+03  0.16253663181E+04  0.12699999809E+01 0. -1.
</event>
<event>
 5   0  0.2529875E-07  0.4027338E+04  0.7818609E-02  0.7999054E-01
        1   -1    0    0  501    0  0.00000000000E+00  0.00000000000E+00  0.16222487898E+04  0.16222487898E+04  0.50400001928E-02 0.  1.
       -1   -1    0    0    0  501  0.00000000000E+00  0.00000000000E+00 -0.24995322740E+04  0.24995322740E+04  0.50400001928E-02 0. -1.
    10030    2    1    2    0    0  0.00000000000E+00  0.00000000000E+00 -0.87728348427E+03  0.41217810638E+04  0.40273381813E+04 0.  0.
        1    1    3    3  502    0  0.44770991266E+03  0.15076906018E+04  0.84833980548E+03  0.17869682544E+04  0.50400001928E-02 0.  1.
       -1    1    3    3    0  502 -0.44770991266E+03 -0.15076906018E+04 -0.17256232897E+04  0.23348128094E+04  0.50400001928E-02 0. -1.
</event>
<event>
 5   0  0.2529875E-07  0.3758082E+04  0.7818609E-02  0.8055211E-01
        1   -1    0    0  501    0  0.00000000000E+00  0.00000000000E+00  0.97791203795E+03  0.97791203796E+03  0.50400001928E-02 0.  1.
       -1   -1    0    0    0  501  0.00000000000E+00  0.00000000000E+00 -0.36105449378E+04  0.36105449378E+04  0.50400001928E-02 0. -1.
    10030    2    1    2    0    0  0.00000000000E+00  0.00000000000E+00 -0.26326328999E+04  0.45884569758E+04  0.37580821483E+04 0.  0.
        3    1    3    3  502    0 -0.18559786384E+04  0.29042589508E+03 -0.12646389288E+04  0.22645784459E+04  0.10100000352E+00 0.  1.
       -3    1    3    3    0  502  0.18559786384E+04 -0.29042589508E+03 -0.13679939710E+04  0.23238785299E+04  0.10100000352E+00 0. -1.
</event>
<event>
 5   0  0.8421677E-07  0.3766588E+04  0.7818609E-02  0.8053363E-01
        2   -1    0    0  501    0  0.00000000000E+00  0.00000000000E+00  0.13922125382E+04  0.13922125382E+04  0.25500000920E-02 0.  1.
       -2   -1    0    0    0  501  0.00000000000E+00  0.00000000000E+00 -0.25475974496E+04  0.25475974496E+04  0.25500000920E-02 0. -1.
    10030    2    1    2    0    0  0.00000000000E+00  0.00000000000E+00 -0.11553849114E+04  0.39398099878E+04  0.37665884361E+04 0.  0.
        3    1    3    3  502    0  0.23797448544E+03  0.65910665275E+03 -0.24061528945E+04  0.25061175546E+04  0.10100000352E+00 0. -1.
       -3    1    3    3    0  502 -0.23797448544E+03 -0.65910665275E+03  0.12507679831E+04  0.14336924333E+04  0.10100000352E+00 0.  1.
</event>
<event>
 5   0  0.2529875E-07  0.3768291E+04  0.7818609E-02  0.8052994E-01
        1   -1    0    0  501    0  0.00000000000E+00  0.00000000000E+00  0.21893004047E+04  0.21893004047E+04  0.50400001928E-02 0. -1.
       -1   -1    0    0    0  501  0.00000000000E+00  0.00000000000E+00 -0.16215249016E+04  0.16215249017E+04  0.50400001928E-02 0.  1.
    10030    2    1    2    0    0  0.00000000000E+00  0.00000000000E+00  0.56777550305E+03  0.38108253064E+04  0.37682914555E+04 0.  0.
        5    1    3    3  502    0 -0.89483418822E+03 -0.66614061723E+03  0.18194173782E+04  0.21341914704E+04  0.46999998093E+01 0. -1.
       -5    1    3    3    0  502  0.89483418822E+03  0.66614061723E+03 -0.12516418751E+04  0.16766338360E+04  0.46999998093E+01 0.  1.
</event>
<event>
 5   0  0.2529875E-07  0.4002491E+04  0.7818609E-02  0.8004044E-01
       -1   -1    0    0    0  501  0.00000000000E+00  0.00000000000E+00  0.17869425260E+04  0.17869425260E+04  0.50400001928E-02 0. -1.
        1   -1    0    0  501    0  0.00000000000E+00  0.00000000000E+00 -0.22412496785E+04  0.22412496785E+04  0.50400001928E-02 0.  1.
    10030    2    1    2    0    0  0.00000000000E+00  0.00000000000E+00 -0.45430715249E+03  0.40281922045E+04  0.40024914051E+04 0.  0.
        4    1    3    3  502    0 -0.11472994382E+04 -0.10181663547E+04  0.10664105284E+04  0.18682054905E+04  0.12699999809E+01 0. -1.
       -4    1    3    3    0  502  0.11472994382E+04  0.10181663547E+04 -0.15207176809E+04  0.21599867140E+04  0.12699999809E+01 0.  1.
</event>
<event>
 5   0  0.7649458E-07  0.4210684E+04  0.7818609E-02  0.7963343E-01
       -2   -1    0    0    0  501  0.00000000000E+00  0.00000000000E+00  0.19272900580E+04  0.19272900580E+04  0.25500000920E-02 0.  1.
        2   -1    0    0  501    0  0.00000000000E+00  0.00000000000E+00 -0.22998434491E+04  0.22998434491E+04  0.25500000920E-02 0. -1.
    10030    2    1    2    0    0  0.00000000000E+00  0.00000000000E+00 -0.37255339113E+03  0.42271335071E+04  0.42106842268E+04 0.  0.
        4    1    3    3  502    0 -0.90302571723E+03  0.16237377174E+04  0.80778556600E+03  0.20259562568E+04  0.12699999809E+01 0.  1.
       -4    1    3    3    0  502  0.90302571723E+03 -0.16237377174E+04 -0.11803389571E+04  0.22011772504E+04  0.12699999809E+01 0. -1.
</event>
<event>
 5   0  0.7551495E-07  0.3824888E+04  0.7818609E-02  0.8040835E-01
       -2   -1    0    0    0  501  0.00000000000E+00  0.00000000000E+00  0.20438625972E+04  0.20438625972E+04  0.25500000920E-02 0.  1.
        2   -1    0    0  501    0  0.00000000000E+00  0.00000000000E+00 -0.17894758378E+04  0.17894758378E+04  0.25500000920E-02 0. -1.
    10030    2    1    2    0    0  0.00000000000E+00  0.00000000000E+00  0.25438675942E+03  0.38333384351E+04  0.38248883558E+04 0.  0.
        1    1    3    3  502    0 -0.97922408829E+03  0.64175001424E+03 -0.13883378156E+04  0.18160960289E+04  0.50400001928E-02 0. -1.
       -1    1    3    3    0  502  0.97922408829E+03 -0.64175001424E+03  0.16427245750E+04  0.20172424062E+04  0.50400001928E-02 0.  1.
</event>
<event>
 5   0  0.2907071E-07  0.3589773E+04  0.7818609E-02  0.8092838E-01
       -1   -1    0    0    0  501  0.00000000000E+00  0.00000000000E+00  0.14049307836E+04  0.14049307836E+04  0.50400001928E-02 0.  1.
        1   -1    0    0  501    0  0.00000000000E+00  0.00000000000E+00 -0.22930795836E+04  0.22930795836E+04  0.50400001928E-02 0. -1.
    10030    2    1    2    0    0  0.00000000000E+00  0.00000000000E+00 -0.88814880000E+03  0.36980103672E+04  0.35897733055E+04 0.  0.
        2    1    3    3  502    0  0.77670583968E+02  0.77134913594E+03  0.12235642684E+04  0.14484894643E+04  0.25500000920E-02 0.  1.
       -2    1    3    3    0  502 -0.77670583968E+02 -0.77134913594E+03 -0.21117130684E+04  0.22495209029E+04  0.25500000920E-02 0. -1.
</event>
<event>
 5   0  0.8038352E-07  0.3764982E+04  0.7818609E-02  0.8053712E-01
       -2   -1    0    0    0  501  0.00000000000E+00  0.00000000000E+00  0.16705563442E+04  0.16705563442E+04  0.25500000920E-02 0. -1.
        2   -1    0    0  501    0  0.00000000000E+00  0.00000000000E+00 -0.21213130689E+04  0.21213130689E+04  0.25500000920E-02 0.  1.
    10030    2    1    2    0    0  0.00000000000E+00  0.00000000000E+00 -0.45075672475E+03  0.37918694131E+04  0.37649823401E+04 0.  0.
        2    1    3    3  502    0 -0.85941229174E+03  0.22375778895E+03 -0.18970861708E+04  0.20946582000E+04  0.25500000920E-02 0.  1.
       -2    1    3    3    0  502  0.85941229174E+03 -0.22375778895E+03  0.14463294461E+04  0.16972112131E+04  0.25500000920E-02 0. -1.
</event>
<event>
 5   0  0.7551495E-07  0.3653594E+04  0.7818609E-02  0.8078324E-01
        2   -1    0    0  501    0  0.00000000000E+00  0.00000000000E+00  0.18427169898E+04  0.18427169898E+04  0.25500000920E-02 0.  1.
       -2   -1    0    0    0  501  0.00000000000E+00  0.00000000000E+00 -0.18110145590E+04  0.18110145590E+04  0.25500000920E-02 0. -1.
    10030    2    1    2    0    0  0.00000000000E+00  0.00000000000E+00  0.31702430772E+02  0.36537315489E+04  0.36535940096E+04 0.  0.
        1    1    3    3  502    0 -0.86337390770E+03  0.13847127223E+04  0.83706631576E+03  0.18339912336E+04  0.50400001928E-02 0.  1.
       -1    1    3    3    0  502  0.86337390770E+03 -0.13847127223E+04 -0.80536388499E+03  0.18197403153E+04  0.50400001928E-02 0. -1.
</event>
<event>
 5   0  0.8421677E-07  0.3783440E+04  0.7818609E-02  0.8049718E-01
        2   -1    0    0  501    0  0.00000000000E+00  0.00000000000E+00  0.13096401686E+04  0.13096401686E+04  0.25500000920E-02 0.  1.
       -2   -1    0    0    0  501  0.00000000000E+00  0.00000000000E+00 -0.27325097181E+04  0.27325097181E+04  0.25500000920E-02 0. -1.
    10030    2    1    2    0    0  0.00000000000E+00  0.00000000000E+00 -0.14228695495E+04  0.40421498867E+04  0.37834399628E+04 0.  0.
        3    1    3    3  502    0  0.15964790164E+04  0.10067208304E+04 -0.57473062102E+03  0.19729539723E+04  0.10100000352E+00 0.  1.
       -3    1    3    3    0  502 -0.15964790164E+04 -0.10067208304E+04 -0.84813892845E+03  0.20691959144E+04  0.10100000352E+00 0. -1.
</event>
<event>
 5   0  0.8038352E-07  0.3709952E+04  0.7818609E-02  0.8065760E-01
        2   -1    0    0  501    0  0.00000000000E+00  0.00000000000E+00  0.19235306383E+04  0.19235306383E+04  0.25500000920E-02 0. -1.
       -2   -1    0    0    0  501  0.00000000000E+00  0.00000000000E+00 -0.17888645728E+04  0.17888645728E+04  0.25500000920E-02 0.  1.
    10030    2    1    2    0    0  0.00000000000E+00  0.00000000000E+00  0.13466606548E+03  0.37123952111E+04  0.37099519207E+04 0.  0.
        2    1    3    3  502    0 -0.14769936148E+04  0.31882175723E+03  0.11440427604E+04  0.18952549403E+04  0.25500000920E-02 0. -1.
       -2    1    3    3    0  502  0.14769936148E+04 -0.31882175723E+03 -0.10093766950E+04  0.18171402707E+04  0.25500000920E-02 0.  1.
</event>
<event>
 5   0  0.2529875E-07  0.3809989E+04  0.7818609E-02  0.8044015E-01
       -1   -1    0    0    0  501  0.00000000000E+00  0.00000000000E+00  0.15894764899E+04  0.15894764899E+04  0.50400001928E-02 0. -1.
        1   -1    0    0  501    0  0.00000000000E+00  0.00000000000E+00 -0.22831447918E+04  0.22831447918E+04  0.50400001928E-02 0.  1.
    10030    2    1    2    0    0  0.00000000000E+00  0.00000000000E+00 -0.69366830189E+03  0.38726212817E+04  0.38099894853E+04 0.  0.
        5    1    3    3  502    0  0.59234434039E+03 -0.11018122341E+03  0.14900739241E+04  0.16072815898E+04  0.46999998093E+01 0. -1.
       -5    1    3    3    0  502 -0.59234434039E+03  0.11018122341E+03 -0.21837422260E+04  0.22653396918E+04  0.46999998093E+01 0.  1.
</event>
<event>
 5   0  0.7649458E-07  0.3760133E+04  0.7818609E-02  0.8054765E-01
       -2   -1    0    0    0  501  0.00000000000E+00  0.00000000000E+00  0.16577473097E+04  0.16577473097E+04  0.25500000920E-02 0. -1.
        2   -1    0    0  501    0  0.00000000000E+00  0.00000000000E+00 -0.21322002853E+04  0.21322002853E+04  0.25500000920E-02 0.  1.
    10030    2    1    2    0    0  0.00000000000E+00  0.00000000000E+00 -0.47445297563E+03  0.37899475950E+04  0.37601325970E+04 0.  0.
        4    1    3    3  502    0  0.12799997566E+04 -0.10695880176E+04 -0.11114154187E+04  0.20044110731E+04  0.12699999809E+01 0.  1.
       -4    1    3    3    0  502 -0.12799997566E+04  0.10695880176E+04  0.63696244304E+03  0.17855365219E+04  0.12699999809E+01 0. -1.
</event>
<event>
 5   0  0.2529875E-07  0.2519439E+04  0.7818609E-02  0.8396093E-01
        1   -1    0    0  501    0  0.00000000000E+00  0.00000000000E+00  0.14640451848E+04  0.14640451848E+04  0.50400001928E-02 0.  1.
       -1   -1    0    0    0  501  0.00000000000E+00  0.00000000000E+00 -0.10839103841E+04  0.10839103841E+04  0.50400001928E-02 0. -1.
    10030    2    1    2    0    0  0.00000000000E+00  0.00000000000E+00  0.38013480070E+03  0.25479555689E+04  0.25194394445E+04 0.  0.
        3    1    3    3  502    0  0.10189912124E+04  0.36286973662E+03 -0.46289999079E+03  0.11765602188E+04  0.10100000352E+00 0. -1.
       -3    1    3    3    0  502 -0.10189912124E+04 -0.36286973662E+03  0.84303479148E+03  0.13713953502E+04  0.10100000352E+00 0.  1.
</event>
<event>
 5   0  0.2529875E-07  0.3812072E+04  0.7818609E-02  0.8043569E-01
        1   -1    0    0  501    0  0.00000000000E+00  0.00000000000E+00  0.24198794299E+04  0.24198794299E+04  0.50400001928E-02 0.  1.
       -1   -1    0    0    0  501  0.00000000000E+00  0.00000000000E+00 -0.15013036558E+04  0.15013036558E+04  0.50400001928E-02 0. -1.
    10030    2    1    2    0    0  0.00000000000E+00  0.00000000000E+00  0.91857577409E+03  0.39211830858E+04  0.38120723156E+04 0.  0.
        3    1    3    3  502    0  0.62863071648E+02  0.11341247685E+03  0.24153371535E+04  0.24188153569E+04  0.10100000352E+00 0.  1.
       -3    1    3    3    0  502 -0.62863071648E+02 -0.11341247685E+03 -0.14967613794E+04  0.15023677289E+04  0.10100000352E+00 0. -1.
</event>
<event>
 5   0  0.8421677E-07  0.3639580E+04  0.7818609E-02  0.8081485E-01
       -2   -1    0    0    0  501  0.00000000000E+00  0.00000000000E+00  0.15277230102E+04  0.15277230102E+04  0.25500000920E-02 0.  1.
        2   -1    0    0  501    0  0.00000000000E+00  0.00000000000E+00 -0.21676941584E+04  0.21676941584E+04  0.25500000920E-02 0. -1.
    10030    2    1    2    0    0  0.00000000000E+00  0.00000000000E+00 -0.63997114823E+03  0.36954171686E+04  0.36395803301E+04 0.  0.
        3    1    3    3  502    0 -0.75690506749E+03  0.15401258207E+04 -0.93486975801E+03  0.19541940281E+04  0.10100000352E+00 0. -1.
       -3    1    3    3    0  502  0.75690506749E+03 -0.15401258207E+04  0.29489860978E+03  0.17412231405E+04  0.10100000352E+00 0.  1.
</event>
<event>
 5   0  0.2529875E-07  0.2589243E+04  0.7818609E-02  0.8371864E-01
        1   -1    0    0  501    0  0.00000000000E+00  0.00000000000E+00  0.15086240479E+04  0.15086240479E+04  0.50400001928E-02 0.  1.
       -1   -1    0    0    0  501  0.00000000000E+00  0.00000000000E+00 -0.11109754457E+04  0.11109754458E+04  0.50400001928E-02 0. -1.
    10030    2    1    2    0    0  0.00000000000E+00  0.00000000000E+00  0.39764860217E+03  0.26195994937E+04  0.25892425720E+04 0.  0.
        3    1    3    3  502    0 -0.12646259555E+04  0.12662132927E+02 -0.81197005387E+02  0.12672932181E+04  0.10100000352E+00 0. -1.
       -3    1    3    3    0  502  0.12646259555E+04 -0.12662132927E+02  0.47884560755E+03  0.13523062755E+04  0.10100000352E+00 0.  1.
</event>
<event>
 5   0  0.2529875E-07  0.2594317E+04  0.7818609E-02  0.8370134E-01
        1   -1    0    0  501    0  0.00000000000E+00  0.00000000000E+00  0.12727075549E+04  0.12727075549E+04  0.50400001928E-02 0.  1.
       -1   -1    0    0    0  501  0.00000000000E+00  0.00000000000E+00 -0.13220787485E+04  0.13220787485E+04  0.50400001928E-02 0. -1.
    10030    2    1    2    0    0  0.00000000000E+00  0.00000000000E+00 -0.49371193619E+02  0.25947863034E+04  0.25943165662E+04 0.  0.
        4    1    3    3  502    0 -0.10194427917E+03  0.39651390125E+03  0.12063914774E+04  0.12739693559E+04  0.12699999809E+01 0.  1.
       -4    1    3    3    0  502  0.10194427917E+03 -0.39651390125E+03 -0.12557626711E+04  0.13208169475E+04  0.12699999809E+01 0. -1.
</event>
<event>
 5   0  0.2529875E-07  0.3765562E+04  0.7818609E-02  0.8053586E-01
       -1   -1    0    0    0  501  0.00000000000E+00  0.00000000000E+00  0.13525963439E+04  0.13525963439E+04  0.50400001928E-02 0.  1.
        1   -1    0    0  501    0  0.00000000000E+00  0.00000000000E+00 -0.26207846297E+04  0.26207846297E+04  0.50400001928E-02 0. -1.
    10030    2    1    2    0    0  0.00000000000E+00  0.00000000000E+00 -0.12681882858E+04  0.39733809736E+04  0.37655616890E+04 0.  0.
        5    1    3    3  502    0 -0.67971566946E+02 -0.12209487511E+04  0.87652505287E+03  0.15045445308E+04  0.46999998093E+01 0.  1.
       -5    1    3    3    0  502  0.67971566946E+02  0.12209487511E+04 -0.21447133386E+04  0.24688364429E+04  0.46999998093E+01 0. -1.
</event>
<event>
 5   0  0.2529875E-07  0.3180674E+04  0.7818609E-02  0.8193940E-01
        1   -1    0    0  501    0  0.00000000000E+00  0.00000000000E+00  0.17082666053E+04  0.17082666053E+04  0.50400001928E-02 0.  1.
       -1   -1    0    0    0  501  0.00000000000E+00  0.00000000000E+00 -0.14805482754E+04  0.14805482754E+04  0.50400001928E-02 0. -1.
    10030    2    1    2    0    0  0.00000000000E+00  0.00000000000E+00  0.22771832996E+03  0.31888148807E+04  0.31806736245E+04 0.  0.
        4    1    3    3  502    0 -0.51329324853E+03 -0.10482940848E+04  0.11967994861E+04  0.16717419269E+04  0.12699999809E+01 0.  1.
       -4    1    3    3    0  502  0.51329324853E+03  0.10482940848E+04 -0.96908115614E+03  0.15170729539E+04  0.12699999809E+01 0. -1.
</event>
<event>
 5   0  0.7551495E-07  0.3676122E+04  0.7818609E-02  0.8073274E-01
       -2   -1    0    0    0  501  0.00000000000E+00  0.00000000000E+00  0.15983073751E+04  0.15983073751E+04  0.25500000920E-02 0. -1.
        2   -1    0    0  501    0  0.00000000000E+00  0.00000000000E+00 -0.21137788901E+04  0.21137788901E+04  0.25500000920E-02 0.  1.
    10030    2    1    2    0    0  0.00000000000E+00  0.00000000000E+00 -0.51547151498E+03  0.37120862652E+04  0.36761220814E+04 0.  0.
        1    1    3    3  502    0  0.14623071907E+04 -0.35303542579E+03 -0.13242370248E+04  0.20041407210E+04  0.50400001928E-02 0.  1.
       -1    1    3    3    0  502 -0.14623071907E+04  0.35303542579E+03  0.80876550980E+03  0.17079455442E+04  0.50400001928E-02 0. -1.
</event>
<event>
 5   0  0.2529875E-07  0.3745926E+04  0.7818609E-02  0.8057860E-01
       -1   -1    0    0    0  501  0.00000000000E+00  0.00000000000E+00  0.20018193559E+04  0.20018193559E+04  0.50400001928E-02 0.  1.
        1   -1    0    0  501    0  0.00000000000E+00  0.00000000000E+00 -0.17524008361E+04  0.17524008361E+04  0.50400001928E-02 0. -1.
    10030    2    1    2    0    0  0.00000000000E+00  0.00000000000E+00  0.24941851987E+03  0.37542201920E+04  0.37459257403E+04 0.  0.
        1    1    3    3  502    0 -0.65848171307E+03  0.16008857691E+04  0.84152474999E+03  0.19247330508E+04  0.50400001928E-02 0. -1.
       -1    1    3    3    0  502  0.65848171307E+03 -0.16008857691E+04 -0.59210623012E+03  0.18294871412E+04  0.50400001928E-02 0.  1.
</event>
<event>
 5   0  0.8421677E-07  0.3806206E+04  0.7818609E-02  0.8044824E-01
       -2   -1    0    0    0  501  0.00000000000E+00  0.00000000000E+00  0.15400103381E+04  0.15400103381E+04  0.25500000920E-02 0.  1.
        2   -1    0    0  501    0  0.00000000000E+00  0.00000000000E+00 -0.23518034512E+04  0.23518034512E+04  0.25500000920E-02 0. -1.
    10030    2    1    2    0    0  0.00000000000E+00  0.00000000000E+00 -0.81179311317E+03  0.38918137893E+04  0.38062063149E+04 0.  0.
        3    1    3    3  502    0  0.28907825302E+02  0.17773799937E+04 -0.11008044963E+04  0.20908576837E+04  0.10100000352E+00 0. -1.
       -3    1    3    3    0  502 -0.28907825302E+02 -0.17773799937E+04  0.28901138311E+03  0.18009561056E+04  0.10100000352E+00 0.  1.
</event>
<event>
 5   0  0.7649458E-07  0.3890730E+04  0.7818609E-02  0.8026960E-01
       -2   -1    0    0    0  501  0.00000000000E+00  0.00000000000E+00  0.16678525828E+04  0.16678525828E+04  0.25500000920E-02 0. -1.
        2   -1    0    0  501    0  0.00000000000E+00  0.00000000000E+00 -0.22690520755E+04  0.22690520755E+04  0.25500000920E-02 0.  1.
    10030    2    1    2    0    0  0.00000000000E+00  0.00000000000E+00 -0.60119949271E+03  0.39369046583E+04  0.38907296820E+04 0.  0.
        4    1    3    3  502    0  0.18382252289E+04 -0.30601357211E+03 -0.86555059883E+03  0.20547252251E+04  0.12699999809E+01 0.  1.
       -4    1    3    3    0  502 -0.18382252289E+04  0.30601357211E+03  0.26435110612E+03  0.18821794332E+04  0.12699999809E+01 0. -1.
</event>
<event>
 5   0  0.2529875E-07  0.2805387E+04  0.7818609E-02  0.8301598E-01
       -1   -1    0    0    0  501  0.00000000000E+00  0.00000000000E+00  0.10683449100E+04  0.10683449100E+04  0.50400001928E-02 0. -1.
        1   -1    0    0  501    0  0.00000000000E+00  0.00000000000E+00 -0.18416793287E+04  0.18416793287E+04  0.50400001928E-02 0.  1.
    10030    2    1    2    0    0  0.00000000000E+00  0.00000000000E+00 -0.77333441877E+03  0.29100242387E+04  0.28053867731E+04 0.  0.
        4    1    3    3  502    0 -0.13292876739E+04 -0.44735945802E+03 -0.36563998354E+03  0.14494241668E+04  0.12699999809E+01 0.  1.
       -4    1    3    3    0  502  0.13292876739E+04  0.44735945802E+03 -0.40769443523E+03  0.14606000719E+04  0.12699999809E+01 0. -1.
</event>
<event>
 5   0  0.2529875E-07  0.3668485E+04  0.7818609E-02  0.8074982E-01
       -1   -1    0    0    0  501  0.00000000000E+00  0.00000000000E+00  0.17966779332E+04  0.17966779332E+04  0.50400001928E-02 0.  1.
        1   -1    0    0  501    0  0.00000000000E+00  0.00000000000E+00 -0.18725925897E+04  0.18725925897E+04  0.50400001928E-02 0. -1.
    10030    2    1    2    0    0  0.00000000000E+00  0.00000000000E+00 -0.75914656425E+02  0.36692705229E+04  0.36684851281E+04 0.  0.
        1    1    3    3  502    0 -0.14688215225E+02  0.11498177263E+04  0.13913864888E+04  0.18050631315E+04  0.50400001928E-02 0.  1.
       -1    1    3    3    0  502  0.14688215225E+02 -0.11498177263E+04 -0.14673011452E+04  0.18642073914E+04  0.50400001928E-02 0. -1.
</event>
<event>
 5   0  0.8038352E-07  0.3827814E+04  0.7818609E-02  0.8040212E-01
        2   -1    0    0  501    0  0.00000000000E+00  0.00000000000E+00  0.17346597915E+04  0.17346597915E+04  0.25500000920E-02 0.  1.
       -2   -1    0    0    0  501  0.00000000000E+00  0.00000000000E+00 -0.21116761856E+04  0.21116761856E+04  0.25500000920E-02 0. -1.
    10030    2    1    2    0    0  0.00000000000E+00  0.00000000000E+00 -0.37701639410E+03  0.38463359770E+04  0.38278138783E+04 0.  0.
        2    1    3    3  502    0 -0.39820668057E+03  0.14990190431E+04 -0.13152785153E+04  0.20336135879E+04  0.25500000920E-02 0. -1.
       -2    1    3    3    0  502  0.39820668057E+03 -0.14990190431E+04  0.93826212122E+03  0.18127223891E+04  0.25500000920E-02 0.  1.
</event>
<event>
 5   0  0.8421677E-07  0.3849180E+04  0.7818609E-02  0.8035683E-01
       -2   -1    0    0    0  501  0.00000000000E+00  0.00000000000E+00  0.12262948323E+04  0.12262948324E+04  0.25500000920E-02 0. -1.
        2   -1    0    0  501    0  0.00000000000E+00  0.00000000000E+00 -0.30205184059E+04  0.30205184059E+04  0.25500000920E-02 0.  1.
    10030    2    1    2    0    0  0.00000000000E+00  0.00000000000E+00 -0.17942235736E+04  0.42468132383E+04  0.38491797112E+04 0.  0.
        3    1    3    3  502    0  0.11892695904E+04  0.15126104303E+04 -0.85170673317E+03  0.21042235722E+04  0.10100000352E+00 0. -1.
       -3    1    3    3    0  502 -0.11892695904E+04 -0.15126104303E+04 -0.94251684041E+03  0.21425896661E+04  0.10100000352E+00 0.  1.
</event>
<event>
 5   0  0.2529875E-07  0.3821196E+04  0.7818609E-02  0.8041621E-01
        1   -1    0    0  501    0  0.00000000000E+00  0.00000000000E+00  0.21439216002E+04  0.21439216002E+04  0.50400001928E-02 0.  1.
       -1   -1    0    0    0  501  0.00000000000E+00  0.00000000000E+00 -0.17026672836E+04  0.17026672836E+04  0.50400001928E-02 0. -1.
    10030    2    1    2    0    0  0.00000000000E+00  0.00000000000E+00  0.44125431661E+03  0.38465888837E+04  0.38211962353E+04 0.  0.
        4    1    3    3  502    0 -0.14413687504E+03  0.11063802711E+04  0.17819111003E+04  0.21023942364E+04  0.12699999809E+01 0.  1.
       -4    1    3    3    0  502  0.14413687504E+03 -0.11063802711E+04 -0.13406567837E+04  0.17441946473E+04  0.12699999809E+01 0. -1.
</event>
<event>
 5   0  0.2907071E-07  0.3040093E+04  0.7818609E-02  0.8232374E-01
       -1   -1    0    0    0  501  0.00000000000E+00  0.00000000000E+00  0.13523903175E+04  0.13523903176E+04  0.50400001928E-02 0.  1.
        1   -1    0    0  501    0  0.00000000000E+00  0.00000000000E+00 -0.17084868379E+04  0.17084868380E+04  0.50400001928E-02 0. -1.
    10030    2    1    2    0    0  0.00000000000E+00  0.00000000000E+00 -0.35609652040E+03  0.30608771555E+04  0.30400927994E+04 0.  0.
        2    1    3    3  502    0  0.11624060308E+04  0.23397538071E+03 -0.11356600030E+04  0.16418452733E+04  0.25500000920E-02 0. -1.
       -2    1    3    3    0  502 -0.11624060308E+04 -0.23397538071E+03  0.77956348260E+03  0.14190318822E+04  0.25500000920E-02 0.  1.
</event>
<event>
 5   0  0.2529875E-07  0.3214726E+04  0.7818609E-02  0.8184939E-01
       -1   -1    0    0    0  501  0.00000000000E+00  0.00000000000E+00  0.14660742634E+04  0.14660742634E+04  0.50400001928E-02 0.  1.
        1   -1    0    0  501    0  0.00000000000E+00  0.00000000000E+00 -0.17622677564E+04  0.17622677564E+04  0.50400001928E-02 0. -1.
    10030    2    1    2    0    0  0.00000000000E+00  0.00000000000E+00 -0.29619349300E+03  0.32283420198E+04  0.32147257444E+04 0.  0.
        1    1    3    3  502    0  0.84053766271E+03 -0.62228556232E+02 -0.15225572297E+04  0.17402748270E+04  0.50400001928E-02 0. -1.
       -1    1    3    3    0  502 -0.84053766271E+03  0.62228556232E+02  0.12263637367E+04  0.14880671928E+04  0.50400001928E-02 0.  1.
</event>
<event>
 5   0  0.8038352E-07  0.2874358E+04  0.7818609E-02  0.8280548E-01
       -2   -1    0    0    0  501  0.00000000000E+00  0.00000000000E+00  0.12320719324E+04  0.12320719324E+04  0.25500000920E-02 0.  1.
        2   -1    0    0  501    0  0.00000000000E+00  0.00000000000E+00 -0.16764304919E+04  0.16764304919E+04  0.25500000920E-02 0. -1.
    10030    2    1    2    0    0  0.00000000000E+00  0.00000000000E+00 -0.44435855954E+03  0.29085024243E+04  0.28743576365E+04 0.  0.
        2    1    3    3  502    0 -0.52602828203E+03 -0.31226788961E+03 -0.15381147148E+04  0.16552987236E+04  0.25500000920E-02 0. -1.
       -2    1    3    3    0  502  0.52602828203E+03  0.31226788961E+03  0.10937561553E+04  0.12532037007E+04  0.25500000920E-02 0.  1.
</event>
<event>
 5   0  0.2529875E-07  0.3840408E+04  0.7818609E-02  0.8037539E-01
        1   -1    0    0  501    0  0.00000000000E+00  0.00000000000E+00  0.17478454915E+04  0.17478454915E+04  0.50400001928E-02 0.  1.
       -1   -1    0    0    0  501  0.00000000000E+00  0.00000000000E+00 -0.21095595547E+04  0.21095595547E+04  0.50400001928E-02 0. -1.
    10030    2    1    2    0    0  0.00000000000E+00  0.00000000000E+00 -0.36171406317E+03  0.38574050462E+04  0.38404083932E+04 0.  0.
        5    1    3    3  502    0  0.17797872442E+04 -0.20558110141E+03  0.51303749388E+03  0.18636350995E+04  0.46999998093E+01 0.  1.
       -5    1    3    3    0  502 -0.17797872442E+04  0.20558110141E+03 -0.87475155706E+03  0.19937699467E+04  0.46999998093E+01 0. -1.
</event>
<event>
 5   0  0.2529875E-07  0.3719865E+04  0.7818609E-02  0.8063574E-01
       -1   -1    0    0    0  501  0.00000000000E+00  0.00000000000E+00  0.23991609414E+04  0.23991609415E+04  0.50400001928E-02 0. -1.
        1   -1    0    0  501    0  0.00000000000E+00  0.00000000000E+00 -0.14418994762E+04  0.14418994762E+04  0.50400001928E-02 0.  1.
    10030    2    1    2    0    0  0.00000000000E+00  0.00000000000E+00  0.95726146525E+03  0.38410604177E+04  0.37198650001E+04 0.  0.
        3    1    3    3  502    0  0.71537447382E+03 -0.15693962864E+04 -0.24016964153E+03  0.17413922041E+04  0.10100000352E+00 0.  1.
       -3    1    3    3    0  502 -0.71537447382E+03  0.15693962864E+04  0.11974311068E+04  0.20996682136E+04  0.10100000352E+00 0. -1.
</event>
<event>
 5   0  0.8421677E-07  0.3809166E+04  0.7818609E-02  0.8044191E-01
        2   -1    0    0  501    0  0.00000000000E+00  0.00000000000E+00  0.19499237936E+04  0.19499237936E+04  0.25500000920E-02 0. -1.
       -2   -1    0    0    0  501  0.00000000000E+00  0.00000000000E+00 -0.18602969809E+04  0.18602969809E+04  0.25500000920E-02 0.  1.
    10030    2    1    2    0    0  0.00000000000E+00  0.00000000000E+00  0.89626812634E+02  0.38102207745E+04  0.38091664948E+04 0.  0.
        3    1    3    3  502    0 -0.15373581039E+03  0.51700285234E+03  0.18719307710E+04  0.19480891844E+04  0.10100000352E+00 0. -1.
       -3    1    3    3    0  502  0.15373581039E+03 -0.51700285234E+03 -0.17823039584E+04  0.18621315901E+04  0.10100000352E+00 0.  1.
</event>
<event>
 5   0  0.8421677E-07  0.3884227E+04  0.7818609E-02  0.8028318E-01
       -2   -1    0    0    0  501  0.00000000000E+00  0.00000000000E+00  0.19848044961E+04  0.19848044961E+04  0.25500000920E-02 0.  1.
        2   -1    0    0  501    0  0.00000000000E+00  0.00000000000E+00 -0.19003409708E+04  0.19003409708E+04  0.25500000920E-02 0. -1.
    10030    2    1    2    0    0  0.00000000000E+00  0.00000000000E+00  0.84463525298E+02  0.38851454669E+04  0.38842272349E+04 0.  0.
        3    1    3    3  502    0 -0.90965067507E+03  0.18300126817E+03  0.17487568555E+04  0.19796727923E+04  0.10100000352E+00 0.  1.
       -3    1    3    3    0  502  0.90965067507E+03 -0.18300126817E+03 -0.16642933302E+04  0.19054726746E+04  0.10100000352E+00 0. -1.
</event>
<event>
 5   0  0.2529875E-07  0.2407931E+04  0.7818609E-02  0.8436540E-01
        1   -1    0    0  501    0  0.00000000000E+00  0.00000000000E+00  0.12032650608E+04  0.12032650608E+04  0.50400001928E-02 0.  1.
       -1   -1    0    0    0  501  0.00000000000E+00  0.00000000000E+00 -0.12046659822E+04  0.12046659822E+04  0.50400001928E-02 0. -1.
    10030    2    1    2    0    0  0.00000000000E+00  0.00000000000E+00 -0.14009213987E+01  0.24079310430E+04  0.24079306355E+04 0.  0.
        1    1    3    3  502    0  0.15114753812E+03  0.11940329348E+04  0.30480604894E+02  0.12039473805E+04  0.50400001928E-02 0.  1.
       -1    1    3    3    0  502 -0.15114753812E+03 -0.11940329348E+04 -0.31881526293E+02  0.12039836625E+04  0.50400001928E-02 0. -1.
</event>
<event>
 5   0  0.7551495E-07  0.2433966E+04  0.7818609E-02  0.8426896E-01
       -2   -1    0    0    0  501  0.00000000000E+00  0.00000000000E+00  0.82278111319E+03  0.82278111320E+03  0.25500000920E-02 0.  1.
        2   -1    0    0  501    0  0.00000000000E+00  0.00000000000E+00 -0.18000500496E+04  0.18000500496E+04  0.25500000920E-02 0. -1.
    10030    2    1    2    0    0  0.00000000000E+00  0.00000000000E+00 -0.97726893642E+03  0.26228311628E+04  0.24339656396E+04 0.  0.
        1    1    3    3  502    0 -0.25913372665E+03  0.98269533662E+03 -0.12100659639E+04  0.15802215192E+04  0.50400001928E-02 0. -1.
       -1    1    3    3    0  502  0.25913372665E+03 -0.98269533662E+03  0.23279702743E+03  0.10426096436E+04  0.50400001928E-02 0.  1.
</event>
<event>
 5   0  0.2529875E-07  0.3900739E+04  0.7818609E-02  0.8024876E-01
       -1   -1    0    0    0  501  0.00000000000E+00  0.00000000000E+00  0.13933825144E+04  0.13933825144E+04  0.50400001928E-02 0.  1.
        1   -1    0    0  501    0  0.00000000000E+00  0.00000000000E+00 -0.27300043975E+04  0.27300043975E+04  0.50400001928E-02 0. -1.
    10030    2    1    2    0    0  0.00000000000E+00  0.00000000000E+00 -0.13366218831E+04  0.41233869120E+04  0.39007385926E+04 0.  0.
        4    1    3    3  502    0 -0.90747043290E+03 -0.53063648981E+03 -0.24049017918E+04  0.26246203367E+04  0.12699999809E+01 0. -1.
       -4    1    3    3    0  502  0.90747043290E+03  0.53063648981E+03  0.10682799087E+04  0.14987665753E+04  0.12699999809E+01 0.  1.
</event>
<event>
 5   0  0.2529875E-07  0.3710282E+04  0.7818609E-02  0.8065687E-01
        1   -1    0    0  501    0  0.00000000000E+00  0.00000000000E+00  0.13201709122E+04  0.13201709122E+04  0.50400001928E-02 0. -1.
       -1   -1    0    0    0  501  0.00000000000E+00  0.00000000000E+00 -0.26068963673E+04  0.26068963673E+04  0.50400001928E-02 0.  1.
    10030    2    1    2    0    0  0.00000000000E+00  0.00000000000E+00 -0.12867254550E+04  0.39270672795E+04  0.37102823371E+04 0.  0.
        1    1    3    3  502    0 -0.41122679504E+03  0.68592714228E+03  0.11283414292E+04  0.13830249102E+04  0.50400001928E-02 0. -1.
       -1    1    3    3    0  502  0.41122679504E+03 -0.68592714228E+03 -0.24150668842E+04  0.25440423693E+04  0.50400001928E-02 0.  1.
</event>
<event>
 5   0  0.7638805E-07  0.2768594E+04  0.7818609E-02  0.8313086E-01
        2   -1    0    0  501    0  0.00000000000E+00  0.00000000000E+00  0.14191570800E+04  0.14191570800E+04  0.25500000920E-02 0. -1.
       -2   -1    0    0    0  501  0.00000000000E+00  0.00000000000E+00 -0.13502929119E+04  0.13502929119E+04  0.25500000920E-02 0.  1.
    10030    2    1    2    0    0  0.00000000000E+00  0.00000000000E+00  0.68864168109E+02  0.27694499920E+04  0.27685936835E+04 0.  0.
        5    1    3    3  502    0 -0.91411782641E+03 -0.10395219510E+04  0.40628267454E+02  0.13848790681E+04  0.46999998093E+01 0.  1.
       -5    1    3    3    0  502  0.91411782641E+03  0.10395219510E+04  0.28235900655E+02  0.13845709239E+04  0.46999998093E+01 0. -1.
</event>
<event>
 5   0  0.7551495E-07  0.3730701E+04  0.7818609E-02  0.8061192E-01
        2   -1    0    0  501    0  0.00000000000E+00  0.00000000000E+00  0.10155414861E+04  0.10155414861E+04  0.25500000920E-02 0.  1.
       -2   -1    0    0    0  501  0.00000000000E+00  0.00000000000E+00 -0.34262826702E+04  0.34262826702E+04  0.25500000920E-02 0. -1.
    10030    2    1    2    0    0  0.00000000000E+00  0.00000000000E+00 -0.24107411841E+04  0.44418241564E+04  0.37307008429E+04 0.  0.
        1    1    3    3  502    0 -0.11639795749E+04  0.11874544372E+04 -0.19887172285E+03  0.16746481581E+04  0.50400001928E-02 0.  1.
       -1    1    3    3    0  502  0.11639795749E+04 -0.11874544372E+04 -0.22118694613E+04  0.27671759982E+04  0.50400001928E-02 0. -1.
</event>
<event>
 5   0  0.2529875E-07  0.3752101E+04  0.7818609E-02  0.8056513E-01
       -1   -1    0    0    0  501  0.00000000000E+00  0.00000000000E+00  0.25461376807E+04  0.25461376807E+04  0.50400001928E-02 0.  1.
        1   -1    0    0  501    0  0.00000000000E+00  0.00000000000E+00 -0.13823156827E+04  0.13823156827E+04  0.50400001928E-02 0. -1.
    10030    2    1    2    0    0  0.00000000000E+00  0.00000000000E+00  0.11638219980E+04  0.39284533634E+04  0.37521013027E+04 0.  0.
        4    1    3    3  502    0  0.91966164839E+03  0.62695183209E+03 -0.99927466741E+03  0.14957933083E+04  0.12699999809E+01 0. -1.
       -4    1    3    3    0  502 -0.91966164839E+03 -0.62695183209E+03  0.21630966654E+04  0.24326600552E+04  0.12699999809E+01 0.  1.
</event>
<event>
 5   0  0.2907071E-07  0.3607878E+04  0.7818609E-02  0.8088690E-01
       -1   -1    0    0    0  501  0.00000000000E+00  0.00000000000E+00  0.14730708407E+04  0.14730708407E+04  0.50400001928E-02 0.  1.
        1   -1    0    0  501    0  0.00000000000E+00  0.00000000000E+00 -0.22091233500E+04  0.22091233501E+04  0.50400001928E-02 0. -1.
    10030    2    1    2    0    0  0.00000000000E+00  0.00000000000E+00 -0.73605250935E+03  0.36821941908E+04  0.36078775980E+04 0.  0.
        2    1    3    3  502    0 -0.11441627048E+04 -0.13355048544E+04  0.42139642860E+02  0.17591069497E+04  0.25500000920E-02 0. -1.
       -2    1    3    3    0  502  0.11441627048E+04  0.13355048544E+04 -0.77819215221E+03  0.19230872411E+04  0.25500000920E-02 0.  1.
</event>
<event>
 5   0  0.8038352E-07  0.3668785E+04  0.7818609E-02  0.8074915E-01
       -2   -1    0    0    0  501  0.00000000000E+00  0.00000000000E+00  0.28908693805E+04  0.28908693805E+04  0.25500000920E-02 0. -1.
        2   -1    0    0  501    0  0.00000000000E+00  0.00000000000E+00 -0.11640079568E+04  0.11640079568E+04  0.25500000920E-02 0.  1.
    10030    2    1    2    0    0  0.00000000000E+00  0.00000000000E+00  0.17268614236E+04  0.40548773373E+04  0.36687845186E+04 0.  0.
        2    1    3    3  502    0  0.58176612762E+03  0.12195446303E+03 -0.10546162010E+04  0.12105949156E+04  0.25500000920E-02 0.  1.
       -2    1    3    3    0  502 -0.58176612762E+03 -0.12195446303E+03  0.27814776246E+04  0.28442824217E+04  0.25500000920E-02 0. -1.
</event>
<event>
 5   0  0.2529875E-07  0.2771695E+04  0.7818609E-02  0.8312110E-01
       -1   -1    0    0    0  501  0.00000000000E+00  0.00000000000E+00  0.10998188136E+04  0.10998188136E+04  0.50400001928E-02 0.  1.
        1   -1    0    0  501    0  0.00000000000E+00  0.00000000000E+00 -0.17462639671E+04  0.17462639672E+04  0.50400001928E-02 0. -1.
    10030    2    1    2    0    0  0.00000000000E+00  0.00000000000E+00 -0.64644515354E+03  0.28460827808E+04  0.27716954844E+04 0.  0.
        3    1    3    3  502    0  0.18548611709E+03  0.10193892620E+04 -0.12682565190E+04  0.16376917217E+04  0.10100000352E+00 0. -1.
       -3    1    3    3    0  502 -0.18548611709E+03 -0.10193892620E+04  0.62181136547E+03  0.12083910590E+04  0.10100000352E+00 0.  1.
</event>
<event>
 5   0  0.7638805E-07  0.3945017E+04  0.7818609E-02  0.8015731E-01
       -2   -1    0    0    0  501  0.00000000000E+00  0.00000000000E+00  0.20550439164E+04  0.20550439164E+04  0.25500000920E-02 0.  1.
        2   -1    0    0  501    0  0.00000000000E+00  0.00000000000E+00 -0.18932880416E+04  0.18932880416E+04  0.25500000920E-02 0. -1.
    10030    2    1    2    0    0  0.00000000000E+00  0.00000000000E+00  0.16175587474E+03  0.39483319580E+04  0.39450171467E+04 0.  0.
        5    1    3    3  502    0  0.58519552354E+03 -0.18825907589E+04  0.14547839989E+03  0.19768125407E+04  0.46999998093E+01 0.  1.
       -5    1    3    3    0  502 -0.58519552354E+03  0.18825907589E+04  0.16277474847E+02  0.19715194172E+04  0.46999998093E+01 0. -1.
</event>
<event>
 5   0  0.2529875E-07  0.3768009E+04  0.7818609E-02  0.8053055E-01
        1   -1    0    0  501    0  0.00000000000E+00  0.00000000000E+00  0.10901513021E+04  0.10901513021E+04  0.50400001928E-02 0. -1.
       -1   -1    0    0    0  501  0.00000000000E+00  0.00000000000E+00 -0.32559459929E+04  0.32559459929E+04  0.50400001928E-02 0.  1.
    10030    2    1    2    0    0  0.00000000000E+00  0.00000000000E+00 -0.21657946908E+04  0.43460972950E+04  0.37680094287E+04 0.  0.
        3    1    3    3  502    0 -0.40879464212E+03  0.76586704572E+03 -0.30114929092E+04  0.31341274613E+04  0.10100000352E+00 0.  1.
       -3    1    3    3    0  502  0.40879464212E+03 -0.76586704572E+03  0.84569821838E+03  0.12119698337E+04  0.10100000352E+00 0. -1.
</event>
<event>
 5   0  0.8038352E-07  0.3839995E+04  0.7818609E-02  0.8037626E-01
        2   -1    0    0  501    0  0.00000000000E+00  0.00000000000E+00  0.24766452645E+04  0.24766452645E+04  0.25500000920E-02 0.  1.
       -2   -1    0    0    0  501  0.00000000000E+00  0.00000000000E+00 -0.14884614920E+04  0.14884614920E+04  0.25500000920E-02 0. -1.
    10030    2    1    2    0    0  0.00000000000E+00  0.00000000000E+00  0.98818377246E+03  0.39651067565E+04  0.38399953675E+04 0.  0.
        2    1    3    3  502    0  0.18149034576E+04  0.61190748868E+03  0.63295685134E+03  0.20171613002E+04  0.25500000920E-02 0.  1.
       -2    1    3    3    0  502 -0.18149034576E+04 -0.61190748868E+03  0.35522692112E+03  0.19479454563E+04  0.25500000920E-02 0. -1.
</event>
<event>
 5   0  0.8038352E-07  0.3788139E+04  0.7818609E-02  0.8048705E-01
        2   -1    0    0  501    0  0.00000000000E+00  0.00000000000E+00  0.18651886153E+04  0.18651886153E+04  0.25500000920E-02 0. -1.
       -2   -1    0    0    0  501  0.00000000000E+00  0.00000000000E+00 -0.19233979499E+04  0.19233979499E+04  0.25500000920E-02 0.  1.
    10030    2    1    2    0    0  0.00000000000E+00  0.00000000000E+00 -0.58209334590E+02  0.37885865651E+04  0.37881393632E+04 0.  0.
        2    1    3    3  502    0 -0.15413359629E+04  0.69590042337E+03  0.82393565286E+03  0.18811868355E+04  0.25500000920E-02 0. -1.
       -2    1    3    3    0  502  0.15413359629E+04 -0.69590042337E+03 -0.88214498745E+03  0.19073997297E+04  0.25500000920E-02 0.  1.
</event>
<event>
 5   0  0.2529875E-07  0.3798950E+04  0.7818609E-02  0.8046380E-01
       -1   -1    0    0    0  501  0.00000000000E+00  0.00000000000E+00  0.16807924119E+04  0.16807924119E+04  0.50400001928E-02 0.  1.
        1   -1    0    0  501    0  0.00000000000E+00  0.00000000000E+00 -0.21466098022E+04  0.21466098022E+04  0.50400001928E-02 0. -1.
    10030    2    1    2    0    0  0.00000000000E+00  0.00000000000E+00 -0.46581739038E+03  0.38274022141E+04  0.37989501007E+04 0.  0.
        1    1    3    3  502    0 -0.12441507053E+04  0.11135194944E+04  0.67950573129E+03  0.18026548978E+04  0.50400001928E-02 0.  1.
       -1    1    3    3    0  502  0.12441507053E+04 -0.11135194944E+04 -0.11453231217E+04  0.20247473163E+04  0.50400001928E-02 0. -1.
</event>
<event>
 5   0  0.8421677E-07  0.3743533E+04  0.7818609E-02  0.8058382E-01
        2   -1    0    0  501    0  0.00000000000E+00  0.00000000000E+00  0.16140265449E+04  0.16140265449E+04  0.25500000920E-02 0.  1.
       -2   -1    0    0    0  501  0.00000000000E+00  0.00000000000E+00 -0.21706642216E+04  0.21706642216E+04  0.25500000920E-02 0. -1.
    10030    2    1    2    0    0  0.00000000000E+00  0.00000000000E+00 -0.55663767676E+03  0.37846907665E+04  0.37435329162E+04 0.  0.
        3    1    3    3  502    0 -0.41886809646E+03 -0.17406028477E+04  0.27391079086E+03  0.18111255857E+04  0.10100000352E+00 0.  1.
       -3    1    3    3    0  502  0.41886809646E+03  0.17406028477E+04 -0.83054846761E+03  0.19735651808E+04  0.10100000352E+00 0. -1.
</event>
<event>
 5   0  0.8038352E-07  0.3778002E+04  0.7818609E-02  0.8050892E-01
       -2   -1    0    0    0  501  0.00000000000E+00  0.00000000000E+00  0.16947492041E+04  0.16947492041E+04  0.25500000920E-02 0. -1.
        2   -1    0    0  501    0  0.00000000000E+00  0.00000000000E+00 -0.21055177002E+04  0.21055177002E+04  0.25500000920E-02 0.  1.
    10030    2    1    2    0    0  0.00000000000E+00  0.00000000000E+00 -0.41076849607E+03  0.38002669043E+04  0.37780018245E+04 0.  0.
        2    1    3    3  502    0 -0.18158988291E+03 -0.68590861675E+03 -0.19663811745E+04  0.20904785193E+04  0.25500000920E-02 0.  1.
       -2    1    3    3    0  502  0.18158988291E+03  0.68590861675E+03  0.15556126784E+04  0.17097883850E+04  0.25500000920E-02 0. -1.
</event>
<event>
 5   0  0.2529875E-07  0.3858512E+04  0.7818609E-02  0.8033714E-01
       -1   -1    0    0    0  501  0.00000000000E+00  0.00000000000E+00  0.12745466004E+04  0.12745466004E+04  0.50400001928E-02 0. -1.
        1   -1    0    0  501    0  0.00000000000E+00  0.00000000000E+00 -0.29202767193E+04  0.29202767193E+04  0.50400001928E-02 0.  1.
    10030    2    1    2    0    0  0.00000000000E+00  0.00000000000E+00 -0.16457301189E+04  0.41948233198E+04  0.38585120267E+04 0.  0.
        3    1    3    3  502    0  0.16339335081E+04  0.49826255122E+03 -0.17976940814E+04  0.24798605403E+04  0.10100000352E+00 0.  1.
       -3    1    3    3    0  502 -0.16339335081E+04 -0.49826255122E+03  0.15196396253E+03  0.17149627795E+04  0.10100000352E+00 0. -1.
</event>
<event>
 5   0  0.2529875E-07  0.2503020E+04  0.7818609E-02  0.8401910E-01
        1   -1    0    0  501    0  0.00000000000E+00  0.00000000000E+00  0.10735721496E+04  0.10735721496E+04  0.50400001928E-02 0.  1.
       -1   -1    0    0    0  501  0.00000000000E+00  0.00000000000E+00 -0.14589399333E+04  0.14589399333E+04  0.50400001928E-02 0. -1.
    10030    2    1    2    0    0  0.00000000000E+00  0.00000000000E+00 -0.38536778370E+03  0.25325120829E+04  0.25030200002E+04 0.  0.
        3    1    3    3  502    0  0.26482064440E+03 -0.35643193510E+03  0.99118976817E+03  0.10861081276E+04  0.10100000352E+00 0.  1.
       -3    1    3    3    0  502 -0.26482064440E+03  0.35643193510E+03 -0.13765575519E+04  0.14464039553E+04  0.10100000352E+00 0. -1.
</event>
<event>
 5   0  0.2529875E-07  0.4028328E+04  0.7818609E-02  0.7998856E-01
       -1   -1    0    0    0  501  0.00000000000E+00  0.00000000000E+00  0.20870176679E+04  0.20870176679E+04  0.50400001928E-02 0. -1.
        1   -1    0    0  501    0  0.00000000000E+00  0.00000000000E+00 -0.19438535240E+04  0.19438535240E+04  0.50400001928E-02 0.  1.
    10030    2    1    2    0    0  0.00000000000E+00  0.00000000000E+00  0.14316414393E+03  0.40308711919E+04  0.40283280147E+04 0.  0.
        4    1    3    3  502    0 -0.72422468856E+03  0.33006827151E+03 -0.17798315749E+04  0.19496790790E+04  0.12699999809E+01 0.  1.
       -4    1    3    3    0  502  0.72422468856E+03 -0.33006827151E+03  0.19229957188E+04  0.20811921129E+04  0.12699999809E+01 0. -1.
</event>
<event>
 5   0  0.8421677E-07  0.3809331E+04  0.7818609E-02  0.8044156E-01
        2   -1    0    0  501    0  0.00000000000E+00  0.00000000000E+00  0.20915985972E+04  0.20915985972E+04  0.25500000920E-02 0.  1.
       -2   -1    0    0    0  501  0.00000000000E+00  0.00000000000E+00 -0.17344388175E+04  0.17344388175E+04  0.25500000920E-02 0. -1.
    10030    2    1    2    0    0  0.00000000000E+00  0.00000000000E+00  0.35715977972E+03  0.38260374146E+04  0.38093305436E+04 0.  0.
        3    1    3    3  502    0 -0.10929144984E+04 -0.29069693176E+03  0.17178753885E+04  0.20567116151E+04  0.10100000352E+00 0.  1.
       -3    1    3    3    0  502  0.10929144984E+04  0.29069693176E+03 -0.13607156088E+04  0.17693257996E+04  0.10100000352E+00 0. -1.
</event>
<event>
 5   0  0.8038352E-07  0.3748707E+04  0.7818609E-02  0.8057253E-01
        2   -1    0    0  501    0  0.00000000000E+00  0.00000000000E+00  0.27045684475E+04  0.27045684475E+04  0.25500000920E-02 0.  1.
       -2   -1    0    0    0  501  0.00000000000E+00  0.00000000000E+00 -0.12989873538E+04  0.12989873538E+04  0.25500000920E-02 0. -1.
    10030    2    1    2    0    0  0.00000000000E+00  0.00000000000E+00  0.14055810937E+04  0.40035558013E+04  0.37487065560E+04 0.  0.
        2    1    3    3  502    0  0.41365500506E+03 -0.14651545093E+04  0.18704689505E+04  0.24117301454E+04  0.25500000920E-02 0.  1.
       -2    1    3    3    0  502 -0.41365500506E+03  0.14651545093E+04 -0.46488785679E+03  0.15918256559E+04  0.25500000920E-02 0. -1.
</event>
<event>
 5   0  0.7649458E-07  0.2877328E+04  0.7818609E-02  0.8279655E-01
       -2   -1    0    0    0  501  0.00000000000E+00  0.00000000000E+00  0.24204108192E+04  0.24204108192E+04  0.25500000920E-02 0.  1.
        2   -1    0    0  501    0  0.00000000000E+00  0.00000000000E+00 -0.85512535961E+03  0.85512535962E+03  0.25500000920E-02 0. -1.
    10030    2    1    2    0    0  0.00000000000E+00  0.00000000000E+00  0.15652854596E+04  0.32755361789E+04  0.28773283943E+04 0.  0.
        4    1    3    3  502    0  0.76662278858E+03  0.86938720971E+03  0.17527586124E+04  0.21013588429E+04  0.12699999809E+01 0.  1.
       -4    1    3    3    0  502 -0.76662278858E+03 -0.86938720971E+03 -0.18747315277E+03  0.11741773360E+04  0.12699999809E+01 0. -1.
</event>
<event>
 5   0  0.2907071E-07  0.3826028E+04  0.7818609E-02  0.8040592E-01
       -1   -1    0    0    0  501  0.00000000000E+00  0.00000000000E+00  0.28182153221E+04  0.28182153221E+04  0.50400001928E-02 0. -1.
        1   -1    0    0  501    0  0.00000000000E+00  0.00000000000E+00 -0.12985601141E+04  0.12985601141E+04  0.50400001928E-02 0.  1.
    10030    2    1    2    0    0  0.00000000000E+00  0.00000000000E+00  0.15196552081E+04  0.41167754362E+04  0.38260277104E+04 0.  0.
        2    1    3    3  502    0 -0.99414572307E+03  0.10522921493E+04 -0.58579824184E+03  0.15616670792E+04  0.25500000920E-02 0.  1.
       -2    1    3    3    0  502  0.99414572307E+03 -0.10522921493E+04  0.21054534499E+04  0.25551083570E+04  0.25500000920E-02 0. -1.
</event>
<event>
 5   0  0.7551495E-07  0.3804124E+04  0.7818609E-02  0.8045270E-01
        2   -1    0    0  501    0  0.00000000000E+00  0.00000000000E+00  0.17333969496E+04  0.17333969496E+04  0.25500000920E-02 0. -1.
       -2   -1    0    0    0  501  0.00000000000E+00  0.00000000000E+00 -0.20871385922E+04  0.20871385922E+04  0.25500000920E-02 0.  1.
    10030    2    1    2    0    0  0.00000000000E+00  0.00000000000E+00 -0.35374164263E+03  0.38205355417E+04  0.38041239039E+04 0.  0.
        1    1    3    3  502    0  0.12049173575E+04 -0.10770447681E+04 -0.11841876195E+04  0.20035347736E+04  0.50400001928E-02 0. -1.
       -1    1    3    3    0  502 -0.12049173575E+04  0.10770447681E+04  0.83044597686E+03  0.18170007681E+04  0.50400001928E-02 0.  1.
</event>
<event>
 5   0  0.8038352E-07  0.3860401E+04  0.7818609E-02  0.8033316E-01
        2   -1    0    0  501    0  0.00000000000E+00  0.00000000000E+00  0.24343880334E+04  0.24343880334E+04  0.25500000920E-02 0.  1.
       -2   -1    0    0    0  501  0.00000000000E+00  0.00000000000E+00 -0.15304356688E+04  0.15304356688E+04  0.25500000920E-02 0. -1.
    10030    2    1    2    0    0  0.00000000000E+00  0.00000000000E+00  0.90395236461E+03  0.39648237023E+04  0.38604011596E+04 0.  0.
        2    1    3    3  502    0  0.79384360864E+03  0.17593524244E+04  0.46519483576E+03  0.19854256126E+04  0.25500000920E-02 0.  1.
       -2    1    3    3    0  502 -0.79384360864E+03 -0.17593524244E+04  0.43875752886E+03  0.19793980896E+04  0.25500000920E-02 0. -1.
</event>
<event>
 5   0  0.2529875E-07  0.3776243E+04  0.7818609E-02  0.8051272E-01
        1   -1    0    0  501    0  0.00000000000E+00  0.00000000000E+00  0.11200559246E+04  0.11200559246E+04  0.50400001928E-02 0.  1.
       -1   -1    0    0    0  501  0.00000000000E+00  0.00000000000E+00 -0.31828793319E+04  0.31828793319E+04  0.50400001928E-02 0. -1.
    10030    2    1    2    0    0  0.00000000000E+00  0.00000000000E+00 -0.20628234073E+04  0.43029352566E+04  0.37762430288E+04 0.  0.
        1    1    3    3  502    0  0.80535992424E+03  0.21660579701E+03  0.89880686533E+03  0.12261225306E+04  0.50400001928E-02 0.  1.
       -1    1    3    3    0  502 -0.80535992424E+03 -0.21660579701E+03 -0.29616302726E+04  0.30768127260E+04  0.50400001928E-02 0. -1.
</event>
<event>
 5   0  0.2529875E-07  0.3840056E+04  0.7818609E-02  0.8037613E-01
       -1   -1    0    0    0  501  0.00000000000E+00  0.00000000000E+00  0.28076969930E+04  0.28076969930E+04  0.50400001928E-02 0.  1.
        1   -1    0    0  501    0  0.00000000000E+00  0.00000000000E+00 -0.13130003201E+04  0.13130003201E+04  0.50400001928E-02 0. -1.
    10030    2    1    2    0    0  0.00000000000E+00  0.00000000000E+00  0.14946966729E+04  0.41206973131E+04  0.38400557551E+04 0.  0.
        5    1    3    3  502    0  0.65662826574E+03  0.55088249561E+03  0.25910070471E+04  0.27290972521E+04  0.46999998093E+01 0.  1.
       -5    1    3    3    0  502 -0.65662826574E+03 -0.55088249561E+03 -0.10963103742E+04  0.13916000610E+04  0.46999998093E+01 0. -1.
</event>
<event>
 5   0  0.2529875E-07  0.3639973E+04  0.7818609E-02  0.8081396E-01
       -1   -1    0    0    0  501  0.00000000000E+00  0.00000000000E+00  0.14958440925E+04  0.14958440925E+04  0.50400001928E-02 0.  1.
        1   -1    0    0  501    0  0.00000000000E+00  0.00000000000E+00 -0.22143696392E+04  0.22143696392E+04  0.50400001928E-02 0. -1.
    10030    2    1    2    0    0  0.00000000000E+00  0.00000000000E+00 -0.71852554673E+03  0.37102137317E+04  0.36399734853E+04 0.  0.
        4    1    3    3  502    0 -0.38541515924E+03  0.17493404645E+04 -0.31161207422E+02  0.17915662253E+04  0.12699999809E+01 0.  1.
       -4    1    3    3    0  502  0.38541515924E+03 -0.17493404645E+04 -0.68736433931E+03  0.19186475064E+04  0.12699999809E+01 0. -1.
</event>
<event>
 5   0  0.2529875E-07  0.3661069E+04  0.7818609E-02  0.8076645E-01
       -1   -1    0    0    0  501  0.00000000000E+00  0.00000000000E+00  0.21157608922E+04  0.21157608922E+04  0.50400001928E-02 0.  1.
        1   -1    0    0  501    0  0.00000000000E+00  0.00000000000E+00 -0.15837592073E+04  0.15837592073E+04  0.50400001928E-02 0. -1.
    10030    2    1    2    0    0  0.00000000000E+00  0.00000000000E+00  0.53200168492E+03  0.36995200995E+04  0.36610685836E+04 0.  0.
        3    1    3    3  502    0  0.13339719567E+04 -0.48917239914E+03  0.14322826195E+04  0.20174747408E+04  0.10100000352E+00 0. -1.
       -3    1    3    3    0  502 -0.13339719567E+04  0.48917239914E+03 -0.90028093459E+03  0.16820453587E+04  0.10100000352E+00 0.  1.
</event>
<event>
 5   0  0.8421677E-07  0.3745922E+04  0.7818609E-02  0.8057861E-01
        2   -1    0    0  501    0  0.00000000000E+00  0.00000000000E+00  0.13100298602E+04  0.13100298602E+04  0.25500000920E-02 0.  1.
       -2   -1    0    0    0  501  0.00000000000E+00  0.00000000000E+00 -0.26777878344E+04  0.26777878344E+04  0.25500000920E-02 0. -1.
    10030    2    1    2    0    0  0.00000000000E+00  0.00000000000E+00 -0.13677579742E+04  0.39878176947E+04  0.37459215275E+04 0.  0.
        3    1    3    3  502    0 -0.96103131178E+03  0.12494225386E+04 -0.17608089903E+04  0.23632786913E+04  0.10100000352E+00 0. -1.
       -3    1    3    3    0  502  0.96103131178E+03 -0.12494225386E+04  0.39305101605E+03  0.16245390034E+04  0.10100000352E+00 0.  1.
</event>
<event>
 5   0  0.2529875E-07  0.3053098E+04  0.7818609E-02  0.8228729E-01
       -1   -1    0    0    0  501  0.00000000000E+00  0.00000000000E+00  0.11107595653E+04  0.11107595653E+04  0.50400001928E-02 0. -1.
        1   -1    0    0  501    0  0.00000000000E+00  0.00000000000E+00 -0.20979809909E+04  0.20979809909E+04  0.50400001928E-02 0.  1.
    10030    2    1    2    0    0  0.00000000000E+00  0.00000000000E+00 -0.98722142559E+03  0.32087405562E+04  0.30530983958E+04 0.  0.
        4    1    3    3  502    0  0.12097414819E+04 -0.89773506087E+03 -0.23414853471E+03  0.15245425024E+04  0.12699999809E+01 0. -1.
       -4    1    3    3    0  502 -0.12097414819E+04  0.89773506087E+03 -0.75307289087E+03  0.16841980538E+04  0.12699999809E+01 0.  1.
</event>
<event>
 5   0  0.7551495E-07  0.3727578E+04  0.7818609E-02  0.8061878E-01
        2   -1    0    0  501    0  0.00000000000E+00  0.00000000000E+00  0.24612962127E+04  0.24612962127E+04  0.25500000920E-02 0.  1.
       -2   -1    0    0    0  501  0.00000000000E+00  0.00000000000E+00 -0.14113334087E+04  0.14113334087E+04  0.25500000920E-02 0. -1.
    10030    2    1    2    0    0  0.00000000000E+00  0.00000000000E+00  0.10499628040E+04  0.38726296214E+04  0.37275780736E+04 0.  0.
        1    1    3    3  502    0  0.80630346916E+03 -0.15533319972E+04 -0.14085084768E+03  0.17557917129E+04  0.50400001928E-02 0. -1.
       -1    1    3    3    0  502 -0.80630346916E+03  0.15533319972E+04  0.11908136517E+04  0.21168379085E+04  0.50400001928E-02 0.  1.
</event>
<event>
 5   0  0.2907071E-07  0.2742067E+04  0.7818609E-02  0.8321483E-01
        1   -1    0    0  501    0  0.00000000000E+00  0.00000000000E+00  0.67531329569E+03  0.67531329571E+03  0.50400001928E-02 0. -1.
       -1   -1    0    0    0  501  0.00000000000E+00  0.00000000000E+00 -0.27834984179E+04  0.27834984179E+04  0.50400001928E-02 0.  1.
    10030    2    1    2    0    0  0.00000000000E+00  0.00000000000E+00 -0.21081851222E+04  0.34588117136E+04  0.27420674610E+04 0.  0.
        2    1    3    3  502    0  0.74414397566E+02  0.63949977420E+03  0.47277925969E+03  0.79876009675E+03  0.25500000920E-02 0. -1.
       -2    1    3    3    0  502 -0.74414397566E+02 -0.63949977420E+03 -0.25809643819E+04  0.26600516168E+04  0.25500000920E-02 0.  1.
</event>
<event>
 5   0  0.2529875E-07  0.3337288E+04  0.7818609E-02  0.8153472E-01
        1   -1    0    0  501    0  0.00000000000E+00  0.00000000000E+00  0.19114693063E+04  0.19114693063E+04  0.50400001928E-02 0.  1.
       -1   -1    0    0    0  501  0.00000000000E+00  0.00000000000E+00 -0.14566664620E+04  0.14566664621E+04  0.50400001928E-02 0. -1.
    10030    2    1    2    0    0  0.00000000000E+00  0.00000000000E+00  0.45480284424E+03  0.33681357684E+04  0.33372882595E+04 0.  0.
        3    1    3    3  502    0 -0.76224696279E+03 -0.26401911534E+02 -0.12704515319E+04  0.14818112560E+04  0.10100000352E+00 0. -1.
       -3    1    3    3    0  502  0.76224696279E+03  0.26401911534E+02  0.17252543762E+04  0.18863245124E+04  0.10100000352E+00 0.  1.
</event>
<event>
 5   0  0.7649458E-07  0.2873177E+04  0.7818609E-02  0.8280903E-01
       -2   -1    0    0    0  501  0.00000000000E+00  0.00000000000E+00  0.15949379478E+04  0.15949379478E+04  0.25500000920E-02 0. -1.
        2   -1    0    0  501    0  0.00000000000E+00  0.00000000000E+00 -0.12939600024E+04  0.12939600024E+04  0.25500000920E-02 0.  1.
    10030    2    1    2    0    0  0.00000000000E+00  0.00000000000E+00  0.30097794535E+03  0.28888979502E+04  0.28731765771E+04 0.  0.
        4    1    3    3  502    0 -0.67091829687E+03  0.35050821246E+03 -0.10771739178E+04  0.13165457190E+04  0.12699999809E+01 0.  1.
       -4    1    3    3    0  502  0.67091829687E+03 -0.35050821246E+03  0.13781518632E+04  0.15723522312E+04  0.12699999809E+01 0. -1.
</event>
<event>
 5   0  0.2529875E-07  0.3781685E+04  0.7818609E-02  0.8050097E-01
       -1   -1    0    0    0  501  0.00000000000E+00  0.00000000000E+00  0.15298874334E+04  0.15298874334E+04  0.50400001928E-02 0. -1.
        1   -1    0    0  501    0  0.00000000000E+00  0.00000000000E+00 -0.23369600119E+04  0.23369600119E+04  0.50400001928E-02 0.  1.
    10030    2    1    2    0    0  0.00000000000E+00  0.00000000000E+00 -0.80707257843E+03  0.38668474453E+04  0.37816852088E+04 0.  0.
        4    1    3    3  502    0  0.10212076884E+03 -0.17391325924E+04  0.34804926307E+03  0.17765558611E+04  0.12699999809E+01 0. -1.
       -4    1    3    3    0  502 -0.10212076884E+03  0.17391325924E+04 -0.11551218415E+04  0.20902915842E+04  0.12699999809E+01 0.  1.
</event>
<event>
 5   0  0.8038352E-07  0.3853967E+04  0.7818609E-02  0.8034672E-01
        2   -1    0    0  501    0  0.00000000000E+00  0.00000000000E+00  0.16176416757E+04  0.16176416757E+04  0.25500000920E-02 0. -1.
       -2   -1    0    0    0  501  0.00000000000E+00  0.00000000000E+00 -0.22954805405E+04  0.22954805405E+04  0.25500000920E-02 0.  1.
    10030    2    1    2    0    0  0.00000000000E+00  0.00000000000E+00 -0.67783886481E+03  0.39131222162E+04  0.38539667814E+04 0.  0.
        2    1    3    3  502    0 -0.11903259378E+04  0.48715367313E+03  0.11180520390E+04  0.17041815928E+04  0.25500000920E-02 0. -1.
       -2    1    3    3    0  502  0.11903259378E+04 -0.48715367313E+03 -0.17958909038E+04  0.22089406234E+04  0.25500000920E-02 0.  1.
</event>
<event>
 5   0  0.2529875E-07  0.3612215E+04  0.7818609E-02  0.8087699E-01
        1   -1    0    0  501    0  0.00000000000E+00  0.00000000000E+00  0.13324239737E+04  0.13324239737E+04  0.50400001928E-02 0. -1.
       -1   -1    0    0    0  501  0.00000000000E+00  0.00000000000E+00 -0.24481880063E+04  0.24481880063E+04  0.50400001928E-02 0.  1.
    10030    2    1    2    0    0  0.00000000000E+00  0.00000000000E+00 -0.11157640326E+04  0.37806119800E+04  0.36122150499E+04 0.  0.
        5    1    3    3  502    0  0.49752174463E+03 -0.23311262506E+03  0.12428293869E+04  0.13588658349E+04  0.46999998093E+01 0. -1.
       -5    1    3    3    0  502 -0.49752174463E+03  0.23311262506E+03 -0.23585934196E+04  0.24217461451E+04  0.46999998093E+01 0.  1.
</event>
<event>
 5   0  0.8421677E-07  0.3813407E+04  0.7818609E-02  0.8043284E-01
        2   -1    0    0  501    0  0.00000000000E+00  0.00000000000E+00  0.11629485024E+04  0.11629485024E+04  0.25500000920E-02 0.  1.
       -2   -1    0    0    0  501  0.00000000000E+00  0.00000000000E+00 -0.31261214243E+04  0.31261214243E+04  0.25500000920E-02 0. -1.
    10030    2    1    2    0    0  0.00000000000E+00  0.00000000000E+00 -0.19631729218E+04  0.42890699267E+04  0.38134069957E+04 0.  0.
        3    1    3    3  502    0 -0.11304149586E+04 -0.43795726675E+03  0.67367471555E+03  0.13868965999E+04  0.10100000352E+00 0.  1.
       -3    1    3    3    0  502  0.11304149586E+04  0.43795726675E+03 -0.26368476374E+04  0.29021733269E+04  0.10100000352E+00 0. -1.
</event>
<event>
 5   0  0.2907071E-07  0.3785684E+04  0.7818609E-02  0.8049234E-01
       -1   -1    0    0    0  501  0.00000000000E+00  0.00000000000E+00  0.16574803379E+04  0.16574803379E+04  0.50400001928E-02 0.  1.
        1   -1    0    0  501    0  0.00000000000E+00  0.00000000000E+00 -0.21616248580E+04  0.21616248580E+04  0.50400001928E-02 0. -1.
    10030    2    1    2    0    0  0.00000000000E+00  0.00000000000E+00 -0.50414452006E+03  0.38191051959E+04  0.37856839277E+04 0.  0.
        2    1    3    3  502    0  0.18747930070E+03  0.13029109742E+04  0.11201290502E+04  0.17284138925E+04  0.25500000920E-02 0.  1.
       -2    1    3    3    0  502 -0.18747930070E+03 -0.13029109742E+04 -0.16242735703E+04  0.20906913033E+04  0.25500000920E-02 0. -1.
</event>
<event>
 5   0  0.8038352E-07  0.3806665E+04  0.7818609E-02  0.8044726E-01
        2   -1    0    0  501    0  0.00000000000E+00  0.00000000000E+00  0.21533304859E+04  0.21533304859E+04  0.25500000920E-02 0. -1.
       -2   -1    0    0    0  501  0.00000000000E+00  0.00000000000E+00 -0.16823591663E+04  0.16823591663E+04  0.25500000920E-02 0.  1.
    10030    2    1    2    0    0  0.00000000000E+00  0.00000000000E+00  0.47097131960E+03  0.38356896523E+04  0.38066653550E+04 0.  0.
        2    1    3    3  502    0  0.13659125004E+04 -0.66632995765E+03 -0.91909680453E+03  0.17760775623E+04  0.25500000920E-02 0.  1.
       -2    1    3    3    0  502 -0.13659125004E+04  0.66632995765E+03  0.13900681241E+04  0.20596120900E+04  0.25500000920E-02 0. -1.
</event>
<event>
 5   0  0.7551495E-07  0.2703820E+04  0.7818609E-02  0.8333766E-01
       -2   -1    0    0    0  501  0.00000000000E+00  0.00000000000E+00  0.78801384524E+03  0.78801384524E+03  0.25500000920E-02 0. -1.
        2   -1    0    0  501    0  0.00000000000E+00  0.00000000000E+00 -0.23193263123E+04  0.23193263123E+04  0.25500000920E-02 0.  1.
    10030    2    1    2    0    0  0.00000000000E+00  0.00000000000E+00 -0.15313124671E+04  0.31073401575E+04  0.27038204421E+04 0.  0.
        1    1    3    3  502    0 -0.85454584057E+03  0.59518549499E+03  0.22507105058E+03  0.10654348149E+04  0.50400001928E-02 0. -1.
       -1    1    3    3    0  502  0.85454584057E+03 -0.59518549499E+03 -0.17563835176E+04  0.20419053426E+04  0.50400001928E-02 0.  1.
</event>
<event>
 5   0  0.2529875E-07  0.3783347E+04  0.7818609E-02  0.8049738E-01
        1   -1    0    0  501    0  0.00000000000E+00  0.00000000000E+00  0.11067016330E+04  0.11067016330E+04  0.50400001928E-02 0.  1.
       -1   -1    0    0    0  501  0.00000000000E+00  0.00000000000E+00 -0.32334181072E+04  0.32334181072E+04  0.50400001928E-02 0. -1.
    10030    2    1    2    0    0  0.00000000000E+00  0.00000000000E+00 -0.21267164742E+04  0.43401197401E+04  0.37833472478E+04 0.  0.
        3    1    3    3  502    0  0.91238356508E+03 -0.70048999797E+02 -0.29626261914E+04  0.31007264621E+04  0.10100000352E+00 0. -1.
       -3    1    3    3    0  502 -0.91238356508E+03  0.70048999797E+02  0.83590971724E+03  0.12393932781E+04  0.10100000352E+00 0.  1.
</event>
<event>
 5   0  0.2529875E-07  0.3939153E+04  0.7818609E-02  0.8016935E-01
        1   -1    0    0  501    0  0.00000000000E+00  0.00000000000E+00  0.11902714426E+04  0.11902714426E+04  0.50400001928E-02 0.  1.
       -1   -1    0    0    0  501  0.00000000000E+00  0.00000000000E+00 -0.32591157729E+04  0.32591157729E+04  0.50400001928E-02 0. -1.
    10030    2    1    2    0    0  0.00000000000E+00  0.00000000000E+00 -0.20688443303E+04  0.44493872155E+04  0.39391534281E+04 0.  0.
        4    1    3    3  502    0  0.10673085891E+04  0.29926514324E+03 -0.28733434564E+04  0.30797421128E+04  0.12699999809E+01 0. -1.
       -4    1    3    3    0  502 -0.10673085891E+04 -0.29926514324E+03  0.80449912609E+03  0.13696451026E+04  0.12699999809E+01 0.  1.
</event>
<event>
 5   0  0.8038352E-07  0.3745914E+04  0.7818609E-02  0.8057862E-01
        2   -1    0    0  501    0  0.00000000000E+00  0.00000000000E+00  0.18656726053E+04  0.18656726053E+04  0.25500000920E-02 0.  1.
       -2   -1    0    0    0  501  0.00000000000E+00  0.00000000000E+00 -0.18802701959E+04  0.18802701959E+04  0.25500000920E-02 0. -1.
    10030    2    1    2    0    0  0.00000000000E+00  0.00000000000E+00 -0.14597590598E+02  0.37459428013E+04  0.37459143585E+04 0.  0.
        2    1    3    3  502    0  0.50193820731E+03  0.27009647438E+03  0.17768320475E+04  0.18660188087E+04  0.25500000920E-02 0.  1.
       -2    1    3    3    0  502 -0.50193820731E+03 -0.27009647438E+03 -0.17914296381E+04  0.18799239926E+04  0.25500000920E-02 0. -1.
</event>
<event>
 5   0  0.7649458E-07  0.3784459E+04  0.7818609E-02  0.8049498E-01
       -2   -1    0    0    0  501  0.00000000000E+00  0.00000000000E+00  0.26214584945E+04  0.26214584945E+04  0.25500000920E-02 0.  1.
        2   -1    0    0  501    0  0.00000000000E+00  0.00000000000E+00 -0.13658547919E+04  0.13658547919E+04  0.25500000920E-02 0. -1.
    10030    2    1    2    0    0  0.00000000000E+00  0.00000000000E+00  0.12556037026E+04  0.39873132864E+04  0.37844585591E+04 0.  0.
        4    1    3    3  502    0 -0.10617898835E+04  0.12095354026E+04 -0.42060174610E+03  0.16635146794E+04  0.12699999809E+01 0. -1.
       -4    1    3    3    0  502  0.10617898835E+04 -0.12095354026E+04  0.16762054487E+04  0.23237986070E+04  0.12699999809E+01 0.  1.
</event>
<event>
 5   0  0.8421677E-07  0.2428052E+04  0.7818609E-02  0.8429075E-01
        2   -1    0    0  501    0  0.00000000000E+00  0.00000000000E+00  0.13720170047E+04  0.13720170047E+04  0.25500000920E-02 0. -1.
       -2   -1    0    0    0  501  0.00000000000E+00  0.00000000000E+00 -0.10742282664E+04  0.10742282664E+04  0.25500000920E-02 0.  1.
    10030    2    1    2    0    0  0.00000000000E+00  0.00000000000E+00  0.29778873828E+03  0.24462452712E+04  0.24280522634E+04 0.  0.
        3    1    3    3  502    0  0.11250798459E+04  0.11116854260E+03 -0.29679606546E+03  0.11688674087E+04  0.10100000352E+00 0. -1.
       -3    1    3    3    0  502 -0.11250798459E+04 -0.11116854260E+03  0.59458480374E+03  0.12773778625E+04  0.10100000352E+00 0.  1.
</event>
<event>
 5   0  0.7638805E-07  0.3810162E+04  0.7818609E-02  0.8043978E-01
        2   -1    0    0  501    0  0.00000000000E+00  0.00000000000E+00  0.13859021865E+04  0.13859021865E+04  0.25500000920E-02 0. -1.
       -2   -1    0    0    0  501  0.00000000000E+00  0.00000000000E+00 -0.26187515301E+04  0.26187515301E+04  0.25500000920E-02 0.  1.
    10030    2    1    2    0    0  0.00000000000E+00  0.00000000000E+00 -0.12328493435E+04  0.40046537166E+04  0.38101619239E+04 0.  0.
        5    1    3    3  502    0  0.63162282767E+03 -0.17960684377E+04 -0.54590153364E+03  0.19806160162E+04  0.46999998093E+01 0. -1.
       -5    1    3    3    0  502 -0.63162282767E+03  0.17960684377E+04 -0.68694780990E+03  0.20240377004E+04  0.46999998093E+01 0.  1.
</event>
<event>
 5   0  0.2529875E-07  0.3761389E+04  0.7818609E-02  0.8054492E-01
        1   -1    0    0  501    0  0.00000000000E+00  0.00000000000E+00  0.17033932778E+04  0.17033932778E+04  0.50400001928E-02 0. -1.
       -1   -1    0    0    0  501  0.00000000000E+00  0.00000000000E+00 -0.20764507557E+04  0.20764507558E+04  0.50400001928E-02 0.  1.
    10030    2    1    2    0    0  0.00000000000E+00  0.00000000000E+00 -0.37305747794E+03  0.37798440336E+04  0.37613892429E+04 0.  0.
        4    1    3    3  502    0  0.90970535526E+03 -0.19768540370E+03  0.14556147473E+04  0.17278481582E+04  0.12699999809E+01 0. -1.
       -4    1    3    3    0  502 -0.90970535526E+03  0.19768540370E+03 -0.18286722253E+04  0.20519958754E+04  0.12699999809E+01 0.  1.
</event>
<event>
 5   0  0.2529875E-07  0.2800546E+04  0.7818609E-02  0.8303099E-01
        1   -1    0    0  501    0  0.00000000000E+00  0.00000000000E+00  0.19550364573E+04  0.19550364573E+04  0.50400001928E-02 0.  1.
       -1   -1    0    0    0  501  0.00000000000E+00  0.00000000000E+00 -0.10029298357E+04  0.10029298357E+04  0.50400001928E-02 0. -1.
    10030    2    1    2    0    0  0.00000000000E+00  0.00000000000E+00  0.95210662164E+03  0.29579662930E+04  0.28005459417E+04 0.  0.
        5    1    3    3  502    0 -0.75763057568E+03  0.11765791521E+04  0.52779375170E+03  0.14956372972E+04  0.46999998093E+01 0.  1.
       -5    1    3    3    0  502  0.75763057568E+03 -0.11765791521E+04  0.42431286994E+03  0.14623289958E+04  0.46999998093E+01 0. -1.
</event>
<event>
 5   0  0.2529875E-07  0.3627308E+04  0.7818609E-02  0.8084265E-01
        1   -1    0    0  501    0  0.00000000000E+00  0.00000000000E+00  0.19717701142E+04  0.19717701142E+04  0.50400001928E-02 0. -1.
       -1   -1    0    0    0  501  0.00000000000E+00  0.00000000000E+00 -0.16682176226E+04  0.16682176226E+04  0.50400001928E-02 0.  1.
    10030    2    1    2    0    0  0.00000000000E+00  0.00000000000E+00  0.30355249167E+03  0.36399877368E+04  0.36273084524E+04 0.  0.
        1    1    3    3  502    0 -0.86176031011E+03 -0.11764790162E+04 -0.93023575037E+03  0.17297607519E+04  0.50400001928E-02 0.  1.
       -1    1    3    3    0  502  0.86176031011E+03  0.11764790162E+04  0.12337882420E+04  0.19102269849E+04  0.50400001928E-02 0. -1.
</event>
<event>
 5   0  0.7649458E-07  0.3787459E+04  0.7818609E-02  0.8048851E-01
       -2   -1    0    0    0  501  0.00000000000E+00  0.00000000000E+00  0.13918379169E+04  0.13918379169E+04  0.25500000920E-02 0. -1.
        2   -1    0    0  501    0  0.00000000000E+00  0.00000000000E+00 -0.25766019601E+04  0.25766019601E+04  0.25500000920E-02 0.  1.
    10030    2    1    2    0    0  0.00000000000E+00  0.00000000000E+00 -0.11847640432E+04  0.39684398770E+04  0.37874594677E+04 0.  0.
        4    1    3    3  502    0 -0.16976079897E+04  0.47001990116E+03  0.13612495119E+03  0.17667266935E+04  0.12699999809E+01 0. -1.
       -4    1    3    3    0  502  0.16976079897E+04 -0.47001990116E+03 -0.13208889944E+04  0.22017131835E+04  0.12699999809E+01 0.  1.
</event>
<event>
 5   0  0.7649458E-07  0.3596320E+04  0.7818609E-02  0.8091335E-01
       -2   -1    0    0    0  501  0.00000000000E+00  0.00000000000E+00  0.30234420123E+04  0.30234420123E+04  0.25500000920E-02 0.  1.
        2   -1    0    0  501    0  0.00000000000E+00  0.00000000000E+00 -0.10694367441E+04  0.10694367441E+04  0.25500000920E-02 0. -1.
    10030    2    1    2    0    0  0.00000000000E+00  0.00000000000E+00  0.19540052682E+04  0.40928787564E+04  0.35963203315E+04 0.  0.
        4    1    3    3  502    0 -0.10520104242E+04  0.11091907630E+04 -0.10047659771E+03  0.15320336944E+04  0.12699999809E+01 0. -1.
       -4    1    3    3    0  502  0.10520104242E+04 -0.11091907630E+04  0.20544818659E+04  0.25608450620E+04  0.12699999809E+01 0.  1.
</event>
<event>
 5   0  0.2529875E-07  0.3414957E+04  0.7818609E-02  0.8134245E-01
        3   -1    0    0  501    0  0.00000000000E+00  0.00000000000E+00  0.15116039748E+04  0.15116039782E+04  0.10100000352E+00 0.  1.
       -3   -1    0    0    0  501  0.00000000000E+00  0.00000000000E+00 -0.19287350843E+04  0.19287350869E+04  0.10100000352E+00 0. -1.
    10030    2    1    2    0    0  0.00000000000E+00  0.00000000000E+00 -0.41713110942E+03  0.34403390651E+04  0.34149574698E+04 0.  0.
        3    1    3    3  502    0  0.12688477578E+03  0.14117575932E+04  0.75052094297E+03  0.16038830831E+04  0.10100000352E+00 0.  1.
       -3    1    3    3    0  502 -0.12688477578E+03 -0.14117575932E+04 -0.11676520524E+04  0.18364559820E+04  0.10100000352E+00 0. -1.
</event>
<event>
 5   0  0.8038352E-07  0.3780070E+04  0.7818609E-02  0.8050445E-01
        2   -1    0    0  501    0  0.00000000000E+00  0.00000000000E+00  0.17855332561E+04  0.17855332561E+04  0.25500000920E-02 0.  1.
       -2   -1    0    0    0  501  0.00000000000E+00  0.00000000000E+00 -0.20006523946E+04  0.20006523946E+04  0.25500000920E-02 0. -1.
    10030    2    1    2    0    0  0.00000000000E+00  0.00000000000E+00 -0.21511913850E+03  0.37861856508E+04  0.37800695150E+04 0.  0.
        2    1    3    3  502    0  0.84180554809E+03  0.23207987373E+03  0.15713785967E+04  0.17977008491E+04  0.25500000920E-02 0.  1.
       -2    1    3    3    0  502 -0.84180554809E+03 -0.23207987373E+03 -0.17864977352E+04  0.19884848017E+04  0.25500000920E-02 0. -1.
</event>
<event>
 5   0  0.2907071E-07  0.3928207E+04  0.7818609E-02  0.8019188E-01
        1   -1    0    0  501    0  0.00000000000E+00  0.00000000000E+00  0.18415516265E+04  0.18415516265E+04  0.50400001928E-02 0. -1.
       -1   -1    0    0    0  501  0.00000000000E+00  0.00000000000E+00 -0.20948114375E+04  0.20948114375E+04  0.50400001928E-02 0.  1.
    10030    2    1    2    0    0  0.00000000000E+00  0.00000000000E+00 -0.25325981100E+03  0.39363630639E+04  0.39282074333E+04 0.  0.
        2    1    3    3  502    0  0.11618765770E+04  0.15244105413E+04 -0.55637775887E+03  0.19958308769E+04  0.25500000920E-02 0. -1.
       -2    1    3    3    0  502 -0.11618765770E+04 -0.15244105413E+04  0.30311794787E+03  0.19405321870E+04  0.25500000920E-02 0.  1.
</event>
<event>
 5   0  0.2529875E-07  0.3760761E+04  0.7818609E-02  0.8054628E-01
        1   -1    0    0  501    0  0.00000000000E+00  0.00000000000E+00  0.26830952822E+04  0.26830952822E+04  0.50400001928E-02 0. -1.
       -1   -1    0    0    0  501  0.00000000000E+00  0.00000000000E+00 -0.13178177440E+04  0.13178177440E+04  0.50400001928E-02 0.  1.
    10030    2    1    2    0    0  0.00000000000E+00  0.00000000000E+00  0.13652775382E+04  0.40009130262E+04  0.37607608654E+04 0.  0.
        3    1    3    3  502    0 -0.58350701590E+03  0.80876689661E+03 -0.10132867118E+04  0.14217363684E+04  0.10100000352E+00 0.  1.
       -3    1    3    3    0  502  0.58350701590E+03 -0.80876689661E+03  0.23785642500E+04  0.25791766579E+04  0.10100000352E+00 0. -1.
</event>
<event>
 5   0  0.7638805E-07  0.3783518E+04  0.7818609E-02  0.8049701E-01
       -2   -1    0    0    0  501  0.00000000000E+00  0.00000000000E+00  0.18863181632E+04  0.18863181632E+04  0.25500000920E-02 0.  1.
        2   -1    0    0  501    0  0.00000000000E+00  0.00000000000E+00 -0.18972151815E+04  0.18972151815E+04  0.25500000920E-02 0. -1.
    10030    2    1    2    0    0  0.00000000000E+00  0.00000000000E+00 -0.10897018364E+02  0.37835333447E+04  0.37835176523E+04 0.  0.
        5    1    3    3  502    0  0.56139383448E+03  0.14206112558E+03 -0.18063960014E+04  0.18969536117E+04  0.46999998093E+01 0. -1.
       -5    1    3    3    0  502 -0.56139383448E+03 -0.14206112558E+03  0.17954989831E+04  0.18865797330E+04  0.46999998093E+01 0.  1.
</event>
<event>
 5   0  0.7551495E-07  0.3036201E+04  0.7818609E-02  0.8233468E-01
        2   -1    0    0  501    0  0.00000000000E+00  0.00000000000E+00  0.16773332154E+04  0.16773332154E+04  0.25500000920E-02 0. -1.
       -2   -1    0    0    0  501  0.00000000000E+00  0.00000000000E+00 -0.13739841057E+04  0.13739841057E+04  0.25500000920E-02 0.  1.
    10030    2    1    2    0    0  0.00000000000E+00  0.00000000000E+00  0.30334910973E+03  0.30513173211E+04  0.30362010328E+04 0.  0.
        1    1    3    3  502    0 -0.31674788792E+03  0.52225470297E+03 -0.12450469685E+04  0.13868024925E+04  0.50400001928E-02 0.  1.
       -1    1    3    3    0  502  0.31674788792E+03 -0.52225470297E+03  0.15483960783E+04  0.16645148286E+04  0.50400001928E-02 0. -1.
</event>
<event>
 5   0  0.2529875E-07  0.3531366E+04  0.7818609E-02  0.8106396E-01
       -1   -1    0    0    0  501  0.00000000000E+00  0.00000000000E+00  0.14927196077E+04  0.14927196077E+04  0.50400001928E-02 0. -1.
        1   -1    0    0  501    0  0.00000000000E+00  0.00000000000E+00 -0.20885618424E+04  0.20885618424E+04  0.50400001928E-02 0.  1.
    10030    2    1    2    0    0  0.00000000000E+00  0.00000000000E+00 -0.59584223467E+03  0.35812814500E+04  0.35313664290E+04 0.  0.
        4    1    3    3  502    0 -0.91232200977E+03 -0.12067985992E+04  0.62541017871E+03  0.16370197962E+04  0.12699999809E+01 0. -1.
       -4    1    3    3    0  502  0.91232200977E+03  0.12067985992E+04 -0.12212524134E+04  0.19442616539E+04  0.12699999809E+01 0.  1.
</event>
<event>
 5   0  0.2529875E-07  0.3812466E+04  0.7818609E-02  0.8043485E-01
        1   -1    0    0  501    0  0.00000000000E+00  0.00000000000E+00  0.23409631655E+04  0.23409631655E+04  0.50400001928E-02 0.  1.
       -1   -1    0    0    0  501  0.00000000000E+00  0.00000000000E+00 -0.15522343852E+04  0.15522343852E+04  0.50400001928E-02 0. -1.
    10030    2    1    2    0    0  0.00000000000E+00  0.00000000000E+00  0.78872878023E+03  0.38931975507E+04  0.38124656169E+04 0.  0.
        4    1    3    3  502    0  0.15676538427E+04  0.10331214881E+03  0.14968133601E+04  0.21699455796E+04  0.12699999809E+01 0.  1.
       -4    1    3    3    0  502 -0.15676538427E+04 -0.10331214881E+03 -0.70808457982E+03  0.17232519711E+04  0.12699999809E+01 0. -1.
</event>
<event>
 5   0  0.2529875E-07  0.3697677E+04  0.7818609E-02  0.8068477E-01
       -1   -1    0    0    0  501  0.00000000000E+00  0.00000000000E+00  0.16182131954E+04  0.16182131954E+04  0.50400001928E-02 0.  1.
        1   -1    0    0  501    0  0.00000000000E+00  0.00000000000E+00 -0.21123320102E+04  0.21123320103E+04  0.50400001928E-02 0. -1.
    10030    2    1    2    0    0  0.00000000000E+00  0.00000000000E+00 -0.49411881489E+03  0.37305452056E+04  0.36976768555E+04 0.  0.
        5    1    3    3  502    0  0.16780426614E+04  0.66339114945E+03 -0.65346317095E+03  0.19191016640E+04  0.46999998093E+01 0. -1.
       -5    1    3    3    0  502 -0.16780426614E+04 -0.66339114945E+03  0.15934435606E+03  0.18114435417E+04  0.46999998093E+01 0.  1.
</event>
<event>
 5   0  0.7649458E-07  0.2717834E+04  0.7818609E-02  0.8329241E-01
       -2   -1    0    0    0  501  0.00000000000E+00  0.00000000000E+00  0.98510362298E+03  0.98510362298E+03  0.25500000920E-02 0. -1.
        2   -1    0    0  501    0  0.00000000000E+00  0.00000000000E+00 -0.18745805477E+04  0.18745805478E+04  0.25500000920E-02 0.  1.
    10030    2    1    2    0    0  0.00000000000E+00  0.00000000000E+00 -0.88947692477E+03  0.28596841707E+04  0.27178344977E+04 0.  0.
        4    1    3    3  502    0 -0.61473719027E+03 -0.67288927560E+03 -0.15053005074E+04  0.17597195858E+04  0.12699999809E+01 0.  1.
       -4    1    3    3    0  502  0.61473719027E+03  0.67288927560E+03  0.61582358259E+03  0.10999645849E+04  0.12699999809E+01 0. -1.
</event>
<event>
 5   0  0.2529875E-07  0.3236657E+04  0.7818609E-02  0.8179203E-01
       -1   -1    0    0    0  501  0.00000000000E+00  0.00000000000E+00  0.22037645617E+04  0.22037645617E+04  0.50400001928E-02 0.  1.
        1   -1    0    0  501    0  0.00000000000E+00  0.00000000000E+00 -0.11884152291E+04  0.11884152291E+04  0.50400001928E-02 0. -1.
    10030    2    1    2    0    0  0.00000000000E+00  0.00000000000E+00  0.10153493326E+04  0.33921797908E+04  0.32366571437E+04 0.  0.
        5    1    3    3  502    0 -0.10578758644E+04 -0.11008227477E+04 -0.54820150213E+02  0.15277236024E+04  0.46999998093E+01 0. -1.
       -5    1    3    3    0  502  0.10578758644E+04  0.11008227477E+04  0.10701694828E+04  0.18644561884E+04  0.46999998093E+01 0.  1.
</event>
<event>
 5   0  0.8421677E-07  0.2433748E+04  0.7818609E-02  0.8426976E-01
       -2   -1    0    0    0  501  0.00000000000E+00  0.00000000000E+00  0.86722627821E+03  0.86722627821E+03  0.25500000920E-02 0. -1.
        2   -1    0    0  501    0  0.00000000000E+00  0.00000000000E+00 -0.17074929418E+04  0.17074929418E+04  0.25500000920E-02 0.  1.
    10030    2    1    2    0    0  0.00000000000E+00  0.00000000000E+00 -0.84026666356E+03  0.25747192200E+04  0.24337483428E+04 0.  0.
        3    1    3    3  502    0  0.78760514763E+03  0.89874986684E+03 -0.17724936438E+03  0.12080937625E+04  0.10100000352E+00 0.  1.
       -3    1    3    3    0  502 -0.78760514763E+03 -0.89874986684E+03 -0.66301729918E+03  0.13666254574E+04  0.10100000352E+00 0. -1.
</event>
<event>
 5   0  0.8421677E-07  0.3554496E+04  0.7818609E-02  0.8100995E-01
       -2   -1    0    0    0  501  0.00000000000E+00  0.00000000000E+00  0.19250929704E+04  0.19250929704E+04  0.25500000920E-02 0.  1.
        2   -1    0    0  501    0  0.00000000000E+00  0.00000000000E+00 -0.16407573294E+04  0.16407573294E+04  0.25500000920E-02 0. -1.
    10030    2    1    2    0    0  0.00000000000E+00  0.00000000000E+00  0.28433564094E+03  0.35658502998E+04  0.35544959704E+04 0.  0.
        3    1    3    3  502    0 -0.85187106644E+03  0.54020509629E+03  0.16100933238E+04  0.18999753634E+04  0.10100000352E+00 0.  1.
       -3    1    3    3    0  502  0.85187106644E+03 -0.54020509629E+03 -0.13257576829E+04  0.16658749364E+04  0.10100000352E+00 0. -1.
</event>
<event>
 5   0  0.2529875E-07  0.3806887E+04  0.7818609E-02  0.8044679E-01
        1   -1    0    0  501    0  0.00000000000E+00  0.00000000000E+00  0.14328872639E+04  0.14328872639E+04  0.50400001928E-02 0.  1.
       -1   -1    0    0    0  501  0.00000000000E+00  0.00000000000E+00 -0.25285288759E+04  0.25285288759E+04  0.50400001928E-02 0. -1.
    10030    2    1    2    0    0  0.00000000000E+00  0.00000000000E+00 -0.10956416120E+04  0.39614161398E+04  0.38068868240E+04 0.  0.
        5    1    3    3  502    0 -0.48379916375E+03 -0.17137744396E+04  0.15177153283E+03  0.17872160330E+04  0.46999998093E+01 0.  1.
       -5    1    3    3    0  502  0.48379916375E+03  0.17137744396E+04 -0.12474131448E+04  0.21742001068E+04  0.46999998093E+01 0. -1.
</event>
<event>
 5   0  0.8421677E-07  0.3705066E+04  0.7818609E-02  0.8066840E-01
       -2   -1    0    0    0  501  0.00000000000E+00  0.00000000000E+00  0.13208710046E+04  0.13208710046E+04  0.25500000920E-02 0.  1.
        2   -1    0    0  501    0  0.00000000000E+00  0.00000000000E+00 -0.25981939678E+04  0.25981939678E+04  0.25500000920E-02 0. -1.
    10030    2    1    2    0    0  0.00000000000E+00  0.00000000000E+00 -0.12773229632E+04  0.39190649725E+04  0.37050663025E+04 0.  0.
        3    1    3    3  502    0 -0.14392732576E+04 -0.40219295570E+03 -0.17967076111E+04  0.23369691769E+04  0.10100000352E+00 0. -1.
       -3    1    3    3    0  502  0.14392732576E+04  0.40219295570E+03  0.51938464795E+03  0.15820957956E+04  0.10100000352E+00 0.  1.
</event>
<event>
 5   0  0.8038352E-07  0.3719265E+04  0.7818609E-02  0.8063706E-01
       -2   -1    0    0    0  501  0.00000000000E+00  0.00000000000E+00  0.17348543216E+04  0.17348543216E+04  0.25500000920E-02 0.  1.
        2   -1    0    0  501    0  0.00000000000E+00  0.00000000000E+00 -0.19933848239E+04  0.19933848239E+04  0.25500000920E-02 0. -1.
    10030    2    1    2    0    0  0.00000000000E+00  0.00000000000E+00 -0.25853050237E+03  0.37282391455E+04  0.37192645920E+04 0.  0.
        2    1    3    3  502    0  0.56814202997E+03  0.35499641651E+03  0.16096900120E+04  0.17435336982E+04  0.25500000920E-02 0.  1.
       -2    1    3    3    0  502 -0.56814202997E+03 -0.35499641651E+03 -0.18682205144E+04  0.19847054473E+04  0.25500000920E-02 0. -1.
</event>
<event>
 5   0  0.7551495E-07  0.3819646E+04  0.7818609E-02  0.8041952E-01
        2   -1    0    0  501    0  0.00000000000E+00  0.00000000000E+00  0.17036868939E+04  0.17036868939E+04  0.25500000920E-02 0.  1.
       -2   -1    0    0    0  501  0.00000000000E+00  0.00000000000E+00 -0.21409001453E+04  0.21409001453E+04  0.25500000920E-02 0. -1.
    10030    2    1    2    0    0  0.00000000000E+00  0.00000000000E+00 -0.43721325134E+03  0.38445870392E+04  0.38196458049E+04 0.  0.
        1    1    3    3  502    0 -0.24377029996E+02 -0.19093557257E+04 -0.18388511833E+03  0.19183449282E+04  0.50400001928E-02 0. -1.
       -1    1    3    3    0  502  0.24377029996E+02  0.19093557257E+04 -0.25332813301E+03  0.19262421109E+04  0.50400001928E-02 0.  1.
</event>
<event>
 5   0  0.2529875E-07  0.3809395E+04  0.7818609E-02  0.8044142E-01
        1   -1    0    0  501    0  0.00000000000E+00  0.00000000000E+00  0.12969374425E+04  0.12969374425E+04  0.50400001928E-02 0. -1.
       -1   -1    0    0    0  501  0.00000000000E+00  0.00000000000E+00 -0.27972616838E+04  0.27972616838E+04  0.50400001928E-02 0.  1.
    10030    2    1    2    0    0  0.00000000000E+00  0.00000000000E+00 -0.15003242414E+04  0.40941991263E+04  0.38093954450E+04 0.  0.
        1    1    3    3  502    0  0.18194295292E+04  0.13129998400E+03 -0.13391383127E+04  0.22629306039E+04  0.50400001928E-02 0. -1.
       -1    1    3    3    0  502 -0.18194295292E+04 -0.13129998400E+03 -0.16118592870E+03  0.18312685224E+04  0.50400001928E-02 0.  1.
</event>
<event>
 5   0  0.7649458E-07  0.3930038E+04  0.7818609E-02  0.8018811E-01
        2   -1    0    0  501    0  0.00000000000E+00  0.00000000000E+00  0.13089167435E+04  0.13089167435E+04  0.25500000920E-02 0. -1.
       -2   -1    0    0    0  501  0.00000000000E+00  0.00000000000E+00 -0.29499961398E+04  0.29499961398E+04  0.25500000920E-02 0.  1.
    10030    2    1    2    0    0  0.00000000000E+00  0.00000000000E+00 -0.16410793963E+04  0.42589128834E+04  0.39300378323E+04 0.  0.
        4    1    3    3  502    0 -0.12289147792E+04  0.13319541211E+04  0.26056700812E+01  0.18122752875E+04  0.12699999809E+01 0. -1.
       -4    1    3    3    0  502  0.12289147792E+04 -0.13319541211E+04 -0.16436850664E+04  0.24466375959E+04  0.12699999809E+01 0.  1.
</event>
<event>
 5   0  0.7649458E-07  0.3048600E+04  0.7818609E-02  0.8229987E-01
       -2   -1    0    0    0  501  0.00000000000E+00  0.00000000000E+00  0.11914603986E+04  0.11914603986E+04  0.25500000920E-02 0. -1.
        2   -1    0    0  501    0  0.00000000000E+00  0.00000000000E+00 -0.19501196431E+04  0.19501196431E+04  0.25500000920E-02 0.  1.
    10030    2    1    2    0    0  0.00000000000E+00  0.00000000000E+00 -0.75865924453E+03  0.31415800417E+04  0.30485998932E+04 0.  0.
        4    1    3    3  502    0  0.22231019923E+02  0.22811121121E+03 -0.19322615524E+04  0.19458070980E+04  0.12699999809E+01 0.  1.
       -4    1    3    3    0  502 -0.22231019923E+02 -0.22811121121E+03  0.11736023078E+04  0.11957729437E+04  0.12699999809E+01 0. -1.
</event>
<event>
 5   0  0.8421677E-07  0.3745037E+04  0.7818609E-02  0.8058054E-01
        2   -1    0    0  501    0  0.00000000000E+00  0.00000000000E+00  0.30128457042E+04  0.30128457042E+04  0.25500000920E-02 0. -1.
       -2   -1    0    0    0  501  0.00000000000E+00  0.00000000000E+00 -0.11637919346E+04  0.11637919346E+04  0.25500000920E-02 0.  1.
    10030    2    1    2    0    0  0.00000000000E+00  0.00000000000E+00  0.18490537696E+04  0.41766376388E+04  0.37450369988E+04 0.  0.
        3    1    3    3  502    0 -0.82876388655E+03 -0.16108457552E+04  0.39592862714E+03  0.18543012470E+04  0.10100000352E+00 0.  1.
       -3    1    3    3    0  502  0.82876388655E+03  0.16108457552E+04  0.14531251425E+04  0.23223363918E+04  0.10100000352E+00 0. -1.
</event>
<event>
 5   0  0.2529875E-07  0.3783709E+04  0.7818609E-02  0.8049660E-01
       -1   -1    0    0    0  501  0.00000000000E+00  0.00000000000E+00  0.18020680620E+04  0.18020680620E+04  0.50400001928E-02 0.  1.
        1   -1    0    0  501    0  0.00000000000E+00  0.00000000000E+00 -0.19861144227E+04  0.19861144227E+04  0.50400001928E-02 0. -1.
    10030    2    1    2    0    0  0.00000000000E+00  0.00000000000E+00 -0.18404636064E+03  0.37881824847E+04  0.37837089575E+04 0.  0.
        4    1    3    3  502    0  0.15648479750E+04  0.71047040451E+03  0.69985720587E+03  0.18556182533E+04  0.12699999809E+01 0.  1.
       -4    1    3    3    0  502 -0.15648479750E+04 -0.71047040451E+03 -0.88390356651E+03  0.19325642314E+04  0.12699999809E+01 0. -1.
</event>
<event>
 5   0  0.2907071E-07  0.3801087E+04  0.7818609E-02  0.8045922E-01
       -1   -1    0    0    0  501  0.00000000000E+00  0.00000000000E+00  0.15325118697E+04  0.15325118697E+04  0.50400001928E-02 0.  1.
        1   -1    0    0  501    0  0.00000000000E+00  0.00000000000E+00 -0.23569571914E+04  0.23569571914E+04  0.50400001928E-02 0. -1.
    10030    2    1    2    0    0  0.00000000000E+00  0.00000000000E+00 -0.82444532166E+03  0.38894690611E+04  0.38010866195E+04 0.  0.
        2    1    3    3  502    0 -0.99049377362E+03 -0.61921786906E+03 -0.19462667215E+04  0.22699037064E+04  0.25500000920E-02 0. -1.
       -2    1    3    3    0  502  0.99049377362E+03  0.61921786906E+03  0.11218213999E+04  0.16195653547E+04  0.25500000920E-02 0.  1.
</event>
<event>
 5   0  0.8421677E-07  0.2597289E+04  0.7818609E-02  0.8369123E-01
       -2   -1    0    0    0  501  0.00000000000E+00  0.00000000000E+00  0.11048078628E+04  0.11048078628E+04  0.25500000920E-02 0. -1.
        2   -1    0    0  501    0  0.00000000000E+00  0.00000000000E+00 -0.15264891833E+04  0.15264891833E+04  0.25500000920E-02 0.  1.
    10030    2    1    2    0    0  0.00000000000E+00  0.00000000000E+00 -0.42168132052E+03  0.26312970461E+04  0.25972887804E+04 0.  0.
        3    1    3    3  502    0 -0.40692416668E+03 -0.10303534270E+03 -0.14558639227E+04  0.15151710567E+04  0.10100000352E+00 0.  1.
       -3    1    3    3    0  502  0.40692416668E+03  0.10303534270E+03  0.10341826022E+04  0.11161259894E+04  0.10100000352E+00 0. -1.
</event>
<event>
 5   0  0.7649458E-07  0.3855211E+04  0.7818609E-02  0.8034409E-01
        2   -1    0    0  501    0  0.00000000000E+00  0.00000000000E+00  0.30324371810E+04  0.30324371810E+04  0.25500000920E-02 0. -1.
       -2   -1    0    0    0  501  0.00000000000E+00  0.00000000000E+00 -0.12253057927E+04  0.12253057927E+04  0.25500000920E-02 0.  1.
    10030    2    1    2    0    0  0.00000000000E+00  0.00000000000E+00  0.18071313883E+04  0.42577429737E+04  0.38552109378E+04 0.  0.
        4    1    3    3  502    0 -0.17444418524E+04 -0.20995495699E+03  0.28007748166E+02  0.17572548213E+04  0.12699999809E+01 0.  1.
       -4    1    3    3    0  502  0.17444418524E+04  0.20995495699E+03  0.17791236401E+04  0.25004881523E+04  0.12699999809E+01 0. -1.
</event>
<event>
 5   0  0.7649458E-07  0.2950415E+04  0.7818609E-02  0.8258034E-01
       -2   -1    0    0    0  501  0.00000000000E+00  0.00000000000E+00  0.11060034575E+04  0.11060034576E+04  0.25500000920E-02 0.  1.
        2   -1    0    0  501    0  0.00000000000E+00  0.00000000000E+00 -0.19676585187E+04  0.19676585187E+04  0.25500000920E-02 0. -1.
    10030    2    1    2    0    0  0.00000000000E+00  0.00000000000E+00 -0.86165506116E+03  0.30736619763E+04  0.29504149708E+04 0.  0.
        4    1    3    3  502    0  0.63179736543E+03 -0.10718776233E+04 -0.12564914135E+04  0.17682934811E+04  0.12699999809E+01 0. -1.
       -4    1    3    3    0  502 -0.63179736543E+03  0.10718776233E+04  0.39483635231E+03  0.13053684952E+04  0.12699999809E+01 0.  1.
</event>
<event>
 5   0  0.2529875E-07  0.3411147E+04  0.7818609E-02  0.8135176E-01
        1   -1    0    0  501    0  0.00000000000E+00  0.00000000000E+00  0.22805556562E+04  0.22805556562E+04  0.50400001928E-02 0.  1.
       -1   -1    0    0    0  501  0.00000000000E+00  0.00000000000E+00 -0.12755578425E+04  0.12755578425E+04  0.50400001928E-02 0. -1.
    10030    2    1    2    0    0  0.00000000000E+00  0.00000000000E+00  0.10049978137E+04  0.35561134987E+04  0.34111468174E+04 0.  0.
        3    1    3    3  502    0 -0.33439008269E+03 -0.11564479068E+04 -0.75706646993E+03  0.14220893568E+04  0.10100000352E+00 0. -1.
       -3    1    3    3    0  502  0.33439008269E+03  0.11564479068E+04  0.17620642836E+04  0.21340241419E+04  0.10100000352E+00 0.  1.
</event>
<event>
 5   0  0.2529875E-07  0.3743293E+04  0.7818609E-02  0.8058435E-01
       -1   -1    0    0    0  501  0.00000000000E+00  0.00000000000E+00  0.16641081672E+04  0.16641081672E+04  0.50400001928E-02 0.  1.
        1   -1    0    0  501    0  0.00000000000E+00  0.00000000000E+00 -0.21050678117E+04  0.21050678118E+04  0.50400001928E-02 0. -1.
    10030    2    1    2    0    0  0.00000000000E+00  0.00000000000E+00 -0.44095964460E+03  0.37691759789E+04  0.37432929557E+04 0.  0.
        1    1    3    3  502    0 -0.17325167196E+04 -0.54268988703E+03 -0.67852526522E+03  0.19381751812E+04  0.50400001928E-02 0. -1.
       -1    1    3    3    0  502  0.17325167196E+04  0.54268988703E+03  0.23756562063E+03  0.18310007978E+04  0.50400001928E-02 0.  1.
</event>
<event>
 5   0  0.2529875E-07  0.3785288E+04  0.7818609E-02  0.8049319E-01
       -1   -1    0    0    0  501  0.00000000000E+00  0.00000000000E+00  0.14671312325E+04  0.14671312326E+04  0.50400001928E-02 0.  1.
        1   -1    0    0  501    0  0.00000000000E+00  0.00000000000E+00 -0.24415684412E+04  0.24415684412E+04  0.50400001928E-02 0. -1.
    10030    2    1    2    0    0  0.00000000000E+00  0.00000000000E+00 -0.97443720867E+03  0.39086996738E+04  0.37852880031E+04 0.  0.
        4    1    3    3  502    0 -0.12851366850E+04  0.13559316097E+04 -0.17406078943E+03  0.18762797234E+04  0.12699999809E+01 0.  1.
       -4    1    3    3    0  502  0.12851366850E+04 -0.13559316097E+04 -0.80037641924E+03  0.20324199504E+04  0.12699999809E+01 0. -1.
</event>
<event>
 5   0  0.7551495E-07  0.2605118E+04  0.7818609E-02  0.8366465E-01
        2   -1    0    0  501    0  0.00000000000E+00  0.00000000000E+00  0.17014475949E+04  0.17014475949E+04  0.25500000920E-02 0.  1.
       -2   -1    0    0    0  501  0.00000000000E+00  0.00000000000E+00 -0.99718644098E+03  0.99718644099E+03  0.25500000920E-02 0. -1.
    10030    2    1    2    0    0  0.00000000000E+00  0.00000000000E+00  0.70426115396E+03  0.26986340359E+04  0.26051184017E+04 0.  0.
        1    1    3    3  502    0 -0.17212180494E+03  0.88844717551E+03 -0.61835398019E+03  0.10960501559E+04  0.50400001928E-02 0. -1.
       -1    1    3    3    0  502  0.17212180494E+03 -0.88844717551E+03  0.13226151342E+04  0.16025838800E+04  0.50400001928E-02 0.  1.
</event>
<event>
 5   0  0.7649458E-07  0.3314753E+04  0.7818609E-02  0.8159152E-01
        2   -1    0    0  501    0  0.00000000000E+00  0.00000000000E+00  0.79674333410E+03  0.79674333411E+03  0.25500000920E-02 0. -1.
       -2   -1    0    0    0  501  0.00000000000E+00  0.00000000000E+00 -0.34476566018E+04  0.34476566018E+04  0.25500000920E-02 0.  1.
    10030    2    1    2    0    0  0.00000000000E+00  0.00000000000E+00 -0.26509132677E+04  0.42443999359E+04  0.33147533337E+04 0.  0.
        4    1    3    3  502    0 -0.14686582082E+04  0.68564641086E+03 -0.17687017945E+04  0.23990363865E+04  0.12699999809E+01 0.  1.
       -4    1    3    3    0  502  0.14686582082E+04 -0.68564641086E+03 -0.88221147321E+03  0.18453635494E+04  0.12699999809E+01 0. -1.
</event>
<event>
 5   0  0.2529875E-07  0.3778460E+04  0.7818609E-02  0.8050793E-01
       -1   -1    0    0    0  501  0.00000000000E+00  0.00000000000E+00  0.18891434729E+04  0.18891434729E+04  0.50400001928E-02 0.  1.
        1   -1    0    0  501    0  0.00000000000E+00  0.00000000000E+00 -0.18893167871E+04  0.18893167871E+04  0.50400001928E-02 0. -1.
    10030    2    1    2    0    0  0.00000000000E+00  0.00000000000E+00 -0.17331422111E+00  0.37784602601E+04  0.37784602561E+04 0.  0.
        5    1    3    3  502    0 -0.13107156682E+04 -0.93977331864E+03  0.98379287591E+03  0.18891850004E+04  0.46999998093E+01 0.  1.
       -5    1    3    3    0  502  0.13107156682E+04  0.93977331864E+03 -0.98396619014E+03  0.18892752596E+04  0.46999998093E+01 0. -1.
</event>
<event>
 5   0  0.7551495E-07  0.3628930E+04  0.7818609E-02  0.8083897E-01
       -2   -1    0    0    0  501  0.00000000000E+00  0.00000000000E+00  0.13171335541E+04  0.13171335541E+04  0.25500000920E-02 0. -1.
        2   -1    0    0  501    0  0.00000000000E+00  0.00000000000E+00 -0.24995819233E+04  0.24995819233E+04  0.25500000920E-02 0.  1.
    10030    2    1    2    0    0  0.00000000000E+00  0.00000000000E+00 -0.11824483692E+04  0.38167154775E+04  0.36289299924E+04 0.  0.
        1    1    3    3  502    0  0.11196011579E+04  0.57056431539E+03  0.78541266404E+03  0.14818648533E+04  0.50400001928E-02 0. -1.
       -1    1    3    3    0  502 -0.11196011579E+04 -0.57056431539E+03 -0.19678610332E+04  0.23348506241E+04  0.50400001928E-02 0.  1.
</event>
<event>
 5   0  0.2529875E-07  0.3990375E+04  0.7818609E-02  0.8006491E-01
       -1   -1    0    0    0  501  0.00000000000E+00  0.00000000000E+00  0.15907310927E+04  0.15907310927E+04  0.50400001928E-02 0.  1.
        1   -1    0    0  501    0  0.00000000000E+00  0.00000000000E+00 -0.25024805541E+04  0.25024805541E+04  0.50400001928E-02 0. -1.
    10030    2    1    2    0    0  0.00000000000E+00  0.00000000000E+00 -0.91174946134E+03  0.40932116468E+04  0.39903752337E+04 0.  0.
        3    1    3    3  502    0 -0.15551853674E+04  0.37383473681E+03  0.76751362026E+03  0.17741000831E+04  0.10100000352E+00 0.  1.
       -3    1    3    3    0  502  0.15551853674E+04 -0.37383473681E+03 -0.16792630816E+04  0.23191115637E+04  0.10100000352E+00 0. -1.
</event>
<event>
 5   0  0.2529875E-07  0.3718493E+04  0.7818609E-02  0.8063876E-01
       -3   -1    0    0    0  501  0.00000000000E+00  0.00000000000E+00  0.18325991228E+04  0.18325991255E+04  0.10100000352E+00 0.  1.
        3   -1    0    0  501    0  0.00000000000E+00  0.00000000000E+00 -0.18862815806E+04  0.18862815833E+04  0.10100000352E+00 0. -1.
    10030    2    1    2    0    0  0.00000000000E+00  0.00000000000E+00 -0.53682457798E+02  0.37188807088E+04  0.37184932325E+04 0.  0.
        1    1    3    3  502    0 -0.10432521292E+03 -0.18169070867E+04  0.35367557641E+03  0.18539475519E+04  0.50400001928E-02 0. -1.
       -1    1    3    3    0  502  0.10432521292E+03  0.18169070867E+04 -0.40735803421E+03  0.18649331569E+04  0.50400001928E-02 0.  1.
</event>
<event>
 5   0  0.2529875E-07  0.3769205E+04  0.7818609E-02  0.8052796E-01
       -1   -1    0    0    0  501  0.00000000000E+00  0.00000000000E+00  0.16610373606E+04  0.16610373606E+04  0.50400001928E-02 0.  1.
        1   -1    0    0  501    0  0.00000000000E+00  0.00000000000E+00 -0.21382575665E+04  0.21382575665E+04  0.50400001928E-02 0. -1.
    10030    2    1    2    0    0  0.00000000000E+00  0.00000000000E+00 -0.47722020592E+03  0.37992949271E+04  0.37692045338E+04 0.  0.
        5    1    3    3  502    0  0.17513358804E+04  0.26366972091E+03 -0.88796141114E+03  0.19812109038E+04  0.46999998093E+01 0. -1.
       -5    1    3    3    0  502 -0.17513358804E+04 -0.26366972091E+03  0.41074120523E+03  0.18180840232E+04  0.46999998093E+01 0.  1.
</event>
<event>
 5   0  0.7638805E-07  0.3793653E+04  0.7818609E-02  0.8047518E-01
       -2   -1    0    0    0  501  0.00000000000E+00  0.00000000000E+00  0.22618594600E+04  0.22618594600E+04  0.25500000920E-02 0. -1.
        2   -1    0    0  501    0  0.00000000000E+00  0.00000000000E+00 -0.15907048831E+04  0.15907048831E+04  0.25500000920E-02 0.  1.
    10030    2    1    2    0    0  0.00000000000E+00  0.00000000000E+00  0.67115457698E+03  0.38525643431E+04  0.37936530616E+04 0.  0.
        5    1    3    3  502    0 -0.68746012662E+01  0.12355309057E+04  0.17971435231E+04  0.21809013759E+04  0.46999998093E+01 0. -1.
       -5    1    3    3    0  502  0.68746012662E+01 -0.12355309057E+04 -0.11259889461E+04  0.16716629672E+04  0.46999998093E+01 0.  1.
</event>
<event>
 5   0  0.7638805E-07  0.3730568E+04  0.7818609E-02  0.8061221E-01
        2   -1    0    0  501    0  0.00000000000E+00  0.00000000000E+00  0.14799820158E+04  0.14799820158E+04  0.25500000920E-02 0. -1.
       -2   -1    0    0    0  501  0.00000000000E+00  0.00000000000E+00 -0.23508966865E+04  0.23508966865E+04  0.25500000920E-02 0.  1.
    10030    2    1    2    0    0  0.00000000000E+00  0.00000000000E+00 -0.87091467062E+03  0.38308787023E+04  0.37305682233E+04 0.  0.
        5    1    3    3  502    0 -0.61034928831E+03  0.17621777674E+04 -0.47477510101E+03  0.19243778798E+04  0.46999998093E+01 0.  1.
       -5    1    3    3    0  502  0.61034928831E+03 -0.17621777674E+04 -0.39613956961E+03  0.19065008225E+04  0.46999998093E+01 0. -1.
</event>
<event>
 5   0  0.7649458E-07  0.3773969E+04  0.7818609E-02  0.8051764E-01
       -2   -1    0    0    0  501  0.00000000000E+00  0.00000000000E+00  0.15044117452E+04  0.15044117452E+04  0.25500000920E-02 0.  1.
        2   -1    0    0  501    0  0.00000000000E+00  0.00000000000E+00 -0.23668460628E+04  0.23668460628E+04  0.25500000920E-02 0. -1.
    10030    2    1    2    0    0  0.00000000000E+00  0.00000000000E+00 -0.86243431752E+03  0.38712578080E+04  0.37739692717E+04 0.  0.
        4    1    3    3  502    0  0.18428036492E+04  0.20961762145E+03 -0.74628687421E+02  0.18561885386E+04  0.12699999809E+01 0.  1.
       -4    1    3    3    0  502 -0.18428036492E+04 -0.20961762145E+03 -0.78780563010E+03  0.20150692694E+04  0.12699999809E+01 0. -1.
</event>
<event>
 5   0  0.2529875E-07  0.2645042E+04  0.7818609E-02  0.8353060E-01
        1   -1    0    0  501    0  0.00000000000E+00  0.00000000000E+00  0.13967806965E+04  0.13967806965E+04  0.50400001928E-02 0. -1.
       -1   -1    0    0    0  501  0.00000000000E+00  0.00000000000E+00 -0.12522095747E+04  0.12522095747E+04  0.50400001928E-02 0.  1.
    10030    2    1    2    0    0  0.00000000000E+00  0.00000000000E+00  0.14457112182E+03  0.26489902712E+04  0.26450422771E+04 0.  0.
        1    1    3    3  502    0 -0.46166997939E+03  0.82783504261E+02  0.13106868989E+04  0.13920820470E+04  0.50400001928E-02 0. -1.
       -1    1    3    3    0  502  0.46166997939E+03 -0.82783504261E+02 -0.11661157771E+04  0.12569082242E+04  0.50400001928E-02 0.  1.
</event>
<event>
 5   0  0.7638805E-07  0.2664110E+04  0.7818609E-02  0.8346745E-01
        2   -1    0    0  501    0  0.00000000000E+00  0.00000000000E+00  0.14263296283E+04  0.14263296283E+04  0.25500000920E-02 0. -1.
       -2   -1    0    0    0  501  0.00000000000E+00  0.00000000000E+00 -0.12440120034E+04  0.12440120034E+04  0.25500000920E-02 0.  1.
    10030    2    1    2    0    0  0.00000000000E+00  0.00000000000E+00  0.18231762488E+03  0.26703416317E+04  0.26641104921E+04 0.  0.
        5    1    3    3  502    0  0.29977843928E+03 -0.45701233986E+03  0.13087517205E+04  0.14183019945E+04  0.46999998093E+01 0. -1.
       -5    1    3    3    0  502 -0.29977843928E+03  0.45701233986E+03 -0.11264340957E+04  0.12520396373E+04  0.46999998093E+01 0.  1.
</event>
<event>
 5   0  0.2529875E-07  0.3801831E+04  0.7818609E-02  0.8045762E-01
        1   -1    0    0  501    0  0.00000000000E+00  0.00000000000E+00  0.13110255456E+04  0.13110255456E+04  0.50400001928E-02 0.  1.
       -1   -1    0    0    0  501  0.00000000000E+00  0.00000000000E+00 -0.27562230979E+04  0.27562230979E+04  0.50400001928E-02 0. -1.
    10030    2    1    2    0    0  0.00000000000E+00  0.00000000000E+00 -0.14451975523E+04  0.40672486434E+04  0.38018305541E+04 0.  0.
        5    1    3    3  502    0 -0.40861877533E+03  0.55093280058E+02  0.12626045649E+04  0.13282307594E+04  0.46999998093E+01 0.  1.
       -5    1    3    3    0  502  0.40861877533E+03 -0.55093280058E+02 -0.27078021172E+04  0.27390178840E+04  0.46999998093E+01 0. -1.
</event>
<event>
 5   0  0.8421677E-07  0.3769541E+04  0.7818609E-02  0.8052723E-01
        2   -1    0    0  501    0  0.00000000000E+00  0.00000000000E+00  0.20123007537E+04  0.20123007537E+04  0.25500000920E-02 0. -1.
       -2   -1    0    0    0  501  0.00000000000E+00  0.00000000000E+00 -0.17653228471E+04  0.17653228471E+04  0.25500000920E-02 0.  1.
    10030    2    1    2    0    0  0.00000000000E+00  0.00000000000E+00  0.24697790661E+03  0.37776236008E+04  0.37695413491E+04 0.  0.
        3    1    3    3  502    0  0.15769255071E+04 -0.10215440608E+04  0.27251611035E+03  0.18985550727E+04  0.10100000352E+00 0.  1.
       -3    1    3    3    0  502 -0.15769255071E+04  0.10215440608E+04 -0.25538203745E+02  0.18790685281E+04  0.10100000352E+00 0. -1.
</event>
<event>
 5   0  0.7638805E-07  0.3600470E+04  0.7818609E-02  0.8090384E-01
       -2   -1    0    0    0  501  0.00000000000E+00  0.00000000000E+00  0.15391686545E+04  0.15391686545E+04  0.25500000920E-02 0.  1.
        2   -1    0    0  501    0  0.00000000000E+00  0.00000000000E+00 -0.21055823590E+04  0.21055823590E+04  0.25500000920E-02 0. -1.
    10030    2    1    2    0    0  0.00000000000E+00  0.00000000000E+00 -0.56641370445E+03  0.36447510135E+04  0.36004701729E+04 0.  0.
        5    1    3    3  502    0 -0.19640025168E+03 -0.16576156222E+04 -0.96571061846E+03  0.19284402242E+04  0.46999998093E+01 0. -1.
       -5    1    3    3    0  502  0.19640025168E+03  0.16576156222E+04  0.39929691401E+03  0.17163107893E+04  0.46999998093E+01 0.  1.
</event>
<event>
 5   0  0.2529875E-07  0.2429736E+04  0.7818609E-02  0.8428454E-01
        1   -1    0    0  501    0  0.00000000000E+00  0.00000000000E+00  0.15419635514E+04  0.15419635514E+04  0.50400001928E-02 0.  1.
       -1   -1    0    0    0  501  0.00000000000E+00  0.00000000000E+00 -0.95715905753E+03  0.95715905754E+03  0.50400001928E-02 0. -1.
    10030    2    1    2    0    0  0.00000000000E+00  0.00000000000E+00  0.58480449387E+03  0.24991226089E+04  0.24297361006E+04 0.  0.
        4    1    3    3  502    0  0.90865355943E+03 -0.27368304190E+03  0.10725810814E+04  0.14321262122E+04  0.12699999809E+01 0.  1.
       -4    1    3    3    0  502 -0.90865355943E+03  0.27368304190E+03 -0.48777658754E+03  0.10669963968E+04  0.12699999809E+01 0. -1.
</event>
<event>
 5   0  0.8421677E-07  0.3793913E+04  0.7818609E-02  0.8047462E-01
        2   -1    0    0  501    0  0.00000000000E+00  0.00000000000E+00  0.16696337736E+04  0.16696337736E+04  0.25500000920E-02 0.  1.
       -2   -1    0    0    0  501  0.00000000000E+00  0.00000000000E+00 -0.21552300473E+04  0.21552300473E+04  0.25500000920E-02 0. -1.
    10030    2    1    2    0    0  0.00000000000E+00  0.00000000000E+00 -0.48559627371E+03  0.38248638208E+04  0.37939134817E+04 0.  0.
        3    1    3    3  502    0  0.13759396254E+04 -0.73831040237E+03 -0.13286795526E+04  0.20502930197E+04  0.10100000352E+00 0. -1.
       -3    1    3    3    0  502 -0.13759396254E+04  0.73831040237E+03  0.84308327888E+03  0.17745708011E+04  0.10100000352E+00 0.  1.
</event>
<event>
 5   0  0.8038352E-07  0.3750722E+04  0.7818609E-02  0.8056813E-01
       -2   -1    0    0    0  501  0.00000000000E+00  0.00000000000E+00  0.28598474293E+04  0.28598474293E+04  0.25500000920E-02 0.  1.
        2   -1    0    0  501    0  0.00000000000E+00  0.00000000000E+00 -0.12297782001E+04  0.12297782001E+04  0.25500000920E-02 0. -1.
    10030    2    1    2    0    0  0.00000000000E+00  0.00000000000E+00  0.16300692292E+04  0.40896256294E+04  0.37507215435E+04 0.  0.
        2    1    3    3  502    0  0.51811775848E+03 -0.59939325550E+03  0.26684041655E+04  0.27835407446E+04  0.25500000920E-02 0.  1.
       -2    1    3    3    0  502 -0.51811775848E+03  0.59939325550E+03 -0.10383349363E+04  0.13060848848E+04  0.25500000920E-02 0. -1.
</event>
<event>
 5   0  0.7649458E-07  0.3743993E+04  0.7818609E-02  0.8058282E-01
       -2   -1    0    0    0  501  0.00000000000E+00  0.00000000000E+00  0.17384745680E+04  0.17384745680E+04  0.25500000920E-02 0.  1.
        2   -1    0    0  501    0  0.00000000000E+00  0.00000000000E+00 -0.20157734832E+04  0.20157734832E+04  0.25500000920E-02 0. -1.
    10030    2    1    2    0    0  0.00000000000E+00  0.00000000000E+00 -0.27729891518E+03  0.37542480512E+04  0.37439930210E+04 0.  0.
        4    1    3    3  502    0 -0.26032523426E+03 -0.18533874087E+04 -0.99105314134E+02  0.18742031882E+04  0.12699999809E+01 0. -1.
       -4    1    3    3    0  502  0.26032523426E+03  0.18533874087E+04 -0.17819360105E+03  0.18800448630E+04  0.12699999809E+01 0.  1.
</event>
<event>
 5   0  0.8421677E-07  0.3642000E+04  0.7818609E-02  0.8080938E-01
        2   -1    0    0  501    0  0.00000000000E+00  0.00000000000E+00  0.22724912626E+04  0.22724912626E+04  0.25500000920E-02 0. -1.
       -2   -1    0    0    0  501  0.00000000000E+00  0.00000000000E+00 -0.14592099685E+04  0.14592099685E+04  0.25500000920E-02 0.  1.
    10030    2    1    2    0    0  0.00000000000E+00  0.00000000000E+00  0.81328129411E+03  0.37317012310E+04  0.36420004962E+04 0.  0.
        3    1    3    3  502    0 -0.13205833382E+04  0.30982400754E+03 -0.83823599503E+03  0.15945440923E+04  0.10100000352E+00 0.  1.
       -3    1    3    3    0  502  0.13205833382E+04 -0.30982400754E+03  0.16515172891E+04  0.21371571387E+04  0.10100000352E+00 0. -1.
</event>
<event>
 5   0  0.7551495E-07  0.2544351E+04  0.7818609E-02  0.8387353E-01
       -2   -1    0    0    0  501  0.00000000000E+00  0.00000000000E+00  0.11464058955E+04  0.11464058955E+04  0.25500000920E-02 0.  1.
        2   -1    0    0  501    0  0.00000000000E+00  0.00000000000E+00 -0.14117435346E+04  0.14117435346E+04  0.25500000920E-02 0. -1.
    10030    2    1    2    0    0  0.00000000000E+00  0.00000000000E+00 -0.26533763912E+03  0.25581494300E+04  0.25443514780E+04 0.  0.
        1    1    3    3  502    0  0.74735978071E+03 -0.20479646563E+03  0.88173414212E+03  0.11738583098E+04  0.50400001928E-02 0.  1.
       -1    1    3    3    0  502 -0.74735978071E+03  0.20479646563E+03 -0.11470717812E+04  0.13842911202E+04  0.50400001928E-02 0. -1.
</event>
<event>
 5   0  0.7551495E-07  0.3632613E+04  0.7818609E-02  0.8083062E-01
        2   -1    0    0  501    0  0.00000000000E+00  0.00000000000E+00  0.11595974475E+04  0.11595974475E+04  0.25500000920E-02 0.  1.
       -2   -1    0    0    0  501  0.00000000000E+00  0.00000000000E+00 -0.28449268567E+04  0.28449268567E+04  0.25500000920E-02 0. -1.
    10030    2    1    2    0    0  0.00000000000E+00  0.00000000000E+00 -0.16853294092E+04  0.40045243042E+04  0.36326133410E+04 0.  0.
        1    1    3    3  502    0 -0.37745982413E+03 -0.15730096239E+04 -0.17531372188E+04  0.23854402746E+04  0.50400001928E-02 0. -1.
       -1    1    3    3    0  502  0.37745982413E+03  0.15730096239E+04  0.67807809640E+02  0.16190840296E+04  0.50400001928E-02 0.  1.
</event>
<event>
 5   0  0.2529875E-07  0.3791267E+04  0.7818609E-02  0.8048031E-01
        1   -1    0    0  501    0  0.00000000000E+00  0.00000000000E+00  0.26436249635E+04  0.26436249635E+04  0.50400001928E-02 0. -1.
       -1   -1    0    0    0  501  0.00000000000E+00  0.00000000000E+00 -0.13592802616E+04  0.13592802616E+04  0.50400001928E-02 0.  1.
    10030    2    1    2    0    0  0.00000000000E+00  0.00000000000E+00  0.12843447019E+04  0.40029052251E+04  0.37912674567E+04 0.  0.
        1    1    3    3  502    0 -0.87520964559E+03 -0.10270157548E+04 -0.76356866189E+03  0.15504161976E+04  0.50400001928E-02 0.  1.
       -1    1    3    3    0  502  0.87520964559E+03  0.10270157548E+04  0.20479133638E+04  0.24524890275E+04  0.50400001928E-02 0. -1.
</event>
<event>
 5   0  0.2907071E-07  0.2645539E+04  0.7818609E-02  0.8352895E-01
        1   -1    0    0  501    0  0.00000000000E+00  0.00000000000E+00  0.12467520871E+04  0.12467520871E+04  0.50400001928E-02 0.  1.
       -1   -1    0    0    0  501  0.00000000000E+00  0.00000000000E+00 -0.14034218341E+04  0.14034218341E+04  0.50400001928E-02 0. -1.
    10030    2    1    2    0    0  0.00000000000E+00  0.00000000000E+00 -0.15666974706E+03  0.26501739212E+04  0.26455389627E+04 0.  0.
        2    1    3    3  502    0  0.83120019623E+03  0.43983819968E+03 -0.10102160787E+04  0.13801767762E+04  0.25500000920E-02 0. -1.
       -2    1    3    3    0  502 -0.83120019623E+03 -0.43983819968E+03  0.85354633160E+03  0.12699971450E+04  0.25500000920E-02 0.  1.
</event>
<event>
 5   0  0.7551495E-07  0.3810622E+04  0.7818609E-02  0.8043879E-01
       -2   -1    0    0    0  501  0.00000000000E+00  0.00000000000E+00  0.25741601070E+04  0.25741601070E+04  0.25500000920E-02 0.  1.
        2   -1    0    0  501    0  0.00000000000E+00  0.00000000000E+00 -0.14102505834E+04  0.14102505834E+04  0.25500000920E-02 0. -1.
    10030    2    1    2    0    0  0.00000000000E+00  0.00000000000E+00  0.11639095235E+04  0.39844106904E+04  0.38106224125E+04 0.  0.
        1    1    3    3  502    0  0.41617053404E+03 -0.37646299397E+03  0.24857877266E+04  0.25483451338E+04  0.50400001928E-02 0.  1.
       -1    1    3    3    0  502 -0.41617053404E+03  0.37646299397E+03 -0.13218782031E+04  0.14360655566E+04  0.50400001928E-02 0. -1.
</event>
<event>
 5   0  0.2529875E-07  0.3279382E+04  0.7818609E-02  0.8168162E-01
       -1   -1    0    0    0  501  0.00000000000E+00  0.00000000000E+00  0.16215094997E+04  0.16215094997E+04  0.50400001928E-02 0.  1.
        1   -1    0    0  501    0  0.00000000000E+00  0.00000000000E+00 -0.16580763562E+04  0.16580763562E+04  0.50400001928E-02 0. -1.
    10030    2    1    2    0    0  0.00000000000E+00  0.00000000000E+00 -0.36566856437E+02  0.32795858559E+04  0.32793819923E+04 0.  0.
        5    1    3    3  502    0 -0.14642633941E+03 -0.12368033300E+03 -0.16468277747E+04  0.16579509363E+04  0.46999998093E+01 0. -1.
       -5    1    3    3    0  502  0.14642633941E+03  0.12368033300E+03  0.16102609183E+04  0.16216349196E+04  0.46999998093E+01 0.  1.
</event>
<event>
 5   0  0.7638805E-07  0.3820601E+04  0.7818609E-02  0.8041748E-01
        2   -1    0    0  501    0  0.00000000000E+00  0.00000000000E+00  0.13136639798E+04  0.13136639798E+04  0.25500000920E-02 0. -1.
       -2   -1    0    0    0  501  0.00000000000E+00  0.00000000000E+00 -0.27779159815E+04  0.27779159815E+04  0.25500000920E-02 0.  1.
    10030    2    1    2    0    0  0.00000000000E+00  0.00000000000E+00 -0.14642520018E+04  0.40915799613E+04  0.38206010855E+04 0.  0.
        5    1    3    3  502    0 -0.37650208791E+03 -0.18621974376E+04 -0.51876449744E+03  0.19694343890E+04  0.46999998093E+01 0.  1.
       -5    1    3    3    0  502  0.37650208791E+03  0.18621974376E+04 -0.94548750432E+03  0.21221455722E+04  0.46999998093E+01 0. -1.
</event>
<event>
 5   0  0.2529875E-07  0.3741733E+04  0.7818609E-02  0.8058776E-01
        1   -1    0    0  501    0  0.00000000000E+00  0.00000000000E+00  0.16027212449E+04  0.16027212449E+04  0.50400001928E-02 0.  1.
       -1   -1    0    0    0  501  0.00000000000E+00  0.00000000000E+00 -0.21838744629E+04  0.21838744629E+04  0.50400001928E-02 0. -1.
    10030    2    1    2    0    0  0.00000000000E+00  0.00000000000E+00 -0.58115321801E+03  0.37865957079E+04  0.37417332872E+04 0.  0.
        3    1    3    3  502    0 -0.40016714766E+03 -0.68243952489E+03  0.14251219638E+04  0.16299785499E+04  0.10100000352E+00 0.  1.
       -3    1    3    3    0  502  0.40016714766E+03  0.68243952489E+03 -0.20062751818E+04  0.21566171580E+04  0.10100000352E+00 0. -1.
</event>
<event>
 5   0  0.8038352E-07  0.3917415E+04  0.7818609E-02  0.8021417E-01
        2   -1    0    0  501    0  0.00000000000E+00  0.00000000000E+00  0.25450672149E+04  0.25450672149E+04  0.25500000920E-02 0.  1.
       -2   -1    0    0    0  501  0.00000000000E+00  0.00000000000E+00 -0.15074393594E+04  0.15074393594E+04  0.25500000920E-02 0. -1.
    10030    2    1    2    0    0  0.00000000000E+00  0.00000000000E+00  0.10376278555E+04  0.40525065743E+04  0.39174147046E+04 0.  0.
        2    1    3    3  502    0  0.15165553454E+04 -0.79648327092E+03 -0.46378820492E+03  0.17746620003E+04  0.25500000920E-02 0. -1.
       -2    1    3    3    0  502 -0.15165553454E+04  0.79648327092E+03  0.15014160604E+04  0.22778445739E+04  0.25500000920E-02 0.  1.
</event>
<event>
 5   0  0.2529875E-07  0.3786941E+04  0.7818609E-02  0.8048963E-01
        1   -1    0    0  501    0  0.00000000000E+00  0.00000000000E+00  0.21451523635E+04  0.21451523635E+04  0.50400001928E-02 0. -1.
       -1   -1    0    0    0  501  0.00000000000E+00  0.00000000000E+00 -0.16713171585E+04  0.16713171585E+04  0.50400001928E-02 0.  1.
    10030    2    1    2    0    0  0.00000000000E+00  0.00000000000E+00  0.47383520496E+03  0.38164695220E+04  0.37869406928E+04 0.  0.
        4    1    3    3  502    0 -0.11887460268E+04  0.35627742668E+03 -0.12043307057E+04  0.17292960367E+04  0.12699999809E+01 0.  1.
       -4    1    3    3    0  502  0.11887460268E+04 -0.35627742668E+03  0.16781659106E+04  0.20871734853E+04  0.12699999809E+01 0. -1.
</event>
<event>
 5   0  0.2529875E-07  0.3824811E+04  0.7818609E-02  0.8040851E-01
        1   -1    0    0  501    0  0.00000000000E+00  0.00000000000E+00  0.15249841941E+04  0.15249841942E+04  0.50400001928E-02 0. -1.
       -1   -1    0    0    0  501  0.00000000000E+00  0.00000000000E+00 -0.23982512076E+04  0.23982512076E+04  0.50400001928E-02 0.  1.
    10030    2    1    2    0    0  0.00000000000E+00  0.00000000000E+00 -0.87326701349E+03  0.39232354018E+04  0.38248112033E+04 0.  0.
        5    1    3    3  502    0 -0.97438885585E+03  0.60711129350E+03  0.11321867144E+04  0.16124163890E+04  0.46999998093E+01 0. -1.
       -5    1    3    3    0  502  0.97438885585E+03 -0.60711129350E+03 -0.20054537279E+04  0.23108190128E+04  0.46999998093E+01 0.  1.
</event>
<event>
 5   0  0.2529875E-07  0.3770893E+04  0.7818609E-02  0.8052430E-01
        1   -1    0    0  501    0  0.00000000000E+00  0.00000000000E+00  0.21968583582E+04  0.21968583582E+04  0.50400001928E-02 0.  1.
       -1   -1    0    0    0  501  0.00000000000E+00  0.00000000000E+00 -0.16181787170E+04  0.16181787170E+04  0.50400001928E-02 0. -1.
    10030    2    1    2    0    0  0.00000000000E+00  0.00000000000E+00  0.57867964119E+03  0.38150370753E+04  0.37708934961E+04 0.  0.
        1    1    3    3  502    0 -0.60375135716E+03 -0.13224525348E+03  0.20914569977E+04  0.21808706705E+04  0.50400001928E-02 0.  1.
       -1    1    3    3    0  502  0.60375135716E+03  0.13224525348E+03 -0.15127773565E+04  0.16341664048E+04  0.50400001928E-02 0. -1.
</event>
<event>
 5   0  0.2907071E-07  0.3683674E+04  0.7818609E-02  0.8071590E-01
        1   -1    0    0  501    0  0.00000000000E+00  0.00000000000E+00  0.29320587702E+04  0.29320587702E+04  0.50400001928E-02 0. -1.
       -1   -1    0    0    0  501  0.00000000000E+00  0.00000000000E+00 -0.11569902069E+04  0.11569902069E+04  0.50400001928E-02 0.  1.
    10030    2    1    2    0    0  0.00000000000E+00  0.00000000000E+00  0.17750685633E+04  0.40890489772E+04  0.36836738636E+04 0.  0.
        2    1    3    3  502    0 -0.10484202899E+03 -0.83136293218E+03 -0.93314729478E+03  0.12541610940E+04  0.25500000920E-02 0.  1.
       -2    1    3    3    0  502  0.10484202899E+03  0.83136293218E+03  0.27082158580E+04  0.28348878831E+04  0.25500000920E-02 0. -1.
</event>
<event>
 5   0  0.8421677E-07  0.3712610E+04  0.7818609E-02  0.8065173E-01
        2   -1    0    0  501    0  0.00000000000E+00  0.00000000000E+00  0.24214674344E+04  0.24214674344E+04  0.25500000920E-02 0.  1.
       -2   -1    0    0    0  501  0.00000000000E+00  0.00000000000E+00 -0.14230497179E+04  0.14230497179E+04  0.25500000920E-02 0. -1.
    10030    2    1    2    0    0  0.00000000000E+00  0.00000000000E+00  0.99841771643E+03  0.38445171523E+04  0.37126101597E+04 0.  0.
        3    1    3    3  502    0  0.85126010623E+03 -0.16488463197E+04  0.55130108382E+03  0.19357868812E+04  0.10100000352E+00 0.  1.
       -3    1    3    3    0  502 -0.85126010623E+03  0.16488463197E+04  0.44711663261E+03  0.19087302711E+04  0.10100000352E+00 0. -1.
</event>
<event>
 5   0  0.7551495E-07  0.3510649E+04  0.7818609E-02  0.8111271E-01
       -2   -1    0    0    0  501  0.00000000000E+00  0.00000000000E+00  0.18898065511E+04  0.18898065511E+04  0.25500000920E-02 0. -1.
        2   -1    0    0  501    0  0.00000000000E+00  0.00000000000E+00 -0.16304121611E+04  0.16304121611E+04  0.25500000920E-02 0.  1.
    10030    2    1    2    0    0  0.00000000000E+00  0.00000000000E+00  0.25939439006E+03  0.35202187122E+04  0.35106487053E+04 0.  0.
        1    1    3    3  502    0 -0.10847723205E+03 -0.63158079305E+03  0.17683189829E+04  0.18808544955E+04  0.50400001928E-02 0. -1.
       -1    1    3    3    0  502  0.10847723205E+03  0.63158079305E+03 -0.15089245928E+04  0.16393642167E+04  0.50400001928E-02 0.  1.
</event>
<event>
 5   0  0.2907071E-07  0.3836034E+04  0.7818609E-02  0.8038466E-01
        1   -1    0    0  501    0  0.00000000000E+00  0.00000000000E+00  0.16675210335E+04  0.16675210335E+04  0.50400001928E-02 0.  1.
       -1   -1    0    0    0  501  0.00000000000E+00  0.00000000000E+00 -0.22061429932E+04  0.22061429932E+04  0.50400001928E-02 0. -1.
    10030    2    1    2    0    0  0.00000000000E+00  0.00000000000E+00 -0.53862195970E+03  0.38736640267E+04  0.38360343294E+04 0.  0.
        2    1    3    3  502    0  0.10683261881E+03 -0.11465403287E+04 -0.18182488332E+04  0.21522074141E+04  0.25500000920E-02 0. -1.
       -2    1    3    3    0  502 -0.10683261881E+03  0.11465403287E+04  0.12796268735E+04  0.17214566126E+04  0.25500000920E-02 0.  1.
</event>
<event>
 5   0  0.2529875E-07  0.3788706E+04  0.7818609E-02  0.8048583E-01
        1   -1    0    0  501    0  0.00000000000E+00  0.00000000000E+00  0.19923291143E+04  0.19923291143E+04  0.50400001928E-02 0.  1.
       -1   -1    0    0    0  501  0.00000000000E+00  0.00000000000E+00 -0.18011948031E+04  0.18011948031E+04  0.50400001928E-02 0. -1.
    10030    2    1    2    0    0  0.00000000000E+00  0.00000000000E+00  0.19113431115E+03  0.37935239174E+04  0.37887057668E+04 0.  0.
        4    1    3    3  502    0 -0.62808157198E+03  0.15159388569E+04 -0.85221686617E+03  0.18490084583E+04  0.12699999809E+01 0. -1.
       -4    1    3    3    0  502  0.62808157198E+03 -0.15159388569E+04  0.10433511773E+04  0.19445154592E+04  0.12699999809E+01 0.  1.
</event>
<event>
 5   0  0.2529875E-07  0.3757504E+04  0.7818609E-02  0.8055336E-01
        1   -1    0    0  501    0  0.00000000000E+00  0.00000000000E+00  0.25896067601E+04  0.25896067601E+04  0.50400001928E-02 0.  1.
       -1   -1    0    0    0  501  0.00000000000E+00  0.00000000000E+00 -0.13630292107E+04  0.13630292107E+04  0.50400001928E-02 0. -1.
    10030    2    1    2    0    0  0.00000000000E+00  0.00000000000E+00  0.12265775494E+04  0.39526359708E+04  0.37575043091E+04 0.  0.
        3    1    3    3  502    0  0.18746521950E+03  0.10774597031E+04 -0.99367066584E+03  0.14776481390E+04  0.10100000352E+00 0. -1.
       -3    1    3    3    0  502 -0.18746521950E+03 -0.10774597031E+04  0.22202482152E+04  0.24749878318E+04  0.10100000352E+00 0.  1.
</event>
<event>
 5   0  0.2529875E-07  0.3732062E+04  0.7818609E-02  0.8060893E-01
        1   -1    0    0  501    0  0.00000000000E+00  0.00000000000E+00  0.16773213823E+04  0.16773213823E+04  0.50400001928E-02 0.  1.
       -1   -1    0    0    0  501  0.00000000000E+00  0.00000000000E+00 -0.20759721730E+04  0.20759721730E+04  0.50400001928E-02 0. -1.
    10030    2    1    2    0    0  0.00000000000E+00  0.00000000000E+00 -0.39865079072E+03  0.37532935554E+04  0.37320624405E+04 0.  0.
        4    1    3    3  502    0  0.16699762450E+04  0.58884961554E+03  0.39267124968E+03  0.18137686875E+04  0.12699999809E+01 0.  1.
       -4    1    3    3    0  502 -0.16699762450E+04 -0.58884961554E+03 -0.79132204040E+03  0.19395248679E+04  0.12699999809E+01 0. -1.
</event>
<event>
 5   0  0.8038352E-07  0.2484860E+04  0.7818609E-02  0.8408399E-01
        2   -1    0    0  501    0  0.00000000000E+00  0.00000000000E+00  0.16475176911E+04  0.16475176911E+04  0.25500000920E-02 0. -1.
       -2   -1    0    0    0  501  0.00000000000E+00  0.00000000000E+00 -0.93694455997E+03  0.93694455998E+03  0.25500000920E-02 0.  1.
    10030    2    1    2    0    0  0.00000000000E+00  0.00000000000E+00  0.71057313110E+03  0.25844622510E+04  0.24848603487E+04 0.  0.
        2    1    3    3  502    0 -0.40814591817E+03  0.75308903825E+03  0.12913077161E+04  0.15495811717E+04  0.25500000920E-02 0. -1.
       -2    1    3    3    0  502  0.40814591817E+03 -0.75308903825E+03 -0.58073458503E+03  0.10348810793E+04  0.25500000920E-02 0.  1.
</event>
<event>
 5   0  0.7551495E-07  0.2835619E+04  0.7818609E-02  0.8292295E-01
        2   -1    0    0  501    0  0.00000000000E+00  0.00000000000E+00  0.25177290340E+04  0.25177290340E+04  0.25500000920E-02 0. -1.
       -2   -1    0    0    0  501  0.00000000000E+00  0.00000000000E+00 -0.79841164937E+03  0.79841164937E+03  0.25500000920E-02 0.  1.
    10030    2    1    2    0    0  0.00000000000E+00  0.00000000000E+00  0.17193173846E+04  0.33161406833E+04  0.28356192909E+04 0.  0.
        1    1    3    3  502    0  0.46091280423E+03 -0.13391611728E+04  0.78216554103E+03  0.16178925160E+04  0.50400001928E-02 0.  1.
       -1    1    3    3    0  502 -0.46091280423E+03  0.13391611728E+04  0.93715184357E+03  0.16982481673E+04  0.50400001928E-02 0. -1.
</event>
<event>
 5   0  0.2529875E-07  0.3744122E+04  0.7818609E-02  0.8058254E-01
        1   -1    0    0  501    0  0.00000000000E+00  0.00000000000E+00  0.19617808051E+04  0.19617808052E+04  0.50400001928E-02 0. -1.
       -1   -1    0    0    0  501  0.00000000000E+00  0.00000000000E+00 -0.17864439807E+04  0.17864439807E+04  0.50400001928E-02 0.  1.
    10030    2    1    2    0    0  0.00000000000E+00  0.00000000000E+00  0.17533682447E+03  0.37482247858E+04  0.37441215316E+04 0.  0.
        1    1    3    3  502    0  0.11650593922E+04  0.12849583158E+04  0.79280547915E+03  0.19070977396E+04  0.50400001928E-02 0.  1.
       -1    1    3    3    0  502 -0.11650593922E+04 -0.12849583158E+04 -0.61746865468E+03  0.18411270462E+04  0.50400001928E-02 0. -1.
</event>
<event>
 5   0  0.8038352E-07  0.3668204E+04  0.7818609E-02  0.8075045E-01
       -2   -1    0    0    0  501  0.00000000000E+00  0.00000000000E+00  0.18941072769E+04  0.18941072769E+04  0.25500000920E-02 0. -1.
        2   -1    0    0  501    0  0.00000000000E+00  0.00000000000E+00 -0.17759972734E+04  0.17759972734E+04  0.25500000920E-02 0.  1.
    10030    2    1    2    0    0  0.00000000000E+00  0.00000000000E+00  0.11811000350E+03  0.36701045503E+04  0.36682035708E+04 0.  0.
        2    1    3    3  502    0  0.15000461687E+04 -0.80410830651E+03 -0.62482001934E+03  0.18130440517E+04  0.25500000920E-02 0.  1.
       -2    1    3    3    0  502 -0.15000461687E+04  0.80410830651E+03  0.74293002284E+03  0.18570604986E+04  0.25500000920E-02 0. -1.
</event>
<event>
 5   0  0.2529875E-07  0.3785637E+04  0.7818609E-02  0.8049244E-01
        1   -1    0    0  501    0  0.00000000000E+00  0.00000000000E+00  0.13563922228E+04  0.13563922228E+04  0.50400001928E-02 0.  1.
       -1   -1    0    0    0  501  0.00000000000E+00  0.00000000000E+00 -0.26413900712E+04  0.26413900712E+04  0.50400001928E-02 0. -1.
    10030    2    1    2    0    0  0.00000000000E+00  0.00000000000E+00 -0.12849978483E+04  0.39977822940E+04  0.37856365119E+04 0.  0.
        3    1    3    3  502    0  0.18716312043E+04  0.47143545069E+02 -0.34844343231E+03  0.19043735754E+04  0.10100000352E+00 0.  1.
       -3    1    3    3    0  502 -0.18716312043E+04 -0.47143545069E+02 -0.93655441603E+03  0.20934087186E+04  0.10100000352E+00 0. -1.
</event>
<event>
 5   0  0.7551495E-07  0.3806165E+04  0.7818609E-02  0.8044833E-01
       -2   -1    0    0    0  501  0.00000000000E+00  0.00000000000E+00  0.15924705630E+04  0.15924705630E+04  0.25500000920E-02 0. -1.
        2   -1    0    0  501    0  0.00000000000E+00  0.00000000000E+00 -0.22742795329E+04  0.22742795329E+04  0.25500000920E-02 0.  1.
    10030    2    1    2    0    0  0.00000000000E+00  0.00000000000E+00 -0.68180896992E+03  0.38667500959E+04  0.38061651085E+04 0.  0.
        1    1    3    3  502    0 -0.14954538721E+04  0.54944994384E+03  0.71655089999E+03  0.17469180624E+04  0.50400001928E-02 0. -1.
       -1    1    3    3    0  502  0.14954538721E+04 -0.54944994384E+03 -0.13983598699E+04  0.21198320335E+04  0.50400001928E-02 0.  1.
</event>
<event>
 5   0  0.2529875E-07  0.3618919E+04  0.7818609E-02  0.8086172E-01
        1   -1    0    0  501    0  0.00000000000E+00  0.00000000000E+00  0.20610541637E+04  0.20610541637E+04  0.50400001928E-02 0.  1.
       -1   -1    0    0    0  501  0.00000000000E+00  0.00000000000E+00 -0.15885770840E+04  0.15885770841E+04  0.50400001928E-02 0. -1.
    10030    2    1    2    0    0  0.00000000000E+00  0.00000000000E+00  0.47247707970E+03  0.36496312478E+04  0.36189188515E+04 0.  0.
        3    1    3    3  502    0 -0.11769695810E+04  0.13118082165E+04 -0.17717358788E+03  0.17712957635E+04  0.10100000352E+00 0.  1.
       -3    1    3    3    0  502  0.11769695810E+04 -0.13118082165E+04  0.64965066758E+03  0.18783354843E+04  0.10100000352E+00 0. -1.
</event>
<event>
 5   0  0.7638805E-07  0.3817827E+04  0.7818609E-02  0.8042340E-01
       -2   -1    0    0    0  501  0.00000000000E+00  0.00000000000E+00  0.12588697612E+04  0.12588697612E+04  0.25500000920E-02 0. -1.
        2   -1    0    0  501    0  0.00000000000E+00  0.00000000000E+00 -0.28946208857E+04  0.28946208857E+04  0.25500000920E-02 0.  1.
    10030    2    1    2    0    0  0.00000000000E+00  0.00000000000E+00 -0.16357511245E+04  0.41534906470E+04  0.38178269753E+04 0.  0.
        5    1    3    3  502    0  0.11663820505E+04  0.51397312057E+03  0.72808649981E+03  0.14679058204E+04  0.46999998093E+01 0. -1.
       -5    1    3    3    0  502 -0.11663820505E+04 -0.51397312057E+03 -0.23638376243E+04  0.26855848265E+04  0.46999998093E+01 0.  1.
</event>
<event>
 5   0  0.7551495E-07  0.3764118E+04  0.7818609E-02  0.8053899E-01
        2   -1    0    0  501    0  0.00000000000E+00  0.00000000000E+00  0.29752044977E+04  0.29752044977E+04  0.25500000920E-02 0.  1.
       -2   -1    0    0    0  501  0.00000000000E+00  0.00000000000E+00 -0.11905552640E+04  0.11905552640E+04  0.25500000920E-02 0. -1.
    10030    2    1    2    0    0  0.00000000000E+00  0.00000000000E+00  0.17846492337E+04  0.41657597618E+04  0.37641176264E+04 0.  0.
        1    1    3    3  502    0 -0.12706767617E+04  0.26011020485E+03  0.24016127881E+04  0.27294726112E+04  0.50400001928E-02 0.  1.
       -1    1    3    3    0  502  0.12706767617E+04 -0.26011020485E+03 -0.61696355442E+03  0.14362871506E+04  0.50400001928E-02 0. -1.
</event>
<event>
 5   0  0.2907071E-07  0.3446100E+04  0.7818609E-02  0.8126684E-01
       -1   -1    0    0    0  501  0.00000000000E+00  0.00000000000E+00  0.13999757524E+04  0.13999757525E+04  0.50400001928E-02 0. -1.
        1   -1    0    0  501    0  0.00000000000E+00  0.00000000000E+00 -0.21206800631E+04  0.21206800631E+04  0.50400001928E-02 0.  1.
    10030    2    1    2    0    0  0.00000000000E+00  0.00000000000E+00 -0.72070431062E+03  0.35206558155E+04  0.34460996312E+04 0.  0.
        2    1    3    3  502    0  0.46341643561E+03 -0.13266424248E+04  0.65829819622E+03  0.15518026392E+04  0.25500000920E-02 0. -1.
       -2    1    3    3    0  502 -0.46341643561E+03  0.13266424248E+04 -0.13790025068E+04  0.19688531763E+04  0.25500000920E-02 0.  1.
</event>
<event>
 5   0  0.8038352E-07  0.3759696E+04  0.7818609E-02  0.8054860E-01
        2   -1    0    0  501    0  0.00000000000E+00  0.00000000000E+00  0.21848415580E+04  0.21848415580E+04  0.25500000920E-02 0.  1.
       -2   -1    0    0    0  501  0.00000000000E+00  0.00000000000E+00 -0.16174299164E+04  0.16174299164E+04  0.25500000920E-02 0. -1.
    10030    2    1    2    0    0  0.00000000000E+00  0.00000000000E+00  0.56741164163E+03  0.38022714745E+04  0.37596957848E+04 0.  0.
        2    1    3    3  502    0 -0.16191360473E+04  0.91349454892E+00  0.12496267437E+04  0.20452797786E+04  0.25500000920E-02 0.  1.
       -2    1    3    3    0  502  0.16191360473E+04 -0.91349454892E+00 -0.68221510204E+03  0.17569916959E+04  0.25500000920E-02 0. -1.
</event>
<event>
 5   0  0.7551495E-07  0.3516061E+04  0.7818609E-02  0.8109994E-01
        2   -1    0    0  501    0  0.00000000000E+00  0.00000000000E+00  0.21664149122E+04  0.21664149122E+04  0.25500000920E-02 0.  1.
       -2   -1    0    0    0  501  0.00000000000E+00  0.00000000000E+00 -0.14266293081E+04  0.14266293081E+04  0.25500000920E-02 0. -1.
    10030    2    1    2    0    0  0.00000000000E+00  0.00000000000E+00  0.73978560408E+03  0.35930442203E+04  0.35160608683E+04 0.  0.
        1    1    3    3  502    0  0.19715889660E+03  0.38939750968E+03  0.21101675850E+04  0.21548339351E+04  0.50400001928E-02 0.  1.
       -1    1    3    3    0  502 -0.19715889660E+03 -0.38939750968E+03 -0.13703819809E+04  0.14382102853E+04  0.50400001928E-02 0. -1.
</event>
<event>
 5   0  0.2907071E-07  0.3020029E+04  0.7818609E-02  0.8238034E-01
       -1   -1    0    0    0  501  0.00000000000E+00  0.00000000000E+00  0.93700712198E+03  0.93700712200E+03  0.50400001928E-02 0.  1.
        1   -1    0    0  501    0  0.00000000000E+00  0.00000000000E+00 -0.24334334742E+04  0.24334334742E+04  0.50400001928E-02 0. -1.
    10030    2    1    2    0    0  0.00000000000E+00  0.00000000000E+00 -0.14964263522E+04  0.33704405962E+04  0.30200294675E+04 0.  0.
        2    1    3    3  502    0 -0.46598145459E+03 -0.13962630820E+04 -0.11241264595E+04  0.18521203004E+04  0.25500000920E-02 0.  1.
       -2    1    3    3    0  502  0.46598145459E+03  0.13962630820E+04 -0.37229989266E+03  0.15183202957E+04  0.25500000920E-02 0. -1.
</event>
<event>
 5   0  0.2529875E-07  0.3777560E+04  0.7818609E-02  0.8050988E-01
       -1   -1    0    0    0  501  0.00000000000E+00  0.00000000000E+00  0.15741156527E+04  0.15741156527E+04  0.50400001928E-02 0. -1.
        1   -1    0    0  501    0  0.00000000000E+00  0.00000000000E+00 -0.22663450846E+04  0.22663450846E+04  0.50400001928E-02 0.  1.
    10030    2    1    2    0    0  0.00000000000E+00  0.00000000000E+00 -0.69222943189E+03  0.38404607373E+04  0.37775596737E+04 0.  0.
        4    1    3    3  502    0 -0.74173998708E+03  0.10656541485E+04  0.10484738932E+04  0.16688607163E+04  0.12699999809E+01 0. -1.
       -4    1    3    3    0  502  0.74173998708E+03 -0.10656541485E+04 -0.17407033251E+04  0.21716000211E+04  0.12699999809E+01 0.  1.
</event>
<event>
 5   0  0.7638805E-07  0.3832598E+04  0.7818609E-02  0.8039196E-01
       -2   -1    0    0    0  501  0.00000000000E+00  0.00000000000E+00  0.15823379858E+04  0.15823379858E+04  0.25500000920E-02 0. -1.
        2   -1    0    0  501    0  0.00000000000E+00  0.00000000000E+00 -0.23207437790E+04  0.23207437790E+04  0.25500000920E-02 0.  1.
    10030    2    1    2    0    0  0.00000000000E+00  0.00000000000E+00 -0.73840579325E+03  0.39030817648E+04  0.38325975718E+04 0.  0.
        5    1    3    3  502    0 -0.18918623837E+04  0.26832301512E+03 -0.22148909788E+03  0.19235955993E+04  0.46999998093E+01 0.  1.
       -5    1    3    3    0  502  0.18918623837E+04 -0.26832301512E+03 -0.51691669537E+03  0.19794861655E+04  0.46999998093E+01 0. -1.
</event>
<event>
 5   0  0.2529875E-07  0.3844677E+04  0.7818609E-02  0.8036635E-01
       -1   -1    0    0    0  501  0.00000000000E+00  0.00000000000E+00  0.12253981875E+04  0.12253981876E+04  0.50400001928E-02 0.  1.
        1   -1    0    0  501    0  0.00000000000E+00  0.00000000000E+00 -0.30156602028E+04  0.30156602028E+04  0.50400001928E-02 0. -1.
    10030    2    1    2    0    0  0.00000000000E+00  0.00000000000E+00 -0.17902620152E+04  0.42410583904E+04  0.38446766037E+04 0.  0.
        5    1    3    3  502    0  0.11298634116E+04 -0.68600381416E+03  0.64453971258E+03  0.14705937893E+04  0.46999998093E+01 0.  1.
       -5    1    3    3    0  502 -0.11298634116E+04  0.68600381416E+03 -0.24348017278E+04  0.27704646011E+04  0.46999998093E+01 0. -1.
</event>
<event>
 5   0  0.2529875E-07  0.3537292E+04  0.7818609E-02  0.8105009E-01
        1   -1    0    0  501    0  0.00000000000E+00  0.00000000000E+00  0.14165528390E+04  0.14165528390E+04  0.50400001928E-02 0. -1.
       -1   -1    0    0    0  501  0.00000000000E+00  0.00000000000E+00 -0.22082537620E+04  0.22082537620E+04  0.50400001928E-02 0.  1.
    10030    2    1    2    0    0  0.00000000000E+00  0.00000000000E+00 -0.79170092299E+03  0.36248066010E+04  0.35372916961E+04 0.  0.
        3    1    3    3  502    0  0.16624350913E+03  0.19646888070E+03 -0.21889624921E+04  0.22040403189E+04  0.10100000352E+00 0.  1.
       -3    1    3    3    0  502 -0.16624350913E+03 -0.19646888070E+03  0.13972615691E+04  0.14207662820E+04  0.10100000352E+00 0. -1.
</event>
<event>
 5   0  0.8421677E-07  0.3957147E+04  0.7818609E-02  0.8013248E-01
       -2   -1    0    0    0  501  0.00000000000E+00  0.00000000000E+00  0.13390802407E+04  0.13390802407E+04  0.25500000920E-02 0. -1.
        2   -1    0    0  501    0  0.00000000000E+00  0.00000000000E+00 -0.29234634617E+04  0.29234634617E+04  0.25500000920E-02 0.  1.
    10030    2    1    2    0    0  0.00000000000E+00  0.00000000000E+00 -0.15843832210E+04  0.42625437024E+04  0.39571465254E+04 0.  0.
        3    1    3    3  502    0  0.16214404590E+04  0.11127023702E+04 -0.10271454731E+04  0.22186039664E+04  0.10100000352E+00 0.  1.
       -3    1    3    3    0  502 -0.16214404590E+04 -0.11127023702E+04 -0.55723774799E+03  0.20439397360E+04  0.10100000352E+00 0. -1.
</event>
<event>
 5   0  0.7638805E-07  0.2733248E+04  0.7818609E-02  0.8324297E-01
        2   -1    0    0  501    0  0.00000000000E+00  0.00000000000E+00  0.21906751083E+04  0.21906751083E+04  0.25500000920E-02 0.  1.
       -2   -1    0    0    0  501  0.00000000000E+00  0.00000000000E+00 -0.85255041940E+03  0.85255041941E+03  0.25500000920E-02 0. -1.
    10030    2    1    2    0    0  0.00000000000E+00  0.00000000000E+00  0.13381246889E+04  0.30432255277E+04  0.27332478720E+04 0.  0.
        5    1    3    3  502    0 -0.32315775150E+03  0.75897756808E+03 -0.54407488881E+03  0.98818897779E+03  0.46999998093E+01 0. -1.
       -5    1    3    3    0  502  0.32315775150E+03 -0.75897756808E+03  0.18821995777E+04  0.20550365500E+04  0.46999998093E+01 0.  1.
</event>
<event>
 5   0  0.2529875E-07  0.3810235E+04  0.7818609E-02  0.8043962E-01
        1   -1    0    0  501    0  0.00000000000E+00  0.00000000000E+00  0.25971959265E+04  0.25971959265E+04  0.50400001928E-02 0.  1.
       -1   -1    0    0    0  501  0.00000000000E+00  0.00000000000E+00 -0.13974579237E+04  0.13974579237E+04  0.50400001928E-02 0. -1.
    10030    2    1    2    0    0  0.00000000000E+00  0.00000000000E+00  0.11997380029E+04  0.39946538502E+04  0.38102346526E+04 0.  0.
        5    1    3    3  502    0 -0.11021762326E+03 -0.69537456351E+03  0.24557923476E+04  0.25547273538E+04  0.46999998093E+01 0.  1.
       -5    1    3    3    0  502  0.11021762326E+03  0.69537456351E+03 -0.12560543447E+04  0.14399264964E+04  0.46999998093E+01 0. -1.
</event>
<event>
 5   0  0.2907071E-07  0.2639941E+04  0.7818609E-02  0.8354759E-01
        1   -1    0    0  501    0  0.00000000000E+00  0.00000000000E+00  0.11029713372E+04  0.11029713372E+04  0.50400001928E-02 0.  1.
       -1   -1    0    0    0  501  0.00000000000E+00  0.00000000000E+00 -0.15796624371E+04  0.15796624371E+04  0.50400001928E-02 0. -1.
    10030    2    1    2    0    0  0.00000000000E+00  0.00000000000E+00 -0.47669109984E+03  0.26826337743E+04  0.26399412043E+04 0.  0.
        2    1    3    3  502    0  0.10853803342E+04  0.43339382119E+03  0.38512508885E+03  0.12305291578E+04  0.25500000920E-02 0.  1.
       -2    1    3    3    0  502 -0.10853803342E+04 -0.43339382119E+03 -0.86181618869E+03  0.14521046165E+04  0.25500000920E-02 0. -1.
</event>
<event>
 5   0  0.7649458E-07  0.3781443E+04  0.7818609E-02  0.8050149E-01
       -2   -1    0    0    0  501  0.00000000000E+00  0.00000000000E+00  0.24992487040E+04  0.24992487040E+04  0.25500000920E-02 0.  1.
        2   -1    0    0  501    0  0.00000000000E+00  0.00000000000E+00 -0.14303610904E+04  0.14303610904E+04  0.25500000920E-02 0. -1.
    10030    2    1    2    0    0  0.00000000000E+00  0.00000000000E+00  0.10688876136E+04  0.39296097944E+04  0.37814431644E+04 0.  0.
        4    1    3    3  502    0 -0.41673428860E+03 -0.17295074503E+04 -0.13092767349E+03  0.17838181400E+04  0.12699999809E+01 0.  1.
       -4    1    3    3    0  502  0.41673428860E+03  0.17295074503E+04  0.11998152871E+04  0.21457916544E+04  0.12699999809E+01 0. -1.
</event>
<event>
 5   0  0.7638805E-07  0.2381089E+04  0.7818609E-02  0.8446617E-01
       -2   -1    0    0    0  501  0.00000000000E+00  0.00000000000E+00  0.52130472137E+03  0.52130472138E+03  0.25500000920E-02 0.  1.
        2   -1    0    0  501    0  0.00000000000E+00  0.00000000000E+00 -0.27189409764E+04  0.27189409764E+04  0.25500000920E-02 0. -1.
    10030    2    1    2    0    0  0.00000000000E+00  0.00000000000E+00 -0.21976362551E+04  0.32402456978E+04  0.23810894718E+04 0.  0.
        5    1    3    3  502    0 -0.14079442339E+03 -0.39316745104E+03  0.41834653859E+03  0.59113418998E+03  0.46999998093E+01 0.  1.
       -5    1    3    3    0  502  0.14079442339E+03  0.39316745104E+03 -0.26159827936E+04  0.26491115078E+04  0.46999998093E+01 0. -1.
</event>
<event>
 5   0  0.2529875E-07  0.3791686E+04  0.7818609E-02  0.8047941E-01
       -1   -1    0    0    0  501  0.00000000000E+00  0.00000000000E+00  0.13772431215E+04  0.13772431215E+04  0.50400001928E-02 0.  1.
        1   -1    0    0  501    0  0.00000000000E+00  0.00000000000E+00 -0.26097210746E+04  0.26097210746E+04  0.50400001928E-02 0. -1.
    10030    2    1    2    0    0  0.00000000000E+00  0.00000000000E+00 -0.12324779530E+04  0.39869641961E+04  0.37916858515E+04 0.  0.
        1    1    3    3  502    0 -0.40432954155E+03 -0.10094544683E+04  0.10167197335E+04  0.14886906053E+04  0.50400001928E-02 0.  1.
       -1    1    3    3    0  502  0.40432954155E+03  0.10094544683E+04 -0.22491976865E+04  0.24982735909E+04  0.50400001928E-02 0. -1.
</event>
<event>
 5   0  0.8038352E-07  0.3865370E+04  0.7818609E-02  0.8032270E-01
       -2   -1    0    0    0  501  0.00000000000E+00  0.00000000000E+00  0.24529299375E+04  0.24529299375E+04  0.25500000920E-02 0.  1.
        2   -1    0    0  501    0  0.00000000000E+00  0.00000000000E+00 -0.15227796430E+04  0.15227796430E+04  0.25500000920E-02 0. -1.
    10030    2    1    2    0    0  0.00000000000E+00  0.00000000000E+00  0.93015029452E+03  0.39757095806E+04  0.38653702408E+04 0.  0.
        2    1    3    3  502    0 -0.82485456307E+03 -0.46124305047E+03  0.21990644233E+04  0.23935359909E+04  0.25500000920E-02 0.  1.
       -2    1    3    3    0  502  0.82485456307E+03  0.46124305047E+03 -0.12689141287E+04  0.15821735897E+04  0.25500000920E-02 0. -1.
</event>
<event>
 5   0  0.2907071E-07  0.3682711E+04  0.7818609E-02  0.8071804E-01
        1   -1    0    0  501    0  0.00000000000E+00  0.00000000000E+00  0.24001586381E+04  0.24001586381E+04  0.50400001928E-02 0.  1.
       -1   -1    0    0    0  501  0.00000000000E+00  0.00000000000E+00 -0.14126523173E+04  0.14126523173E+04  0.50400001928E-02 0. -1.
    10030    2    1    2    0    0  0.00000000000E+00  0.00000000000E+00  0.98750632083E+03  0.38128109553E+04  0.36827107744E+04 0.  0.
        2    1    3    3  502    0 -0.15670404208E+03 -0.17949273092E+04  0.10050666302E+03  0.18045558433E+04  0.25500000920E-02 0. -1.
       -2    1    3    3    0  502  0.15670404208E+03  0.17949273092E+04  0.88699965781E+03  0.20082551121E+04  0.25500000920E-02 0.  1.
</event>
<event>
 5   0  0.7551495E-07  0.3690195E+04  0.7818609E-02  0.8070138E-01
       -2   -1    0    0    0  501  0.00000000000E+00  0.00000000000E+00  0.12333948010E+04  0.12333948010E+04  0.25500000920E-02 0.  1.
        2   -1    0    0  501    0  0.00000000000E+00  0.00000000000E+00 -0.27601739576E+04  0.27601739576E+04  0.25500000920E-02 0. -1.
    10030    2    1    2    0    0  0.00000000000E+00  0.00000000000E+00 -0.15267791566E+04  0.39935687586E+04  0.36901946881E+04 0.  0.
        1    1    3    3  502    0  0.84538635918E+03 -0.12381199363E+04 -0.19273400008E+04  0.24417736487E+04  0.50400001928E-02 0. -1.
       -1    1    3    3    0  502 -0.84538635918E+03  0.12381199363E+04  0.40056084419E+03  0.15517951098E+04  0.50400001928E-02 0.  1.
</event>
<event>
 5   0  0.2529875E-07  0.3710432E+04  0.7818609E-02  0.8065654E-01
        1   -1    0    0  501    0  0.00000000000E+00  0.00000000000E+00  0.26568896588E+04  0.26568896588E+04  0.50400001928E-02 0.  1.
       -1   -1    0    0    0  501  0.00000000000E+00  0.00000000000E+00 -0.12954343687E+04  0.12954343687E+04  0.50400001928E-02 0. -1.
    10030    2    1    2    0    0  0.00000000000E+00  0.00000000000E+00  0.13614552901E+04  0.39523240275E+04  0.37104318766E+04 0.  0.
        3    1    3    3  502    0  0.32521091987E+03  0.54378630906E+03  0.25380642553E+04  0.26159579252E+04  0.10100000352E+00 0.  1.
       -3    1    3    3    0  502 -0.32521091987E+03 -0.54378630906E+03 -0.11766089651E+04  0.13363661023E+04  0.10100000352E+00 0. -1.
</event>
<event>
 5   0  0.2529875E-07  0.3787145E+04  0.7818609E-02  0.8048919E-01
       -1   -1    0    0    0  501  0.00000000000E+00  0.00000000000E+00  0.16445325674E+04  0.16445325674E+04  0.50400001928E-02 0. -1.
        1   -1    0    0  501    0  0.00000000000E+00  0.00000000000E+00 -0.21803254582E+04  0.21803254582E+04  0.50400001928E-02 0.  1.
    10030    2    1    2    0    0  0.00000000000E+00  0.00000000000E+00 -0.53579289072E+03  0.38248580256E+04  0.37871446888E+04 0.  0.
        3    1    3    3  502    0 -0.76664345291E+03 -0.15112765064E+04 -0.11212468327E+04  0.20319678474E+04  0.10100000352E+00 0.  1.
       -3    1    3    3    0  502  0.76664345291E+03  0.15112765064E+04  0.58545394202E+03  0.17928901782E+04  0.10100000352E+00 0. -1.
</event>
<event>
 5   0  0.7649458E-07  0.2823229E+04  0.7818609E-02  0.8296093E-01
       -2   -1    0    0    0  501  0.00000000000E+00  0.00000000000E+00  0.73164092311E+03  0.73164092311E+03  0.25500000920E-02 0. -1.
        2   -1    0    0  501    0  0.00000000000E+00  0.00000000000E+00 -0.27235429867E+04  0.27235429867E+04  0.25500000920E-02 0.  1.
    10030    2    1    2    0    0  0.00000000000E+00  0.00000000000E+00 -0.19919020636E+04  0.34551839099E+04  0.28232290059E+04 0.  0.
        4    1    3    3  502    0 -0.44964972418E+03  0.31272997099E+03 -0.25882003784E+04  0.26455184220E+04  0.12699999809E+01 0.  1.
       -4    1    3    3    0  502  0.44964972418E+03 -0.31272997099E+03  0.59629831477E+03  0.80966548791E+03  0.12699999809E+01 0. -1.
</event>
<event>
 5   0  0.7551495E-07  0.2915588E+04  0.7818609E-02  0.8268255E-01
        2   -1    0    0  501    0  0.00000000000E+00  0.00000000000E+00  0.13389304394E+04  0.13389304394E+04  0.25500000920E-02 0.  1.
       -2   -1    0    0    0  501  0.00000000000E+00  0.00000000000E+00 -0.15872100589E+04  0.15872100589E+04  0.25500000920E-02 0. -1.
    10030    2    1    2    0    0  0.00000000000E+00  0.00000000000E+00 -0.24827961955E+03  0.29261404983E+04  0.29155883533E+04 0.  0.
        1    1    3    3  502    0 -0.17258839159E+03 -0.82642964777E+03 -0.13168816698E+04  0.15642730093E+04  0.50400001928E-02 0. -1.
       -1    1    3    3    0  502  0.17258839159E+03  0.82642964777E+03  0.10686020502E+04  0.13618674889E+04  0.50400001928E-02 0.  1.
</event>
<event>
 5   0  0.7638805E-07  0.3366248E+04  0.7818609E-02  0.8146240E-01
        2   -1    0    0  501    0  0.00000000000E+00  0.00000000000E+00  0.24055717193E+04  0.24055717193E+04  0.25500000920E-02 0.  1.
       -2   -1    0    0    0  501  0.00000000000E+00  0.00000000000E+00 -0.11776438962E+04  0.11776438962E+04  0.25500000920E-02 0. -1.
    10030    2    1    2    0    0  0.00000000000E+00  0.00000000000E+00  0.12279278231E+04  0.35832156155E+04  0.33662482689E+04 0.  0.
        5    1    3    3  502    0  0.24238129624E+03  0.49170550180E+03 -0.10799435191E+04  0.12111247201E+04  0.46999998093E+01 0. -1.
       -5    1    3    3    0  502 -0.24238129624E+03 -0.49170550180E+03  0.23078713422E+04  0.23720908953E+04  0.46999998093E+01 0.  1.
</event>
<event>
 5   0  0.2529875E-07  0.3671480E+04  0.7818609E-02  0.8074312E-01
        1   -1    0    0  501    0  0.00000000000E+00  0.00000000000E+00  0.13490211292E+04  0.13490211292E+04  0.50400001928E-02 0. -1.
       -1   -1    0    0    0  501  0.00000000000E+00  0.00000000000E+00 -0.24980645687E+04  0.24980645687E+04  0.50400001928E-02 0.  1.
    10030    2    1    2    0    0  0.00000000000E+00  0.00000000000E+00 -0.11490434395E+04  0.38470856979E+04  0.36714802929E+04 0.  0.
        4    1    3    3  502    0 -0.11457631464E+04 -0.10752812405E+04 -0.15690976679E+04  0.22206017289E+04  0.12699999809E+01 0.  1.
       -4    1    3    3    0  502  0.11457631464E+04  0.10752812405E+04  0.42005422846E+03  0.16264839690E+04  0.12699999809E+01 0. -1.
</event>
<event>
 5   0  0.2529875E-07  0.3547413E+04  0.7818609E-02  0.8102645E-01
        1   -1    0    0  501    0  0.00000000000E+00  0.00000000000E+00  0.17648200188E+04  0.17648200189E+04  0.50400001928E-02 0. -1.
       -1   -1    0    0    0  501  0.00000000000E+00  0.00000000000E+00 -0.17826377784E+04  0.17826377785E+04  0.50400001928E-02 0.  1.
    10030    2    1    2    0    0  0.00000000000E+00  0.00000000000E+00 -0.17817759600E+02  0.35474577973E+04  0.35474130505E+04 0.  0.
        5    1    3    3  502    0 -0.19750825560E+03 -0.68289857489E+03  0.16161201635E+04  0.17655668912E+04  0.46999998093E+01 0. -1.
       -5    1    3    3    0  502  0.19750825560E+03  0.68289857489E+03 -0.16339379231E+04  0.17818909061E+04  0.46999998093E+01 0.  1.
</event>
<event>
 5   0  0.8038352E-07  0.2985289E+04  0.7818609E-02  0.8247944E-01
        2   -1    0    0  501    0  0.00000000000E+00  0.00000000000E+00  0.26803493458E+04  0.26803493458E+04  0.25500000920E-02 0.  1.
       -2   -1    0    0    0  501  0.00000000000E+00  0.00000000000E+00 -0.83123046421E+03  0.83123046421E+03  0.25500000920E-02 0. -1.
    10030    2    1    2    0    0  0.00000000000E+00  0.00000000000E+00  0.18491188816E+04  0.35115798100E+04  0.29852892864E+04 0.  0.
        2    1    3    3  502    0 -0.75755675626E+01 -0.15916748469E+03  0.26703155839E+04  0.26750657926E+04  0.25500000920E-02 0.  1.
       -2    1    3    3    0  502  0.75755675626E+01  0.15916748469E+03 -0.82119670229E+03  0.83651401738E+03  0.25500000920E-02 0. -1.
</event>
<event>
 5   0  0.2529875E-07  0.3878559E+04  0.7818609E-02  0.8029503E-01
       -1   -1    0    0    0  501  0.00000000000E+00  0.00000000000E+00  0.14134245948E+04  0.14134245948E+04  0.50400001928E-02 0. -1.
        1   -1    0    0  501    0  0.00000000000E+00  0.00000000000E+00 -0.26607751989E+04  0.26607751989E+04  0.50400001928E-02 0.  1.
    10030    2    1    2    0    0  0.00000000000E+00  0.00000000000E+00 -0.12473506041E+04  0.40741997938E+04  0.38785590662E+04 0.  0.
        4    1    3    3  502    0 -0.83570119104E+03  0.13721553649E+04  0.51720132114E+03  0.16878109034E+04  0.12699999809E+01 0. -1.
       -4    1    3    3    0  502  0.83570119104E+03 -0.13721553649E+04 -0.17645519252E+04  0.23863888903E+04  0.12699999809E+01 0.  1.
</event>
<event>
 5   0  0.7638805E-07  0.3619833E+04  0.7818609E-02  0.8085964E-01
       -2   -1    0    0    0  501  0.00000000000E+00  0.00000000000E+00  0.17474642281E+04  0.17474642281E+04  0.25500000920E-02 0.  1.
        2   -1    0    0  501    0  0.00000000000E+00  0.00000000000E+00 -0.18746008984E+04  0.18746008984E+04  0.25500000920E-02 0. -1.
    10030    2    1    2    0    0  0.00000000000E+00  0.00000000000E+00 -0.12713667033E+03  0.36220651265E+04  0.36198331519E+04 0.  0.
        5    1    3    3  502    0  0.12621453749E+04 -0.89936578455E+02 -0.13584591493E+04  0.18564840118E+04  0.46999998093E+01 0. -1.
       -5    1    3    3    0  502 -0.12621453749E+04  0.89936578455E+02  0.12313224790E+04  0.17655811148E+04  0.46999998093E+01 0.  1.
</event>
<event>
 5   0  0.2529875E-07  0.3946429E+04  0.7818609E-02  0.8015442E-01
        1   -1    0    0  501    0  0.00000000000E+00  0.00000000000E+00  0.14269356041E+04  0.14269356041E+04  0.50400001928E-02 0.  1.
       -1   -1    0    0    0  501  0.00000000000E+00  0.00000000000E+00 -0.27286273930E+04  0.27286273930E+04  0.50400001928E-02 0. -1.
    10030    2    1    2    0    0  0.00000000000E+00  0.00000000000E+00 -0.13016917889E+04  0.41555629971E+04  0.39464290580E+04 0.  0.
        5    1    3    3  502    0  0.59451648767E+02  0.16606977593E+03  0.14186112303E+04  0.14295431374E+04  0.46999998093E+01 0.  1.
       -5    1    3    3    0  502 -0.59451648767E+02 -0.16606977593E+03 -0.27203030192E+04  0.27260198597E+04  0.46999998093E+01 0. -1.
</event>
<event>
 5   0  0.2529875E-07  0.3741097E+04  0.7818609E-02  0.8058915E-01
       -1   -1    0    0    0  501  0.00000000000E+00  0.00000000000E+00  0.20908706336E+04  0.20908706336E+04  0.50400001928E-02 0.  1.
        1   -1    0    0  501    0  0.00000000000E+00  0.00000000000E+00 -0.16734421249E+04  0.16734421249E+04  0.50400001928E-02 0. -1.
    10030    2    1    2    0    0  0.00000000000E+00  0.00000000000E+00  0.41742850877E+03  0.37643127585E+04  0.37410966285E+04 0.  0.
        1    1    3    3  502    0  0.11852757482E+04 -0.39928496316E+03  0.16082606329E+04  0.20373535149E+04  0.50400001928E-02 0.  1.
       -1    1    3    3    0  502 -0.11852757482E+04  0.39928496316E+03 -0.11908321242E+04  0.17269592436E+04  0.50400001928E-02 0. -1.
</event>
<event>
 5   0  0.8038352E-07  0.3762919E+04  0.7818609E-02  0.8054160E-01
       -2   -1    0    0    0  501  0.00000000000E+00  0.00000000000E+00  0.11552039797E+04  0.11552039797E+04  0.25500000920E-02 0. -1.
        2   -1    0    0  501    0  0.00000000000E+00  0.00000000000E+00 -0.30642980105E+04  0.30642980105E+04  0.25500000920E-02 0.  1.
    10030    2    1    2    0    0  0.00000000000E+00  0.00000000000E+00 -0.19090940309E+04  0.42195019902E+04  0.37629186846E+04 0.  0.
        2    1    3    3  502    0  0.97229829122E+03 -0.26506468307E+03  0.82702721304E+03  0.13036860299E+04  0.25500000920E-02 0. -1.
       -2    1    3    3    0  502 -0.97229829122E+03  0.26506468307E+03 -0.27361212439E+04  0.29158159603E+04  0.25500000920E-02 0.  1.
</event>
<event>
 5   0  0.2529875E-07  0.3766898E+04  0.7818609E-02  0.8053296E-01
       -1   -1    0    0    0  501  0.00000000000E+00  0.00000000000E+00  0.20406327294E+04  0.20406327294E+04  0.50400001928E-02 0. -1.
        1   -1    0    0  501    0  0.00000000000E+00  0.00000000000E+00 -0.17383730918E+04  0.17383730918E+04  0.50400001928E-02 0.  1.
    10030    2    1    2    0    0  0.00000000000E+00  0.00000000000E+00  0.30225963760E+03  0.37790058212E+04  0.37668984733E+04 0.  0.
        5    1    3    3  502    0  0.11913433114E+04  0.84752379062E+02 -0.13098741503E+04  0.17726461099E+04  0.46999998093E+01 0.  1.
       -5    1    3    3    0  502 -0.11913433114E+04 -0.84752379062E+02  0.16121337879E+04  0.20063597114E+04  0.46999998093E+01 0. -1.
</event>
<event>
 5   0  0.7551495E-07  0.3042330E+04  0.7818609E-02  0.8231746E-01
       -2   -1    0    0    0  501  0.00000000000E+00  0.00000000000E+00  0.94341554831E+03  0.94341554832E+03  0.25500000920E-02 0. -1.
        2   -1    0    0  501    0  0.00000000000E+00  0.00000000000E+00 -0.24527287425E+04  0.24527287425E+04  0.25500000920E-02 0.  1.
    10030    2    1    2    0    0  0.00000000000E+00  0.00000000000E+00 -0.15093131942E+04  0.33961442908E+04  0.30423296544E+04 0.  0.
        1    1    3    3  502    0  0.31749389821E+03 -0.12049306023E+04 -0.17286426302E+04  0.21309306593E+04  0.50400001928E-02 0.  1.
       -1    1    3    3    0  502 -0.31749389821E+03  0.12049306023E+04  0.21932943607E+03  0.12652136315E+04  0.50400001928E-02 0. -1.
</event>
<event>
 5   0  0.2529875E-07  0.3752457E+04  0.7818609E-02  0.8056435E-01
       -1   -1    0    0    0  501  0.00000000000E+00  0.00000000000E+00  0.13004548834E+04  0.13004548834E+04  0.50400001928E-02 0. -1.
        1   -1    0    0  501    0  0.00000000000E+00  0.00000000000E+00 -0.27069246537E+04  0.27069246537E+04  0.50400001928E-02 0.  1.
    10030    2    1    2    0    0  0.00000000000E+00  0.00000000000E+00 -0.14064697703E+04  0.40073795372E+04  0.37524570004E+04 0.  0.
        1    1    3    3  502    0  0.11777795660E+04 -0.90989880211E+03  0.51680896382E+03  0.15754910477E+04  0.50400001928E-02 0. -1.
       -1    1    3    3    0  502 -0.11777795660E+04  0.90989880211E+03 -0.19232787341E+04  0.24318884895E+04  0.50400001928E-02 0.  1.
</event>
<event>
 5   0  0.2907071E-07  0.3695648E+04  0.7818609E-02  0.8068927E-01
        1   -1    0    0  501    0  0.00000000000E+00  0.00000000000E+00  0.30126750650E+04  0.30126750650E+04  0.50400001928E-02 0. -1.
       -1   -1    0    0    0  501  0.00000000000E+00  0.00000000000E+00 -0.11333629590E+04  0.11333629590E+04  0.50400001928E-02 0.  1.
    10030    2    1    2    0    0  0.00000000000E+00  0.00000000000E+00  0.18793121061E+04  0.41460380240E+04  0.36956484281E+04 0.  0.
        2    1    3    3  502    0 -0.77547275066E+03 -0.76643367874E+03 -0.73402838754E+03  0.13143729473E+04  0.25500000920E-02 0.  1.
       -2    1    3    3    0  502  0.77547275066E+03  0.76643367874E+03  0.26133404936E+04  0.28316650767E+04  0.25500000920E-02 0. -1.
</event>
<event>
 5   0  0.7649458E-07  0.3867254E+04  0.7818609E-02  0.8031874E-01
       -2   -1    0    0    0  501  0.00000000000E+00  0.00000000000E+00  0.24507472212E+04  0.24507472212E+04  0.25500000920E-02 0.  1.
        2   -1    0    0  501    0  0.00000000000E+00  0.00000000000E+00 -0.15256216797E+04  0.15256216798E+04  0.25500000920E-02 0. -1.
    10030    2    1    2    0    0  0.00000000000E+00  0.00000000000E+00  0.92512554143E+03  0.39763689009E+04  0.38672538537E+04 0.  0.
        4    1    3    3  502    0 -0.70625032234E+03 -0.17844303614E+04  0.70573129337E+03  0.20447590332E+04  0.12699999809E+01 0.  1.
       -4    1    3    3    0  502  0.70625032234E+03  0.17844303614E+04  0.21939424806E+03  0.19316098678E+04  0.12699999809E+01 0. -1.
</event>
<event>
 5   0  0.8038352E-07  0.3801423E+04  0.7818609E-02  0.8045850E-01
       -2   -1    0    0    0  501  0.00000000000E+00  0.00000000000E+00  0.17460488357E+04  0.17460488357E+04  0.25500000920E-02 0. -1.
        2   -1    0    0  501    0  0.00000000000E+00  0.00000000000E+00 -0.20690738845E+04  0.20690738845E+04  0.25500000920E-02 0.  1.
    10030    2    1    2    0    0  0.00000000000E+00  0.00000000000E+00 -0.32302504886E+03  0.38151227202E+04  0.38014229162E+04 0.  0.
        2    1    3    3  502    0  0.31652891728E+03 -0.37712449472E+03 -0.20039637463E+04  0.20635610329E+04  0.25500000920E-02 0.  1.
       -2    1    3    3    0  502 -0.31652891728E+03  0.37712449472E+03  0.16809386974E+04  0.17515616873E+04  0.25500000920E-02 0. -1.
</event>
<event>
 5   0  0.7649458E-07  0.2607353E+04  0.7818609E-02  0.8365708E-01
        2   -1    0    0  501    0  0.00000000000E+00  0.00000000000E+00  0.24556511105E+04  0.24556511105E+04  0.25500000920E-02 0. -1.
       -2   -1    0    0    0  501  0.00000000000E+00  0.00000000000E+00 -0.69210647668E+03  0.69210647668E+03  0.25500000920E-02 0.  1.
    10030    2    1    2    0    0  0.00000000000E+00  0.00000000000E+00  0.17635446339E+04  0.31477575872E+04  0.26073527096E+04 0.  0.
        4    1    3    3  502    0 -0.10833568599E+04 -0.35647452336E+03  0.11934627816E+03  0.11467263487E+04  0.12699999809E+01 0.  1.
       -4    1    3    3    0  502  0.10833568599E+04  0.35647452336E+03  0.16441983557E+04  0.20010312385E+04  0.12699999809E+01 0. -1.
</event>
<event>
 5   0  0.2907071E-07  0.3828952E+04  0.7818609E-02  0.8039970E-01
       -1   -1    0    0    0  501  0.00000000000E+00  0.00000000000E+00  0.14460469386E+04  0.14460469386E+04  0.50400001928E-02 0.  1.
        1   -1    0    0  501    0  0.00000000000E+00  0.00000000000E+00 -0.25346465172E+04  0.25346465172E+04  0.50400001928E-02 0. -1.
    10030    2    1    2    0    0  0.00000000000E+00  0.00000000000E+00 -0.10885995786E+04  0.39806934558E+04  0.38289517294E+04 0.  0.
        2    1    3    3  502    0 -0.56016158764E+03  0.15760092491E+03 -0.24404775799E+04  0.25088941535E+04  0.25500000920E-02 0. -1.
       -2    1    3    3    0  502  0.56016158764E+03 -0.15760092491E+03  0.13518780013E+04  0.14717993022E+04  0.25500000920E-02 0.  1.
</event>
<event>
 5   0  0.7551495E-07  0.3741009E+04  0.7818609E-02  0.8058934E-01
       -2   -1    0    0    0  501  0.00000000000E+00  0.00000000000E+00  0.15026600980E+04  0.15026600980E+04  0.25500000920E-02 0. -1.
        2   -1    0    0  501    0  0.00000000000E+00  0.00000000000E+00 -0.23283952420E+04  0.23283952421E+04  0.25500000920E-02 0.  1.
    10030    2    1    2    0    0  0.00000000000E+00  0.00000000000E+00 -0.82573514404E+03  0.38310553401E+04  0.37410087531E+04 0.  0.
        1    1    3    3  502    0 -0.40425892347E+03  0.87295354147E+03 -0.20556348625E+04  0.22696052191E+04  0.50400001928E-02 0.  1.
       -1    1    3    3    0  502  0.40425892347E+03 -0.87295354147E+03  0.12298997184E+04  0.15614501209E+04  0.50400001928E-02 0. -1.
</event>
<event>
 5   0  0.2529875E-07  0.3837114E+04  0.7818609E-02  0.8038237E-01
       -1   -1    0    0    0  501  0.00000000000E+00  0.00000000000E+00  0.22769753400E+04  0.22769753400E+04  0.50400001928E-02 0. -1.
        1   -1    0    0  501    0  0.00000000000E+00  0.00000000000E+00 -0.16165570294E+04  0.16165570294E+04  0.50400001928E-02 0.  1.
    10030    2    1    2    0    0  0.00000000000E+00  0.00000000000E+00  0.66041831061E+03  0.38935323694E+04  0.38371137547E+04 0.  0.
        4    1    3    3  502    0  0.79026189537E+02 -0.13705995191E+03 -0.16099261152E+04  0.16176817605E+04  0.12699999809E+01 0.  1.
       -4    1    3    3    0  502 -0.79026189537E+02  0.13705995191E+03  0.22703444258E+04  0.22758506088E+04  0.12699999809E+01 0. -1.
</event>
<event>
 5   0  0.2907071E-07  0.3871171E+04  0.7818609E-02  0.8031052E-01
        1   -1    0    0  501    0  0.00000000000E+00  0.00000000000E+00  0.29079614547E+04  0.29079614547E+04  0.50400001928E-02 0.  1.
       -1   -1    0    0    0  501  0.00000000000E+00  0.00000000000E+00 -0.12883568813E+04  0.12883568813E+04  0.50400001928E-02 0. -1.
    10030    2    1    2    0    0  0.00000000000E+00  0.00000000000E+00  0.16196045734E+04  0.41963183360E+04  0.38711714768E+04 0.  0.
        2    1    3    3  502    0  0.11945177003E+04  0.15092032645E+04  0.10317563900E+04  0.21838242325E+04  0.25500000920E-02 0. -1.
       -2    1    3    3    0  502 -0.11945177003E+04 -0.15092032645E+04  0.58784818342E+03  0.20124941035E+04  0.25500000920E-02 0.  1.
</event>
<event>
 5   0  0.2529875E-07  0.3572765E+04  0.7818609E-02  0.8096759E-01
        1   -1    0    0  501    0  0.00000000000E+00  0.00000000000E+00  0.10105265970E+04  0.10105265970E+04  0.50400001928E-02 0.  1.
       -1   -1    0    0    0  501  0.00000000000E+00  0.00000000000E+00 -0.31579194504E+04  0.31579194504E+04  0.50400001928E-02 0. -1.
    10030    2    1    2    0    0  0.00000000000E+00  0.00000000000E+00 -0.21473928533E+04  0.41684460474E+04  0.35727645296E+04 0.  0.
        1    1    3    3  502    0 -0.60777502064E+03  0.15158731776E+04 -0.22920773905E+03  0.16491810556E+04  0.50400001928E-02 0.  1.
       -1    1    3    3    0  502  0.60777502064E+03 -0.15158731776E+04 -0.19181851143E+04  0.25192649918E+04  0.50400001928E-02 0. -1.
</event>
<event>
 5   0  0.7551495E-07  0.3763519E+04  0.7818609E-02  0.8054029E-01
        2   -1    0    0  501    0  0.00000000000E+00  0.00000000000E+00  0.17576139929E+04  0.17576139929E+04  0.25500000920E-02 0.  1.
       -2   -1    0    0    0  501  0.00000000000E+00  0.00000000000E+00 -0.20146732953E+04  0.20146732953E+04  0.25500000920E-02 0. -1.
    10030    2    1    2    0    0  0.00000000000E+00  0.00000000000E+00 -0.25705930240E+03  0.37722872882E+04  0.37635185531E+04 0.  0.
        1    1    3    3  502    0 -0.99774126524E+03  0.19356221979E+03 -0.17159063716E+04  0.19943140779E+04  0.50400001928E-02 0. -1.
       -1    1    3    3    0  502  0.99774126524E+03 -0.19356221979E+03  0.14588470692E+04  0.17779732103E+04  0.50400001928E-02 0.  1.
</event>
<event>
 5   0  0.2529875E-07  0.3411902E+04  0.7818609E-02  0.8134991E-01
       -1   -1    0    0    0  501  0.00000000000E+00  0.00000000000E+00  0.21848762046E+04  0.21848762046E+04  0.50400001928E-02 0. -1.
        1   -1    0    0  501    0  0.00000000000E+00  0.00000000000E+00 -0.13320061184E+04  0.13320061184E+04  0.50400001928E-02 0.  1.
    10030    2    1    2    0    0  0.00000000000E+00  0.00000000000E+00  0.85287008625E+03  0.35168823230E+04  0.34119017996E+04 0.  0.
        3    1    3    3  502    0  0.14174149330E+04  0.68867502578E+03 -0.24706819893E+03  0.15951116226E+04  0.10100000352E+00 0.  1.
       -3    1    3    3    0  502 -0.14174149330E+04 -0.68867502578E+03  0.10999382852E+04  0.19217707004E+04  0.10100000352E+00 0. -1.
</event>
<event>
 5   0  0.2529875E-07  0.3742409E+04  0.7818609E-02  0.8058628E-01
        1   -1    0    0  501    0  0.00000000000E+00  0.00000000000E+00  0.27142514532E+04  0.27142514532E+04  0.50400001928E-02 0.  1.
       -1   -1    0    0    0  501  0.00000000000E+00  0.00000000000E+00 -0.12900078072E+04  0.12900078072E+04  0.50400001928E-02 0. -1.
    10030    2    1    2    0    0  0.00000000000E+00  0.00000000000E+00  0.14242436461E+04  0.40042592604E+04  0.37424086176E+04 0.  0.
        5    1    3    3  502    0  0.82512638442E+03 -0.12263191394E+03  0.25042827241E+04  0.26395693188E+04  0.46999998093E+01 0.  1.
       -5    1    3    3    0  502 -0.82512638442E+03  0.12263191394E+03 -0.10800390780E+04  0.13646899416E+04  0.46999998093E+01 0. -1.
</event>
<event>
 5   0  0.2529875E-07  0.3698379E+04  0.7818609E-02  0.8068321E-01
       -1   -1    0    0    0  501  0.00000000000E+00  0.00000000000E+00  0.15086818637E+04  0.15086818637E+04  0.50400001928E-02 0. -1.
        1   -1    0    0  501    0  0.00000000000E+00  0.00000000000E+00 -0.22665489777E+04  0.22665489777E+04  0.50400001928E-02 0.  1.
    10030    2    1    2    0    0  0.00000000000E+00  0.00000000000E+00 -0.75786711404E+03  0.37752308414E+04  0.36983787453E+04 0.  0.
        3    1    3    3  502    0  0.99358014176E+03  0.14252174522E+03 -0.19642634301E+04  0.22058659930E+04  0.10100000352E+00 0.  1.
       -3    1    3    3    0  502 -0.99358014176E+03 -0.14252174522E+03  0.12063963160E+04  0.15693648484E+04  0.10100000352E+00 0. -1.
</event>
<event>
 5   0  0.8038352E-07  0.3478851E+04  0.7818609E-02  0.8118820E-01
       -2   -1    0    0    0  501  0.00000000000E+00  0.00000000000E+00  0.32281261050E+04  0.32281261050E+04  0.25500000920E-02 0.  1.
        2   -1    0    0  501    0  0.00000000000E+00  0.00000000000E+00 -0.93726231669E+03  0.93726231669E+03  0.25500000920E-02 0. -1.
    10030    2    1    2    0    0  0.00000000000E+00  0.00000000000E+00  0.22908637883E+04  0.41653884217E+04  0.34788509320E+04 0.  0.
        2    1    3    3  502    0 -0.45821626034E+03 -0.15329375216E+04  0.32830013234E+03  0.16332913284E+04  0.25500000920E-02 0. -1.
       -2    1    3    3    0  502  0.45821626034E+03  0.15329375216E+04  0.19625636560E+04  0.25320970934E+04  0.25500000920E-02 0.  1.
</event>
<event>
 5   0  0.8038352E-07  0.3785368E+04  0.7818609E-02  0.8049302E-01
        2   -1    0    0  501    0  0.00000000000E+00  0.00000000000E+00  0.16358633127E+04  0.16358633127E+04  0.25500000920E-02 0. -1.
       -2   -1    0    0    0  501  0.00000000000E+00  0.00000000000E+00 -0.21898240381E+04  0.21898240381E+04  0.25500000920E-02 0.  1.
    10030    2    1    2    0    0  0.00000000000E+00  0.00000000000E+00 -0.55396072542E+03  0.38256873507E+04  0.37853680429E+04 0.  0.
        2    1    3    3  502    0 -0.11998874903E+04  0.14562810962E+04 -0.12786840648E+03  0.18912522175E+04  0.25500000920E-02 0.  1.
       -2    1    3    3    0  502  0.11998874903E+04 -0.14562810962E+04 -0.42609231894E+03  0.19344351333E+04  0.25500000920E-02 0. -1.
</event>
<event>
 5   0  0.7649458E-07  0.2522853E+04  0.7818609E-02  0.8394889E-01
        2   -1    0    0  501    0  0.00000000000E+00  0.00000000000E+00  0.18324861188E+04  0.18324861188E+04  0.25500000920E-02 0. -1.
       -2   -1    0    0    0  501  0.00000000000E+00  0.00000000000E+00 -0.86832655503E+03  0.86832655503E+03  0.25500000920E-02 0.  1.
    10030    2    1    2    0    0  0.00000000000E+00  0.00000000000E+00  0.96415956380E+03  0.27008126739E+04  0.25228526383E+04 0.  0.
        4    1    3    3  502    0  0.36240057759E+03 -0.56330975713E+02 -0.80998937414E+03  0.88915226850E+03  0.12699999809E+01 0.  1.
       -4    1    3    3    0  502 -0.36240057759E+03  0.56330975713E+02  0.17741489379E+04  0.18116604054E+04  0.12699999809E+01 0. -1.
</event>
<event>
 5   0  0.2529875E-07  0.3896511E+04  0.7818609E-02  0.8025755E-01
        1   -1    0    0  501    0  0.00000000000E+00  0.00000000000E+00  0.20944230328E+04  0.20944230328E+04  0.50400001928E-02 0.  1.
       -1   -1    0    0    0  501  0.00000000000E+00  0.00000000000E+00 -0.18122886242E+04  0.18122886243E+04  0.50400001928E-02 0. -1.
    10030    2    1    2    0    0  0.00000000000E+00  0.00000000000E+00  0.28213440852E+03  0.39067116570E+04  0.38965107656E+04 0.  0.
        3    1    3    3  502    0  0.52013849311E+03 -0.41910458748E+03  0.19760241498E+04  0.20858725172E+04  0.10100000352E+00 0.  1.
       -3    1    3    3    0  502 -0.52013849311E+03  0.41910458748E+03 -0.16938897413E+04  0.18208391398E+04  0.10100000352E+00 0. -1.
</event>
<event>
 5   0  0.2529875E-07  0.3748438E+04  0.7818609E-02  0.8057311E-01
       -1   -1    0    0    0  501  0.00000000000E+00  0.00000000000E+00  0.16752015931E+04  0.16752015931E+04  0.50400001928E-02 0.  1.
        1   -1    0    0  501    0  0.00000000000E+00  0.00000000000E+00 -0.20968801197E+04  0.20968801197E+04  0.50400001928E-02 0. -1.
    10030    2    1    2    0    0  0.00000000000E+00  0.00000000000E+00 -0.42167852659E+03  0.37720817128E+04  0.37484380304E+04 0.  0.
        4    1    3    3  502    0 -0.63687057505E+03  0.15072314273E+04  0.70889759524E+03  0.17832240796E+04  0.12699999809E+01 0.  1.
       -4    1    3    3    0  502  0.63687057505E+03 -0.15072314273E+04 -0.11305761218E+04  0.19888576331E+04  0.12699999809E+01 0. -1.
</event>
<event>
 5   0  0.7638805E-07  0.3283856E+04  0.7818609E-02  0.8167015E-01
       -2   -1    0    0    0  501  0.00000000000E+00  0.00000000000E+00  0.15317378551E+04  0.15317378551E+04  0.25500000920E-02 0. -1.
        2   -1    0    0  501    0  0.00000000000E+00  0.00000000000E+00 -0.17600447671E+04  0.17600447671E+04  0.25500000920E-02 0.  1.
    10030    2    1    2    0    0  0.00000000000E+00  0.00000000000E+00 -0.22830691202E+03  0.32917826222E+04  0.32838557803E+04 0.  0.
        5    1    3    3  502    0 -0.62734001050E+03 -0.11169714842E+04  0.91532331790E+03  0.15744902831E+04  0.46999998093E+01 0. -1.
       -5    1    3    3    0  502  0.62734001050E+03  0.11169714842E+04 -0.11436302299E+04  0.17172923391E+04  0.46999998093E+01 0.  1.
</event>
<event>
 5   0  0.2529875E-07  0.2624288E+04  0.7818609E-02  0.8359998E-01
       -1   -1    0    0    0  501  0.00000000000E+00  0.00000000000E+00  0.30795981727E+04  0.30795981727E+04  0.50400001928E-02 0.  1.
        1   -1    0    0  501    0  0.00000000000E+00  0.00000000000E+00 -0.55907357652E+03  0.55907357655E+03  0.50400001928E-02 0. -1.
    10030    2    1    2    0    0  0.00000000000E+00  0.00000000000E+00  0.25205245962E+04  0.36386717493E+04  0.26242880671E+04 0.  0.
        5    1    3    3  502    0 -0.78364568881E+03  0.32941628407E+03 -0.12563938837E+03  0.85931542504E+03  0.46999998093E+01 0. -1.
       -5    1    3    3    0  502  0.78364568881E+03 -0.32941628407E+03  0.26461639846E+04  0.27793563242E+04  0.46999998093E+01 0.  1.
</event>
<event>
 5   0  0.2907071E-07  0.2604192E+04  0.7818609E-02  0.8366779E-01
       -1   -1    0    0    0  501  0.00000000000E+00  0.00000000000E+00  0.11773611846E+04  0.11773611846E+04  0.50400001928E-02 0. -1.
        1   -1    0    0  501    0  0.00000000000E+00  0.00000000000E+00 -0.14400458153E+04  0.14400458153E+04  0.50400001928E-02 0.  1.
    10030    2    1    2    0    0  0.00000000000E+00  0.00000000000E+00 -0.26268463065E+03  0.26174069999E+04  0.26041920413E+04 0.  0.
        2    1    3    3  502    0  0.94990788707E+03 -0.96822323611E+02  0.75844922697E+03  0.12194034550E+04  0.25500000920E-02 0. -1.
       -2    1    3    3    0  502 -0.94990788707E+03  0.96822323611E+02 -0.10211338576E+04  0.13980035449E+04  0.25500000920E-02 0.  1.
</event>
<event>
 5   0  0.8421677E-07  0.3691013E+04  0.7818609E-02  0.8069956E-01
       -2   -1    0    0    0  501  0.00000000000E+00  0.00000000000E+00  0.12518029320E+04  0.12518029320E+04  0.25500000920E-02 0. -1.
        2   -1    0    0  501    0  0.00000000000E+00  0.00000000000E+00 -0.27207910741E+04  0.27207910741E+04  0.25500000920E-02 0.  1.
    10030    2    1    2    0    0  0.00000000000E+00  0.00000000000E+00 -0.14689881421E+04  0.39725940061E+04  0.36910130013E+04 0.  0.
        3    1    3    3  502    0 -0.19193166861E+02  0.12719104392E+04  0.70458412497E+03  0.14541538235E+04  0.10100000352E+00 0. -1.
       -3    1    3    3    0  502  0.19193166861E+02 -0.12719104392E+04 -0.21735722671E+04  0.25184401826E+04  0.10100000352E+00 0.  1.
</event>
<event>
 5   0  0.2529875E-07  0.3849955E+04  0.7818609E-02  0.8035519E-01
       -1   -1    0    0    0  501  0.00000000000E+00  0.00000000000E+00  0.22536566417E+04  0.22536566417E+04  0.50400001928E-02 0. -1.
        1   -1    0    0  501    0  0.00000000000E+00  0.00000000000E+00 -0.16442336241E+04  0.16442336241E+04  0.50400001928E-02 0.  1.
    10030    2    1    2    0    0  0.00000000000E+00  0.00000000000E+00  0.60942301760E+03  0.38978902659E+04  0.38499548193E+04 0.  0.
        3    1    3    3  502    0 -0.85084418336E+03  0.86015249643E+03 -0.12111746385E+04  0.17119410494E+04  0.10100000352E+00 0.  1.
       -3    1    3    3    0  502  0.85084418336E+03 -0.86015249643E+03  0.18205976561E+04  0.21859492165E+04  0.10100000352E+00 0. -1.
</event>
<event>
 5   0  0.2529875E-07  0.3789131E+04  0.7818609E-02  0.8048491E-01
        1   -1    0    0  501    0  0.00000000000E+00  0.00000000000E+00  0.27374317803E+04  0.27374317803E+04  0.50400001928E-02 0.  1.
       -1   -1    0    0    0  501  0.00000000000E+00  0.00000000000E+00 -0.13112210940E+04  0.13112210940E+04  0.50400001928E-02 0. -1.
    10030    2    1    2    0    0  0.00000000000E+00  0.00000000000E+00  0.14262106863E+04  0.40486528744E+04  0.37891309261E+04 0.  0.
        3    1    3    3  502    0 -0.36563891122E+03 -0.17738174017E+04  0.13073039235E+04  0.22336435585E+04  0.10100000352E+00 0. -1.
       -3    1    3    3    0  502  0.36563891122E+03  0.17738174017E+04  0.11890676286E+03  0.18150093158E+04  0.10100000352E+00 0.  1.
</event>
<event>
 5   0  0.2529875E-07  0.3549543E+04  0.7818609E-02  0.8102148E-01
        1   -1    0    0  501    0  0.00000000000E+00  0.00000000000E+00  0.26838796709E+04  0.26838796709E+04  0.50400001928E-02 0. -1.
       -1   -1    0    0    0  501  0.00000000000E+00  0.00000000000E+00 -0.11736045282E+04  0.11736045282E+04  0.50400001928E-02 0.  1.
    10030    2    1    2    0    0  0.00000000000E+00  0.00000000000E+00  0.15102751427E+04  0.38574841992E+04  0.35495426945E+04 0.  0.
        3    1    3    3  502    0  0.45927817840E+03  0.18977518053E+03  0.26067281662E+04  0.26536734552E+04  0.10100000352E+00 0. -1.
       -3    1    3    3    0  502 -0.45927817840E+03 -0.18977518053E+03 -0.10964530235E+04  0.12038107439E+04  0.10100000352E+00 0.  1.
</event>
<event>
 5   0  0.7638805E-07  0.3814798E+04  0.7818609E-02  0.8042987E-01
        2   -1    0    0  501    0  0.00000000000E+00  0.00000000000E+00  0.19580156199E+04  0.19580156199E+04  0.25500000920E-02 0.  1.
       -2   -1    0    0    0  501  0.00000000000E+00  0.00000000000E+00 -0.18580906863E+04  0.18580906863E+04  0.25500000920E-02 0. -1.
    10030    2    1    2    0    0  0.00000000000E+00  0.00000000000E+00  0.99924933532E+02  0.38161063062E+04  0.38147978122E+04 0.  0.
        5    1    3    3  502    0 -0.55726854480E+02  0.18156502772E+04 -0.53200773008E+03  0.18928142345E+04  0.46999998093E+01 0. -1.
       -5    1    3    3    0  502  0.55726854480E+02 -0.18156502772E+04  0.63193266362E+03  0.19232920717E+04  0.46999998093E+01 0.  1.
</event>
<event>
 5   0  0.2529875E-07  0.3758397E+04  0.7818609E-02  0.8055142E-01
        1   -1    0    0  501    0  0.00000000000E+00  0.00000000000E+00  0.20595148814E+04  0.20595148814E+04  0.50400001928E-02 0.  1.
       -1   -1    0    0    0  501  0.00000000000E+00  0.00000000000E+00 -0.17146688878E+04  0.17146688878E+04  0.50400001928E-02 0. -1.
    10030    2    1    2    0    0  0.00000000000E+00  0.00000000000E+00  0.34484599362E+03  0.37741837692E+04  0.37583965150E+04 0.  0.
        4    1    3    3  502    0 -0.10163840704E+04  0.38366879383E+03  0.17122086172E+04  0.20277816164E+04  0.12699999809E+01 0.  1.
       -4    1    3    3    0  502  0.10163840704E+04 -0.38366879383E+03 -0.13673626236E+04  0.17464021528E+04  0.12699999809E+01 0. -1.
</event>
<event>
 5   0  0.2529875E-07  0.3677259E+04  0.7818609E-02  0.8073020E-01
        1   -1    0    0  501    0  0.00000000000E+00  0.00000000000E+00  0.24688136675E+04  0.24688136675E+04  0.50400001928E-02 0. -1.
       -1   -1    0    0    0  501  0.00000000000E+00  0.00000000000E+00 -0.13693051291E+04  0.13693051292E+04  0.50400001928E-02 0.  1.
    10030    2    1    2    0    0  0.00000000000E+00  0.00000000000E+00  0.10995085383E+04  0.38381187966E+04  0.36772594240E+04 0.  0.
        4    1    3    3  502    0  0.59884643880E+03  0.45818458293E+03  0.23000134949E+04  0.24204573656E+04  0.12699999809E+01 0. -1.
       -4    1    3    3    0  502 -0.59884643880E+03 -0.45818458293E+03 -0.12005049566E+04  0.14176614310E+04  0.12699999809E+01 0.  1.
</event>
<event>
 5   0  0.8421677E-07  0.3853509E+04  0.7818609E-02  0.8034768E-01
       -2   -1    0    0    0  501  0.00000000000E+00  0.00000000000E+00  0.21963755560E+04  0.21963755560E+04  0.25500000920E-02 0.  1.
        2   -1    0    0  501    0  0.00000000000E+00  0.00000000000E+00 -0.16902316932E+04  0.16902316932E+04  0.25500000920E-02 0. -1.
    10030    2    1    2    0    0  0.00000000000E+00  0.00000000000E+00  0.50614386278E+03  0.38866072492E+04  0.38535093486E+04 0.  0.
        3    1    3    3  502    0  0.72471864749E+03 -0.13215550695E+04 -0.95751166331E+03  0.17856521261E+04  0.10100000352E+00 0. -1.
       -3    1    3    3    0  502 -0.72471864749E+03  0.13215550695E+04  0.14636555261E+04  0.21009551231E+04  0.10100000352E+00 0.  1.
</event>
<event>
 5   0  0.7649458E-07  0.3826881E+04  0.7818609E-02  0.8040411E-01
       -2   -1    0    0    0  501  0.00000000000E+00  0.00000000000E+00  0.12972562304E+04  0.12972562304E+04  0.25500000920E-02 0.  1.
        2   -1    0    0  501    0  0.00000000000E+00  0.00000000000E+00 -0.28223056880E+04  0.28223056880E+04  0.25500000920E-02 0. -1.
    10030    2    1    2    0    0  0.00000000000E+00  0.00000000000E+00 -0.15250494576E+04  0.41195619184E+04  0.38268805249E+04 0.  0.
        4    1    3    3  502    0 -0.17290714588E+04 -0.57258644878E+03 -0.13142008299E+03  0.18261479136E+04  0.12699999809E+01 0.  1.
       -4    1    3    3    0  502  0.17290714588E+04  0.57258644878E+03 -0.13936293746E+04  0.22934140049E+04  0.12699999809E+01 0. -1.
</event>
<event>
 5   0  0.7649458E-07  0.3866916E+04  0.7818609E-02  0.8031945E-01
        2   -1    0    0  501    0  0.00000000000E+00  0.00000000000E+00  0.19788373390E+04  0.19788373390E+04  0.25500000920E-02 0. -1.
       -2   -1    0    0    0  501  0.00000000000E+00  0.00000000000E+00 -0.18891195015E+04  0.18891195015E+04  0.25500000920E-02 0.  1.
    10030    2    1    2    0    0  0.00000000000E+00  0.00000000000E+00  0.89717837426E+02  0.38679568405E+04  0.38669161912E+04 0.  0.
        4    1    3    3  502    0 -0.53861397176E+03  0.31146181150E+03 -0.17862470478E+04  0.18915056435E+04  0.12699999809E+01 0.  1.
       -4    1    3    3    0  502  0.53861397176E+03 -0.31146181150E+03  0.18759648853E+04  0.19764511970E+04  0.12699999809E+01 0. -1.
</event>
<event>
 5   0  0.2529875E-07  0.3806362E+04  0.7818609E-02  0.8044791E-01
       -1   -1    0    0    0  501  0.00000000000E+00  0.00000000000E+00  0.20089329429E+04  0.20089329429E+04  0.50400001928E-02 0. -1.
        1   -1    0    0  501    0  0.00000000000E+00  0.00000000000E+00 -0.18029959271E+04  0.18029959271E+04  0.50400001928E-02 0.  1.
    10030    2    1    2    0    0  0.00000000000E+00  0.00000000000E+00  0.20593701576E+03  0.38119288700E+04  0.38063619974E+04 0.  0.
        5    1    3    3  502    0  0.21911363128E+03 -0.17017732391E+04 -0.72166329103E+03  0.18614142302E+04  0.46999998093E+01 0.  1.
       -5    1    3    3    0  502 -0.21911363128E+03  0.17017732391E+04  0.92760030678E+03  0.19505146398E+04  0.46999998093E+01 0. -1.
</event>
<event>
 5   0  0.2529875E-07  0.3664123E+04  0.7818609E-02  0.8075959E-01
       -1   -1    0    0    0  501  0.00000000000E+00  0.00000000000E+00  0.15206607487E+04  0.15206607487E+04  0.50400001928E-02 0. -1.
        1   -1    0    0  501    0  0.00000000000E+00  0.00000000000E+00 -0.22072311275E+04  0.22072311275E+04  0.50400001928E-02 0.  1.
    10030    2    1    2    0    0  0.00000000000E+00  0.00000000000E+00 -0.68657037878E+03  0.37278918763E+04  0.36641232179E+04 0.  0.
        3    1    3    3  502    0  0.52042586787E+03 -0.32577562401E+03 -0.20994418219E+04  0.21873794401E+04  0.10100000352E+00 0.  1.
       -3    1    3    3    0  502 -0.52042586787E+03  0.32577562401E+03  0.14128714431E+04  0.15405124362E+04  0.10100000352E+00 0. -1.
</event>
<event>
 5   0  0.7649458E-07  0.2466909E+04  0.7818609E-02  0.8414870E-01
        2   -1    0    0  501    0  0.00000000000E+00  0.00000000000E+00  0.20646119193E+04  0.20646119193E+04  0.25500000920E-02 0.  1.
       -2   -1    0    0    0  501  0.00000000000E+00  0.00000000000E+00 -0.73689875029E+03  0.73689875029E+03  0.25500000920E-02 0. -1.
    10030    2    1    2    0    0  0.00000000000E+00  0.00000000000E+00  0.13277131690E+04  0.28015106696E+04  0.24669089510E+04 0.  0.
        4    1    3    3  502    0 -0.76640409869E+03 -0.47887329879E+03  0.16171913717E+04  0.18525669824E+04  0.12699999809E+01 0.  1.
       -4    1    3    3    0  502  0.76640409869E+03  0.47887329879E+03 -0.28947820264E+03  0.94894368721E+03  0.12699999809E+01 0. -1.
</event>
<event>
 5   0  0.7638805E-07  0.3543184E+04  0.7818609E-02  0.8103631E-01
        2   -1    0    0  501    0  0.00000000000E+00  0.00000000000E+00  0.25713165347E+04  0.25713165347E+04  0.25500000920E-02 0.  1.
       -2   -1    0    0    0  501  0.00000000000E+00  0.00000000000E+00 -0.12205958087E+04  0.12205958087E+04  0.25500000920E-02 0. -1.
    10030    2    1    2    0    0  0.00000000000E+00  0.00000000000E+00  0.13507207260E+04  0.37919123435E+04  0.35431839835E+04 0.  0.
        5    1    3    3  502    0  0.12688892995E+04 -0.12297935490E+04  0.53980424499E+03  0.18476695972E+04  0.46999998093E+01 0. -1.
       -5    1    3    3    0  502 -0.12688892995E+04  0.12297935490E+04  0.81091648097E+03  0.19442427463E+04  0.46999998093E+01 0.  1.
</event>
<event>
 5   0  0.2529875E-07  0.3839482E+04  0.7818609E-02  0.8037735E-01
       -1   -1    0    0    0  501  0.00000000000E+00  0.00000000000E+00  0.16020425339E+04  0.16020425339E+04  0.50400001928E-02 0.  1.
        1   -1    0    0  501    0  0.00000000000E+00  0.00000000000E+00 -0.23004419426E+04  0.23004419426E+04  0.50400001928E-02 0. -1.
    10030    2    1    2    0    0  0.00000000000E+00  0.00000000000E+00 -0.69839940866E+03  0.39024844765E+04  0.38394821728E+04 0.  0.
        5    1    3    3  502    0 -0.35576987923E+03  0.16397837843E+04 -0.12971997471E+04  0.21208989462E+04  0.46999998093E+01 0.  1.
       -5    1    3    3    0  502  0.35576987923E+03 -0.16397837843E+04  0.59880033840E+03  0.17815855303E+04  0.46999998093E+01 0. -1.
</event>
<event>
 5   0  0.2529875E-07  0.3844509E+04  0.7818609E-02  0.8036670E-01
        1   -1    0    0  501    0  0.00000000000E+00  0.00000000000E+00  0.13363504760E+04  0.13363504760E+04  0.50400001928E-02 0. -1.
       -1   -1    0    0    0  501  0.00000000000E+00  0.00000000000E+00 -0.27650399078E+04  0.27650399078E+04  0.50400001928E-02 0.  1.
    10030    2    1    2    0    0  0.00000000000E+00  0.00000000000E+00 -0.14286894318E+04  0.41013903838E+04  0.38445090178E+04 0.  0.
        3    1    3    3  502    0  0.71082138539E+03 -0.13103527430E+04  0.58032157913E+03  0.15997076291E+04  0.10100000352E+00 0. -1.
       -3    1    3    3    0  502 -0.71082138539E+03  0.13103527430E+04 -0.20090110110E+04  0.25016827548E+04  0.10100000352E+00 0.  1.
</event>
<event>
 5   0  0.8038352E-07  0.2450091E+04  0.7818609E-02  0.8420985E-01
        2   -1    0    0  501    0  0.00000000000E+00  0.00000000000E+00  0.92855583756E+03  0.92855583757E+03  0.25500000920E-02 0.  1.
       -2   -1    0    0    0  501  0.00000000000E+00  0.00000000000E+00 -0.16162050669E+04  0.16162050669E+04  0.25500000920E-02 0. -1.
    10030    2    1    2    0    0  0.00000000000E+00  0.00000000000E+00 -0.68764922935E+03  0.25447609045E+04  0.24500911408E+04 0.  0.
        2    1    3    3  502    0 -0.11263764298E+04  0.46415213627E+03 -0.21010376088E+03  0.12362461962E+04  0.25500000920E-02 0.  1.
       -2    1    3    3    0  502  0.11263764298E+04 -0.46415213627E+03 -0.47754546847E+03  0.13085147083E+04  0.25500000920E-02 0. -1.
</event>
<event>
 5   0  0.7638805E-07  0.3841908E+04  0.7818609E-02  0.8037221E-01
       -2   -1    0    0    0  501  0.00000000000E+00  0.00000000000E+00  0.15418464589E+04  0.15418464589E+04  0.25500000920E-02 0.  1.
        2   -1    0    0  501    0  0.00000000000E+00  0.00000000000E+00 -0.23932765436E+04  0.23932765436E+04  0.25500000920E-02 0. -1.
    10030    2    1    2    0    0  0.00000000000E+00  0.00000000000E+00 -0.85143008465E+03  0.39351230025E+04  0.38419083612E+04 0.  0.
        5    1    3    3  502    0 -0.83141979604E+03 -0.26135189265E+03  0.13276834577E+04  0.15881842283E+04  0.46999998093E+01 0.  1.
       -5    1    3    3    0  502  0.83141979604E+03  0.26135189265E+03 -0.21791135424E+04  0.23469387742E+04  0.46999998093E+01 0. -1.
</event>
<event>
 5   0  0.7551495E-07  0.3797278E+04  0.7818609E-02  0.8046739E-01
       -2   -1    0    0    0  501  0.00000000000E+00  0.00000000000E+00  0.16046870760E+04  0.16046870760E+04  0.25500000920E-02 0.  1.
        2   -1    0    0  501    0  0.00000000000E+00  0.00000000000E+00 -0.22464378376E+04  0.22464378376E+04  0.25500000920E-02 0. -1.
    10030    2    1    2    0    0  0.00000000000E+00  0.00000000000E+00 -0.64175076165E+03  0.38511249136E+04  0.37972778487E+04 0.  0.
        1    1    3    3  502    0  0.85498670342E+02 -0.99905790036E+03  0.13142536981E+04  0.16530848417E+04  0.50400001928E-02 0.  1.
       -1    1    3    3    0  502 -0.85498670342E+02  0.99905790036E+03 -0.19560044598E+04  0.21980400719E+04  0.50400001928E-02 0. -1.
</event>
<event>
 5   0  0.7649458E-07  0.3798006E+04  0.7818609E-02  0.8046583E-01
       -2   -1    0    0    0  501  0.00000000000E+00  0.00000000000E+00  0.19766214982E+04  0.19766214982E+04  0.25500000920E-02 0.  1.
        2   -1    0    0  501    0  0.00000000000E+00  0.00000000000E+00 -0.18244321876E+04  0.18244321876E+04  0.25500000920E-02 0. -1.
    10030    2    1    2    0    0  0.00000000000E+00  0.00000000000E+00  0.15218931059E+03  0.38010536858E+04  0.37980057314E+04 0.  0.
        4    1    3    3  502    0 -0.76072146989E+03  0.67249279200E+03 -0.15299568995E+04  0.18362226001E+04  0.12699999809E+01 0. -1.
       -4    1    3    3    0  502  0.76072146989E+03 -0.67249279200E+03  0.16821462101E+04  0.19648310856E+04  0.12699999809E+01 0.  1.
</event>
<event>
 5   0  0.7638805E-07  0.3938401E+04  0.7818609E-02  0.8017090E-01
       -2   -1    0    0    0  501  0.00000000000E+00  0.00000000000E+00  0.26940335270E+04  0.26940335270E+04  0.25500000920E-02 0.  1.
        2   -1    0    0  501    0  0.00000000000E+00  0.00000000000E+00 -0.14393847903E+04  0.14393847903E+04  0.25500000920E-02 0. -1.
    10030    2    1    2    0    0  0.00000000000E+00  0.00000000000E+00  0.12546487367E+04  0.41334183173E+04  0.39384011393E+04 0.  0.
        5    1    3    3  502    0  0.19148620727E+04 -0.38988503641E+03  0.37235074922E+03  0.19893150252E+04  0.46999998093E+01 0. -1.
       -5    1    3    3    0  502 -0.19148620727E+04  0.38988503641E+03  0.88229798744E+03  0.21441032922E+04  0.46999998093E+01 0.  1.
</event>
<event>
 5   0  0.8421677E-07  0.3812289E+04  0.7818609E-02  0.8043523E-01
        2   -1    0    0  501    0  0.00000000000E+00  0.00000000000E+00  0.21574377744E+04  0.21574377744E+04  0.25500000920E-02 0. -1.
       -2   -1    0    0    0  501  0.00000000000E+00  0.00000000000E+00 -0.16841214845E+04  0.16841214845E+04  0.25500000920E-02 0.  1.
    10030    2    1    2    0    0  0.00000000000E+00  0.00000000000E+00  0.47331628989E+03  0.38415592589E+04  0.38122892374E+04 0.  0.
        3    1    3    3  502    0 -0.14481549031E+04  0.37877314532E+03  0.14258740425E+04  0.20673022310E+04  0.10100000352E+00 0. -1.
       -3    1    3    3    0  502  0.14481549031E+04 -0.37877314532E+03 -0.95255775264E+03  0.17742570279E+04  0.10100000352E+00 0.  1.
</event>
<event>
 5   0  0.2529875E-07  0.2541878E+04  0.7818609E-02  0.8388216E-01
        1   -1    0    0  501    0  0.00000000000E+00  0.00000000000E+00  0.15308613391E+04  0.15308613391E+04  0.50400001928E-02 0.  1.
       -1   -1    0    0    0  501  0.00000000000E+00  0.00000000000E+00 -0.10551484830E+04  0.10551484831E+04  0.50400001928E-02 0. -1.
    10030    2    1    2    0    0  0.00000000000E+00  0.00000000000E+00  0.47571285607E+03  0.25860098222E+04  0.25418780614E+04 0.  0.
        4    1    3    3  502    0 -0.10277885928E+03  0.49119736604E+03 -0.95008338588E+03  0.10744758719E+04  0.12699999809E+01 0. -1.
       -4    1    3    3    0  502  0.10277885928E+03 -0.49119736604E+03  0.14257962419E+04  0.15115339503E+04  0.12699999809E+01 0.  1.
</event>
<event>
 5   0  0.7638805E-07  0.2759780E+04  0.7818609E-02  0.8315865E-01
        2   -1    0    0  501    0  0.00000000000E+00  0.00000000000E+00  0.32116384983E+04  0.32116384983E+04  0.25500000920E-02 0. -1.
       -2   -1    0    0    0  501  0.00000000000E+00  0.00000000000E+00 -0.59287368016E+03  0.59287368016E+03  0.25500000920E-02 0.  1.
    10030    2    1    2    0    0  0.00000000000E+00  0.00000000000E+00  0.26187648181E+04  0.38045121784E+04  0.27597796548E+04 0.  0.
        5    1    3    3  502    0 -0.13371016714E+04  0.11976319038E+02  0.17790829969E+04  0.22255657060E+04  0.46999998093E+01 0. -1.
       -5    1    3    3    0  502  0.13371016714E+04 -0.11976319038E+02  0.83968182123E+03  0.15789464724E+04  0.46999998093E+01 0.  1.
</event>
<event>
 5   0  0.2529875E-07  0.3127911E+04  0.7818609E-02  0.8208119E-01
       -1   -1    0    0    0  501  0.00000000000E+00  0.00000000000E+00  0.12545799194E+04  0.12545799194E+04  0.50400001928E-02 0. -1.
        1   -1    0    0  501    0  0.00000000000E+00  0.00000000000E+00 -0.19496221772E+04  0.19496221772E+04  0.50400001928E-02 0.  1.
    10030    2    1    2    0    0  0.00000000000E+00  0.00000000000E+00 -0.69504225776E+03  0.32042020966E+04  0.31279110179E+04 0.  0.
        5    1    3    3  502    0  0.81511636490E+03  0.49585956367E+03  0.92191452506E+03  0.13267403200E+04  0.46999998093E+01 0. -1.
       -5    1    3    3    0  502 -0.81511636490E+03 -0.49585956367E+03 -0.16169567828E+04  0.18774617766E+04  0.46999998093E+01 0.  1.
</event>
<event>
 5   0  0.2529875E-07  0.3570822E+04  0.7818609E-02  0.8097208E-01
       -1   -1    0    0    0  501  0.00000000000E+00  0.00000000000E+00  0.18329226168E+04  0.18329226168E+04  0.50400001928E-02 0.  1.
        1   -1    0    0  501    0  0.00000000000E+00  0.00000000000E+00 -0.17391310762E+04  0.17391310762E+04  0.50400001928E-02 0. -1.
    10030    2    1    2    0    0  0.00000000000E+00  0.00000000000E+00  0.93791540602E+02  0.35720536930E+04  0.35708221368E+04 0.  0.
        5    1    3    3  502    0 -0.10114704894E+04 -0.12423376538E+04  0.83532697432E+03  0.18067287126E+04  0.46999998093E+01 0.  1.
       -5    1    3    3    0  502  0.10114704894E+04  0.12423376538E+04 -0.74153543372E+03  0.17653249804E+04  0.46999998093E+01 0. -1.
</event>
<event>
 5   0  0.2529875E-07  0.3297850E+04  0.7818609E-02  0.8163443E-01
       -1   -1    0    0    0  501  0.00000000000E+00  0.00000000000E+00  0.14353156913E+04  0.14353156913E+04  0.50400001928E-02 0.  1.
        1   -1    0    0  501    0  0.00000000000E+00  0.00000000000E+00 -0.18943250329E+04  0.18943250329E+04  0.50400001928E-02 0. -1.
    10030    2    1    2    0    0  0.00000000000E+00  0.00000000000E+00 -0.45900934163E+03  0.33296407242E+04  0.32978504781E+04 0.  0.
        5    1    3    3  502    0  0.58357944791E+03  0.23668743709E+03  0.13091101689E+04  0.14527138187E+04  0.46999998093E+01 0.  1.
       -5    1    3    3    0  502 -0.58357944791E+03 -0.23668743709E+03 -0.17681195105E+04  0.18769269054E+04  0.46999998093E+01 0. -1.
</event>
<event>
 5   0  0.2529875E-07  0.3807816E+04  0.7818609E-02  0.8044480E-01
       -1   -1    0    0    0  501  0.00000000000E+00  0.00000000000E+00  0.19635580381E+04  0.19635580381E+04  0.50400001928E-02 0.  1.
        1   -1    0    0  501    0  0.00000000000E+00  0.00000000000E+00 -0.18460703218E+04  0.18460703218E+04  0.50400001928E-02 0. -1.
    10030    2    1    2    0    0  0.00000000000E+00  0.00000000000E+00  0.11748771632E+03  0.38096283600E+04  0.38078162873E+04 0.  0.
        1    1    3    3  502    0  0.64003802085E+03  0.60135983615E+03 -0.16313154560E+04  0.18526932930E+04  0.50400001928E-02 0. -1.
       -1    1    3    3    0  502 -0.64003802085E+03 -0.60135983615E+03  0.17488031724E+04  0.19569350670E+04  0.50400001928E-02 0.  1.
</event>
<event>
 5   0  0.8421677E-07  0.3787032E+04  0.7818609E-02  0.8048943E-01
        2   -1    0    0  501    0  0.00000000000E+00  0.00000000000E+00  0.19552346857E+04  0.19552346857E+04  0.25500000920E-02 0. -1.
       -2   -1    0    0    0  501  0.00000000000E+00  0.00000000000E+00 -0.18337457541E+04  0.18337457541E+04  0.25500000920E-02 0.  1.
    10030    2    1    2    0    0  0.00000000000E+00  0.00000000000E+00  0.12148893163E+03  0.37889804399E+04  0.37870322435E+04 0.  0.
        3    1    3    3  502    0 -0.33594066880E+03  0.17094942888E+04 -0.68137590616E+03  0.18706950559E+04  0.10100000352E+00 0.  1.
       -3    1    3    3    0  502  0.33594066880E+03 -0.17094942888E+04  0.80286483779E+03  0.19182853840E+04  0.10100000352E+00 0. -1.
</event>
<event>
 5   0  0.7638805E-07  0.3161058E+04  0.7818609E-02  0.8199178E-01
       -2   -1    0    0    0  501  0.00000000000E+00  0.00000000000E+00  0.10293809970E+04  0.10293809970E+04  0.25500000920E-02 0. -1.
        2   -1    0    0  501    0  0.00000000000E+00  0.00000000000E+00 -0.24267703463E+04  0.24267703463E+04  0.25500000920E-02 0.  1.
    10030    2    1    2    0    0  0.00000000000E+00  0.00000000000E+00 -0.13973893492E+04  0.34561513433E+04  0.31610575943E+04 0.  0.
        5    1    3    3  502    0  0.74400276105E+03  0.12199815193E+04  0.39746949759E+02  0.14295093305E+04  0.46999998093E+01 0. -1.
       -5    1    3    3    0  502 -0.74400276105E+03 -0.12199815193E+04 -0.14371362990E+04  0.20266420128E+04  0.46999998093E+01 0.  1.
</event>
<event>
 5   0  0.2529875E-07  0.3798427E+04  0.7818609E-02  0.8046492E-01
       -1   -1    0    0    0  501  0.00000000000E+00  0.00000000000E+00  0.23342786534E+04  0.23342786534E+04  0.50400001928E-02 0. -1.
        1   -1    0    0  501    0  0.00000000000E+00  0.00000000000E+00 -0.15452364534E+04  0.15452364534E+04  0.50400001928E-02 0.  1.
    10030    2    1    2    0    0  0.00000000000E+00  0.00000000000E+00  0.78904220002E+03  0.38795151069E+04  0.37984272891E+04 0.  0.
        4    1    3    3  502    0  0.87693166384E+03  0.15497533077E+04  0.10691260313E+04  0.20769632981E+04  0.12699999809E+01 0.  1.
       -4    1    3    3    0  502 -0.87693166384E+03 -0.15497533077E+04 -0.28008383124E+03  0.18025518088E+04  0.12699999809E+01 0. -1.
</event>
<event>
 5   0  0.8038352E-07  0.3640288E+04  0.7818609E-02  0.8081325E-01
       -2   -1    0    0    0  501  0.00000000000E+00  0.00000000000E+00  0.16252595522E+04  0.16252595522E+04  0.25500000920E-02 0. -1.
        2   -1    0    0  501    0  0.00000000000E+00  0.00000000000E+00 -0.20383972569E+04  0.20383972569E+04  0.25500000920E-02 0.  1.
    10030    2    1    2    0    0  0.00000000000E+00  0.00000000000E+00 -0.41313770466E+03  0.36636568091E+04  0.36402882375E+04 0.  0.
        2    1    3    3  502    0 -0.23141968840E+03 -0.14092894808E+04 -0.13422063550E+04  0.19598902552E+04  0.25500000920E-02 0.  1.
       -2    1    3    3    0  502  0.23141968840E+03  0.14092894808E+04  0.92906865037E+03  0.17037665539E+04  0.25500000920E-02 0. -1.
</event>
<event>
 5   0  0.8038352E-07  0.3715806E+04  0.7818609E-02  0.8064468E-01
        2   -1    0    0  501    0  0.00000000000E+00  0.00000000000E+00  0.11925200443E+04  0.11925200443E+04  0.25500000920E-02 0.  1.
       -2   -1    0    0    0  501  0.00000000000E+00  0.00000000000E+00 -0.28945451370E+04  0.28945451370E+04  0.25500000920E-02 0. -1.
    10030    2    1    2    0    0  0.00000000000E+00  0.00000000000E+00 -0.17020250927E+04  0.40870651813E+04  0.37158057511E+04 0.  0.
        2    1    3    3  502    0  0.17869241731E+04  0.39200755434E+01 -0.29157945356E+03  0.18105612238E+04  0.25500000920E-02 0.  1.
       -2    1    3    3    0  502 -0.17869241731E+04 -0.39200755434E+01 -0.14104456392E+04  0.22765039575E+04  0.25500000920E-02 0. -1.
</event>
<event>
 5   0  0.2529875E-07  0.3840149E+04  0.7818609E-02  0.8037594E-01
       -1   -1    0    0    0  501  0.00000000000E+00  0.00000000000E+00  0.23243023252E+04  0.23243023252E+04  0.50400001928E-02 0.  1.
        1   -1    0    0  501    0  0.00000000000E+00  0.00000000000E+00 -0.15861472851E+04  0.15861472851E+04  0.50400001928E-02 0. -1.
    10030    2    1    2    0    0  0.00000000000E+00  0.00000000000E+00  0.73815504008E+03  0.39104496103E+04  0.38401488632E+04 0.  0.
        1    1    3    3  502    0 -0.53844607613E+03  0.74548837240E+03  0.20854633411E+04  0.22792179443E+04  0.50400001928E-02 0.  1.
       -1    1    3    3    0  502  0.53844607613E+03 -0.74548837240E+03 -0.13473083010E+04  0.16312316660E+04  0.50400001928E-02 0. -1.
</event>
<event>
 5   0  0.7638805E-07  0.3087175E+04  0.7818609E-02  0.8219266E-01
        2   -1    0    0  501    0  0.00000000000E+00  0.00000000000E+00  0.21755289453E+04  0.21755289453E+04  0.25500000920E-02 0.  1.
       -2   -1    0    0    0  501  0.00000000000E+00  0.00000000000E+00 -0.10952106979E+04  0.10952106979E+04  0.25500000920E-02 0. -1.
    10030    2    1    2    0    0  0.00000000000E+00  0.00000000000E+00  0.10803182474E+04  0.32707396433E+04  0.30871751324E+04 0.  0.
        5    1    3    3  502    0  0.14241753993E+04  0.45538876248E+03  0.94634300102E+03  0.17695314799E+04  0.46999998093E+01 0. -1.
       -5    1    3    3    0  502 -0.14241753993E+04 -0.45538876248E+03  0.13397524637E+03  0.15012081633E+04  0.46999998093E+01 0.  1.
</event>
<event>
 5   0  0.2529875E-07  0.3067740E+04  0.7818609E-02  0.8224647E-01
        1   -1    0    0  501    0  0.00000000000E+00  0.00000000000E+00  0.15415412341E+04  0.15415412342E+04  0.50400001928E-02 0. -1.
       -1   -1    0    0    0  501  0.00000000000E+00  0.00000000000E+00 -0.15262371216E+04  0.15262371216E+04  0.50400001928E-02 0.  1.
    10030    2    1    2    0    0  0.00000000000E+00  0.00000000000E+00  0.15304112579E+02  0.30677783557E+04  0.30677401820E+04 0.  0.
        3    1    3    3  502    0 -0.75539010999E+03  0.11253993173E+04 -0.71042345266E+03  0.15303069411E+04  0.10100000352E+00 0.  1.
       -3    1    3    3    0  502  0.75539010999E+03 -0.11253993173E+04  0.72572756524E+03  0.15374714146E+04  0.10100000352E+00 0. -1.
</event>
<event>
 5   0  0.7649458E-07  0.3714110E+04  0.7818609E-02  0.8064842E-01
        2   -1    0    0  501    0  0.00000000000E+00  0.00000000000E+00  0.13751575140E+04  0.13751575140E+04  0.25500000920E-02 0.  1.
       -2   -1    0    0    0  501  0.00000000000E+00  0.00000000000E+00 -0.25078238074E+04  0.25078238074E+04  0.25500000920E-02 0. -1.
    10030    2    1    2    0    0  0.00000000000E+00  0.00000000000E+00 -0.11326662934E+04  0.38829813214E+04  0.37141097197E+04 0.  0.
        4    1    3    3  502    0 -0.11417034804E+04  0.14257594858E+03  0.95762598678E+03  0.14969515295E+04  0.12699999809E+01 0.  1.
       -4    1    3    3    0  502  0.11417034804E+04 -0.14257594858E+03 -0.20902922802E+04  0.23860297919E+04  0.12699999809E+01 0. -1.
</event>
<event>
 5   0  0.7638805E-07  0.3809685E+04  0.7818609E-02  0.8044080E-01
       -2   -1    0    0    0  501  0.00000000000E+00  0.00000000000E+00  0.21622968363E+04  0.21622968363E+04  0.25500000920E-02 0.  1.
        2   -1    0    0  501    0  0.00000000000E+00  0.00000000000E+00 -0.16780419180E+04  0.16780419180E+04  0.25500000920E-02 0. -1.
    10030    2    1    2    0    0  0.00000000000E+00  0.00000000000E+00  0.48425491827E+03  0.38403387543E+04  0.38096848849E+04 0.  0.
        5    1    3    3  502    0  0.13354178789E+04 -0.12713987009E+03 -0.11211213456E+04  0.17482678912E+04  0.46999998093E+01 0. -1.
       -5    1    3    3    0  502 -0.13354178789E+04  0.12713987009E+03  0.16053762639E+04  0.20920708631E+04  0.46999998093E+01 0.  1.
</event>
<event>
 5   0  0.2529875E-07  0.3673376E+04  0.7818609E-02  0.8073888E-01
        1   -1    0    0  501    0  0.00000000000E+00  0.00000000000E+00  0.25014154698E+04  0.25014154698E+04  0.50400001928E-02 0. -1.
       -1   -1    0    0    0  501  0.00000000000E+00  0.00000000000E+00 -0.13486052643E+04  0.13486052643E+04  0.50400001928E-02 0.  1.
    10030    2    1    2    0    0  0.00000000000E+00  0.00000000000E+00  0.11528102055E+04  0.38500207341E+04  0.36733755979E+04 0.  0.
        1    1    3    3  502    0 -0.52197266883E+03  0.28051670839E+03  0.23984742877E+04  0.24705918319E+04  0.50400001928E-02 0. -1.
       -1    1    3    3    0  502  0.52197266883E+03 -0.28051670839E+03 -0.12456640822E+04  0.13794289023E+04  0.50400001928E-02 0.  1.
</event>
<event>
 5   0  0.2529875E-07  0.3649378E+04  0.7818609E-02  0.8079274E-01
        1   -1    0    0  501    0  0.00000000000E+00  0.00000000000E+00  0.23396617378E+04  0.23396617378E+04  0.50400001928E-02 0.  1.
       -1   -1    0    0    0  501  0.00000000000E+00  0.00000000000E+00 -0.14230643646E+04  0.14230643646E+04  0.50400001928E-02 0. -1.
    10030    2    1    2    0    0  0.00000000000E+00  0.00000000000E+00  0.91659737316E+03  0.37627261024E+04  0.36493776151E+04 0.  0.
        1    1    3    3  502    0  0.42048321796E+03 -0.48000662983E+03  0.22208609728E+04  0.23107219569E+04  0.50400001928E-02 0.  1.
       -1    1    3    3    0  502 -0.42048321796E+03  0.48000662983E+03 -0.13042635997E+04  0.14520041456E+04  0.50400001928E-02 0. -1.
</event>
<event>
 5   0  0.2529875E-07  0.3351998E+04  0.7818609E-02  0.8149789E-01
       -1   -1    0    0    0  501  0.00000000000E+00  0.00000000000E+00  0.13154659529E+04  0.13154659529E+04  0.50400001928E-02 0.  1.
        1   -1    0    0  501    0  0.00000000000E+00  0.00000000000E+00 -0.21353436100E+04  0.21353436100E+04  0.50400001928E-02 0. -1.
    10030    2    1    2    0    0  0.00000000000E+00  0.00000000000E+00 -0.81987765708E+03  0.34508095629E+04  0.33519975040E+04 0.  0.
        3    1    3    3  502    0 -0.13960687104E+04  0.91273482753E+03 -0.57872025101E+03  0.17655055505E+04  0.10100000352E+00 0. -1.
       -3    1    3    3    0  502  0.13960687104E+04 -0.91273482753E+03 -0.24115740608E+03  0.16853040124E+04  0.10100000352E+00 0.  1.
</event>
<event>
 5   0  0.7649458E-07  0.3744816E+04  0.7818609E-02  0.8058102E-01
        2   -1    0    0  501    0  0.00000000000E+00  0.00000000000E+00  0.18029539484E+04  0.18029539484E+04  0.25500000920E-02 0. -1.
       -2   -1    0    0    0  501  0.00000000000E+00  0.00000000000E+00 -0.19445373618E+04  0.19445373618E+04  0.25500000920E-02 0.  1.
    10030    2    1    2    0    0  0.00000000000E+00  0.00000000000E+00 -0.14158341334E+03  0.37474913102E+04  0.37448157842E+04 0.  0.
        4    1    3    3  502    0  0.17473799350E+04 -0.33952844058E+02  0.60156648922E+03  0.18483433898E+04  0.12699999809E+01 0.  1.
       -4    1    3    3    0  502 -0.17473799350E+04  0.33952844058E+02 -0.74314990257E+03  0.18991479204E+04  0.12699999809E+01 0. -1.
</event>
<event>
 5   0  0.7551495E-07  0.3855630E+04  0.7818609E-02  0.8034321E-01
        2   -1    0    0  501    0  0.00000000000E+00  0.00000000000E+00  0.17364239022E+04  0.17364239022E+04  0.25500000920E-02 0. -1.
       -2   -1    0    0    0  501  0.00000000000E+00  0.00000000000E+00 -0.21403014379E+04  0.21403014379E+04  0.25500000920E-02 0.  1.
    10030    2    1    2    0    0  0.00000000000E+00  0.00000000000E+00 -0.40387753569E+03  0.38767253401E+04  0.38556299483E+04 0.  0.
        1    1    3    3  502    0 -0.63210056098E+03 -0.14982378097E+04 -0.12430764878E+04  0.20468284755E+04  0.50400001928E-02 0. -1.
       -1    1    3    3    0  502  0.63210056098E+03  0.14982378097E+04  0.83919895213E+03  0.18298968645E+04  0.50400001928E-02 0.  1.
</event>
<event>
 5   0  0.7638805E-07  0.3898995E+04  0.7818609E-02  0.8025238E-01
        2   -1    0    0  501    0  0.00000000000E+00  0.00000000000E+00  0.13762053328E+04  0.13762053328E+04  0.25500000920E-02 0. -1.
       -2   -1    0    0    0  501  0.00000000000E+00  0.00000000000E+00 -0.27616091236E+04  0.27616091237E+04  0.25500000920E-02 0.  1.
    10030    2    1    2    0    0  0.00000000000E+00  0.00000000000E+00 -0.13854037909E+04  0.41378144565E+04  0.38989953594E+04 0.  0.
        5    1    3    3  502    0  0.81401033250E+03  0.17521083969E+04 -0.41591568362E+03  0.19762349562E+04  0.46999998093E+01 0.  1.
       -5    1    3    3    0  502 -0.81401033250E+03 -0.17521083969E+04 -0.96948810723E+03  0.21615795003E+04  0.46999998093E+01 0. -1.
</event>
<event>
 5   0  0.2907071E-07  0.3674116E+04  0.7818609E-02  0.8073722E-01
        1   -1    0    0  501    0  0.00000000000E+00  0.00000000000E+00  0.28185185371E+04  0.28185185371E+04  0.50400001928E-02 0.  1.
       -1   -1    0    0    0  501  0.00000000000E+00  0.00000000000E+00 -0.11973600165E+04  0.11973600165E+04  0.50400001928E-02 0. -1.
    10030    2    1    2    0    0  0.00000000000E+00  0.00000000000E+00  0.16211585206E+04  0.40158785536E+04  0.36741156226E+04 0.  0.
        2    1    3    3  502    0 -0.69999011007E+03 -0.16908000591E+04  0.98679078205E+03  0.20790736017E+04  0.25500000920E-02 0. -1.
       -2    1    3    3    0  502  0.69999011007E+03  0.16908000591E+04  0.63436773858E+03  0.19368049519E+04  0.25500000920E-02 0.  1.
</event>
<event>
 5   0  0.2529875E-07  0.3565251E+04  0.7818609E-02  0.8098498E-01
       -3   -1    0    0    0  501  0.00000000000E+00  0.00000000000E+00  0.14840124962E+04  0.14840124997E+04  0.10100000352E+00 0. -1.
        3   -1    0    0  501    0  0.00000000000E+00  0.00000000000E+00 -0.21413253922E+04  0.21413253946E+04  0.10100000352E+00 0.  1.
    10030    2    1    2    0    0  0.00000000000E+00  0.00000000000E+00 -0.65731289601E+03  0.36253378943E+04  0.35652509876E+04 0.  0.
        1    1    3    3  502    0 -0.16728400127E+04  0.57444048587E+03 -0.10269963390E+03  0.17717005375E+04  0.50400001928E-02 0.  1.
       -1    1    3    3    0  502  0.16728400127E+04 -0.57444048587E+03 -0.55461326211E+03  0.18536373567E+04  0.50400001928E-02 0. -1.
</event>
<event>
 5   0  0.7649458E-07  0.3803168E+04  0.7818609E-02  0.8045475E-01
        2   -1    0    0  501    0  0.00000000000E+00  0.00000000000E+00  0.20765704025E+04  0.20765704025E+04  0.25500000920E-02 0. -1.
       -2   -1    0    0    0  501  0.00000000000E+00  0.00000000000E+00 -0.17413430995E+04  0.17413430995E+04  0.25500000920E-02 0.  1.
    10030    2    1    2    0    0  0.00000000000E+00  0.00000000000E+00  0.33522730304E+03  0.38179135020E+04  0.38031679117E+04 0.  0.
        4    1    3    3  502    0  0.10021452250E+04  0.36145060702E+03  0.17488646871E+04  0.20477965963E+04  0.12699999809E+01 0. -1.
       -4    1    3    3    0  502 -0.10021452250E+04 -0.36145060702E+03 -0.14136373841E+04  0.17701169057E+04  0.12699999809E+01 0.  1.
</event>
<event>
 5   0  0.2529875E-07  0.3809355E+04  0.7818609E-02  0.8044150E-01
       -1   -1    0    0    0  501  0.00000000000E+00  0.00000000000E+00  0.12852172349E+04  0.12852172349E+04  0.50400001928E-02 0.  1.
        1   -1    0    0  501    0  0.00000000000E+00  0.00000000000E+00 -0.28227108860E+04  0.28227108860E+04  0.50400001928E-02 0. -1.
    10030    2    1    2    0    0  0.00000000000E+00  0.00000000000E+00 -0.15374936510E+04  0.41079281209E+04  0.38093551579E+04 0.  0.
        3    1    3    3  502    0  0.13963703059E+04 -0.11731389425E+04 -0.13610622239E+04  0.22756527409E+04  0.10100000352E+00 0. -1.
       -3    1    3    3    0  502 -0.13963703059E+04  0.11731389425E+04 -0.17643142712E+03  0.18322753800E+04  0.10100000352E+00 0.  1.
</event>
<event>
 5   0  0.7649458E-07  0.3794175E+04  0.7818609E-02  0.8047406E-01
        2   -1    0    0  501    0  0.00000000000E+00  0.00000000000E+00  0.21900564241E+04  0.21900564241E+04  0.25500000920E-02 0. -1.
       -2   -1    0    0    0  501  0.00000000000E+00  0.00000000000E+00 -0.16433093308E+04  0.16433093308E+04  0.25500000920E-02 0.  1.
    10030    2    1    2    0    0  0.00000000000E+00  0.00000000000E+00  0.54674709325E+03  0.38333657549E+04  0.37941745646E+04 0.  0.
        4    1    3    3  502    0  0.16255863880E+04 -0.63525993452E+03 -0.47784706083E+03  0.18095374314E+04  0.12699999809E+01 0.  1.
       -4    1    3    3    0  502 -0.16255863880E+04  0.63525993452E+03  0.10245941541E+04  0.20238283235E+04  0.12699999809E+01 0. -1.
</event>
<event>
 5   0  0.2529875E-07  0.3827446E+04  0.7818609E-02  0.8040291E-01
        1   -1    0    0  501    0  0.00000000000E+00  0.00000000000E+00  0.26794089282E+04  0.26794089283E+04  0.50400001928E-02 0. -1.
       -1   -1    0    0    0  501  0.00000000000E+00  0.00000000000E+00 -0.13668443290E+04  0.13668443290E+04  0.50400001928E-02 0.  1.
    10030    2    1    2    0    0  0.00000000000E+00  0.00000000000E+00  0.13125645993E+04  0.40462532572E+04  0.38274455704E+04 0.  0.
        3    1    3    3  502    0  0.12704433667E+04 -0.14307377999E+04  0.61819653361E+03  0.20107719822E+04  0.10100000352E+00 0.  1.
       -3    1    3    3    0  502 -0.12704433667E+04  0.14307377999E+04  0.69436806567E+03  0.20354812750E+04  0.10100000352E+00 0. -1.
</event>
<event>
 5   0  0.2529875E-07  0.2514096E+04  0.7818609E-02  0.8397981E-01
       -1   -1    0    0    0  501  0.00000000000E+00  0.00000000000E+00  0.13502047065E+04  0.13502047065E+04  0.50400001928E-02 0.  1.
        1   -1    0    0  501    0  0.00000000000E+00  0.00000000000E+00 -0.11703183086E+04  0.11703183086E+04  0.50400001928E-02 0. -1.
    10030    2    1    2    0    0  0.00000000000E+00  0.00000000000E+00  0.17988639791E+03  0.25205230151E+04  0.25140956930E+04 0.  0.
        3    1    3    3  502    0 -0.11638539807E+04 -0.44112655191E+03  0.26651999999E+03  0.12728635606E+04  0.10100000352E+00 0.  1.
       -3    1    3    3    0  502  0.11638539807E+04  0.44112655191E+03 -0.86633602084E+02  0.12476594545E+04  0.10100000352E+00 0. -1.
</event>
<event>
 5   0  0.7649458E-07  0.3811308E+04  0.7818609E-02  0.8043733E-01
        2   -1    0    0  501    0  0.00000000000E+00  0.00000000000E+00  0.13499630862E+04  0.13499630862E+04  0.25500000920E-02 0. -1.
       -2   -1    0    0    0  501  0.00000000000E+00  0.00000000000E+00 -0.26900861599E+04  0.26900861599E+04  0.25500000920E-02 0.  1.
    10030    2    1    2    0    0  0.00000000000E+00  0.00000000000E+00 -0.13401230737E+04  0.40400492461E+04  0.38113079197E+04 0.  0.
        4    1    3    3  502    0 -0.17078633152E+04  0.72861072621E+03 -0.21555703620E+03  0.18692611221E+04  0.12699999809E+01 0. -1.
       -4    1    3    3    0  502  0.17078633152E+04 -0.72861072621E+03 -0.11245660375E+04  0.21707881240E+04  0.12699999809E+01 0.  1.
</event>
<event>
 5   0  0.7551495E-07  0.3886417E+04  0.7818609E-02  0.8027860E-01
        2   -1    0    0  501    0  0.00000000000E+00  0.00000000000E+00  0.13674986316E+04  0.13674986316E+04  0.25500000920E-02 0.  1.
       -2   -1    0    0    0  501  0.00000000000E+00  0.00000000000E+00 -0.27612898083E+04  0.27612898083E+04  0.25500000920E-02 0. -1.
    10030    2    1    2    0    0  0.00000000000E+00  0.00000000000E+00 -0.13937911766E+04  0.41287884399E+04  0.38864173910E+04 0.  0.
        1    1    3    3  502    0  0.18854805438E+04 -0.43927733313E+02 -0.11941606465E+04  0.22322603290E+04  0.50400001928E-02 0. -1.
       -1    1    3    3    0  502 -0.18854805438E+04  0.43927733313E+02 -0.19963053008E+03  0.18965281109E+04  0.50400001928E-02 0.  1.
</event>
<event>
 5   0  0.8038352E-07  0.3467811E+04  0.7818609E-02  0.8121461E-01
       -2   -1    0    0    0  501  0.00000000000E+00  0.00000000000E+00  0.96158200382E+03  0.96158200382E+03  0.25500000920E-02 0. -1.
        2   -1    0    0  501    0  0.00000000000E+00  0.00000000000E+00 -0.31265438069E+04  0.31265438069E+04  0.25500000920E-02 0.  1.
    10030    2    1    2    0    0  0.00000000000E+00  0.00000000000E+00 -0.21649618031E+04  0.40881258107E+04  0.34678109861E+04 0.  0.
        2    1    3    3  502    0 -0.50436833181E+03  0.11448820054E+04  0.33280416534E+03  0.12945658859E+04  0.25500000920E-02 0. -1.
       -2    1    3    3    0  502  0.50436833181E+03 -0.11448820054E+04 -0.24977659684E+04  0.27935599248E+04  0.25500000920E-02 0.  1.
</event>
<event>
 5   0  0.7649458E-07  0.3575667E+04  0.7818609E-02  0.8096088E-01
       -2   -1    0    0    0  501  0.00000000000E+00  0.00000000000E+00  0.14261130528E+04  0.14261130528E+04  0.25500000920E-02 0.  1.
        2   -1    0    0  501    0  0.00000000000E+00  0.00000000000E+00 -0.22413014426E+04  0.22413014426E+04  0.25500000920E-02 0. -1.
    10030    2    1    2    0    0  0.00000000000E+00  0.00000000000E+00 -0.81518838974E+03  0.36674144954E+04  0.35756673462E+04 0.  0.
        4    1    3    3  502    0  0.55994129096E+03 -0.30625948688E+03  0.13052923064E+04  0.14529689400E+04  0.12699999809E+01 0.  1.
       -4    1    3    3    0  502 -0.55994129096E+03  0.30625948688E+03 -0.21204806961E+04  0.22144455554E+04  0.12699999809E+01 0. -1.
</event>
<event>
 5   0  0.2529875E-07  0.3521898E+04  0.7818609E-02  0.8108620E-01
        1   -1    0    0  501    0  0.00000000000E+00  0.00000000000E+00  0.20007019860E+04  0.20007019860E+04  0.50400001928E-02 0.  1.
       -1   -1    0    0    0  501  0.00000000000E+00  0.00000000000E+00 -0.15499268362E+04  0.15499268362E+04  0.50400001928E-02 0. -1.
    10030    2    1    2    0    0  0.00000000000E+00  0.00000000000E+00  0.45077514980E+03  0.35506288223E+04  0.35218981811E+04 0.  0.
        1    1    3    3  502    0  0.10423912609E+04 -0.10240420244E+04  0.12161045721E+04  0.19010923015E+04  0.50400001928E-02 0.  1.
       -1    1    3    3    0  502 -0.10423912609E+04  0.10240420244E+04 -0.76532942232E+03  0.16495365207E+04  0.50400001928E-02 0. -1.
</event>
<event>
 5   0  0.2529875E-07  0.2536950E+04  0.7818609E-02  0.8389939E-01
        1   -1    0    0  501    0  0.00000000000E+00  0.00000000000E+00  0.17385250529E+04  0.17385250529E+04  0.50400001928E-02 0.  1.
       -1   -1    0    0    0  501  0.00000000000E+00  0.00000000000E+00 -0.92551366561E+03  0.92551366563E+03  0.50400001928E-02 0. -1.
    10030    2    1    2    0    0  0.00000000000E+00  0.00000000000E+00  0.81301138727E+03  0.26640387185E+04  0.25369498966E+04 0.  0.
        3    1    3    3  502    0 -0.67201917094E+03 -0.10660327774E+04  0.55865369973E+03  0.13784518907E+04  0.10100000352E+00 0.  1.
       -3    1    3    3    0  502  0.67201917094E+03  0.10660327774E+04  0.25435768754E+03  0.12855868278E+04  0.10100000352E+00 0. -1.
</event>
<event>
 5   0  0.8038352E-07  0.3089437E+04  0.7818609E-02  0.8218643E-01
       -2   -1    0    0    0  501  0.00000000000E+00  0.00000000000E+00  0.30434426065E+04  0.30434426065E+04  0.25500000920E-02 0.  1.
        2   -1    0    0  501    0  0.00000000000E+00  0.00000000000E+00 -0.78403157769E+03  0.78403157770E+03  0.25500000920E-02 0. -1.
    10030    2    1    2    0    0  0.00000000000E+00  0.00000000000E+00  0.22594110288E+04  0.38274741842E+04  0.30894369121E+04 0.  0.
        2    1    3    3  502    0 -0.80838149638E+03  0.13133613991E+04  0.10205965992E+04  0.18493285881E+04  0.25500000920E-02 0. -1.
       -2    1    3    3    0  502  0.80838149638E+03 -0.13133613991E+04  0.12388144296E+04  0.19781455961E+04  0.25500000920E-02 0.  1.
</event>
<event>
 5   0  0.2907071E-07  0.3836809E+04  0.7818609E-02  0.8038302E-01
       -1   -1    0    0    0  501  0.00000000000E+00  0.00000000000E+00  0.27238166032E+04  0.27238166032E+04  0.50400001928E-02 0. -1.
        1   -1    0    0  501    0  0.00000000000E+00  0.00000000000E+00 -0.13511468331E+04  0.13511468331E+04  0.50400001928E-02 0.  1.
    10030    2    1    2    0    0  0.00000000000E+00  0.00000000000E+00  0.13726697701E+04  0.40749634363E+04  0.38368091834E+04 0.  0.
        2    1    3    3  502    0 -0.69191144056E+03  0.13094295764E+04 -0.60875114766E+03  0.16012261604E+04  0.25500000920E-02 0.  1.
       -2    1    3    3    0  502  0.69191144056E+03 -0.13094295764E+04  0.19814209178E+04  0.24737372759E+04  0.25500000920E-02 0. -1.
</event>
<event>
 5   0  0.2529875E-07  0.2809801E+04  0.7818609E-02  0.8300232E-01
       -1   -1    0    0    0  501  0.00000000000E+00  0.00000000000E+00  0.17532490058E+04  0.17532490058E+04  0.50400001928E-02 0. -1.
        1   -1    0    0  501    0  0.00000000000E+00  0.00000000000E+00 -0.11257646316E+04  0.11257646316E+04  0.50400001928E-02 0.  1.
    10030    2    1    2    0    0  0.00000000000E+00  0.00000000000E+00  0.62748437424E+03  0.28790136374E+04  0.28098012180E+04 0.  0.
        4    1    3    3  502    0 -0.81057614449E+03 -0.11238798329E+04  0.55097181430E+03  0.14912112921E+04  0.12699999809E+01 0.  1.
       -4    1    3    3    0  502  0.81057614449E+03  0.11238798329E+04  0.76512559938E+02  0.13878023453E+04  0.12699999809E+01 0. -1.
</event>
<event>
 5   0  0.2529875E-07  0.3376568E+04  0.7818609E-02  0.8143681E-01
       -1   -1    0    0    0  501  0.00000000000E+00  0.00000000000E+00  0.22643912243E+04  0.22643912243E+04  0.50400001928E-02 0. -1.
        1   -1    0    0  501    0  0.00000000000E+00  0.00000000000E+00 -0.12587502169E+04  0.12587502169E+04  0.50400001928E-02 0.  1.
    10030    2    1    2    0    0  0.00000000000E+00  0.00000000000E+00  0.10056410074E+04  0.35231414412E+04  0.33765680474E+04 0.  0.
        4    1    3    3  502    0  0.96459677264E+03 -0.10749223301E+04 -0.40942952124E+03  0.15011792349E+04  0.12699999809E+01 0.  1.
       -4    1    3    3    0  502 -0.96459677264E+03  0.10749223301E+04  0.14150705286E+04  0.20219622063E+04  0.12699999809E+01 0. -1.
</event>
<event>
 5   0  0.8038352E-07  0.3575796E+04  0.7818609E-02  0.8096059E-01
       -2   -1    0    0    0  501  0.00000000000E+00  0.00000000000E+00  0.23888727718E+04  0.23888727718E+04  0.25500000920E-02 0.  1.
        2   -1    0    0  501    0  0.00000000000E+00  0.00000000000E+00 -0.13381117186E+04  0.13381117186E+04  0.25500000920E-02 0. -1.
    10030    2    1    2    0    0  0.00000000000E+00  0.00000000000E+00  0.10507610531E+04  0.37269844904E+04  0.35757956599E+04 0.  0.
        2    1    3    3  502    0  0.12889131939E+04  0.58720721805E+03 -0.61183808413E+03  0.15428724444E+04  0.25500000920E-02 0. -1.
       -2    1    3    3    0  502 -0.12889131939E+04 -0.58720721805E+03  0.16625991373E+04  0.21841120460E+04  0.25500000920E-02 0.  1.
</event>
<event>
 5   0  0.2529875E-07  0.3776463E+04  0.7818609E-02  0.8051225E-01
       -1   -1    0    0    0  501  0.00000000000E+00  0.00000000000E+00  0.17315089121E+04  0.17315089121E+04  0.50400001928E-02 0.  1.
        1   -1    0    0  501    0  0.00000000000E+00  0.00000000000E+00 -0.20591395537E+04  0.20591395537E+04  0.50400001928E-02 0. -1.
    10030    2    1    2    0    0  0.00000000000E+00  0.00000000000E+00 -0.32763064164E+03  0.37906484658E+04  0.37764631541E+04 0.  0.
        1    1    3    3  502    0  0.17253877387E+04 -0.67749246890E+03  0.19734113303E+03  0.18641090142E+04  0.50400001928E-02 0. -1.
       -1    1    3    3    0  502 -0.17253877387E+04  0.67749246890E+03 -0.52497177467E+03  0.19265394516E+04  0.50400001928E-02 0.  1.
</event>
<event>
 5   0  0.8038352E-07  0.2427778E+04  0.7818609E-02  0.8429177E-01
       -2   -1    0    0    0  501  0.00000000000E+00  0.00000000000E+00  0.79634972294E+03  0.79634972294E+03  0.25500000920E-02 0.  1.
        2   -1    0    0  501    0  0.00000000000E+00  0.00000000000E+00 -0.18503503837E+04  0.18503503837E+04  0.25500000920E-02 0. -1.
    10030    2    1    2    0    0  0.00000000000E+00  0.00000000000E+00 -0.10540006608E+04  0.26467001067E+04  0.24277775972E+04 0.  0.
        2    1    3    3  502    0 -0.25099408960E+03  0.28968463809E+02  0.76736675763E+03  0.80789166701E+03  0.25500000920E-02 0.  1.
       -2    1    3    3    0  502  0.25099408960E+03 -0.28968463809E+02 -0.18213674184E+04  0.18388084396E+04  0.25500000920E-02 0. -1.
</event>
<event>
 5   0  0.8038352E-07  0.3673323E+04  0.7818609E-02  0.8073900E-01
        2   -1    0    0  501    0  0.00000000000E+00  0.00000000000E+00  0.28032139199E+04  0.28032139199E+04  0.25500000920E-02 0. -1.
       -2   -1    0    0    0  501  0.00000000000E+00  0.00000000000E+00 -0.12033781056E+04  0.12033781056E+04  0.25500000920E-02 0.  1.
    10030    2    1    2    0    0  0.00000000000E+00  0.00000000000E+00  0.15998358143E+04  0.40065920255E+04  0.36733234306E+04 0.  0.
        2    1    3    3  502    0 -0.95164000928E+03  0.13683453751E+04  0.16415028016E+04  0.23393416212E+04  0.25500000920E-02 0. -1.
       -2    1    3    3    0  502  0.95164000928E+03 -0.13683453751E+04 -0.41666987286E+02  0.16672504043E+04  0.25500000920E-02 0.  1.
</event>
<event>
 5   0  0.8038352E-07  0.3017108E+04  0.7818609E-02  0.8238862E-01
       -2   -1    0    0    0  501  0.00000000000E+00  0.00000000000E+00  0.12767415476E+04  0.12767415476E+04  0.25500000920E-02 0. -1.
        2   -1    0    0  501    0  0.00000000000E+00  0.00000000000E+00 -0.17824562098E+04  0.17824562098E+04  0.25500000920E-02 0.  1.
    10030    2    1    2    0    0  0.00000000000E+00  0.00000000000E+00 -0.50571466227E+03  0.30591977574E+04  0.30171084832E+04 0.  0.
        2    1    3    3  502    0  0.38924280911E+03 -0.11817232516E+04  0.61212961028E+03  0.13866082604E+04  0.25500000920E-02 0. -1.
       -2    1    3    3    0  502 -0.38924280911E+03  0.11817232516E+04 -0.11178442725E+04  0.16725894970E+04  0.25500000920E-02 0.  1.
</event>
<event>
 5   0  0.7551495E-07  0.3850202E+04  0.7818609E-02  0.8035467E-01
       -2   -1    0    0    0  501  0.00000000000E+00  0.00000000000E+00  0.19326275304E+04  0.19326275304E+04  0.25500000920E-02 0.  1.
        2   -1    0    0  501    0  0.00000000000E+00  0.00000000000E+00 -0.19176042637E+04  0.19176042637E+04  0.25500000920E-02 0. -1.
    10030    2    1    2    0    0  0.00000000000E+00  0.00000000000E+00  0.15023266704E+02  0.38502317941E+04  0.38502024842E+04 0.  0.
        1    1    3    3  502    0 -0.12243975975E+04 -0.37637766361E+03 -0.14295814788E+04  0.19195084858E+04  0.50400001928E-02 0. -1.
       -1    1    3    3    0  502  0.12243975975E+04  0.37637766361E+03  0.14446047455E+04  0.19307233083E+04  0.50400001928E-02 0.  1.
</event>
<event>
 5   0  0.2907071E-07  0.2865246E+04  0.7818609E-02  0.8283293E-01
       -1   -1    0    0    0  501  0.00000000000E+00  0.00000000000E+00  0.15795599131E+04  0.15795599131E+04  0.50400001928E-02 0. -1.
        1   -1    0    0  501    0  0.00000000000E+00  0.00000000000E+00 -0.12993548996E+04  0.12993548996E+04  0.50400001928E-02 0.  1.
    10030    2    1    2    0    0  0.00000000000E+00  0.00000000000E+00  0.28020501347E+03  0.28789148127E+04  0.28652461760E+04 0.  0.
        2    1    3    3  502    0  0.95920676441E+03 -0.65103998083E+03 -0.70562436578E+03  0.13571427409E+04  0.25500000920E-02 0.  1.
       -2    1    3    3    0  502 -0.95920676441E+03  0.65103998083E+03  0.98582937925E+03  0.15217720718E+04  0.25500000920E-02 0. -1.
</event>
<event>
 5   0  0.7649458E-07  0.3859647E+04  0.7818609E-02  0.8033475E-01
       -2   -1    0    0    0  501  0.00000000000E+00  0.00000000000E+00  0.16534144838E+04  0.16534144838E+04  0.25500000920E-02 0. -1.
        2   -1    0    0  501    0  0.00000000000E+00  0.00000000000E+00 -0.22524411436E+04  0.22524411436E+04  0.25500000920E-02 0.  1.
    10030    2    1    2    0    0  0.00000000000E+00  0.00000000000E+00 -0.59902665973E+03  0.39058556274E+04  0.38596470360E+04 0.  0.
        4    1    3    3  502    0 -0.18933669164E+03 -0.19204505233E+04 -0.28388163343E+03  0.19505304381E+04  0.12699999809E+01 0. -1.
       -4    1    3    3    0  502  0.18933669164E+03  0.19204505233E+04 -0.31514502630E+03  0.19553251893E+04  0.12699999809E+01 0.  1.
</event>
<event>
 5   0  0.7638805E-07  0.3431560E+04  0.7818609E-02  0.8130204E-01
       -2   -1    0    0    0  501  0.00000000000E+00  0.00000000000E+00  0.12546263767E+04  0.12546263767E+04  0.25500000920E-02 0.  1.
        2   -1    0    0  501    0  0.00000000000E+00  0.00000000000E+00 -0.23464357989E+04  0.23464357989E+04  0.25500000920E-02 0. -1.
    10030    2    1    2    0    0  0.00000000000E+00  0.00000000000E+00 -0.10918094222E+04  0.36010621756E+04  0.34315595548E+04 0.  0.
        5    1    3    3  502    0  0.27487531830E+03  0.16598353364E+04 -0.89908251733E+03  0.19076113985E+04  0.46999998093E+01 0.  1.
       -5    1    3    3    0  502 -0.27487531830E+03 -0.16598353364E+04 -0.19272690492E+03  0.16934507771E+04  0.46999998093E+01 0. -1.
</event>
<event>
 5   0  0.2529875E-07  0.3913510E+04  0.7818609E-02  0.8022225E-01
        1   -1    0    0  501    0  0.00000000000E+00  0.00000000000E+00  0.19730933904E+04  0.19730933905E+04  0.50400001928E-02 0.  1.
       -1   -1    0    0    0  501  0.00000000000E+00  0.00000000000E+00 -0.19405520180E+04  0.19405520180E+04  0.50400001928E-02 0. -1.
    10030    2    1    2    0    0  0.00000000000E+00  0.00000000000E+00  0.32541372492E+02  0.39136454084E+04  0.39135101178E+04 0.  0.
        5    1    3    3  502    0 -0.42590701359E+03 -0.18836115369E+04 -0.29914323626E+03  0.19542000849E+04  0.46999998093E+01 0. -1.
       -5    1    3    3    0  502  0.42590701359E+03  0.18836115369E+04  0.33168460876E+03  0.19594453235E+04  0.46999998093E+01 0.  1.
</event>
<event>
 5   0  0.7638805E-07  0.3741634E+04  0.7818609E-02  0.8058797E-01
       -2   -1    0    0    0  501  0.00000000000E+00  0.00000000000E+00  0.21922072967E+04  0.21922072967E+04  0.25500000920E-02 0. -1.
        2   -1    0    0  501    0  0.00000000000E+00  0.00000000000E+00 -0.15965447777E+04  0.15965447777E+04  0.25500000920E-02 0.  1.
    10030    2    1    2    0    0  0.00000000000E+00  0.00000000000E+00  0.59566251902E+03  0.37887520744E+04  0.37416344616E+04 0.  0.
        5    1    3    3  502    0 -0.12161642653E+04  0.10604927780E+04  0.12564494721E+04  0.20450887067E+04  0.46999998093E+01 0. -1.
       -5    1    3    3    0  502  0.12161642653E+04 -0.10604927780E+04 -0.66078695309E+03  0.17436633677E+04  0.46999998093E+01 0.  1.
</event>
<event>
 5   0  0.2529875E-07  0.3530562E+04  0.7818609E-02  0.8106585E-01
        1   -1    0    0  501    0  0.00000000000E+00  0.00000000000E+00  0.11458291918E+04  0.11458291918E+04  0.50400001928E-02 0. -1.
       -1   -1    0    0    0  501  0.00000000000E+00  0.00000000000E+00 -0.27196173749E+04  0.27196173749E+04  0.50400001928E-02 0.  1.
    10030    2    1    2    0    0  0.00000000000E+00  0.00000000000E+00 -0.15737881832E+04  0.38654465667E+04  0.35305619828E+04 0.  0.
        5    1    3    3  502    0  0.16062958201E+04 -0.72456720509E+03 -0.67200757443E+03  0.18859480816E+04  0.46999998093E+01 0. -1.
       -5    1    3    3    0  502 -0.16062958201E+04  0.72456720509E+03 -0.90178060876E+03  0.19794984851E+04  0.46999998093E+01 0.  1.
</event>
<event>
 5   0  0.7638805E-07  0.3920900E+04  0.7818609E-02  0.8020696E-01
       -2   -1    0    0    0  501  0.00000000000E+00  0.00000000000E+00  0.20876733270E+04  0.20876733270E+04  0.25500000920E-02 0.  1.
        2   -1    0    0  501    0  0.00000000000E+00  0.00000000000E+00 -0.18409793579E+04  0.18409793579E+04  0.25500000920E-02 0. -1.
    10030    2    1    2    0    0  0.00000000000E+00  0.00000000000E+00  0.24669396910E+03  0.39286526849E+04  0.39208996422E+04 0.  0.
        5    1    3    3  502    0 -0.52197056201E+03 -0.15913990668E+04 -0.89765622455E+03  0.19002139471E+04  0.46999998093E+01 0. -1.
       -5    1    3    3    0  502  0.52197056201E+03  0.15913990668E+04  0.11443501936E+04  0.20284387378E+04  0.46999998093E+01 0.  1.
</event>
<event>
 5   0  0.8038352E-07  0.3764301E+04  0.7818609E-02  0.8053860E-01
       -2   -1    0    0    0  501  0.00000000000E+00  0.00000000000E+00  0.10932408625E+04  0.10932408625E+04  0.25500000920E-02 0.  1.
        2   -1    0    0  501    0  0.00000000000E+00  0.00000000000E+00 -0.32403564270E+04  0.32403564270E+04  0.25500000920E-02 0. -1.
    10030    2    1    2    0    0  0.00000000000E+00  0.00000000000E+00 -0.21471155644E+04  0.43335972895E+04  0.37643007612E+04 0.  0.
        2    1    3    3  502    0  0.13740989646E+04 -0.10320707251E+04 -0.18989752046E+03  0.17289820746E+04  0.25500000920E-02 0.  1.
       -2    1    3    3    0  502 -0.13740989646E+04  0.10320707251E+04 -0.19572180440E+04  0.26046152149E+04  0.25500000920E-02 0. -1.
</event>
<event>
 5   0  0.2529875E-07  0.3704597E+04  0.7818609E-02  0.8066944E-01
        1   -1    0    0  501    0  0.00000000000E+00  0.00000000000E+00  0.12667035270E+04  0.12667035270E+04  0.50400001928E-02 0. -1.
       -1   -1    0    0    0  501  0.00000000000E+00  0.00000000000E+00 -0.27086133608E+04  0.27086133608E+04  0.50400001928E-02 0.  1.
    10030    2    1    2    0    0  0.00000000000E+00  0.00000000000E+00 -0.14419098338E+04  0.39753168878E+04  0.37045971967E+04 0.  0.
        1    1    3    3  502    0  0.15887233672E+04  0.84608520130E+03 -0.11900600494E+04  0.21578102388E+04  0.50400001928E-02 0.  1.
       -1    1    3    3    0  502 -0.15887233672E+04 -0.84608520130E+03 -0.25184978436E+03  0.18175066490E+04  0.50400001928E-02 0. -1.
</event>
<event>
 5   0  0.2529875E-07  0.3844454E+04  0.7818609E-02  0.8036682E-01
       -1   -1    0    0    0  501  0.00000000000E+00  0.00000000000E+00  0.16353067227E+04  0.16353067227E+04  0.50400001928E-02 0.  1.
        1   -1    0    0  501    0  0.00000000000E+00  0.00000000000E+00 -0.22594885193E+04  0.22594885193E+04  0.50400001928E-02 0. -1.
    10030    2    1    2    0    0  0.00000000000E+00  0.00000000000E+00 -0.62418179660E+03  0.38947952419E+04  0.38444540655E+04 0.  0.
        3    1    3    3  502    0 -0.16735289396E+04  0.69036654776E+03 -0.96681309898E+03  0.20523237221E+04  0.10100000352E+00 0.  1.
       -3    1    3    3    0  502  0.16735289396E+04 -0.69036654776E+03  0.34263130238E+03  0.18424715198E+04  0.10100000352E+00 0. -1.
</event>
<event>
 5   0  0.7649458E-07  0.3823042E+04  0.7818609E-02  0.8041228E-01
        2   -1    0    0  501    0  0.00000000000E+00  0.00000000000E+00  0.17409789203E+04  0.17409789203E+04  0.25500000920E-02 0.  1.
       -2   -1    0    0    0  501  0.00000000000E+00  0.00000000000E+00 -0.20987688672E+04  0.20987688672E+04  0.25500000920E-02 0. -1.
    10030    2    1    2    0    0  0.00000000000E+00  0.00000000000E+00 -0.35778994687E+03  0.38397477875E+04  0.38230419074E+04 0.  0.
        4    1    3    3  502    0 -0.18536067343E+04 -0.75243906752E+02  0.28397805089E+03  0.18767431144E+04  0.12699999809E+01 0.  1.
       -4    1    3    3    0  502  0.18536067343E+04  0.75243906752E+02 -0.64176799776E+03  0.19630046732E+04  0.12699999809E+01 0. -1.
</event>
<event>
 5   0  0.7649458E-07  0.3695728E+04  0.7818609E-02  0.8068909E-01
        2   -1    0    0  501    0  0.00000000000E+00  0.00000000000E+00  0.22967760540E+04  0.22967760540E+04  0.25500000920E-02 0. -1.
       -2   -1    0    0    0  501  0.00000000000E+00  0.00000000000E+00 -0.14866931286E+04  0.14866931286E+04  0.25500000920E-02 0.  1.
    10030    2    1    2    0    0  0.00000000000E+00  0.00000000000E+00  0.81008292539E+03  0.37834691826E+04  0.36957278999E+04 0.  0.
        4    1    3    3  502    0  0.33570001519E+03 -0.17695369187E+03 -0.14463720435E+04  0.14953263224E+04  0.12699999809E+01 0.  1.
       -4    1    3    3    0  502 -0.33570001519E+03  0.17695369187E+03  0.22564549689E+04  0.22881428602E+04  0.12699999809E+01 0. -1.
</event>
<event>
 5   0  0.7551495E-07  0.3821551E+04  0.7818609E-02  0.8041546E-01
        2   -1    0    0  501    0  0.00000000000E+00  0.00000000000E+00  0.26317489945E+04  0.26317489945E+04  0.25500000920E-02 0.  1.
       -2   -1    0    0    0  501  0.00000000000E+00  0.00000000000E+00 -0.13873139913E+04  0.13873139913E+04  0.25500000920E-02 0. -1.
    10030    2    1    2    0    0  0.00000000000E+00  0.00000000000E+00  0.12444350032E+04  0.40190629858E+04  0.38215505763E+04 0.  0.
        1    1    3    3  502    0  0.82664911905E+03  0.12207258799E+04  0.19005831241E+04  0.24053558264E+04  0.50400001928E-02 0.  1.
       -1    1    3    3    0  502 -0.82664911905E+03 -0.12207258799E+04 -0.65614812092E+03  0.16137071595E+04  0.50400001928E-02 0. -1.
</event>
<event>
 5   0  0.7638805E-07  0.3705728E+04  0.7818609E-02  0.8066694E-01
        2   -1    0    0  501    0  0.00000000000E+00  0.00000000000E+00  0.26171568078E+04  0.26171568078E+04  0.25500000920E-02 0.  1.
       -2   -1    0    0    0  501  0.00000000000E+00  0.00000000000E+00 -0.13117686048E+04  0.13117686048E+04  0.25500000920E-02 0. -1.
    10030    2    1    2    0    0  0.00000000000E+00  0.00000000000E+00  0.13053882030E+04  0.39289254125E+04  0.37057275314E+04 0.  0.
        5    1    3    3  502    0 -0.18468366856E+04  0.54908464553E+02  0.79983851888E+03  0.20133515414E+04  0.46999998093E+01 0.  1.
       -5    1    3    3    0  502  0.18468366856E+04 -0.54908464553E+02  0.50554968409E+03  0.19155738712E+04  0.46999998093E+01 0. -1.
</event>
<event>
 5   0  0.2529875E-07  0.3792443E+04  0.7818609E-02  0.8047779E-01
       -1   -1    0    0    0  501  0.00000000000E+00  0.00000000000E+00  0.11940263983E+04  0.11940263983E+04  0.50400001928E-02 0.  1.
        1   -1    0    0  501    0  0.00000000000E+00  0.00000000000E+00 -0.30113703744E+04  0.30113703744E+04  0.50400001928E-02 0. -1.
    10030    2    1    2    0    0  0.00000000000E+00  0.00000000000E+00 -0.18173439762E+04  0.42053967727E+04  0.37924428655E+04 0.  0.
        3    1    3    3  502    0 -0.13834432893E+04  0.12936977484E+04 -0.10083888431E+04  0.21457905928E+04  0.10100000352E+00 0. -1.
       -3    1    3    3    0  502  0.13834432893E+04 -0.12936977484E+04 -0.80895513307E+03  0.20596061800E+04  0.10100000352E+00 0.  1.
</event>
<event>
 5   0  0.2529875E-07  0.3775001E+04  0.7818609E-02  0.8051541E-01
        1   -1    0    0  501    0  0.00000000000E+00  0.00000000000E+00  0.23030910726E+04  0.23030910726E+04  0.50400001928E-02 0. -1.
       -1   -1    0    0    0  501  0.00000000000E+00  0.00000000000E+00 -0.15469025507E+04  0.15469025507E+04  0.50400001928E-02 0.  1.
    10030    2    1    2    0    0  0.00000000000E+00  0.00000000000E+00  0.75618852190E+03  0.38499936233E+04  0.37750006383E+04 0.  0.
        1    1    3    3  502    0  0.19615857259E+03 -0.18479541159E+04  0.41006118095E+02  0.18587883424E+04  0.50400001928E-02 0. -1.
       -1    1    3    3    0  502 -0.19615857259E+03  0.18479541159E+04  0.71518240381E+03  0.19912052809E+04  0.50400001928E-02 0.  1.
</event>
<event>
 5   0  0.8038352E-07  0.3461218E+04  0.7818609E-02  0.8123043E-01
        2   -1    0    0  501    0  0.00000000000E+00  0.00000000000E+00  0.24132063632E+04  0.24132063632E+04  0.25500000920E-02 0.  1.
       -2   -1    0    0    0  501  0.00000000000E+00  0.00000000000E+00 -0.12410902042E+04  0.12410902042E+04  0.25500000920E-02 0. -1.
    10030    2    1    2    0    0  0.00000000000E+00  0.00000000000E+00  0.11721161590E+04  0.36542965673E+04  0.34612175765E+04 0.  0.
        2    1    3    3  502    0  0.18774730454E+03  0.14191885599E+04 -0.44064001794E+03  0.14978347186E+04  0.25500000920E-02 0.  1.
       -2    1    3    3    0  502 -0.18774730454E+03 -0.14191885599E+04  0.16127561769E+04  0.21564618487E+04  0.25500000920E-02 0. -1.
</event>
<event>
 5   0  0.2529875E-07  0.3378707E+04  0.7818609E-02  0.8143152E-01
        1   -1    0    0  501    0  0.00000000000E+00  0.00000000000E+00  0.13150365992E+04  0.13150365992E+04  0.50400001928E-02 0. -1.
       -1   -1    0    0    0  501  0.00000000000E+00  0.00000000000E+00 -0.21702178069E+04  0.21702178069E+04  0.50400001928E-02 0.  1.
    10030    2    1    2    0    0  0.00000000000E+00  0.00000000000E+00 -0.85518120763E+03  0.34852544061E+04  0.33787073530E+04 0.  0.
        5    1    3    3  502    0 -0.47011222330E+03 -0.96150775388E+03 -0.17758627326E+04  0.20734544119E+04  0.46999998093E+01 0.  1.
       -5    1    3    3    0  502  0.47011222330E+03  0.96150775388E+03  0.92068152496E+03  0.14117999942E+04  0.46999998093E+01 0. -1.
</event>
<event>
 5   0  0.2529875E-07  0.3897708E+04  0.7818609E-02  0.8025506E-01
       -1   -1    0    0    0  501  0.00000000000E+00  0.00000000000E+00  0.17594699517E+04  0.17594699517E+04  0.50400001928E-02 0. -1.
        1   -1    0    0  501    0  0.00000000000E+00  0.00000000000E+00 -0.21586227030E+04  0.21586227030E+04  0.50400001928E-02 0.  1.
    10030    2    1    2    0    0  0.00000000000E+00  0.00000000000E+00 -0.39915275126E+03  0.39180926547E+04  0.38977079331E+04 0.  0.
        3    1    3    3  502    0  0.12150735842E+04 -0.12412449631E+04  0.68875282237E+03  0.18685484564E+04  0.10100000352E+00 0. -1.
       -3    1    3    3    0  502 -0.12150735842E+04  0.12412449631E+04 -0.10879055736E+04  0.20495441983E+04  0.10100000352E+00 0.  1.
</event>
<event>
 5   0  0.2907071E-07  0.3611498E+04  0.7818609E-02  0.8087863E-01
       -1   -1    0    0    0  501  0.00000000000E+00  0.00000000000E+00  0.18482326887E+04  0.18482326887E+04  0.50400001928E-02 0.  1.
        1   -1    0    0  501    0  0.00000000000E+00  0.00000000000E+00 -0.17642420649E+04  0.17642420649E+04  0.50400001928E-02 0. -1.
    10030    2    1    2    0    0  0.00000000000E+00  0.00000000000E+00  0.83990623769E+02  0.36124747536E+04  0.36114982238E+04 0.  0.
        2    1    3    3  502    0 -0.96434465191E+03  0.13544377279E+04  0.74664848975E+03  0.18226206774E+04  0.25500000920E-02 0.  1.
       -2    1    3    3    0  502  0.96434465191E+03 -0.13544377279E+04 -0.66265786598E+03  0.17898540762E+04  0.25500000920E-02 0. -1.
</event>
<event>
 5   0  0.8038352E-07  0.2513719E+04  0.7818609E-02  0.8398114E-01
       -2   -1    0    0    0  501  0.00000000000E+00  0.00000000000E+00  0.15858520441E+04  0.15858520441E+04  0.25500000920E-02 0.  1.
        2   -1    0    0  501    0  0.00000000000E+00  0.00000000000E+00 -0.99611802154E+03  0.99611802155E+03  0.25500000920E-02 0. -1.
    10030    2    1    2    0    0  0.00000000000E+00  0.00000000000E+00  0.58973402260E+03  0.25819700657E+04  0.25137189984E+04 0.  0.
        2    1    3    3  502    0 -0.47345782541E+03  0.70647493396E+03  0.12454270735E+04  0.15080973908E+04  0.25500000920E-02 0.  1.
       -2    1    3    3    0  502  0.47345782541E+03 -0.70647493396E+03 -0.65569305093E+03  0.10738726749E+04  0.25500000920E-02 0. -1.
</event>
<event>
 5   0  0.8421677E-07  0.3343526E+04  0.7818609E-02  0.8151908E-01
        2   -1    0    0  501    0  0.00000000000E+00  0.00000000000E+00  0.15952219866E+04  0.15952219867E+04  0.25500000920E-02 0. -1.
       -2   -1    0    0    0  501  0.00000000000E+00  0.00000000000E+00 -0.17519760983E+04  0.17519760983E+04  0.25500000920E-02 0.  1.
    10030    2    1    2    0    0  0.00000000000E+00  0.00000000000E+00 -0.15675411167E+03  0.33471980850E+04  0.33435255597E+04 0.  0.
        3    1    3    3  502    0  0.84827421718E+03  0.13547816374E+04 -0.56859680777E+03  0.16965567402E+04  0.10100000352E+00 0.  1.
       -3    1    3    3    0  502 -0.84827421718E+03 -0.13547816374E+04  0.41184269610E+03  0.16506413448E+04  0.10100000352E+00 0. -1.
</event>
<event>
 5   0  0.2852442E-07  0.2529766E+04  0.7818609E-02  0.8392457E-01
       -1   -1    0    0    0  501  0.00000000000E+00  0.00000000000E+00  0.91848656875E+03  0.91848656876E+03  0.50400001928E-02 0.  1.
        1   -1    0    0  501    0  0.00000000000E+00  0.00000000000E+00 -0.17419193688E+04  0.17419193688E+04  0.50400001928E-02 0. -1.
    10030    2    1    2    0    0  0.00000000000E+00  0.00000000000E+00 -0.82343280008E+03  0.26604059376E+04  0.25297664273E+04 0.  0.
        5    1    3    3  502    0 -0.50546281917E+03  0.11092153776E+03 -0.16254901040E+04  0.17058828850E+04  0.46999998093E+01 0. -1.
       -5    1    3    3    0  502  0.50546281917E+03 -0.11092153776E+03  0.80205730395E+03  0.95452305258E+03  0.46999998093E+01 0.  1.
</event>
<event>
 5   0  0.2529875E-07  0.3270238E+04  0.7818609E-02  0.8170510E-01
       -1   -1    0    0    0  501  0.00000000000E+00  0.00000000000E+00  0.15421666571E+04  0.15421666571E+04  0.50400001928E-02 0. -1.
        1   -1    0    0  501    0  0.00000000000E+00  0.00000000000E+00 -0.17336735305E+04  0.17336735305E+04  0.50400001928E-02 0.  1.
    10030    2    1    2    0    0  0.00000000000E+00  0.00000000000E+00 -0.19150687348E+03  0.32758401876E+04  0.32702376140E+04 0.  0.
        1    1    3    3  502    0  0.15546289631E+04  0.32598769651E+03 -0.48432820303E+03  0.16606363236E+04  0.50400001928E-02 0.  1.
       -1    1    3    3    0  502 -0.15546289631E+04 -0.32598769651E+03  0.29282132955E+03  0.16152038640E+04  0.50400001928E-02 0. -1.
</event>
<event>
 5   0  0.2529875E-07  0.3806801E+04  0.7818609E-02  0.8044697E-01
       -1   -1    0    0    0  501  0.00000000000E+00  0.00000000000E+00  0.14531458151E+04  0.14531458151E+04  0.50400001928E-02 0.  1.
        1   -1    0    0  501    0  0.00000000000E+00  0.00000000000E+00 -0.24931664206E+04  0.24931664206E+04  0.50400001928E-02 0. -1.
    10030    2    1    2    0    0  0.00000000000E+00  0.00000000000E+00 -0.10400206055E+04  0.39463122356E+04  0.38068014660E+04 0.  0.
        5    1    3    3  502    0 -0.64402258801E+03  0.11228049664E+03  0.13331089267E+04  0.14847806249E+04  0.46999998093E+01 0.  1.
       -5    1    3    3    0  502  0.64402258801E+03 -0.11228049664E+03 -0.23731295322E+04  0.24615316107E+04  0.46999998093E+01 0. -1.
</event>
<event>
 5   0  0.7638805E-07  0.3892757E+04  0.7818609E-02  0.8026537E-01
        2   -1    0    0  501    0  0.00000000000E+00  0.00000000000E+00  0.14856120703E+04  0.14856120703E+04  0.25500000920E-02 0. -1.
       -2   -1    0    0    0  501  0.00000000000E+00  0.00000000000E+00 -0.25500526859E+04  0.25500526859E+04  0.25500000920E-02 0.  1.
    10030    2    1    2    0    0  0.00000000000E+00  0.00000000000E+00 -0.10644406156E+04  0.40356647562E+04  0.38927568895E+04 0.  0.
        5    1    3    3  502    0  0.35973267289E+03  0.35319663145E+03  0.14167448186E+04  0.15037763888E+04  0.46999998093E+01 0. -1.
       -5    1    3    3    0  502 -0.35973267289E+03 -0.35319663145E+03 -0.24811854342E+04  0.25318883675E+04  0.46999998093E+01 0.  1.
</event>
<event>
 5   0  0.8038352E-07  0.3803289E+04  0.7818609E-02  0.8045450E-01
       -2   -1    0    0    0  501  0.00000000000E+00  0.00000000000E+00  0.23068632890E+04  0.23068632890E+04  0.25500000920E-02 0. -1.
        2   -1    0    0  501    0  0.00000000000E+00  0.00000000000E+00 -0.15676052138E+04  0.15676052138E+04  0.25500000920E-02 0.  1.
    10030    2    1    2    0    0  0.00000000000E+00  0.00000000000E+00  0.73925807523E+03  0.38744685028E+04  0.38032885346E+04 0.  0.
        2    1    3    3  502    0  0.18883676080E+03 -0.59025569429E+03  0.22011052782E+04  0.22866844017E+04  0.25500000920E-02 0. -1.
       -2    1    3    3    0  502 -0.18883676080E+03  0.59025569429E+03 -0.14618472030E+04  0.15877841011E+04  0.25500000920E-02 0.  1.
</event>
<event>
 5   0  0.8038352E-07  0.3966322E+04  0.7818609E-02  0.8011375E-01
        2   -1    0    0  501    0  0.00000000000E+00  0.00000000000E+00  0.19068005031E+04  0.19068005031E+04  0.25500000920E-02 0. -1.
       -2   -1    0    0    0  501  0.00000000000E+00  0.00000000000E+00 -0.20625798162E+04  0.20625798162E+04  0.25500000920E-02 0.  1.
    10030    2    1    2    0    0  0.00000000000E+00  0.00000000000E+00 -0.15577931308E+03  0.39693803193E+04  0.39663223425E+04 0.  0.
        2    1    3    3  502    0  0.18376406448E+04  0.68978677458E+03 -0.36130280008E+03  0.19958127786E+04  0.25500000920E-02 0.  1.
       -2    1    3    3    0  502 -0.18376406448E+04 -0.68978677458E+03  0.20552348700E+03  0.19735675407E+04  0.25500000920E-02 0. -1.
</event>
<event>
 5   0  0.7638805E-07  0.3819436E+04  0.7818609E-02  0.8041997E-01
        2   -1    0    0  501    0  0.00000000000E+00  0.00000000000E+00  0.21746151340E+04  0.21746151340E+04  0.25500000920E-02 0.  1.
       -2   -1    0    0    0  501  0.00000000000E+00  0.00000000000E+00 -0.16770885216E+04  0.16770885216E+04  0.25500000920E-02 0. -1.
    10030    2    1    2    0    0  0.00000000000E+00  0.00000000000E+00  0.49752661240E+03  0.38517036556E+04  0.38194356024E+04 0.  0.
        5    1    3    3  502    0 -0.15153033960E+04  0.53435136858E+03  0.12896287125E+04  0.20603009666E+04  0.46999998093E+01 0.  1.
       -5    1    3    3    0  502  0.15153033960E+04 -0.53435136858E+03 -0.79210210009E+03  0.17914026890E+04  0.46999998093E+01 0. -1.
</event>
<event>
 5   0  0.7551495E-07  0.3808900E+04  0.7818609E-02  0.8044248E-01
       -2   -1    0    0    0  501  0.00000000000E+00  0.00000000000E+00  0.27239125247E+04  0.27239125247E+04  0.25500000920E-02 0.  1.
        2   -1    0    0  501    0  0.00000000000E+00  0.00000000000E+00 -0.13315145097E+04  0.13315145097E+04  0.25500000920E-02 0. -1.
    10030    2    1    2    0    0  0.00000000000E+00  0.00000000000E+00  0.13923980150E+04  0.40554270345E+04  0.38088996048E+04 0.  0.
        1    1    3    3  502    0  0.11371891933E+04 -0.25197706303E+03  0.23004514099E+04  0.25785205818E+04  0.50400001928E-02 0.  1.
       -1    1    3    3    0  502 -0.11371891933E+04  0.25197706303E+03 -0.90805339491E+03  0.14769064526E+04  0.50400001928E-02 0. -1.
</event>
<event>
 5   0  0.8038352E-07  0.3790914E+04  0.7818609E-02  0.8048108E-01
       -2   -1    0    0    0  501  0.00000000000E+00  0.00000000000E+00  0.21750451058E+04  0.21750451058E+04  0.25500000920E-02 0. -1.
        2   -1    0    0  501    0  0.00000000000E+00  0.00000000000E+00 -0.16518081733E+04  0.16518081733E+04  0.25500000920E-02 0.  1.
    10030    2    1    2    0    0  0.00000000000E+00  0.00000000000E+00  0.52323693243E+03  0.38268532791E+04  0.37909140233E+04 0.  0.
        2    1    3    3  502    0  0.13633636055E+04  0.26552986300E+03 -0.10403728439E+04  0.17354083333E+04  0.25500000920E-02 0.  1.
       -2    1    3    3    0  502 -0.13633636055E+04 -0.26552986300E+03  0.15636097763E+04  0.20914449458E+04  0.25500000920E-02 0. -1.
</event>
<event>
 5   0  0.7551495E-07  0.3778607E+04  0.7818609E-02  0.8050761E-01
       -2   -1    0    0    0  501  0.00000000000E+00  0.00000000000E+00  0.14094525664E+04  0.14094525664E+04  0.25500000920E-02 0.  1.
        2   -1    0    0  501    0  0.00000000000E+00  0.00000000000E+00 -0.25325210480E+04  0.25325210480E+04  0.25500000920E-02 0. -1.
    10030    2    1    2    0    0  0.00000000000E+00  0.00000000000E+00 -0.11230684817E+04  0.39419736144E+04  0.37786073046E+04 0.  0.
        1    1    3    3  502    0 -0.10505225480E+04 -0.14125822002E+04 -0.12771065881E+04  0.21748534051E+04  0.50400001928E-02 0. -1.
       -1    1    3    3    0  502  0.10505225480E+04  0.14125822002E+04  0.15403810647E+03  0.17671202094E+04  0.50400001928E-02 0.  1.
</event>
<event>
 5   0  0.2529875E-07  0.3888147E+04  0.7818609E-02  0.8027499E-01
       -1   -1    0    0    0  501  0.00000000000E+00  0.00000000000E+00  0.30349033857E+04  0.30349033857E+04  0.50400001928E-02 0. -1.
        1   -1    0    0  501    0  0.00000000000E+00  0.00000000000E+00 -0.12453186855E+04  0.12453186855E+04  0.50400001928E-02 0.  1.
    10030    2    1    2    0    0  0.00000000000E+00  0.00000000000E+00  0.17895847002E+04  0.42802220711E+04  0.38881470624E+04 0.  0.
        4    1    3    3  502    0 -0.13295638755E+03  0.19322613086E+04  0.10793564436E+04  0.22172783116E+04  0.12699999809E+01 0. -1.
       -4    1    3    3    0  502  0.13295638755E+03 -0.19322613086E+04  0.71022825656E+03  0.20629437595E+04  0.12699999809E+01 0.  1.
</event>
<event>
 5   0  0.2529875E-07  0.3844130E+04  0.7818609E-02  0.8036750E-01
       -1   -1    0    0    0  501  0.00000000000E+00  0.00000000000E+00  0.19958884088E+04  0.19958884088E+04  0.50400001928E-02 0.  1.
        1   -1    0    0  501    0  0.00000000000E+00  0.00000000000E+00 -0.18509722738E+04  0.18509722738E+04  0.50400001928E-02 0. -1.
    10030    2    1    2    0    0  0.00000000000E+00  0.00000000000E+00  0.14491613496E+03  0.38468606826E+04  0.38441301259E+04 0.  0.
        4    1    3    3  502    0  0.69799535939E+02 -0.18646340560E+04  0.53387164621E+03  0.19408123777E+04  0.12699999809E+01 0.  1.
       -4    1    3    3    0  502 -0.69799535939E+02  0.18646340560E+04 -0.38895551125E+03  0.19060483049E+04  0.12699999809E+01 0. -1.
</event>
<event>
 5   0  0.2529875E-07  0.3229317E+04  0.7818609E-02  0.8181117E-01
       -1   -1    0    0    0  501  0.00000000000E+00  0.00000000000E+00  0.26157136817E+04  0.26157136817E+04  0.50400001928E-02 0. -1.
        1   -1    0    0  501    0  0.00000000000E+00  0.00000000000E+00 -0.99671560284E+03  0.99671560285E+03  0.50400001928E-02 0.  1.
    10030    2    1    2    0    0  0.00000000000E+00  0.00000000000E+00  0.16189980788E+04  0.36124292845E+04  0.32293173515E+04 0.  0.
        4    1    3    3  502    0  0.11499061781E+04  0.31480558837E+03  0.20275972645E+04  0.23521349997E+04  0.12699999809E+01 0. -1.
       -4    1    3    3    0  502 -0.11499061781E+04 -0.31480558837E+03 -0.40859918570E+03  0.12602942848E+04  0.12699999809E+01 0.  1.
</event>
<event>
 5   0  0.7649458E-07  0.3073508E+04  0.7818609E-02  0.8223046E-01
        2   -1    0    0  501    0  0.00000000000E+00  0.00000000000E+00  0.13036144982E+04  0.13036144982E+04  0.25500000920E-02 0.  1.
       -2   -1    0    0    0  501  0.00000000000E+00  0.00000000000E+00 -0.18115887623E+04  0.18115887623E+04  0.25500000920E-02 0. -1.
    10030    2    1    2    0    0  0.00000000000E+00  0.00000000000E+00 -0.50797426410E+03  0.31152032606E+04  0.30735083377E+04 0.  0.
        4    1    3    3  502    0 -0.68980192846E+03  0.13333487261E+04  0.79052543396E+02  0.15032951951E+04  0.12699999809E+01 0.  1.
       -4    1    3    3    0  502  0.68980192846E+03 -0.13333487261E+04 -0.58702680750E+03  0.16119080655E+04  0.12699999809E+01 0. -1.
</event>
<event>
 5   0  0.2529875E-07  0.3639874E+04  0.7818609E-02  0.8081419E-01
        1   -1    0    0  501    0  0.00000000000E+00  0.00000000000E+00  0.26900853448E+04  0.26900853448E+04  0.50400001928E-02 0. -1.
       -1   -1    0    0    0  501  0.00000000000E+00  0.00000000000E+00 -0.12312510675E+04  0.12312510676E+04  0.50400001928E-02 0.  1.
    10030    2    1    2    0    0  0.00000000000E+00  0.00000000000E+00  0.14588342773E+04  0.39213364123E+04  0.36398738729E+04 0.  0.
        5    1    3    3  502    0  0.75911883423E+03 -0.82357723722E+03  0.22747748851E+04  0.25355795665E+04  0.46999998093E+01 0. -1.
       -5    1    3    3    0  502 -0.75911883423E+03  0.82357723722E+03 -0.81594060789E+03  0.13857568458E+04  0.46999998093E+01 0.  1.
</event>
<event>
 5   0  0.2907071E-07  0.3870188E+04  0.7818609E-02  0.8031258E-01
       -1   -1    0    0    0  501  0.00000000000E+00  0.00000000000E+00  0.18241116524E+04  0.18241116524E+04  0.50400001928E-02 0. -1.
        1   -1    0    0  501    0  0.00000000000E+00  0.00000000000E+00 -0.20528287605E+04  0.20528287605E+04  0.50400001928E-02 0.  1.
    10030    2    1    2    0    0  0.00000000000E+00  0.00000000000E+00 -0.22871710814E+03  0.38769404129E+04  0.38701880380E+04 0.  0.
        2    1    3    3  502    0 -0.17737179005E+04 -0.49545679311E+03 -0.70956373553E+03  0.19735838769E+04  0.25500000920E-02 0. -1.
       -2    1    3    3    0  502  0.17737179005E+04  0.49545679311E+03  0.48084662738E+03  0.19033565360E+04  0.25500000920E-02 0.  1.
</event>
<event>
 5   0  0.2529875E-07  0.3797571E+04  0.7818609E-02  0.8046676E-01
        1   -1    0    0  501    0  0.00000000000E+00  0.00000000000E+00  0.25875933358E+04  0.25875933358E+04  0.50400001928E-02 0.  1.
       -1   -1    0    0    0  501  0.00000000000E+00  0.00000000000E+00 -0.13933354509E+04  0.13933354509E+04  0.50400001928E-02 0. -1.
    10030    2    1    2    0    0  0.00000000000E+00  0.00000000000E+00  0.11942578849E+04  0.39809287867E+04  0.37975705536E+04 0.  0.
        4    1    3    3  502    0 -0.11424173098E+03 -0.48539208640E+03 -0.13234695584E+04  0.14142948545E+04  0.12699999809E+01 0. -1.
       -4    1    3    3    0  502  0.11424173098E+03  0.48539208640E+03  0.25177274433E+04  0.25666339322E+04  0.12699999809E+01 0.  1.
</event>
<event>
 5   0  0.2529875E-07  0.3756846E+04  0.7818609E-02  0.8055479E-01
        1   -1    0    0  501    0  0.00000000000E+00  0.00000000000E+00  0.15732248899E+04  0.15732248899E+04  0.50400001928E-02 0. -1.
       -1   -1    0    0    0  501  0.00000000000E+00  0.00000000000E+00 -0.22428283702E+04  0.22428283702E+04  0.50400001928E-02 0.  1.
    10030    2    1    2    0    0  0.00000000000E+00  0.00000000000E+00 -0.66960348039E+03  0.38160532601E+04  0.37568462389E+04 0.  0.
        4    1    3    3  502    0  0.16126780996E+04 -0.96202409281E+03 -0.28661151437E+03  0.18995706834E+04  0.12699999809E+01 0. -1.
       -4    1    3    3    0  502 -0.16126780996E+04  0.96202409281E+03 -0.38299196601E+03  0.19164825767E+04  0.12699999809E+01 0.  1.
</event>
<event>
 5   0  0.8421677E-07  0.3255855E+04  0.7818609E-02  0.8174220E-01
        2   -1    0    0  501    0  0.00000000000E+00  0.00000000000E+00  0.26480805181E+04  0.26480805181E+04  0.25500000920E-02 0. -1.
       -2   -1    0    0    0  501  0.00000000000E+00  0.00000000000E+00 -0.10007805592E+04  0.10007805592E+04  0.25500000920E-02 0.  1.
    10030    2    1    2    0    0  0.00000000000E+00  0.00000000000E+00  0.16472999588E+04  0.36488610773E+04  0.32558547276E+04 0.  0.
        3    1    3    3  502    0  0.97530868267E+02  0.11065145764E+04 -0.51006771808E+03  0.12223157796E+04  0.10100000352E+00 0.  1.
       -3    1    3    3    0  502 -0.97530868267E+02 -0.11065145764E+04  0.21573676769E+04  0.24265452976E+04  0.10100000352E+00 0. -1.
</event>
<event>
 5   0  0.2907071E-07  0.3774145E+04  0.7818609E-02  0.8051726E-01
        1   -1    0    0  501    0  0.00000000000E+00  0.00000000000E+00  0.21650662808E+04  0.21650662808E+04  0.50400001928E-02 0.  1.
       -1   -1    0    0    0  501  0.00000000000E+00  0.00000000000E+00 -0.16447727119E+04  0.16447727119E+04  0.50400001928E-02 0. -1.
    10030    2    1    2    0    0  0.00000000000E+00  0.00000000000E+00  0.52029356889E+03  0.38098389927E+04  0.37741446385E+04 0.  0.
        2    1    3    3  502    0  0.41300273399E+03  0.17518679592E+04  0.83245612792E+03  0.19830773585E+04  0.25500000920E-02 0. -1.
       -2    1    3    3    0  502 -0.41300273399E+03 -0.17518679592E+04 -0.31216255903E+03  0.18267616342E+04  0.25500000920E-02 0.  1.
</event>
<event>
 5   0  0.8421677E-07  0.3781676E+04  0.7818609E-02  0.8050099E-01
        2   -1    0    0  501    0  0.00000000000E+00  0.00000000000E+00  0.26540632667E+04  0.26540632667E+04  0.25500000920E-02 0. -1.
       -2   -1    0    0    0  501  0.00000000000E+00  0.00000000000E+00 -0.13470923317E+04  0.13470923317E+04  0.25500000920E-02 0.  1.
    10030    2    1    2    0    0  0.00000000000E+00  0.00000000000E+00  0.13069709350E+04  0.40011555984E+04  0.37816759641E+04 0.  0.
        3    1    3    3  502    0  0.14685232085E+04  0.94077351446E+03  0.14263984875E+04  0.22530485736E+04  0.10100000352E+00 0.  1.
       -3    1    3    3    0  502 -0.14685232085E+04 -0.94077351446E+03 -0.11942755254E+03  0.17481070248E+04  0.10100000352E+00 0. -1.
</event>
<event>
 5   0  0.2529875E-07  0.3037445E+04  0.7818609E-02  0.8233118E-01
       -1   -1    0    0    0  501  0.00000000000E+00  0.00000000000E+00  0.89330039140E+03  0.89330039142E+03  0.50400001928E-02 0.  1.
        1   -1    0    0  501    0  0.00000000000E+00  0.00000000000E+00 -0.25820181506E+04  0.25820181506E+04  0.50400001928E-02 0. -1.
    10030    2    1    2    0    0  0.00000000000E+00  0.00000000000E+00 -0.16887177592E+04  0.34753185420E+04  0.30374448634E+04 0.  0.
        5    1    3    3  502    0  0.97093945470E+03  0.10071161420E+04 -0.16795948549E+03  0.14089850343E+04  0.46999998093E+01 0. -1.
       -5    1    3    3    0  502 -0.97093945470E+03 -0.10071161420E+04 -0.15207582737E+04  0.20663335077E+04  0.46999998093E+01 0.  1.
</event>
<event>
 5   0  0.8421677E-07  0.2620504E+04  0.7818609E-02  0.8361270E-01
        2   -1    0    0  501    0  0.00000000000E+00  0.00000000000E+00  0.89104760342E+03  0.89104760343E+03  0.25500000920E-02 0.  1.
       -2   -1    0    0    0  501  0.00000000000E+00  0.00000000000E+00 -0.19266761238E+04  0.19266761238E+04  0.25500000920E-02 0. -1.
    10030    2    1    2    0    0  0.00000000000E+00  0.00000000000E+00 -0.10356285204E+04  0.28177237272E+04  0.26205038772E+04 0.  0.
        3    1    3    3  502    0  0.97917571771E+03  0.25603317477E+03  0.37693026609E+03  0.10800067168E+04  0.10100000352E+00 0.  1.
       -3    1    3    3    0  502 -0.97917571771E+03 -0.25603317477E+03 -0.14125587864E+04  0.17377170104E+04  0.10100000352E+00 0. -1.
</event>
<event>
 5   0  0.2529875E-07  0.2518468E+04  0.7818609E-02  0.8396436E-01
        1   -1    0    0  501    0  0.00000000000E+00  0.00000000000E+00  0.26716737373E+04  0.26716737373E+04  0.50400001928E-02 0. -1.
       -1   -1    0    0    0  501  0.00000000000E+00  0.00000000000E+00 -0.59351197729E+03  0.59351197731E+03  0.50400001928E-02 0.  1.
    10030    2    1    2    0    0  0.00000000000E+00  0.00000000000E+00  0.20781617601E+04  0.32651857146E+04  0.25184680761E+04 0.  0.
        3    1    3    3  502    0 -0.14494931666E+02  0.12489242874E+04  0.12467162583E+04  0.17647445758E+04  0.10100000352E+00 0. -1.
       -3    1    3    3    0  502  0.14494931666E+02 -0.12489242874E+04  0.83144550175E+03  0.15004411389E+04  0.10100000352E+00 0.  1.
</event>
<event>
 5   0  0.2529875E-07  0.2900714E+04  0.7818609E-02  0.8272665E-01
        1   -1    0    0  501    0  0.00000000000E+00  0.00000000000E+00  0.29382189460E+04  0.29382189461E+04  0.50400001928E-02 0.  1.
       -1   -1    0    0    0  501  0.00000000000E+00  0.00000000000E+00 -0.71592207227E+03  0.71592207229E+03  0.50400001928E-02 0. -1.
    10030    2    1    2    0    0  0.00000000000E+00  0.00000000000E+00  0.22222968738E+04  0.36541410183E+04  0.29007142546E+04 0.  0.
        5    1    3    3  502    0  0.66753290464E+02  0.72559477482E+03  0.26908874275E+04  0.27878021839E+04  0.46999998093E+01 0.  1.
       -5    1    3    3    0  502 -0.66753290464E+02 -0.72559477482E+03 -0.46859055373E+03  0.86633883445E+03  0.46999998093E+01 0. -1.
</event>
<event>
 5   0  0.7638805E-07  0.3891843E+04  0.7818609E-02  0.8026728E-01
        2   -1    0    0  501    0  0.00000000000E+00  0.00000000000E+00  0.13384459754E+04  0.13384459754E+04  0.25500000920E-02 0.  1.
       -2   -1    0    0    0  501  0.00000000000E+00  0.00000000000E+00 -0.28291100563E+04  0.28291100563E+04  0.25500000920E-02 0. -1.
    10030    2    1    2    0    0  0.00000000000E+00  0.00000000000E+00 -0.14906640809E+04  0.41675560316E+04  0.38918432490E+04 0.  0.
        5    1    3    3  502    0 -0.10955891829E+03  0.13920905626E+04  0.70591592852E+03  0.15646912409E+04  0.46999998093E+01 0. -1.
       -5    1    3    3    0  502  0.10955891829E+03 -0.13920905626E+04 -0.21965800094E+04  0.26028647907E+04  0.46999998093E+01 0.  1.
</event>
<event>
 5   0  0.2529875E-07  0.3815122E+04  0.7818609E-02  0.8042918E-01
       -1   -1    0    0    0  501  0.00000000000E+00  0.00000000000E+00  0.25912355777E+04  0.25912355777E+04  0.50400001928E-02 0.  1.
        1   -1    0    0  501    0  0.00000000000E+00  0.00000000000E+00 -0.14042679105E+04  0.14042679105E+04  0.50400001928E-02 0. -1.
    10030    2    1    2    0    0  0.00000000000E+00  0.00000000000E+00  0.11869676672E+04  0.39955034883E+04  0.38151220009E+04 0.  0.
        3    1    3    3  502    0  0.66953139050E+03  0.17929344168E+03 -0.12677229368E+04  0.14448321272E+04  0.10100000352E+00 0. -1.
       -3    1    3    3    0  502 -0.66953139050E+03 -0.17929344168E+03  0.24546906039E+04  0.25506713611E+04  0.10100000352E+00 0.  1.
</event>
<event>
 5   0  0.2907071E-07  0.3825046E+04  0.7818609E-02  0.8040801E-01
        1   -1    0    0  501    0  0.00000000000E+00  0.00000000000E+00  0.23340027495E+04  0.23340027496E+04  0.50400001928E-02 0.  1.
       -1   -1    0    0    0  501  0.00000000000E+00  0.00000000000E+00 -0.15671550902E+04  0.15671550902E+04  0.50400001928E-02 0. -1.
    10030    2    1    2    0    0  0.00000000000E+00  0.00000000000E+00  0.76684765939E+03  0.39011578397E+04  0.38250460334E+04 0.  0.
        2    1    3    3  502    0  0.13613233423E+04  0.52335344560E+03 -0.87838622460E+03  0.17025458675E+04  0.25500000920E-02 0. -1.
       -2    1    3    3    0  502 -0.13613233423E+04 -0.52335344560E+03  0.16452338840E+04  0.21986119722E+04  0.25500000920E-02 0.  1.
</event>
<event>
 5   0  0.8038352E-07  0.3383158E+04  0.7818609E-02  0.8142052E-01
        2   -1    0    0  501    0  0.00000000000E+00  0.00000000000E+00  0.23462920290E+04  0.23462920290E+04  0.25500000920E-02 0.  1.
       -2   -1    0    0    0  501  0.00000000000E+00  0.00000000000E+00 -0.12195583988E+04  0.12195583988E+04  0.25500000920E-02 0. -1.
    10030    2    1    2    0    0  0.00000000000E+00  0.00000000000E+00  0.11267336303E+04  0.35658504278E+04  0.33831583764E+04 0.  0.
        2    1    3    3  502    0  0.92958668377E+03 -0.10982257346E+04  0.15008994588E+04  0.20791657827E+04  0.25500000920E-02 0.  1.
       -2    1    3    3    0  502 -0.92958668377E+03  0.10982257346E+04 -0.37416582849E+03  0.14866846451E+04  0.25500000920E-02 0. -1.
</event>
<event>
 5   0  0.8038352E-07  0.3850639E+04  0.7818609E-02  0.8035374E-01
       -2   -1    0    0    0  501  0.00000000000E+00  0.00000000000E+00  0.21242011896E+04  0.21242011896E+04  0.25500000920E-02 0.  1.
        2   -1    0    0  501    0  0.00000000000E+00  0.00000000000E+00 -0.17450587749E+04  0.17450587749E+04  0.25500000920E-02 0. -1.
    10030    2    1    2    0    0  0.00000000000E+00  0.00000000000E+00  0.37914241466E+03  0.38692599646E+04  0.38506393888E+04 0.  0.
        2    1    3    3  502    0  0.14652175549E+04 -0.11346814401E+04  0.71410263953E+03  0.19860279539E+04  0.25500000920E-02 0.  1.
       -2    1    3    3    0  502 -0.14652175549E+04  0.11346814401E+04 -0.33496022487E+03  0.18832320107E+04  0.25500000920E-02 0. -1.
</event>
<event>
 5   0  0.7649458E-07  0.3810325E+04  0.7818609E-02  0.8043943E-01
        2   -1    0    0  501    0  0.00000000000E+00  0.00000000000E+00  0.30635588036E+04  0.30635588036E+04  0.25500000920E-02 0.  1.
       -2   -1    0    0    0  501  0.00000000000E+00  0.00000000000E+00 -0.11847802097E+04  0.11847802097E+04  0.25500000920E-02 0. -1.
    10030    2    1    2    0    0  0.00000000000E+00  0.00000000000E+00  0.18787785938E+04  0.42483390133E+04  0.38103248375E+04 0.  0.
        4    1    3    3  502    0 -0.10346245570E+04  0.35898397495E+02 -0.84380808160E+03  0.13355711738E+04  0.12699999809E+01 0. -1.
       -4    1    3    3    0  502  0.10346245570E+04 -0.35898397495E+02  0.27225866754E+04  0.29127678395E+04  0.12699999809E+01 0.  1.
</event>
<event>
 5   0  0.7551495E-07  0.3780695E+04  0.7818609E-02  0.8050310E-01
       -2   -1    0    0    0  501  0.00000000000E+00  0.00000000000E+00  0.13093274227E+04  0.13093274227E+04  0.25500000920E-02 0. -1.
        2   -1    0    0  501    0  0.00000000000E+00  0.00000000000E+00 -0.27291978338E+04  0.27291978338E+04  0.25500000920E-02 0.  1.
    10030    2    1    2    0    0  0.00000000000E+00  0.00000000000E+00 -0.14198704111E+04  0.40385252566E+04  0.37806949445E+04 0.  0.
        1    1    3    3  502    0  0.17155409281E+04  0.56150632037E+03 -0.13095004608E+04  0.22300586272E+04  0.50400001928E-02 0. -1.
       -1    1    3    3    0  502 -0.17155409281E+04 -0.56150632037E+03 -0.11036995029E+03  0.18084666294E+04  0.50400001928E-02 0.  1.
</event>
<event>
 5   0  0.7638805E-07  0.3425919E+04  0.7818609E-02  0.8131574E-01
        2   -1    0    0  501    0  0.00000000000E+00  0.00000000000E+00  0.22735061702E+04  0.22735061702E+04  0.25500000920E-02 0.  1.
       -2   -1    0    0    0  501  0.00000000000E+00  0.00000000000E+00 -0.12906189720E+04  0.12906189720E+04  0.25500000920E-02 0. -1.
    10030    2    1    2    0    0  0.00000000000E+00  0.00000000000E+00  0.98288719819E+03  0.35641251421E+04  0.34259189693E+04 0.  0.
        5    1    3    3  502    0 -0.10289924441E+04 -0.21260838526E+03 -0.91597342345E+03  0.13939358587E+04  0.46999998093E+01 0. -1.
       -5    1    3    3    0  502  0.10289924441E+04  0.21260838526E+03  0.18988606216E+04  0.21701892835E+04  0.46999998093E+01 0.  1.
</event>
<event>
 5   0  0.7649458E-07  0.3831815E+04  0.7818609E-02  0.8039362E-01
       -2   -1    0    0    0  501  0.00000000000E+00  0.00000000000E+00  0.13264992597E+04  0.13264992598E+04  0.25500000920E-02 0.  1.
        2   -1    0    0  501    0  0.00000000000E+00  0.00000000000E+00 -0.27672092383E+04  0.27672092383E+04  0.25500000920E-02 0. -1.
    10030    2    1    2    0    0  0.00000000000E+00  0.00000000000E+00 -0.14407099785E+04  0.40937084980E+04  0.38318147169E+04 0.  0.
        4    1    3    3  502    0  0.12570430658E+04  0.14152468264E+04 -0.40411962866E+03  0.19355606775E+04  0.12699999809E+01 0.  1.
       -4    1    3    3    0  502 -0.12570430658E+04 -0.14152468264E+04 -0.10365903499E+04  0.21581478206E+04  0.12699999809E+01 0. -1.
</event>
<event>
 5   0  0.7551495E-07  0.2993421E+04  0.7818609E-02  0.8245612E-01
        2   -1    0    0  501    0  0.00000000000E+00  0.00000000000E+00  0.19341422017E+04  0.19341422017E+04  0.25500000920E-02 0.  1.
       -2   -1    0    0    0  501  0.00000000000E+00  0.00000000000E+00 -0.11582100811E+04  0.11582100811E+04  0.25500000920E-02 0. -1.
    10030    2    1    2    0    0  0.00000000000E+00  0.00000000000E+00  0.77593212063E+03  0.30923522828E+04  0.29934214513E+04 0.  0.
        1    1    3    3  502    0 -0.10851494617E+04  0.90051296858E+03  0.90621312604E+03  0.16762145419E+04  0.50400001928E-02 0.  1.
       -1    1    3    3    0  502  0.10851494617E+04 -0.90051296858E+03 -0.13028100540E+03  0.14161377409E+04  0.50400001928E-02 0. -1.
</event>
<event>
 5   0  0.2529875E-07  0.3762218E+04  0.7818609E-02  0.8054312E-01
       -1   -1    0    0    0  501  0.00000000000E+00  0.00000000000E+00  0.15740420190E+04  0.15740420190E+04  0.50400001928E-02 0. -1.
        1   -1    0    0  501    0  0.00000000000E+00  0.00000000000E+00 -0.22480792303E+04  0.22480792303E+04  0.50400001928E-02 0.  1.
    10030    2    1    2    0    0  0.00000000000E+00  0.00000000000E+00 -0.67403721127E+03  0.38221212493E+04  0.37622180535E+04 0.  0.
        3    1    3    3  502    0 -0.11412187865E+04 -0.88711261291E+03  0.88598563843E+03  0.16953818651E+04  0.10100000352E+00 0. -1.
       -3    1    3    3    0  502  0.11412187865E+04  0.88711261291E+03 -0.15600228497E+04  0.21267393842E+04  0.10100000352E+00 0.  1.
</event>
<event>
 5   0  0.7638805E-07  0.4706440E+04  0.7818609E-02  0.7875459E-01
       -2   -1    0    0    0  501  0.00000000000E+00  0.00000000000E+00  0.27088470472E+04  0.27088470472E+04  0.25500000920E-02 0. -1.
        2   -1    0    0  501    0  0.00000000000E+00  0.00000000000E+00 -0.20442808457E+04  0.20442808457E+04  0.25500000920E-02 0.  1.
    10030    2    1    2    0    0  0.00000000000E+00  0.00000000000E+00  0.66456620148E+03  0.47531278930E+04  0.47064398998E+04 0.  0.
        5    1    3    3  502    0 -0.20676846079E+04  0.41730851290E+03  0.13857783109E+04  0.25238600693E+04  0.46999998093E+01 0. -1.
       -5    1    3    3    0  502  0.20676846079E+04 -0.41730851290E+03 -0.72121210945E+03  0.22292678236E+04  0.46999998093E+01 0.  1.
</event>
<event>
 5   0  0.2529875E-07  0.3778383E+04  0.7818609E-02  0.8050810E-01
        1   -1    0    0  501    0  0.00000000000E+00  0.00000000000E+00  0.22817720285E+04  0.22817720285E+04  0.50400001928E-02 0.  1.
       -1   -1    0    0    0  501  0.00000000000E+00  0.00000000000E+00 -0.15641543249E+04  0.15641543249E+04  0.50400001928E-02 0. -1.
    10030    2    1    2    0    0  0.00000000000E+00  0.00000000000E+00  0.71761770357E+03  0.38459263534E+04  0.37783825041E+04 0.  0.
        4    1    3    3  502    0  0.57682867078E+03 -0.49936685477E+03  0.21179818032E+04  0.22512101418E+04  0.12699999809E+01 0.  1.
       -4    1    3    3    0  502 -0.57682867078E+03  0.49936685477E+03 -0.14003640996E+04  0.15947162116E+04  0.12699999809E+01 0. -1.
</event>
<event>
 5   0  0.7551495E-07  0.3818851E+04  0.7818609E-02  0.8042122E-01
        2   -1    0    0  501    0  0.00000000000E+00  0.00000000000E+00  0.18070703906E+04  0.18070703906E+04  0.25500000920E-02 0. -1.
       -2   -1    0    0    0  501  0.00000000000E+00  0.00000000000E+00 -0.20175783323E+04  0.20175783323E+04  0.25500000920E-02 0.  1.
    10030    2    1    2    0    0  0.00000000000E+00  0.00000000000E+00 -0.21050794166E+03  0.38246487229E+04  0.38188511702E+04 0.  0.
        1    1    3    3  502    0  0.16419635415E+04 -0.17698039868E+03 -0.10651137489E+04  0.19651548619E+04  0.50400001928E-02 0. -1.
       -1    1    3    3    0  502 -0.16419635415E+04  0.17698039868E+03  0.85460580720E+03  0.18594938610E+04  0.50400001928E-02 0.  1.
</event>
<event>
 5   0  0.8038352E-07  0.4021513E+04  0.7818609E-02  0.8000221E-01
       -2   -1    0    0    0  501  0.00000000000E+00  0.00000000000E+00  0.16209153359E+04  0.16209153359E+04  0.25500000920E-02 0.  1.
        2   -1    0    0  501    0  0.00000000000E+00  0.00000000000E+00 -0.24943575978E+04  0.24943575978E+04  0.25500000920E-02 0. -1.
    10030    2    1    2    0    0  0.00000000000E+00  0.00000000000E+00 -0.87344226190E+03  0.41152729338E+04  0.40215133886E+04 0.  0.
        2    1    3    3  502    0 -0.26738223571E+02  0.41486375507E+02 -0.24937376265E+04  0.24942260126E+04  0.25500000920E-02 0. -1.
       -2    1    3    3    0  502  0.26738223571E+02 -0.41486375507E+02  0.16202953646E+04  0.16210469212E+04  0.25500000920E-02 0.  1.
</event>
<event>
 5   0  0.2529875E-07  0.3810428E+04  0.7818609E-02  0.8043921E-01
        1   -1    0    0  501    0  0.00000000000E+00  0.00000000000E+00  0.20663746906E+04  0.20663746906E+04  0.50400001928E-02 0.  1.
       -1   -1    0    0    0  501  0.00000000000E+00  0.00000000000E+00 -0.17566229282E+04  0.17566229282E+04  0.50400001928E-02 0. -1.
    10030    2    1    2    0    0  0.00000000000E+00  0.00000000000E+00  0.30975176243E+03  0.38229976188E+04  0.38104284062E+04 0.  0.
        5    1    3    3  502    0  0.17335386590E+04 -0.54145514269E+02 -0.63622432961E+03  0.18474012846E+04  0.46999998093E+01 0. -1.
       -5    1    3    3    0  502 -0.17335386590E+04  0.54145514269E+02  0.94597609204E+03  0.19755963342E+04  0.46999998093E+01 0.  1.
</event>
<event>
 5   0  0.7649458E-07  0.3831624E+04  0.7818609E-02  0.8039402E-01
        2   -1    0    0  501    0  0.00000000000E+00  0.00000000000E+00  0.17976680614E+04  0.17976680614E+04  0.25500000920E-02 0.  1.
       -2   -1    0    0    0  501  0.00000000000E+00  0.00000000000E+00 -0.20417205167E+04  0.20417205167E+04  0.25500000920E-02 0. -1.
    10030    2    1    2    0    0  0.00000000000E+00  0.00000000000E+00 -0.24405245530E+03  0.38393885781E+04  0.38316240751E+04 0.  0.
        4    1    3    3  502    0 -0.84106812834E+03  0.16603806389E+04  0.33284817724E+03  0.18907799937E+04  0.12699999809E+01 0. -1.
       -4    1    3    3    0  502  0.84106812834E+03 -0.16603806389E+04 -0.57690063254E+03  0.19486085844E+04  0.12699999809E+01 0.  1.
</event>
<event>
 5   0  0.7638805E-07  0.3752726E+04  0.7818609E-02  0.8056377E-01
       -2   -1    0    0    0  501  0.00000000000E+00  0.00000000000E+00  0.17795044323E+04  0.17795044323E+04  0.25500000920E-02 0.  1.
        2   -1    0    0  501    0  0.00000000000E+00  0.00000000000E+00 -0.19784934622E+04  0.19784934622E+04  0.25500000920E-02 0. -1.
    10030    2    1    2    0    0  0.00000000000E+00  0.00000000000E+00 -0.19898902991E+03  0.37579978945E+04  0.37527258814E+04 0.  0.
        5    1    3    3  502    0 -0.16263110256E+04 -0.85630345984E+03  0.27862384666E+03  0.18589772740E+04  0.46999998093E+01 0. -1.
       -5    1    3    3    0  502  0.16263110256E+04  0.85630345984E+03 -0.47761287658E+03  0.18990206205E+04  0.46999998093E+01 0.  1.
</event>
<event>
 5   0  0.2529875E-07  0.3690805E+04  0.7818609E-02  0.8070003E-01
        1   -1    0    0  501    0  0.00000000000E+00  0.00000000000E+00  0.11679745754E+04  0.11679745754E+04  0.50400001928E-02 0.  1.
       -1   -1    0    0    0  501  0.00000000000E+00  0.00000000000E+00 -0.29157404062E+04  0.29157404062E+04  0.50400001928E-02 0. -1.
    10030    2    1    2    0    0  0.00000000000E+00  0.00000000000E+00 -0.17477658308E+04  0.40837149816E+04  0.36908051496E+04 0.  0.
        4    1    3    3  502    0  0.55799889168E+02  0.11994483529E+04  0.67662498846E+03  0.13782644764E+04  0.12699999809E+01 0. -1.
       -4    1    3    3    0  502 -0.55799889168E+02 -0.11994483529E+04 -0.24243908192E+04  0.27054505052E+04  0.12699999809E+01 0.  1.
</event>
<event>
 5   0  0.7551495E-07  0.3852911E+04  0.7818609E-02  0.8034895E-01
        2   -1    0    0  501    0  0.00000000000E+00  0.00000000000E+00  0.26538394285E+04  0.26538394285E+04  0.25500000920E-02 0. -1.
       -2   -1    0    0    0  501  0.00000000000E+00  0.00000000000E+00 -0.13984384277E+04  0.13984384277E+04  0.25500000920E-02 0.  1.
    10030    2    1    2    0    0  0.00000000000E+00  0.00000000000E+00  0.12554010008E+04  0.40522778561E+04  0.38529111267E+04 0.  0.
        1    1    3    3  502    0 -0.28248420598E+03  0.17454919472E+04 -0.17651722748E+03  0.17769912200E+04  0.50400001928E-02 0.  1.
       -1    1    3    3    0  502  0.28248420598E+03 -0.17454919472E+04  0.14319182283E+04  0.22752866362E+04  0.50400001928E-02 0. -1.
</event>
<event>
 5   0  0.2529875E-07  0.3773171E+04  0.7818609E-02  0.8051937E-01
        3   -1    0    0  501    0  0.00000000000E+00  0.00000000000E+00  0.36292442754E+04  0.36292442768E+04  0.10100000352E+00 0.  1.
       -3   -1    0    0    0  501  0.00000000000E+00  0.00000000000E+00 -0.98070148173E+03  0.98070148693E+03  0.10100000352E+00 0. -1.
    10030    2    1    2    0    0  0.00000000000E+00  0.00000000000E+00  0.26485427937E+04  0.46099457638E+04  0.37731712146E+04 0.  0.
        4    1    3    3  502    0 -0.68870664929E+03  0.12735638766E+04  0.28020176462E+04  0.31539794386E+04  0.12699999809E+01 0.  1.
       -4    1    3    3    0  502  0.68870664929E+03 -0.12735638766E+04 -0.15347485255E+03  0.14559663251E+04  0.12699999809E+01 0. -1.
</event>
<event>
 5   0  0.2529875E-07  0.2722898E+04  0.7818609E-02  0.8327613E-01
        1   -1    0    0  501    0  0.00000000000E+00  0.00000000000E+00  0.15648658483E+04  0.15648658483E+04  0.50400001928E-02 0. -1.
       -1   -1    0    0    0  501  0.00000000000E+00  0.00000000000E+00 -0.11844741561E+04  0.11844741561E+04  0.50400001928E-02 0.  1.
    10030    2    1    2    0    0  0.00000000000E+00  0.00000000000E+00  0.38039169225E+03  0.27493400044E+04  0.27228978351E+04 0.  0.
        3    1    3    3  502    0 -0.10853857941E+03  0.85332500976E+03 -0.87532392095E+03  0.12272473965E+04  0.10100000352E+00 0.  1.
       -3    1    3    3    0  502  0.10853857941E+03 -0.85332500976E+03  0.12557156132E+04  0.15220926079E+04  0.10100000352E+00 0. -1.
</event>
<event>
 5   0  0.2529875E-07  0.3804422E+04  0.7818609E-02  0.8045207E-01
        1   -1    0    0  501    0  0.00000000000E+00  0.00000000000E+00  0.23510447672E+04  0.23510447672E+04  0.50400001928E-02 0.  1.
       -1   -1    0    0    0  501  0.00000000000E+00  0.00000000000E+00 -0.15390633916E+04  0.15390633916E+04  0.50400001928E-02 0. -1.
    10030    2    1    2    0    0  0.00000000000E+00  0.00000000000E+00  0.81198137564E+03  0.38901081588E+04  0.38044221286E+04 0.  0.
        3    1    3    3  502    0  0.17076293106E+03 -0.18183275752E+04 -0.13790277441E+03  0.18315273229E+04  0.10100000352E+00 0. -1.
       -3    1    3    3    0  502 -0.17076293106E+03  0.18183275752E+04  0.94988415005E+03  0.20585808359E+04  0.10100000352E+00 0.  1.
</event>
<event>
 5   0  0.2529875E-07  0.3655335E+04  0.7818609E-02  0.8077933E-01
        1   -1    0    0  501    0  0.00000000000E+00  0.00000000000E+00  0.32533595113E+04  0.32533595113E+04  0.50400001928E-02 0. -1.
       -1   -1    0    0    0  501  0.00000000000E+00  0.00000000000E+00 -0.10267443926E+04  0.10267443926E+04  0.50400001928E-02 0.  1.
    10030    2    1    2    0    0  0.00000000000E+00  0.00000000000E+00  0.22266151187E+04  0.42801039040E+04  0.36553350793E+04 0.  0.
        1    1    3    3  502    0 -0.15669649207E+04  0.14804296162E+03  0.25503070835E+02  0.15741493537E+04  0.50400001928E-02 0.  1.
       -1    1    3    3    0  502  0.15669649207E+04 -0.14804296162E+03  0.22011120479E+04  0.27059545503E+04  0.50400001928E-02 0. -1.
</event>
<event>
 5   0  0.8421677E-07  0.3998324E+04  0.7818609E-02  0.8004885E-01
       -2   -1    0    0    0  501  0.00000000000E+00  0.00000000000E+00  0.11802904630E+04  0.11802904630E+04  0.25500000920E-02 0.  1.
        2   -1    0    0  501    0  0.00000000000E+00  0.00000000000E+00 -0.33861570242E+04  0.33861570242E+04  0.25500000920E-02 0. -1.
    10030    2    1    2    0    0  0.00000000000E+00  0.00000000000E+00 -0.22058665612E+04  0.45664474872E+04  0.39983240698E+04 0.  0.
        3    1    3    3  502    0  0.61611764967E+02  0.25074716219E+03  0.11611665576E+04  0.11895284502E+04  0.10100000352E+00 0.  1.
       -3    1    3    3    0  502 -0.61611764967E+02 -0.25074716219E+03 -0.33670331188E+04  0.33769190370E+04  0.10100000352E+00 0. -1.
</event>
<event>
 5   0  0.8421677E-07  0.3188080E+04  0.7818609E-02  0.8191972E-01
        2   -1    0    0  501    0  0.00000000000E+00  0.00000000000E+00  0.20468667002E+04  0.20468667002E+04  0.25500000920E-02 0.  1.
       -2   -1    0    0    0  501  0.00000000000E+00  0.00000000000E+00 -0.12413920335E+04  0.12413920335E+04  0.25500000920E-02 0. -1.
    10030    2    1    2    0    0  0.00000000000E+00  0.00000000000E+00  0.80547466668E+03  0.32882587337E+04  0.31880803097E+04 0.  0.
        3    1    3    3  502    0 -0.15466627385E+03 -0.15404114521E+04  0.79437239822E+03  0.17400622447E+04  0.10100000352E+00 0.  1.
       -3    1    3    3    0  502  0.15466627385E+03  0.15404114521E+04  0.11102268456E+02  0.15481964891E+04  0.10100000352E+00 0. -1.
</event>
<event>
 5   0  0.7638805E-07  0.3654797E+04  0.7818609E-02  0.8078054E-01
        2   -1    0    0  501    0  0.00000000000E+00  0.00000000000E+00  0.25620735946E+04  0.25620735946E+04  0.25500000920E-02 0. -1.
       -2   -1    0    0    0  501  0.00000000000E+00  0.00000000000E+00 -0.13033915652E+04  0.13033915652E+04  0.25500000920E-02 0.  1.
    10030    2    1    2    0    0  0.00000000000E+00  0.00000000000E+00  0.12586820294E+04  0.38654651598E+04  0.36547969096E+04 0.  0.
        5    1    3    3  502    0 -0.13964119064E+04  0.53666600453E+03  0.17393036796E+04  0.22941612830E+04  0.46999998093E+01 0. -1.
       -5    1    3    3    0  502  0.13964119064E+04 -0.53666600453E+03 -0.48062165011E+03  0.15713038768E+04  0.46999998093E+01 0.  1.
</event>
<event>
 5   0  0.2529875E-07  0.2456088E+04  0.7818609E-02  0.8418798E-01
       -1   -1    0    0    0  501  0.00000000000E+00  0.00000000000E+00  0.73488731256E+03  0.73488731258E+03  0.50400001928E-02 0.  1.
        1   -1    0    0  501    0  0.00000000000E+00  0.00000000000E+00 -0.20521408012E+04  0.20521408012E+04  0.50400001928E-02 0. -1.
    10030    2    1    2    0    0  0.00000000000E+00  0.00000000000E+00 -0.13172534886E+04  0.27870281138E+04  0.24560881405E+04 0.  0.
        4    1    3    3  502    0  0.48485794429E+03 -0.81577984181E+03 -0.15430759971E+04  0.18115377783E+04  0.12699999809E+01 0. -1.
       -4    1    3    3    0  502 -0.48485794429E+03  0.81577984181E+03  0.22582250845E+03  0.97549033550E+03  0.12699999809E+01 0.  1.
</event>
<event>
 5   0  0.2529875E-07  0.3760829E+04  0.7818609E-02  0.8054613E-01
       -1   -1    0    0    0  501  0.00000000000E+00  0.00000000000E+00  0.21909747173E+04  0.21909747173E+04  0.50400001928E-02 0. -1.
        1   -1    0    0  501    0  0.00000000000E+00  0.00000000000E+00 -0.16138748718E+04  0.16138748718E+04  0.50400001928E-02 0.  1.
    10030    2    1    2    0    0  0.00000000000E+00  0.00000000000E+00  0.57709984558E+03  0.38048495891E+04  0.37608291857E+04 0.  0.
        4    1    3    3  502    0  0.94736138721E+03 -0.10096342910E+04  0.15758833511E+04  0.20976808501E+04  0.12699999809E+01 0. -1.
       -4    1    3    3    0  502 -0.94736138721E+03  0.10096342910E+04 -0.99878350557E+03  0.17071687390E+04  0.12699999809E+01 0.  1.
</event>
<event>
 5   0  0.8038352E-07  0.3796214E+04  0.7818609E-02  0.8046968E-01
       -2   -1    0    0    0  501  0.00000000000E+00  0.00000000000E+00  0.23328122941E+04  0.23328122941E+04  0.25500000920E-02 0. -1.
        2   -1    0    0  501    0  0.00000000000E+00  0.00000000000E+00 -0.15444063190E+04  0.15444063190E+04  0.25500000920E-02 0.  1.
    10030    2    1    2    0    0  0.00000000000E+00  0.00000000000E+00  0.78840597512E+03  0.38772186131E+04  0.37962139287E+04 0.  0.
        2    1    3    3  502    0 -0.88246046530E+03 -0.10542832360E+04 -0.94236964282E+03  0.16668263732E+04  0.25500000920E-02 0.  1.
       -2    1    3    3    0  502  0.88246046530E+03  0.10542832360E+04  0.17307756179E+04  0.22103922399E+04  0.25500000920E-02 0. -1.
</event>
<event>
 5   0  0.8421677E-07  0.2563997E+04  0.7818609E-02  0.8380534E-01
       -2   -1    0    0    0  501  0.00000000000E+00  0.00000000000E+00  0.73061601114E+03  0.73061601115E+03  0.25500000920E-02 0.  1.
        2   -1    0    0  501    0  0.00000000000E+00  0.00000000000E+00 -0.22494989496E+04  0.22494989496E+04  0.25500000920E-02 0. -1.
    10030    2    1    2    0    0  0.00000000000E+00  0.00000000000E+00 -0.15188829385E+04  0.29801149608E+04  0.25639968406E+04 0.  0.
        3    1    3    3  502    0  0.42785000094E+03 -0.80886452899E+03 -0.18030499497E+04  0.20219561274E+04  0.10100000352E+00 0. -1.
       -3    1    3    3    0  502 -0.42785000094E+03  0.80886452899E+03  0.28416701125E+03  0.95815883341E+03  0.10100000352E+00 0.  1.
</event>
<event>
 5   0  0.2529875E-07  0.3812840E+04  0.7818609E-02  0.8043405E-01
        1   -1    0    0  501    0  0.00000000000E+00  0.00000000000E+00  0.16299316382E+04  0.16299316382E+04  0.50400001928E-02 0. -1.
       -1   -1    0    0    0  501  0.00000000000E+00  0.00000000000E+00 -0.22298093997E+04  0.22298093997E+04  0.50400001928E-02 0.  1.
    10030    2    1    2    0    0  0.00000000000E+00  0.00000000000E+00 -0.59987776149E+03  0.38597410379E+04  0.38128398276E+04 0.  0.
        1    1    3    3  502    0  0.10922225621E+02 -0.15995052046E+04  0.75007659402E+03  0.17666779819E+04  0.50400001928E-02 0. -1.
       -1    1    3    3    0  502 -0.10922225621E+02  0.15995052046E+04 -0.13499543555E+04  0.20930630561E+04  0.50400001928E-02 0.  1.
</event>
<event>
 5   0  0.7638805E-07  0.3627793E+04  0.7818609E-02  0.8084155E-01
       -2   -1    0    0    0  501  0.00000000000E+00  0.00000000000E+00  0.23227606321E+04  0.23227606321E+04  0.25500000920E-02 0.  1.
        2   -1    0    0  501    0  0.00000000000E+00  0.00000000000E+00 -0.14165132809E+04  0.14165132809E+04  0.25500000920E-02 0. -1.
    10030    2    1    2    0    0  0.00000000000E+00  0.00000000000E+00  0.90624735118E+03  0.37392739130E+04  0.36277934251E+04 0.  0.
        5    1    3    3  502    0  0.43816621503E+03 -0.16682953725E+04 -0.12537195683E+03  0.17294332307E+04  0.46999998093E+01 0. -1.
       -5    1    3    3    0  502 -0.43816621503E+03  0.16682953725E+04  0.10316193080E+04  0.20098406824E+04  0.46999998093E+01 0.  1.
</event>
<event>
 5   0  0.2529875E-07  0.3723255E+04  0.7818609E-02  0.8062828E-01
        1   -1    0    0  501    0  0.00000000000E+00  0.00000000000E+00  0.22865703651E+04  0.22865703651E+04  0.50400001928E-02 0.  1.
       -1   -1    0    0    0  501  0.00000000000E+00  0.00000000000E+00 -0.15156573219E+04  0.15156573219E+04  0.50400001928E-02 0. -1.
    10030    2    1    2    0    0  0.00000000000E+00  0.00000000000E+00  0.77091304318E+03  0.38022276871E+04  0.37232550899E+04 0.  0.
        4    1    3    3  502    0 -0.13103495690E+04 -0.12992936286E+04  0.63659041934E+03  0.19520319929E+04  0.12699999809E+01 0.  1.
       -4    1    3    3    0  502  0.13103495690E+04  0.12992936286E+04  0.13432262384E+03  0.18501956942E+04  0.12699999809E+01 0. -1.
</event>
<event>
 5   0  0.2529875E-07  0.3843017E+04  0.7818609E-02  0.8036986E-01
       -1   -1    0    0    0  501  0.00000000000E+00  0.00000000000E+00  0.17728520415E+04  0.17728520415E+04  0.50400001928E-02 0. -1.
        1   -1    0    0  501    0  0.00000000000E+00  0.00000000000E+00 -0.20826296157E+04  0.20826296157E+04  0.50400001928E-02 0.  1.
    10030    2    1    2    0    0  0.00000000000E+00  0.00000000000E+00 -0.30977757423E+03  0.38554816572E+04  0.38430166099E+04 0.  0.
        5    1    3    3  502    0  0.15321398305E+03 -0.13515076888E+04 -0.15165399812E+04  0.20371458372E+04  0.46999998093E+01 0.  1.
       -5    1    3    3    0  502 -0.15321398305E+03  0.13515076888E+04  0.12067624070E+04  0.18183358200E+04  0.46999998093E+01 0. -1.
</event>
<event>
 5   0  0.8038352E-07  0.2946357E+04  0.7818609E-02  0.8259217E-01
       -2   -1    0    0    0  501  0.00000000000E+00  0.00000000000E+00  0.13991433754E+04  0.13991433754E+04  0.25500000920E-02 0. -1.
        2   -1    0    0  501    0  0.00000000000E+00  0.00000000000E+00 -0.15511316662E+04  0.15511316662E+04  0.25500000920E-02 0.  1.
    10030    2    1    2    0    0  0.00000000000E+00  0.00000000000E+00 -0.15198829078E+03  0.29502750416E+04  0.29463574767E+04 0.  0.
        2    1    3    3  502    0 -0.14023054262E+03  0.14513574743E+04 -0.28639842952E+03  0.14859768449E+04  0.25500000920E-02 0.  1.
       -2    1    3    3    0  502  0.14023054262E+03 -0.14513574743E+04  0.13441013874E+03  0.14642981966E+04  0.25500000920E-02 0. -1.
</event>
<event>
 5   0  0.2529875E-07  0.3710604E+04  0.7818609E-02  0.8065616E-01
       -1   -1    0    0    0  501  0.00000000000E+00  0.00000000000E+00  0.13985171173E+04  0.13985171173E+04  0.50400001928E-02 0.  1.
        1   -1    0    0  501    0  0.00000000000E+00  0.00000000000E+00 -0.24612830058E+04  0.24612830058E+04  0.50400001928E-02 0. -1.
    10030    2    1    2    0    0  0.00000000000E+00  0.00000000000E+00 -0.10627658884E+04  0.38598001231E+04  0.37106044867E+04 0.  0.
        1    1    3    3  502    0  0.16959918439E+04 -0.47274833295E+03 -0.11399419917E+04  0.20974620534E+04  0.50400001928E-02 0. -1.
       -1    1    3    3    0  502 -0.16959918439E+04  0.47274833295E+03  0.77176103217E+02  0.17623380697E+04  0.50400001928E-02 0.  1.
</event>
<event>
 5   0  0.2907071E-07  0.3554153E+04  0.7818609E-02  0.8101075E-01
       -1   -1    0    0    0  501  0.00000000000E+00  0.00000000000E+00  0.16718104024E+04  0.16718104024E+04  0.50400001928E-02 0. -1.
        1   -1    0    0  501    0  0.00000000000E+00  0.00000000000E+00 -0.18889706219E+04  0.18889706219E+04  0.50400001928E-02 0.  1.
    10030    2    1    2    0    0  0.00000000000E+00  0.00000000000E+00 -0.21716021957E+03  0.35607810243E+04  0.35541529148E+04 0.  0.
        2    1    3    3  502    0  0.36925946645E+03 -0.12013859499E+03  0.16287861778E+04  0.16744343071E+04  0.25500000920E-02 0. -1.
       -2    1    3    3    0  502 -0.36925946645E+03  0.12013859499E+03 -0.18459463974E+04  0.18863467172E+04  0.25500000920E-02 0.  1.
</event>
<event>
 5   0  0.7638805E-07  0.3827240E+04  0.7818609E-02  0.8040334E-01
        2   -1    0    0  501    0  0.00000000000E+00  0.00000000000E+00  0.27319598987E+04  0.27319598987E+04  0.25500000920E-02 0.  1.
       -2   -1    0    0    0  501  0.00000000000E+00  0.00000000000E+00 -0.13404082455E+04  0.13404082455E+04  0.25500000920E-02 0. -1.
    10030    2    1    2    0    0  0.00000000000E+00  0.00000000000E+00  0.13915516532E+04  0.40723681441E+04  0.38272400366E+04 0.  0.
        5    1    3    3  502    0  0.39621819970E+03  0.16605468836E+04  0.16157405841E+04  0.23505413291E+04  0.46999998093E+01 0.  1.
       -5    1    3    3    0  502 -0.39621819970E+03 -0.16605468836E+04 -0.22418893094E+03  0.17218268151E+04  0.46999998093E+01 0. -1.
</event>
<event>
 5   0  0.7649458E-07  0.3449349E+04  0.7818609E-02  0.8125899E-01
        2   -1    0    0  501    0  0.00000000000E+00  0.00000000000E+00  0.23680860661E+04  0.23680860661E+04  0.25500000920E-02 0. -1.
       -2   -1    0    0    0  501  0.00000000000E+00  0.00000000000E+00 -0.12560787866E+04  0.12560787866E+04  0.25500000920E-02 0.  1.
    10030    2    1    2    0    0  0.00000000000E+00  0.00000000000E+00  0.11120072795E+04  0.36241648527E+04  0.34493493140E+04 0.  0.
        4    1    3    3  502    0 -0.63742461968E+03  0.10443188497E+04  0.18331703778E+04  0.22039571803E+04  0.12699999809E+01 0. -1.
       -4    1    3    3    0  502  0.63742461968E+03 -0.10443188497E+04 -0.72116309828E+03  0.14202076724E+04  0.12699999809E+01 0.  1.
</event>
<event>
 5   0  0.2907071E-07  0.3841358E+04  0.7818609E-02  0.8037337E-01
        1   -1    0    0  501    0  0.00000000000E+00  0.00000000000E+00  0.22951089924E+04  0.22951089924E+04  0.50400001928E-02 0. -1.
       -1   -1    0    0    0  501  0.00000000000E+00  0.00000000000E+00 -0.16073347507E+04  0.16073347507E+04  0.50400001928E-02 0.  1.
    10030    2    1    2    0    0  0.00000000000E+00  0.00000000000E+00  0.68777424170E+03  0.39024437430E+04  0.38413583222E+04 0.  0.
        2    1    3    3  502    0  0.37524314349E+03 -0.15132773151E+04 -0.79564199754E+03  0.17503890532E+04  0.25500000920E-02 0.  1.
       -2    1    3    3    0  502 -0.37524314349E+03  0.15132773151E+04  0.14834162392E+04  0.21520546898E+04  0.25500000920E-02 0. -1.
</event>
<event>
 5   0  0.2529875E-07  0.3791284E+04  0.7818609E-02  0.8048028E-01
       -1   -1    0    0    0  501  0.00000000000E+00  0.00000000000E+00  0.20013989397E+04  0.20013989397E+04  0.50400001928E-02 0.  1.
        1   -1    0    0  501    0  0.00000000000E+00  0.00000000000E+00 -0.17954737424E+04  0.17954737424E+04  0.50400001928E-02 0. -1.
    10030    2    1    2    0    0  0.00000000000E+00  0.00000000000E+00  0.20592519732E+03  0.37968726821E+04  0.37912843440E+04 0.  0.
        3    1    3    3  502    0 -0.16585905532E+04  0.77013639346E+03 -0.39719977083E+03  0.18713097969E+04  0.10100000352E+00 0. -1.
       -3    1    3    3    0  502  0.16585905532E+04 -0.77013639346E+03  0.60312496815E+03  0.19255628853E+04  0.10100000352E+00 0.  1.
</event>
<event>
 5   0  0.2907071E-07  0.3774918E+04  0.7818609E-02  0.8051559E-01
       -1   -1    0    0    0  501  0.00000000000E+00  0.00000000000E+00  0.25935512140E+04  0.25935512140E+04  0.50400001928E-02 0.  1.
        1   -1    0    0  501    0  0.00000000000E+00  0.00000000000E+00 -0.13735994662E+04  0.13735994662E+04  0.50400001928E-02 0. -1.
    10030    2    1    2    0    0  0.00000000000E+00  0.00000000000E+00  0.12199517477E+04  0.39671506802E+04  0.37749175160E+04 0.  0.
        2    1    3    3  502    0 -0.13812055392E+04 -0.47390887411E+03 -0.64682627337E+03  0.15970919167E+04  0.25500000920E-02 0. -1.
       -2    1    3    3    0  502  0.13812055392E+04  0.47390887411E+03  0.18667780211E+04  0.23700587635E+04  0.25500000920E-02 0.  1.
</event>
<event>
 5   0  0.8421677E-07  0.3285352E+04  0.7818609E-02  0.8166633E-01
       -2   -1    0    0    0  501  0.00000000000E+00  0.00000000000E+00  0.27417371637E+04  0.27417371637E+04  0.25500000920E-02 0.  1.
        2   -1    0    0  501    0  0.00000000000E+00  0.00000000000E+00 -0.98418776864E+03  0.98418776864E+03  0.25500000920E-02 0. -1.
    10030    2    1    2    0    0  0.00000000000E+00  0.00000000000E+00  0.17575493951E+04  0.37259249324E+04  0.32853518420E+04 0.  0.
        3    1    3    3  502    0 -0.76245489221E+03 -0.59007051799E+03 -0.62956573629E+03  0.11514658941E+04  0.10100000352E+00 0. -1.
       -3    1    3    3    0  502  0.76245489221E+03  0.59007051799E+03  0.23871151314E+04  0.25744590382E+04  0.10100000352E+00 0.  1.
</event>
<event>
 5   0  0.2529875E-07  0.3275161E+04  0.7818609E-02  0.8169244E-01
       -3   -1    0    0    0  501  0.00000000000E+00  0.00000000000E+00  0.15362086551E+04  0.15362086585E+04  0.10100000352E+00 0.  1.
        3   -1    0    0  501    0  0.00000000000E+00  0.00000000000E+00 -0.17456420630E+04  0.17456420659E+04  0.10100000352E+00 0. -1.
    10030    2    1    2    0    0  0.00000000000E+00  0.00000000000E+00 -0.20943340786E+03  0.32818507244E+04  0.32751613433E+04 0.  0.
        1    1    3    3  502    0  0.75310320171E+03 -0.14526507593E+04 -0.38918325600E+02  0.16367263965E+04  0.50400001928E-02 0.  1.
       -1    1    3    3    0  502 -0.75310320171E+03  0.14526507593E+04 -0.17051508226E+03  0.16451243279E+04  0.50400001928E-02 0. -1.
</event>
<event>
 5   0  0.2529875E-07  0.3762098E+04  0.7818609E-02  0.8054338E-01
       -1   -1    0    0    0  501  0.00000000000E+00  0.00000000000E+00  0.27138673852E+04  0.27138673852E+04  0.50400001928E-02 0.  1.
        1   -1    0    0  501    0  0.00000000000E+00  0.00000000000E+00 -0.13038019711E+04  0.13038019711E+04  0.50400001928E-02 0. -1.
    10030    2    1    2    0    0  0.00000000000E+00  0.00000000000E+00  0.14100654140E+04  0.40176693563E+04  0.37620981626E+04 0.  0.
        4    1    3    3  502    0  0.17491207038E+04  0.13627723194E+03 -0.19549756717E+02  0.17545308564E+04  0.12699999809E+01 0. -1.
       -4    1    3    3    0  502 -0.17491207038E+04 -0.13627723194E+03  0.14296151707E+04  0.22631384999E+04  0.12699999809E+01 0.  1.
</event>
<event>
 5   0  0.2529875E-07  0.2768695E+04  0.7818609E-02  0.8313054E-01
        1   -1    0    0  501    0  0.00000000000E+00  0.00000000000E+00  0.16324766291E+04  0.16324766291E+04  0.50400001928E-02 0.  1.
       -1   -1    0    0    0  501  0.00000000000E+00  0.00000000000E+00 -0.11739328240E+04  0.11739328240E+04  0.50400001928E-02 0. -1.
    10030    2    1    2    0    0  0.00000000000E+00  0.00000000000E+00  0.45854380513E+03  0.28064094531E+04  0.27686949267E+04 0.  0.
        3    1    3    3  502    0  0.10343705865E+04  0.46630791102E+03  0.10332038932E+04  0.15345604821E+04  0.10100000352E+00 0.  1.
       -3    1    3    3    0  502 -0.10343705865E+04 -0.46630791102E+03 -0.57466008812E+03  0.12718489710E+04  0.10100000352E+00 0. -1.
</event>
<event>
 5   0  0.7551495E-07  0.3394398E+04  0.7818609E-02  0.8139283E-01
        2   -1    0    0  501    0  0.00000000000E+00  0.00000000000E+00  0.22880865286E+04  0.22880865286E+04  0.25500000920E-02 0.  1.
       -2   -1    0    0    0  501  0.00000000000E+00  0.00000000000E+00 -0.12589056554E+04  0.12589056554E+04  0.25500000920E-02 0. -1.
    10030    2    1    2    0    0  0.00000000000E+00  0.00000000000E+00  0.10291808732E+04  0.35469921840E+04  0.33943983684E+04 0.  0.
        1    1    3    3  502    0  0.78816116212E+03  0.10851863226E+04 -0.57219133213E+03  0.14581598996E+04  0.50400001928E-02 0. -1.
       -1    1    3    3    0  502 -0.78816116212E+03 -0.10851863226E+04  0.16013722053E+04  0.20888322844E+04  0.50400001928E-02 0.  1.
</event>
<event>
 5   0  0.2529875E-07  0.3656284E+04  0.7818609E-02  0.8077719E-01
        1   -1    0    0  501    0  0.00000000000E+00  0.00000000000E+00  0.17205237853E+04  0.17205237853E+04  0.50400001928E-02 0. -1.
       -1   -1    0    0    0  501  0.00000000000E+00  0.00000000000E+00 -0.19424919247E+04  0.19424919247E+04  0.50400001928E-02 0.  1.
    10030    2    1    2    0    0  0.00000000000E+00  0.00000000000E+00 -0.22196813938E+03  0.36630157100E+04  0.36562842118E+04 0.  0.
        1    1    3    3  502    0  0.98929527731E+03  0.95842215968E+03 -0.13152059522E+04  0.19044802122E+04  0.50400001928E-02 0.  1.
       -1    1    3    3    0  502 -0.98929527731E+03 -0.95842215968E+03  0.10932378128E+04  0.17585354979E+04  0.50400001928E-02 0. -1.
</event>
<event>
 5   0  0.8421677E-07  0.3824201E+04  0.7818609E-02  0.8040981E-01
        2   -1    0    0  501    0  0.00000000000E+00  0.00000000000E+00  0.22522956909E+04  0.22522956909E+04  0.25500000920E-02 0. -1.
       -2   -1    0    0    0  501  0.00000000000E+00  0.00000000000E+00 -0.16232898962E+04  0.16232898962E+04  0.25500000920E-02 0.  1.
    10030    2    1    2    0    0  0.00000000000E+00  0.00000000000E+00  0.62900579467E+03  0.38755855872E+04  0.38242012700E+04 0.  0.
        3    1    3    3  502    0 -0.52694146653E+03  0.86760728761E+03 -0.13276769702E+04  0.16712677410E+04  0.10100000352E+00 0.  1.
       -3    1    3    3    0  502  0.52694146653E+03 -0.86760728761E+03  0.19566827648E+04  0.22043178462E+04  0.10100000352E+00 0. -1.
</event>
<event>
 5   0  0.8421677E-07  0.3546681E+04  0.7818609E-02  0.8102815E-01
       -2   -1    0    0    0  501  0.00000000000E+00  0.00000000000E+00  0.34013284650E+04  0.34013284650E+04  0.25500000920E-02 0.  1.
        2   -1    0    0  501    0  0.00000000000E+00  0.00000000000E+00 -0.92456145090E+03  0.92456145090E+03  0.25500000920E-02 0. -1.
    10030    2    1    2    0    0  0.00000000000E+00  0.00000000000E+00  0.24767670141E+04  0.43258899159E+04  0.35466813675E+04 0.  0.
        3    1    3    3  502    0 -0.16298928915E+04 -0.56429502025E+03  0.73584687156E+03  0.18752200768E+04  0.10100000352E+00 0.  1.
       -3    1    3    3    0  502  0.16298928915E+04  0.56429502025E+03  0.17409201426E+04  0.24506698392E+04  0.10100000352E+00 0. -1.
</event>
<event>
 5   0  0.7649458E-07  0.3791635E+04  0.7818609E-02  0.8047952E-01
       -2   -1    0    0    0  501  0.00000000000E+00  0.00000000000E+00  0.17900304380E+04  0.17900304380E+04  0.25500000920E-02 0. -1.
        2   -1    0    0  501    0  0.00000000000E+00  0.00000000000E+00 -0.20078567488E+04  0.20078567488E+04  0.25500000920E-02 0.  1.
    10030    2    1    2    0    0  0.00000000000E+00  0.00000000000E+00 -0.21782631084E+03  0.37978871868E+04  0.37916353704E+04 0.  0.
        4    1    3    3  502    0  0.72729508758E+03  0.47311848923E+03 -0.17973151690E+04  0.19957812202E+04  0.12699999809E+01 0.  1.
       -4    1    3    3    0  502 -0.72729508758E+03 -0.47311848923E+03  0.15794888581E+04  0.18021059667E+04  0.12699999809E+01 0. -1.
</event>
<event>
 5   0  0.2529875E-07  0.3757988E+04  0.7818609E-02  0.8055231E-01
        1   -1    0    0  501    0  0.00000000000E+00  0.00000000000E+00  0.33200694323E+04  0.33200694323E+04  0.50400001928E-02 0. -1.
       -1   -1    0    0    0  501  0.00000000000E+00  0.00000000000E+00 -0.10634170992E+04  0.10634170992E+04  0.50400001928E-02 0.  1.
    10030    2    1    2    0    0  0.00000000000E+00  0.00000000000E+00  0.22566523331E+04  0.43834865316E+04  0.37579880814E+04 0.  0.
        5    1    3    3  502    0  0.10434267450E+03 -0.16616006276E+04  0.21444012134E+04  0.27148264574E+04  0.46999998093E+01 0. -1.
       -5    1    3    3    0  502 -0.10434267450E+03  0.16616006276E+04  0.11225111967E+03  0.16686600742E+04  0.46999998093E+01 0.  1.
</event>
<event>
 5   0  0.7649458E-07  0.3412921E+04  0.7818609E-02  0.8134742E-01
        2   -1    0    0  501    0  0.00000000000E+00  0.00000000000E+00  0.20031872563E+04  0.20031872563E+04  0.25500000920E-02 0. -1.
       -2   -1    0    0    0  501  0.00000000000E+00  0.00000000000E+00 -0.14536868255E+04  0.14536868255E+04  0.25500000920E-02 0.  1.
    10030    2    1    2    0    0  0.00000000000E+00  0.00000000000E+00  0.54950043086E+03  0.34568740818E+04  0.34129206985E+04 0.  0.
        4    1    3    3  502    0  0.13507128389E+03 -0.13577975340E+04  0.13127144609E+04  0.18934305543E+04  0.12699999809E+01 0. -1.
       -4    1    3    3    0  502 -0.13507128389E+03  0.13577975340E+04 -0.76321403008E+03  0.15634435275E+04  0.12699999809E+01 0.  1.
</event>
<event>
 5   0  0.2529875E-07  0.3795307E+04  0.7818609E-02  0.8047163E-01
       -1   -1    0    0    0  501  0.00000000000E+00  0.00000000000E+00  0.15858765622E+04  0.15858765622E+04  0.50400001928E-02 0. -1.
        1   -1    0    0  501    0  0.00000000000E+00  0.00000000000E+00 -0.22707244592E+04  0.22707244592E+04  0.50400001928E-02 0.  1.
    10030    2    1    2    0    0  0.00000000000E+00  0.00000000000E+00 -0.68484789701E+03  0.38566010215E+04  0.37953069437E+04 0.  0.
        5    1    3    3  502    0 -0.26726916881E+03 -0.14507184207E+04 -0.15554575677E+04  0.21437087208E+04  0.46999998093E+01 0.  1.
       -5    1    3    3    0  502  0.26726916881E+03  0.14507184207E+04  0.87060967070E+03  0.17128923006E+04  0.46999998093E+01 0. -1.
</event>
<event>
 5   0  0.7551495E-07  0.3808198E+04  0.7818609E-02  0.8044398E-01
        2   -1    0    0  501    0  0.00000000000E+00  0.00000000000E+00  0.18971842417E+04  0.18971842417E+04  0.25500000920E-02 0.  1.
       -2   -1    0    0    0  501  0.00000000000E+00  0.00000000000E+00 -0.19110388158E+04  0.19110388158E+04  0.25500000920E-02 0. -1.
    10030    2    1    2    0    0  0.00000000000E+00  0.00000000000E+00 -0.13854574069E+02  0.38082230575E+04  0.38081978555E+04 0.  0.
        1    1    3    3  502    0 -0.12894820843E+04 -0.56051311643E+03  0.12770803252E+04  0.18994402219E+04  0.50400001928E-02 0.  1.
       -1    1    3    3    0  502  0.12894820843E+04  0.56051311643E+03 -0.12909348993E+04  0.19087828356E+04  0.50400001928E-02 0. -1.
</event>
<event>
 5   0  0.2907071E-07  0.3302298E+04  0.7818609E-02  0.8162311E-01
        1   -1    0    0  501    0  0.00000000000E+00  0.00000000000E+00  0.17139881106E+04  0.17139881107E+04  0.50400001928E-02 0.  1.
       -1   -1    0    0    0  501  0.00000000000E+00  0.00000000000E+00 -0.15906134048E+04  0.15906134048E+04  0.50400001928E-02 0. -1.
    10030    2    1    2    0    0  0.00000000000E+00  0.00000000000E+00  0.12337470580E+03  0.33046015155E+04  0.33022976635E+04 0.  0.
        2    1    3    3  502    0  0.14042596187E+04 -0.32966096980E+03  0.86578451959E+03  0.16823210948E+04  0.25500000920E-02 0.  1.
       -2    1    3    3    0  502 -0.14042596187E+04  0.32966096980E+03 -0.74240981379E+03  0.16222804207E+04  0.25500000920E-02 0. -1.
</event>
<event>
 5   0  0.7638805E-07  0.2638178E+04  0.7818609E-02  0.8355347E-01
       -2   -1    0    0    0  501  0.00000000000E+00  0.00000000000E+00  0.96552893141E+03  0.96552893141E+03  0.25500000920E-02 0.  1.
        2   -1    0    0  501    0  0.00000000000E+00  0.00000000000E+00 -0.18021167314E+04  0.18021167314E+04  0.25500000920E-02 0. -1.
    10030    2    1    2    0    0  0.00000000000E+00  0.00000000000E+00 -0.83658780002E+03  0.27676456628E+04  0.26381780395E+04 0.  0.
        5    1    3    3  502    0  0.21583993571E+03 -0.11647348739E+04  0.19051254456E+03  0.11997963677E+04  0.46999998093E+01 0.  1.
       -5    1    3    3    0  502 -0.21583993571E+03  0.11647348739E+04 -0.10271003446E+04  0.15678492951E+04  0.46999998093E+01 0. -1.
</event>
<event>
 5   0  0.2529875E-07  0.3788289E+04  0.7818609E-02  0.8048673E-01
        1   -1    0    0  501    0  0.00000000000E+00  0.00000000000E+00  0.24963322355E+04  0.24963322355E+04  0.50400001928E-02 0. -1.
       -1   -1    0    0    0  501  0.00000000000E+00  0.00000000000E+00 -0.14372216647E+04  0.14372216647E+04  0.50400001928E-02 0.  1.
    10030    2    1    2    0    0  0.00000000000E+00  0.00000000000E+00  0.10591105708E+04  0.39335539001E+04  0.37882886748E+04 0.  0.
        3    1    3    3  502    0  0.92021111926E+03 -0.16550484731E+04  0.48539434348E+03  0.19548866032E+04  0.10100000352E+00 0.  1.
       -3    1    3    3    0  502 -0.92021111926E+03  0.16550484731E+04  0.57371622733E+03  0.19786672970E+04  0.10100000352E+00 0. -1.
</event>
<event>
 5   0  0.2529875E-07  0.3661168E+04  0.7818609E-02  0.8076622E-01
        1   -1    0    0  501    0  0.00000000000E+00  0.00000000000E+00  0.24291709509E+04  0.24291709509E+04  0.50400001928E-02 0. -1.
       -1   -1    0    0    0  501  0.00000000000E+00  0.00000000000E+00 -0.13794985756E+04  0.13794985756E+04  0.50400001928E-02 0.  1.
    10030    2    1    2    0    0  0.00000000000E+00  0.00000000000E+00  0.10496723753E+04  0.38086695265E+04  0.36611680468E+04 0.  0.
        3    1    3    3  502    0 -0.14833346893E+04  0.10618168085E+04  0.36603928181E+03  0.18605702087E+04  0.10100000352E+00 0.  1.
       -3    1    3    3    0  502  0.14833346893E+04 -0.10618168085E+04  0.68363309348E+03  0.19480993178E+04  0.10100000352E+00 0. -1.
</event>
<event>
 5   0  0.2529875E-07  0.3814930E+04  0.7818609E-02  0.8042958E-01
        1   -1    0    0  501    0  0.00000000000E+00  0.00000000000E+00  0.20775984512E+04  0.20775984512E+04  0.50400001928E-02 0. -1.
       -1   -1    0    0    0  501  0.00000000000E+00  0.00000000000E+00 -0.17512640650E+04  0.17512640651E+04  0.50400001928E-02 0.  1.
    10030    2    1    2    0    0  0.00000000000E+00  0.00000000000E+00  0.32633438617E+03  0.38288625163E+04  0.38149304105E+04 0.  0.
        3    1    3    3  502    0  0.20656685670E+02 -0.14289174596E+04 -0.11048515568E+04  0.18063578764E+04  0.10100000352E+00 0.  1.
       -3    1    3    3    0  502 -0.20656685670E+02  0.14289174596E+04  0.14311859429E+04  0.20225046399E+04  0.10100000352E+00 0. -1.
</event>
<event>
 5   0  0.2529875E-07  0.3757350E+04  0.7818609E-02  0.8055370E-01
        1   -1    0    0  501    0  0.00000000000E+00  0.00000000000E+00  0.24081339851E+04  0.24081339851E+04  0.50400001928E-02 0. -1.
       -1   -1    0    0    0  501  0.00000000000E+00  0.00000000000E+00 -0.14656241161E+04  0.14656241161E+04  0.50400001928E-02 0.  1.
    10030    2    1    2    0    0  0.00000000000E+00  0.00000000000E+00  0.94250986906E+03  0.38737581012E+04  0.37573497273E+04 0.  0.
        4    1    3    3  502    0 -0.36253793095E+03 -0.70593467699E+03  0.22268442399E+04  0.23640250425E+04  0.12699999809E+01 0. -1.
       -4    1    3    3    0  502  0.36253793095E+03  0.70593467699E+03 -0.12843343709E+04  0.15097330587E+04  0.12699999809E+01 0.  1.
</event>
<event>
 5   0  0.2529875E-07  0.3726565E+04  0.7818609E-02  0.8062100E-01
        1   -1    0    0  501    0  0.00000000000E+00  0.00000000000E+00  0.16455518944E+04  0.16455518944E+04  0.50400001928E-02 0. -1.
       -1   -1    0    0    0  501  0.00000000000E+00  0.00000000000E+00 -0.21098222745E+04  0.21098222745E+04  0.50400001928E-02 0.  1.
    10030    2    1    2    0    0  0.00000000000E+00  0.00000000000E+00 -0.46427038005E+03  0.37553741689E+04  0.37265651963E+04 0.  0.
        5    1    3    3  502    0 -0.13503491263E+04 -0.45220243839E+02  0.10608710024E+04  0.17178349767E+04  0.46999998093E+01 0. -1.
       -5    1    3    3    0  502  0.13503491263E+04  0.45220243839E+02 -0.15251413825E+04  0.20375391922E+04  0.46999998093E+01 0.  1.
</event>
<event>
 5   0  0.7638805E-07  0.2741202E+04  0.7818609E-02  0.8321759E-01
        2   -1    0    0  501    0  0.00000000000E+00  0.00000000000E+00  0.13835437679E+04  0.13835437679E+04  0.25500000920E-02 0.  1.
       -2   -1    0    0    0  501  0.00000000000E+00  0.00000000000E+00 -0.13577793885E+04  0.13577793885E+04  0.25500000920E-02 0. -1.
    10030    2    1    2    0    0  0.00000000000E+00  0.00000000000E+00  0.25764379413E+02  0.27413231564E+04  0.27412020803E+04 0.  0.
        5    1    3    3  502    0  0.45517937402E+03 -0.46040176314E+03 -0.11952138312E+04  0.13593072641E+04  0.46999998093E+01 0. -1.
       -5    1    3    3    0  502 -0.45517937402E+03  0.46040176314E+03  0.12209782106E+04  0.13820158924E+04  0.46999998093E+01 0.  1.
</event>
<event>
 5   0  0.2529875E-07  0.3733321E+04  0.7818609E-02  0.8060617E-01
        3   -1    0    0  501    0  0.00000000000E+00  0.00000000000E+00  0.17478776384E+04  0.17478776414E+04  0.10100000352E+00 0.  1.
       -3   -1    0    0    0  501  0.00000000000E+00  0.00000000000E+00 -0.19935153646E+04  0.19935153671E+04  0.10100000352E+00 0. -1.
    10030    2    1    2    0    0  0.00000000000E+00  0.00000000000E+00 -0.24563772611E+03  0.37413930085E+04  0.37333207405E+04 0.  0.
        1    1    3    3  502    0  0.78365820997E+03  0.17062592330E+03  0.15664079960E+04  0.17597918643E+04  0.50400001928E-02 0.  1.
       -1    1    3    3    0  502 -0.78365820997E+03 -0.17062592330E+03 -0.18120457221E+04  0.19816011442E+04  0.50400001928E-02 0. -1.
</event>
<event>
 5   0  0.7551495E-07  0.3720474E+04  0.7818609E-02  0.8063440E-01
       -2   -1    0    0    0  501  0.00000000000E+00  0.00000000000E+00  0.14170344354E+04  0.14170344354E+04  0.25500000920E-02 0. -1.
        2   -1    0    0  501    0  0.00000000000E+00  0.00000000000E+00 -0.24420587983E+04  0.24420587983E+04  0.25500000920E-02 0.  1.
    10030    2    1    2    0    0  0.00000000000E+00  0.00000000000E+00 -0.10250243629E+04  0.38590932337E+04  0.37204738464E+04 0.  0.
        1    1    3    3  502    0  0.90767786459E+03  0.11342407469E+03  0.11676344612E+04  0.14832782482E+04  0.50400001928E-02 0. -1.
       -1    1    3    3    0  502 -0.90767786459E+03 -0.11342407469E+03 -0.21926588241E+04  0.23758149855E+04  0.50400001928E-02 0.  1.
</event>
<event>
 5   0  0.2529875E-07  0.3887186E+04  0.7818609E-02  0.8027700E-01
        1   -1    0    0  501    0  0.00000000000E+00  0.00000000000E+00  0.27420088131E+04  0.27420088131E+04  0.50400001928E-02 0. -1.
       -1   -1    0    0    0  501  0.00000000000E+00  0.00000000000E+00 -0.13776593299E+04  0.13776593299E+04  0.50400001928E-02 0.  1.
    10030    2    1    2    0    0  0.00000000000E+00  0.00000000000E+00  0.13643494832E+04  0.41196681429E+04  0.38871861411E+04 0.  0.
        1    1    3    3  502    0  0.14327111177E+04 -0.13061230304E+04  0.53633853427E+03  0.20115361146E+04  0.50400001928E-02 0.  1.
       -1    1    3    3    0  502 -0.14327111177E+04  0.13061230304E+04  0.82801094892E+03  0.21081320283E+04  0.50400001928E-02 0. -1.
</event>
<event>
 5   0  0.7649458E-07  0.3810860E+04  0.7818609E-02  0.8043828E-01
        2   -1    0    0  501    0  0.00000000000E+00  0.00000000000E+00  0.21982902719E+04  0.21982902719E+04  0.25500000920E-02 0.  1.
       -2   -1    0    0    0  501  0.00000000000E+00  0.00000000000E+00 -0.16515850075E+04  0.16515850075E+04  0.25500000920E-02 0. -1.
    10030    2    1    2    0    0  0.00000000000E+00  0.00000000000E+00  0.54670526439E+03  0.38498752794E+04  0.38108598795E+04 0.  0.
        4    1    3    3  502    0 -0.10208206649E+04  0.11774676898E+03 -0.13476693147E+04  0.16947428496E+04  0.12699999809E+01 0. -1.
       -4    1    3    3    0  502  0.10208206649E+04 -0.11774676898E+03  0.18943745791E+04  0.21551324299E+04  0.12699999809E+01 0.  1.
</event>
<event>
 5   0  0.8421677E-07  0.3798511E+04  0.7818609E-02  0.8046474E-01
       -2   -1    0    0    0  501  0.00000000000E+00  0.00000000000E+00  0.16969371672E+04  0.16969371672E+04  0.25500000920E-02 0.  1.
        2   -1    0    0  501    0  0.00000000000E+00  0.00000000000E+00 -0.21256955691E+04  0.21256955691E+04  0.25500000920E-02 0. -1.
    10030    2    1    2    0    0  0.00000000000E+00  0.00000000000E+00 -0.42875840185E+03  0.38226327363E+04  0.37985111912E+04 0.  0.
        3    1    3    3  502    0 -0.74542515076E+03 -0.96890390866E+03 -0.16771356585E+04  0.20753836915E+04  0.10100000352E+00 0. -1.
       -3    1    3    3    0  502  0.74542515076E+03  0.96890390866E+03  0.12483772566E+04  0.17472490448E+04  0.10100000352E+00 0.  1.
</event>
<event>
 5   0  0.2529875E-07  0.3858588E+04  0.7818609E-02  0.8033698E-01
        1   -1    0    0  501    0  0.00000000000E+00  0.00000000000E+00  0.25670363875E+04  0.25670363875E+04  0.50400001928E-02 0. -1.
       -1   -1    0    0    0  501  0.00000000000E+00  0.00000000000E+00 -0.14499894463E+04  0.14499894463E+04  0.50400001928E-02 0.  1.
    10030    2    1    2    0    0  0.00000000000E+00  0.00000000000E+00  0.11170469412E+04  0.40170258338E+04  0.38585881720E+04 0.  0.
        3    1    3    3  502    0 -0.12579435403E+04  0.98478232800E+03  0.16845826999E+04  0.23216453362E+04  0.10100000352E+00 0. -1.
       -3    1    3    3    0  502  0.12579435403E+04 -0.98478232800E+03 -0.56753575871E+03  0.16953804976E+04  0.10100000352E+00 0.  1.
</event>
<event>
 5   0  0.2529875E-07  0.3798035E+04  0.7818609E-02  0.8046577E-01
        1   -1    0    0  501    0  0.00000000000E+00  0.00000000000E+00  0.21289138598E+04  0.21289138598E+04  0.50400001928E-02 0. -1.
       -1   -1    0    0    0  501  0.00000000000E+00  0.00000000000E+00 -0.16939474561E+04  0.16939474562E+04  0.50400001928E-02 0.  1.
    10030    2    1    2    0    0  0.00000000000E+00  0.00000000000E+00  0.43496640366E+03  0.38228613160E+04  0.37980353959E+04 0.  0.
        5    1    3    3  502    0 -0.45000849442E+02 -0.35522113932E+03 -0.16596572065E+04  0.16978490119E+04  0.46999998093E+01 0.  1.
       -5    1    3    3    0  502  0.45000849442E+02  0.35522113932E+03  0.20946236101E+04  0.21250123041E+04  0.46999998093E+01 0. -1.
</event>
<event>
 5   0  0.2529875E-07  0.2613651E+04  0.7818609E-02  0.8363579E-01
       -1   -1    0    0    0  501  0.00000000000E+00  0.00000000000E+00  0.14256371193E+04  0.14256371193E+04  0.50400001928E-02 0. -1.
        1   -1    0    0  501    0  0.00000000000E+00  0.00000000000E+00 -0.11979158025E+04  0.11979158025E+04  0.50400001928E-02 0.  1.
    10030    2    1    2    0    0  0.00000000000E+00  0.00000000000E+00  0.22772131684E+03  0.26235529218E+04  0.26136512651E+04 0.  0.
        4    1    3    3  502    0  0.83111680742E+03  0.61818802073E+03 -0.68595154716E+03  0.12423536994E+04  0.12699999809E+01 0.  1.
       -4    1    3    3    0  502 -0.83111680742E+03 -0.61818802073E+03  0.91367286400E+03  0.13811992224E+04  0.12699999809E+01 0. -1.
</event>
<event>
 5   0  0.8421677E-07  0.3796663E+04  0.7818609E-02  0.8046871E-01
       -2   -1    0    0    0  501  0.00000000000E+00  0.00000000000E+00  0.12847494532E+04  0.12847494532E+04  0.25500000920E-02 0.  1.
        2   -1    0    0  501    0  0.00000000000E+00  0.00000000000E+00 -0.28049530982E+04  0.28049530982E+04  0.25500000920E-02 0. -1.
    10030    2    1    2    0    0  0.00000000000E+00  0.00000000000E+00 -0.15202036450E+04  0.40897025514E+04  0.37966627236E+04 0.  0.
        3    1    3    3  502    0  0.50265877436E+03 -0.13084524832E+04 -0.21391273912E+04  0.25574557181E+04  0.10100000352E+00 0. -1.
       -3    1    3    3    0  502 -0.50265877436E+03  0.13084524832E+04  0.61892374617E+03  0.15322468333E+04  0.10100000352E+00 0.  1.
</event>
<event>
 5   0  0.8038352E-07  0.3878683E+04  0.7818609E-02  0.8029477E-01
        2   -1    0    0  501    0  0.00000000000E+00  0.00000000000E+00  0.22450738683E+04  0.22450738683E+04  0.25500000920E-02 0.  1.
       -2   -1    0    0    0  501  0.00000000000E+00  0.00000000000E+00 -0.16752438109E+04  0.16752438109E+04  0.25500000920E-02 0. -1.
    10030    2    1    2    0    0  0.00000000000E+00  0.00000000000E+00  0.56983005738E+03  0.39203176792E+04  0.38786833347E+04 0.  0.
        2    1    3    3  502    0 -0.57661696190E+03 -0.16414978769E+04 -0.58104509810E+03  0.18342889104E+04  0.25500000920E-02 0. -1.
       -2    1    3    3    0  502  0.57661696190E+03  0.16414978769E+04  0.11508751555E+04  0.20860287688E+04  0.25500000920E-02 0.  1.
</event>
<event>
 5   0  0.8421677E-07  0.3821137E+04  0.7818609E-02  0.8041634E-01
       -2   -1    0    0    0  501  0.00000000000E+00  0.00000000000E+00  0.23470154373E+04  0.23470154373E+04  0.25500000920E-02 0.  1.
        2   -1    0    0  501    0  0.00000000000E+00  0.00000000000E+00 -0.15552828076E+04  0.15552828076E+04  0.25500000920E-02 0. -1.
    10030    2    1    2    0    0  0.00000000000E+00  0.00000000000E+00  0.79173262974E+03  0.39022982449E+04  0.38211374007E+04 0.  0.
        3    1    3    3  502    0 -0.10225798349E+04  0.89954112523E+03 -0.97253007998E+03  0.16735168124E+04  0.10100000352E+00 0. -1.
       -3    1    3    3    0  502  0.10225798349E+04 -0.89954112523E+03  0.17642627097E+04  0.22287814325E+04  0.10100000352E+00 0.  1.
</event>
<event>
 5   0  0.8038352E-07  0.3855979E+04  0.7818609E-02  0.8034247E-01
       -2   -1    0    0    0  501  0.00000000000E+00  0.00000000000E+00  0.17621016006E+04  0.17621016007E+04  0.25500000920E-02 0. -1.
        2   -1    0    0  501    0  0.00000000000E+00  0.00000000000E+00 -0.21094947526E+04  0.21094947526E+04  0.25500000920E-02 0.  1.
    10030    2    1    2    0    0  0.00000000000E+00  0.00000000000E+00 -0.34739315194E+03  0.38715963532E+04  0.38559792946E+04 0.  0.
        2    1    3    3  502    0  0.63357654026E+02 -0.16347339186E+04 -0.11980121704E+04  0.20277086421E+04  0.25500000920E-02 0.  1.
       -2    1    3    3    0  502 -0.63357654026E+02  0.16347339186E+04  0.85061901843E+03  0.18438877112E+04  0.25500000920E-02 0. -1.
</event>
<event>
 5   0  0.8421677E-07  0.3901319E+04  0.7818609E-02  0.8024755E-01
        2   -1    0    0  501    0  0.00000000000E+00  0.00000000000E+00  0.15001792903E+04  0.15001792903E+04  0.25500000920E-02 0.  1.
       -2   -1    0    0    0  501  0.00000000000E+00  0.00000000000E+00 -0.25364119928E+04  0.25364119928E+04  0.25500000920E-02 0. -1.
    10030    2    1    2    0    0  0.00000000000E+00  0.00000000000E+00 -0.10362327025E+04  0.40365912830E+04  0.39013191324E+04 0.  0.
        3    1    3    3  502    0  0.12266408824E+04 -0.15152496175E+04 -0.44914564365E+03  0.20005901822E+04  0.10100000352E+00 0.  1.
       -3    1    3    3    0  502 -0.12266408824E+04  0.15152496175E+04 -0.58708705882E+03  0.20360011008E+04  0.10100000352E+00 0. -1.
</event>
<event>
 5   0  0.7638805E-07  0.2525744E+04  0.7818609E-02  0.8393871E-01
        2   -1    0    0  501    0  0.00000000000E+00  0.00000000000E+00  0.14735693787E+04  0.14735693787E+04  0.25500000920E-02 0. -1.
       -2   -1    0    0    0  501  0.00000000000E+00  0.00000000000E+00 -0.10823012522E+04  0.10823012522E+04  0.25500000920E-02 0.  1.
    10030    2    1    2    0    0  0.00000000000E+00  0.00000000000E+00  0.39126812649E+03  0.25558706309E+04  0.25257442339E+04 0.  0.
        5    1    3    3  502    0 -0.30064325913E+03  0.57191521696E+03  0.12936341776E+04  0.14460238104E+04  0.46999998093E+01 0. -1.
       -5    1    3    3    0  502  0.30064325913E+03 -0.57191521696E+03 -0.90236605116E+03  0.11098468205E+04  0.46999998093E+01 0.  1.
</event>
<event>
 5   0  0.7649458E-07  0.3748430E+04  0.7818609E-02  0.8057313E-01
       -2   -1    0    0    0  501  0.00000000000E+00  0.00000000000E+00  0.19904394659E+04  0.19904394659E+04  0.25500000920E-02 0.  1.
        2   -1    0    0  501    0  0.00000000000E+00  0.00000000000E+00 -0.17647774747E+04  0.17647774747E+04  0.25500000920E-02 0. -1.
    10030    2    1    2    0    0  0.00000000000E+00  0.00000000000E+00  0.22566199127E+03  0.37552169406E+04  0.37484304631E+04 0.  0.
        4    1    3    3  502    0 -0.15428674350E+03  0.70524305030E+03  0.18455603261E+04  0.19817332538E+04  0.12699999809E+01 0.  1.
       -4    1    3    3    0  502  0.15428674350E+03 -0.70524305030E+03 -0.16198983348E+04  0.17734836868E+04  0.12699999809E+01 0. -1.
</event>
<event>
 5   0  0.7649458E-07  0.3804052E+04  0.7818609E-02  0.8045286E-01
        2   -1    0    0  501    0  0.00000000000E+00  0.00000000000E+00  0.21947371066E+04  0.21947371066E+04  0.25500000920E-02 0. -1.
       -2   -1    0    0    0  501  0.00000000000E+00  0.00000000000E+00 -0.16483534619E+04  0.16483534619E+04  0.25500000920E-02 0.  1.
    10030    2    1    2    0    0  0.00000000000E+00  0.00000000000E+00  0.54638364468E+03  0.38430905685E+04  0.38040517913E+04 0.  0.
        4    1    3    3  502    0 -0.18627234417E+04 -0.27952554932E+03  0.54015305409E+03  0.19594999586E+04  0.12699999809E+01 0.  1.
       -4    1    3    3    0  502  0.18627234417E+04  0.27952554932E+03  0.62305905849E+01  0.18835906100E+04  0.12699999809E+01 0. -1.
</event>
<event>
 5   0  0.2529875E-07  0.3775436E+04  0.7818609E-02  0.8051447E-01
        1   -1    0    0  501    0  0.00000000000E+00  0.00000000000E+00  0.17987010108E+04  0.17987010108E+04  0.50400001928E-02 0.  1.
       -1   -1    0    0    0  501  0.00000000000E+00  0.00000000000E+00 -0.19811407590E+04  0.19811407590E+04  0.50400001928E-02 0. -1.
    10030    2    1    2    0    0  0.00000000000E+00  0.00000000000E+00 -0.18243974819E+03  0.37798417698E+04  0.37754363381E+04 0.  0.
        1    1    3    3  502    0 -0.28644326385E+03  0.63925234831E+03  0.16637621279E+04  0.18052140390E+04  0.50400001928E-02 0.  1.
       -1    1    3    3    0  502  0.28644326385E+03 -0.63925234831E+03 -0.18462018761E+04  0.19746277309E+04  0.50400001928E-02 0. -1.
</event>
<event>
 5   0  0.8038352E-07  0.3784415E+04  0.7818609E-02  0.8049508E-01
        2   -1    0    0  501    0  0.00000000000E+00  0.00000000000E+00  0.22848053974E+04  0.22848053974E+04  0.25500000920E-02 0. -1.
       -2   -1    0    0    0  501  0.00000000000E+00  0.00000000000E+00 -0.15670697292E+04  0.15670697292E+04  0.25500000920E-02 0.  1.
    10030    2    1    2    0    0  0.00000000000E+00  0.00000000000E+00  0.71773566820E+03  0.38518751266E+04  0.37844150805E+04 0.  0.
        2    1    3    3  502    0 -0.18823711912E+04 -0.19032173969E+03  0.32823636549E+03  0.19202298763E+04  0.25500000920E-02 0. -1.
       -2    1    3    3    0  502  0.18823711912E+04  0.19032173969E+03  0.38949930271E+03  0.19316452503E+04  0.25500000920E-02 0.  1.
</event>
<event>
 5   0  0.2529875E-07  0.3549785E+04  0.7818609E-02  0.8102092E-01
        1   -1    0    0  501    0  0.00000000000E+00  0.00000000000E+00  0.31061011370E+04  0.31061011370E+04  0.50400001928E-02 0.  1.
       -1   -1    0    0    0  501  0.00000000000E+00  0.00000000000E+00 -0.10142112871E+04  0.10142112871E+04  0.50400001928E-02 0. -1.
    10030    2    1    2    0    0  0.00000000000E+00  0.00000000000E+00  0.20918898499E+04  0.41203124241E+04  0.35497846876E+04 0.  0.
        5    1    3    3  502    0 -0.13078702000E+04  0.10981681238E+04  0.16070948539E+04  0.23450530160E+04  0.46999998093E+01 0. -1.
       -5    1    3    3    0  502  0.13078702000E+04 -0.10981681238E+04  0.48479499600E+03  0.17752594082E+04  0.46999998093E+01 0.  1.
</event>
<event>
 5   0  0.2529875E-07  0.3741493E+04  0.7818609E-02  0.8058828E-01
       -1   -1    0    0    0  501  0.00000000000E+00  0.00000000000E+00  0.17201361393E+04  0.17201361393E+04  0.50400001928E-02 0. -1.
        1   -1    0    0  501    0  0.00000000000E+00  0.00000000000E+00 -0.20345444231E+04  0.20345444232E+04  0.50400001928E-02 0.  1.
    10030    2    1    2    0    0  0.00000000000E+00  0.00000000000E+00 -0.31440828382E+03  0.37546805625E+04  0.37414934929E+04 0.  0.
        1    1    3    3  502    0 -0.70745251865E+03 -0.11791821275E+04 -0.14300332482E+04  0.19839240527E+04  0.50400001928E-02 0.  1.
       -1    1    3    3    0  502  0.70745251865E+03  0.11791821275E+04  0.11156249644E+04  0.17707565098E+04  0.50400001928E-02 0. -1.
</event>
<event>
 5   0  0.2529875E-07  0.3808980E+04  0.7818609E-02  0.8044231E-01
        1   -1    0    0  501    0  0.00000000000E+00  0.00000000000E+00  0.19356891791E+04  0.19356891791E+04  0.50400001928E-02 0. -1.
       -1   -1    0    0    0  501  0.00000000000E+00  0.00000000000E+00 -0.18737933999E+04  0.18737933999E+04  0.50400001928E-02 0.  1.
    10030    2    1    2    0    0  0.00000000000E+00  0.00000000000E+00  0.61895779194E+02  0.38094825790E+04  0.38089797101E+04 0.  0.
        5    1    3    3  502    0 -0.15771814641E+04  0.10493896295E+04  0.22677862456E+03  0.19079231116E+04  0.46999998093E+01 0. -1.
       -5    1    3    3    0  502  0.15771814641E+04 -0.10493896295E+04 -0.16488284537E+03  0.19015594674E+04  0.46999998093E+01 0.  1.
</event>
<event>
 5   0  0.7551495E-07  0.3830537E+04  0.7818609E-02  0.8039633E-01
       -2   -1    0    0    0  501  0.00000000000E+00  0.00000000000E+00  0.27248807859E+04  0.27248807859E+04  0.25500000920E-02 0.  1.
        2   -1    0    0  501    0  0.00000000000E+00  0.00000000000E+00 -0.13462070498E+04  0.13462070498E+04  0.25500000920E-02 0. -1.
    10030    2    1    2    0    0  0.00000000000E+00  0.00000000000E+00  0.13786737361E+04  0.40710878358E+04  0.38305371550E+04 0.  0.
        1    1    3    3  502    0 -0.14222608442E+04 -0.12480900383E+03 -0.66749077217E+03  0.15760542907E+04  0.50400001928E-02 0. -1.
       -1    1    3    3    0  502  0.14222608442E+04  0.12480900383E+03  0.20461645083E+04  0.24950335451E+04  0.50400001928E-02 0.  1.
</event>
<event>
 5   0  0.8421677E-07  0.3913248E+04  0.7818609E-02  0.8022279E-01
       -2   -1    0    0    0  501  0.00000000000E+00  0.00000000000E+00  0.35283175577E+04  0.35283175577E+04  0.25500000920E-02 0.  1.
        2   -1    0    0  501    0  0.00000000000E+00  0.00000000000E+00 -0.10850435500E+04  0.10850435500E+04  0.25500000920E-02 0. -1.
    10030    2    1    2    0    0  0.00000000000E+00  0.00000000000E+00  0.24432740077E+04  0.46133611076E+04  0.39132483735E+04 0.  0.
        3    1    3    3  502    0  0.10135384806E+04 -0.14840450227E+04  0.30942677889E+03  0.18235665118E+04  0.10100000352E+00 0. -1.
       -3    1    3    3    0  502 -0.10135384806E+04  0.14840450227E+04  0.21338472288E+04  0.27897945959E+04  0.10100000352E+00 0.  1.
</event>
<event>
 5   0  0.7638805E-07  0.3686841E+04  0.7818609E-02  0.8070884E-01
       -2   -1    0    0    0  501  0.00000000000E+00  0.00000000000E+00  0.12250918238E+04  0.12250918238E+04  0.25500000920E-02 0.  1.
        2   -1    0    0  501    0  0.00000000000E+00  0.00000000000E+00 -0.27738323949E+04  0.27738323949E+04  0.25500000920E-02 0. -1.
    10030    2    1    2    0    0  0.00000000000E+00  0.00000000000E+00 -0.15487405711E+04  0.39989242188E+04  0.36868411345E+04 0.  0.
        5    1    3    3  502    0  0.17727387691E+04  0.50066443680E+03 -0.85037056181E+03  0.20288962034E+04  0.46999998093E+01 0. -1.
       -5    1    3    3    0  502 -0.17727387691E+04 -0.50066443680E+03 -0.69837000930E+03  0.19700280154E+04  0.46999998093E+01 0.  1.
</event>
<event>
 5   0  0.2529875E-07  0.3781894E+04  0.7818609E-02  0.8050052E-01
       -1   -1    0    0    0  501  0.00000000000E+00  0.00000000000E+00  0.25021085884E+04  0.25021085884E+04  0.50400001928E-02 0. -1.
        1   -1    0    0  501    0  0.00000000000E+00  0.00000000000E+00 -0.14290666122E+04  0.14290666123E+04  0.50400001928E-02 0.  1.
    10030    2    1    2    0    0  0.00000000000E+00  0.00000000000E+00  0.10730419762E+04  0.39311752007E+04  0.37818936230E+04 0.  0.
        5    1    3    3  502    0  0.13312072711E+04  0.35283815104E+03 -0.81040871506E+03  0.15979336453E+04  0.46999998093E+01 0.  1.
       -5    1    3    3    0  502 -0.13312072711E+04 -0.35283815104E+03  0.18834506913E+04  0.23332415554E+04  0.46999998093E+01 0. -1.
</event>
<event>
 5   0  0.8421677E-07  0.2741223E+04  0.7818609E-02  0.8321752E-01
        2   -1    0    0  501    0  0.00000000000E+00  0.00000000000E+00  0.12033566176E+04  0.12033566176E+04  0.25500000920E-02 0.  1.
       -2   -1    0    0    0  501  0.00000000000E+00  0.00000000000E+00 -0.15611132919E+04  0.15611132919E+04  0.25500000920E-02 0. -1.
    10030    2    1    2    0    0  0.00000000000E+00  0.00000000000E+00 -0.35775667434E+03  0.27644699095E+04  0.27412230925E+04 0.  0.
        3    1    3    3  502    0  0.45855174106E+03  0.51638450459E+03  0.10150762110E+04  0.12277224361E+04  0.10100000352E+00 0.  1.
       -3    1    3    3    0  502 -0.45855174106E+03 -0.51638450459E+03 -0.13728328853E+04  0.15367474734E+04  0.10100000352E+00 0. -1.
</event>
<event>
 5   0  0.7649458E-07  0.3782172E+04  0.7818609E-02  0.8049992E-01
        2   -1    0    0  501    0  0.00000000000E+00  0.00000000000E+00  0.32758335158E+04  0.32758335158E+04  0.25500000920E-02 0.  1.
       -2   -1    0    0    0  501  0.00000000000E+00  0.00000000000E+00 -0.10916935624E+04  0.10916935624E+04  0.25500000920E-02 0. -1.
    10030    2    1    2    0    0  0.00000000000E+00  0.00000000000E+00  0.21841399534E+04  0.43675270782E+04  0.37821720535E+04 0.  0.
        4    1    3    3  502    0 -0.65349058963E+03  0.21059546732E+03  0.31268217881E+04  0.32013148094E+04  0.12699999809E+01 0.  1.
       -4    1    3    3    0  502  0.65349058963E+03 -0.21059546732E+03 -0.94268183464E+03  0.11662122688E+04  0.12699999809E+01 0. -1.
</event>
<event>
 5   0  0.7638805E-07  0.3803417E+04  0.7818609E-02  0.8045422E-01
       -2   -1    0    0    0  501  0.00000000000E+00  0.00000000000E+00  0.22873722911E+04  0.22873722911E+04  0.25500000920E-02 0.  1.
        2   -1    0    0  501    0  0.00000000000E+00  0.00000000000E+00 -0.15810697973E+04  0.15810697973E+04  0.25500000920E-02 0. -1.
    10030    2    1    2    0    0  0.00000000000E+00  0.00000000000E+00  0.70630249382E+03  0.38684420883E+04  0.38034170134E+04 0.  0.
        5    1    3    3  502    0 -0.17650628217E+03 -0.16440150328E+02  0.22789445273E+04  0.22858335449E+04  0.46999998093E+01 0.  1.
       -5    1    3    3    0  502  0.17650628217E+03  0.16440150328E+02 -0.15726420335E+04  0.15826085434E+04  0.46999998093E+01 0. -1.
</event>
<event>
 5   0  0.2529875E-07  0.3722797E+04  0.7818609E-02  0.8062928E-01
       -1   -1    0    0    0  501  0.00000000000E+00  0.00000000000E+00  0.17648682075E+04  0.17648682076E+04  0.50400001928E-02 0. -1.
        1   -1    0    0  501    0  0.00000000000E+00  0.00000000000E+00 -0.19632084147E+04  0.19632084147E+04  0.50400001928E-02 0.  1.
    10030    2    1    2    0    0  0.00000000000E+00  0.00000000000E+00 -0.19834020718E+03  0.37280766223E+04  0.37227968604E+04 0.  0.
        5    1    3    3  502    0 -0.55580192405E+03  0.98717732980E+03  0.13798629705E+04  0.17853511606E+04  0.46999998093E+01 0. -1.
       -5    1    3    3    0  502  0.55580192405E+03 -0.98717732980E+03 -0.15782031777E+04  0.19427254617E+04  0.46999998093E+01 0.  1.
</event>
<event>
 5   0  0.8421677E-07  0.3318627E+04  0.7818609E-02  0.8158172E-01
        2   -1    0    0  501    0  0.00000000000E+00  0.00000000000E+00  0.22325906966E+04  0.22325906966E+04  0.25500000920E-02 0.  1.
       -2   -1    0    0    0  501  0.00000000000E+00  0.00000000000E+00 -0.12332408269E+04  0.12332408269E+04  0.25500000920E-02 0. -1.
    10030    2    1    2    0    0  0.00000000000E+00  0.00000000000E+00  0.99934986968E+03  0.34658315235E+04  0.33186274252E+04 0.  0.
        3    1    3    3  502    0  0.65296381898E+03  0.15216975764E+04  0.61116571572E+03  0.17650633998E+04  0.10100000352E+00 0.  1.
       -3    1    3    3    0  502 -0.65296381898E+03 -0.15216975764E+04  0.38818415396E+03  0.17007681237E+04  0.10100000352E+00 0. -1.
</event>
<event>
 5   0  0.7551495E-07  0.3839035E+04  0.7818609E-02  0.8037830E-01
        2   -1    0    0  501    0  0.00000000000E+00  0.00000000000E+00  0.18911220332E+04  0.18911220332E+04  0.25500000920E-02 0.  1.
       -2   -1    0    0    0  501  0.00000000000E+00  0.00000000000E+00 -0.19483397544E+04  0.19483397544E+04  0.25500000920E-02 0. -1.
    10030    2    1    2    0    0  0.00000000000E+00  0.00000000000E+00 -0.57217721200E+02  0.38394617876E+04  0.38390354193E+04 0.  0.
        1    1    3    3  502    0 -0.89382393417E+03  0.27492418974E+03  0.16478958102E+04  0.18947467210E+04  0.50400001928E-02 0.  1.
       -1    1    3    3    0  502  0.89382393417E+03 -0.27492418974E+03 -0.17051135314E+04  0.19447150666E+04  0.50400001928E-02 0. -1.
</event>
<event>
 5   0  0.7649458E-07  0.2657628E+04  0.7818609E-02  0.8348885E-01
       -2   -1    0    0    0  501  0.00000000000E+00  0.00000000000E+00  0.12407020197E+04  0.12407020197E+04  0.25500000920E-02 0.  1.
        2   -1    0    0  501    0  0.00000000000E+00  0.00000000000E+00 -0.14231840380E+04  0.14231840380E+04  0.25500000920E-02 0. -1.
    10030    2    1    2    0    0  0.00000000000E+00  0.00000000000E+00 -0.18248201824E+03  0.26638860577E+04  0.26576284995E+04 0.  0.
        4    1    3    3  502    0 -0.70322891496E+03  0.70050886485E+03 -0.97678148445E+03  0.13926044872E+04  0.12699999809E+01 0. -1.
       -4    1    3    3    0  502  0.70322891496E+03 -0.70050886485E+03  0.79429946621E+03  0.12712815705E+04  0.12699999809E+01 0.  1.
</event>
<event>
 5   0  0.7551495E-07  0.3583054E+04  0.7818609E-02  0.8094384E-01
       -2   -1    0    0    0  501  0.00000000000E+00  0.00000000000E+00  0.23002044430E+04  0.23002044430E+04  0.25500000920E-02 0.  1.
        2   -1    0    0  501    0  0.00000000000E+00  0.00000000000E+00 -0.13953408136E+04  0.13953408136E+04  0.25500000920E-02 0. -1.
    10030    2    1    2    0    0  0.00000000000E+00  0.00000000000E+00  0.90486362939E+03  0.36955452565E+04  0.35830540821E+04 0.  0.
        1    1    3    3  502    0  0.36666461395E+03  0.72953714136E+03  0.20971441622E+04  0.22504846182E+04  0.50400001928E-02 0.  1.
       -1    1    3    3    0  502 -0.36666461395E+03 -0.72953714136E+03 -0.11922805328E+04  0.14450606384E+04  0.50400001928E-02 0. -1.
</event>
<event>
 5   0  0.8421677E-07  0.3803110E+04  0.7818609E-02  0.8045488E-01
       -2   -1    0    0    0  501  0.00000000000E+00  0.00000000000E+00  0.17247149748E+04  0.17247149748E+04  0.25500000920E-02 0. -1.
        2   -1    0    0  501    0  0.00000000000E+00  0.00000000000E+00 -0.20965270502E+04  0.20965270502E+04  0.25500000920E-02 0.  1.
    10030    2    1    2    0    0  0.00000000000E+00  0.00000000000E+00 -0.37181207546E+03  0.38212420250E+04  0.38031100949E+04 0.  0.
        3    1    3    3  502    0 -0.13411479327E+04  0.16194196937E+03 -0.15305722249E+04  0.20414588716E+04  0.10100000352E+00 0.  1.
       -3    1    3    3    0  502  0.13411479327E+04 -0.16194196937E+03  0.11587601494E+04  0.17797831533E+04  0.10100000352E+00 0. -1.
</event>
<event>
 5   0  0.8038352E-07  0.3574587E+04  0.7818609E-02  0.8096338E-01
        2   -1    0    0  501    0  0.00000000000E+00  0.00000000000E+00  0.20052505962E+04  0.20052505962E+04  0.25500000920E-02 0.  1.
       -2   -1    0    0    0  501  0.00000000000E+00  0.00000000000E+00 -0.15930270837E+04  0.15930270837E+04  0.25500000920E-02 0. -1.
    10030    2    1    2    0    0  0.00000000000E+00  0.00000000000E+00  0.41222351251E+03  0.35982776798E+04  0.35745872541E+04 0.  0.
        2    1    3    3  502    0 -0.17419593102E+04 -0.91621452609E+02 -0.18582944839E+03  0.17542375303E+04  0.25500000920E-02 0. -1.
       -2    1    3    3    0  502  0.17419593102E+04  0.91621452609E+02  0.59805296091E+03  0.18440401495E+04  0.25500000920E-02 0.  1.
</event>
<event>
 5   0  0.7551495E-07  0.3678640E+04  0.7818609E-02  0.8072712E-01
       -2   -1    0    0    0  501  0.00000000000E+00  0.00000000000E+00  0.15687989337E+04  0.15687989337E+04  0.25500000920E-02 0.  1.
        2   -1    0    0  501    0  0.00000000000E+00  0.00000000000E+00 -0.21564892204E+04  0.21564892204E+04  0.25500000920E-02 0. -1.
    10030    2    1    2    0    0  0.00000000000E+00  0.00000000000E+00 -0.58769028666E+03  0.37252881541E+04  0.36786399604E+04 0.  0.
        1    1    3    3  502    0 -0.12271463288E+04  0.31542657406E+03 -0.16440627666E+04  0.20756503599E+04  0.50400001928E-02 0. -1.
       -1    1    3    3    0  502  0.12271463288E+04 -0.31542657406E+03  0.10563724799E+04  0.16496377943E+04  0.50400001928E-02 0.  1.
</event>
<event>
 5   0  0.8038352E-07  0.3783020E+04  0.7818609E-02  0.8049809E-01
       -2   -1    0    0    0  501  0.00000000000E+00  0.00000000000E+00  0.15223076232E+04  0.15223076232E+04  0.25500000920E-02 0.  1.
        2   -1    0    0  501    0  0.00000000000E+00  0.00000000000E+00 -0.23502544242E+04  0.23502544242E+04  0.25500000920E-02 0. -1.
    10030    2    1    2    0    0  0.00000000000E+00  0.00000000000E+00 -0.82794680098E+03  0.38725620474E+04  0.37830200774E+04 0.  0.
        2    1    3    3  502    0 -0.96128399088E+03  0.14150240746E+04 -0.12402022289E+04  0.21129272613E+04  0.25500000920E-02 0. -1.
       -2    1    3    3    0  502  0.96128399088E+03 -0.14150240746E+04  0.41225542791E+03  0.17596347862E+04  0.25500000920E-02 0.  1.
</event>
<event>
 5   0  0.2529875E-07  0.2517710E+04  0.7818609E-02  0.8396703E-01
       -1   -1    0    0    0  501  0.00000000000E+00  0.00000000000E+00  0.85241118093E+03  0.85241118095E+03  0.50400001928E-02 0. -1.
        1   -1    0    0  501    0  0.00000000000E+00  0.00000000000E+00 -0.18590985106E+04  0.18590985107E+04  0.50400001928E-02 0.  1.
    10030    2    1    2    0    0  0.00000000000E+00  0.00000000000E+00 -0.10066873297E+04  0.27115096916E+04  0.25177103542E+04 0.  0.
        1    1    3    3  502    0  0.89651618240E+03 -0.20720089562E+03 -0.14285661799E+04  0.16992571338E+04  0.50400001928E-02 0.  1.
       -1    1    3    3    0  502 -0.89651618240E+03  0.20720089562E+03  0.42187885020E+03  0.10122525578E+04  0.50400001928E-02 0. -1.
</event>
<event>
 5   0  0.2907071E-07  0.2365251E+04  0.7818609E-02  0.8452629E-01
        1   -1    0    0  501    0  0.00000000000E+00  0.00000000000E+00  0.21922938257E+04  0.21922938257E+04  0.50400001928E-02 0.  1.
       -1   -1    0    0    0  501  0.00000000000E+00  0.00000000000E+00 -0.63796324841E+03  0.63796324843E+03  0.50400001928E-02 0. -1.
    10030    2    1    2    0    0  0.00000000000E+00  0.00000000000E+00  0.15543305772E+04  0.28302570741E+04  0.23652508455E+04 0.  0.
        2    1    3    3  502    0  0.70056939162E+03 -0.82996534093E+03  0.21723495337E+03  0.11076240177E+04  0.25500000920E-02 0. -1.
       -2    1    3    3    0  502 -0.70056939162E+03  0.82996534093E+03  0.13370956239E+04  0.17226330564E+04  0.25500000920E-02 0.  1.
</event>
<event>
 5   0  0.2529875E-07  0.3665768E+04  0.7818609E-02  0.8075591E-01
       -1   -1    0    0    0  501  0.00000000000E+00  0.00000000000E+00  0.13743454990E+04  0.13743454990E+04  0.50400001928E-02 0.  1.
        1   -1    0    0  501    0  0.00000000000E+00  0.00000000000E+00 -0.24444105146E+04  0.24444105146E+04  0.50400001928E-02 0. -1.
    10030    2    1    2    0    0  0.00000000000E+00  0.00000000000E+00 -0.10700650156E+04  0.38187560137E+04  0.36657684535E+04 0.  0.
        4    1    3    3  502    0 -0.75695095309E+03 -0.53686610587E+03  0.11115214277E+04  0.14479922162E+04  0.12699999809E+01 0.  1.
       -4    1    3    3    0  502  0.75695095309E+03  0.53686610587E+03 -0.21815864433E+04  0.23707637975E+04  0.12699999809E+01 0. -1.
</event>
<event>
 5   0  0.2529875E-07  0.3942495E+04  0.7818609E-02  0.8016249E-01
       -3   -1    0    0    0  501  0.00000000000E+00  0.00000000000E+00  0.15740467636E+04  0.15740467669E+04  0.10100000352E+00 0.  1.
        3   -1    0    0  501    0  0.00000000000E+00  0.00000000000E+00 -0.24686792356E+04  0.24686792377E+04  0.10100000352E+00 0. -1.
    10030    2    1    2    0    0  0.00000000000E+00  0.00000000000E+00 -0.89463247196E+03  0.40427260046E+04  0.39424949319E+04 0.  0.
        2    1    3    3  502    0 -0.10241833933E+04  0.16699362652E+04 -0.22224150830E+03  0.19715552340E+04  0.25500000920E-02 0.  1.
       -2    1    3    3    0  502  0.10241833933E+04 -0.16699362652E+04 -0.67239096366E+03  0.20711707705E+04  0.25500000920E-02 0. -1.
</event>
<event>
 5   0  0.8421677E-07  0.3001001E+04  0.7818609E-02  0.8243445E-01
       -2   -1    0    0    0  501  0.00000000000E+00  0.00000000000E+00  0.12909852462E+04  0.12909852462E+04  0.25500000920E-02 0.  1.
        2   -1    0    0  501    0  0.00000000000E+00  0.00000000000E+00 -0.17440181899E+04  0.17440181899E+04  0.25500000920E-02 0. -1.
    10030    2    1    2    0    0  0.00000000000E+00  0.00000000000E+00 -0.45303294374E+03  0.30350034361E+04  0.30010010012E+04 0.  0.
        3    1    3    3  502    0 -0.48707859570E+03 -0.90732943258E+03  0.87718254771E+03  0.13527532997E+04  0.10100000352E+00 0.  1.
       -3    1    3    3    0  502  0.48707859570E+03  0.90732943258E+03 -0.13302154914E+04  0.16822501364E+04  0.10100000352E+00 0. -1.
</event>
<event>
 5   0  0.8421677E-07  0.3777344E+04  0.7818609E-02  0.8051034E-01
        2   -1    0    0  501    0  0.00000000000E+00  0.00000000000E+00  0.14964397648E+04  0.14964397648E+04  0.25500000920E-02 0. -1.
       -2   -1    0    0    0  501  0.00000000000E+00  0.00000000000E+00 -0.23837127438E+04  0.23837127438E+04  0.25500000920E-02 0.  1.
    10030    2    1    2    0    0  0.00000000000E+00  0.00000000000E+00 -0.88727297908E+03  0.38801525086E+04  0.37773443251E+04 0.  0.
        3    1    3    3  502    0  0.73227922087E+03 -0.91734348374E+03  0.10762735888E+04  0.15925190023E+04  0.10100000352E+00 0. -1.
       -3    1    3    3    0  502 -0.73227922087E+03  0.91734348374E+03 -0.19635465679E+04  0.22876335063E+04  0.10100000352E+00 0.  1.
</event>
<event>
 5   0  0.2529875E-07  0.2786276E+04  0.7818609E-02  0.8307542E-01
       -1   -1    0    0    0  501  0.00000000000E+00  0.00000000000E+00  0.74717592506E+03  0.74717592507E+03  0.50400001928E-02 0.  1.
        1   -1    0    0  501    0  0.00000000000E+00  0.00000000000E+00 -0.25975584881E+04  0.25975584881E+04  0.50400001928E-02 0. -1.
    10030    2    1    2    0    0  0.00000000000E+00  0.00000000000E+00 -0.18503825631E+04  0.33447344132E+04  0.27862757698E+04 0.  0.
        3    1    3    3  502    0 -0.25195976126E+03 -0.93646014888E+01 -0.25699415075E+04  0.25822801511E+04  0.10100000352E+00 0. -1.
       -3    1    3    3    0  502  0.25195976126E+03  0.93646014888E+01  0.71955894440E+03  0.76245426205E+03  0.10100000352E+00 0.  1.
</event>
<event>
 5   0  0.2529875E-07  0.3814412E+04  0.7818609E-02  0.8043069E-01
       -1   -1    0    0    0  501  0.00000000000E+00  0.00000000000E+00  0.13966555126E+04  0.13966555127E+04  0.50400001928E-02 0.  1.
        1   -1    0    0  501    0  0.00000000000E+00  0.00000000000E+00 -0.26043889072E+04  0.26043889072E+04  0.50400001928E-02 0. -1.
    10030    2    1    2    0    0  0.00000000000E+00  0.00000000000E+00 -0.12077333946E+04  0.40010444199E+04  0.38144116843E+04 0.  0.
        4    1    3    3  502    0  0.18468081920E+04 -0.47592245537E+03 -0.61976860475E+03  0.20053222728E+04  0.12699999809E+01 0.  1.
       -4    1    3    3    0  502 -0.18468081920E+04  0.47592245537E+03 -0.58796478981E+03  0.19957221471E+04  0.12699999809E+01 0. -1.
</event>
<event>
 5   0  0.2529875E-07  0.3857658E+04  0.7818609E-02  0.8033894E-01
        1   -1    0    0  501    0  0.00000000000E+00  0.00000000000E+00  0.24067703733E+04  0.24067703733E+04  0.50400001928E-02 0. -1.
       -1   -1    0    0    0  501  0.00000000000E+00  0.00000000000E+00 -0.15457982086E+04  0.15457982086E+04  0.50400001928E-02 0.  1.
    10030    2    1    2    0    0  0.00000000000E+00  0.00000000000E+00  0.86097216468E+03  0.39525685819E+04  0.38576580106E+04 0.  0.
        5    1    3    3  502    0  0.16295827779E+04 -0.22403697985E+03  0.14625552915E+04  0.22010957883E+04  0.46999998093E+01 0. -1.
       -5    1    3    3    0  502 -0.16295827779E+04  0.22403697985E+03 -0.60158312687E+03  0.17514727937E+04  0.46999998093E+01 0.  1.
</event>
<event>
 5   0  0.7649458E-07  0.3681856E+04  0.7818609E-02  0.8071995E-01
       -2   -1    0    0    0  501  0.00000000000E+00  0.00000000000E+00  0.14352382430E+04  0.14352382430E+04  0.25500000920E-02 0. -1.
        2   -1    0    0  501    0  0.00000000000E+00  0.00000000000E+00 -0.23612913884E+04  0.23612913884E+04  0.25500000920E-02 0.  1.
    10030    2    1    2    0    0  0.00000000000E+00  0.00000000000E+00 -0.92605314539E+03  0.37965296314E+04  0.36818558926E+04 0.  0.
        4    1    3    3  502    0  0.10721854384E+04  0.89119031473E+03 -0.17026387447E+04  0.22006322044E+04  0.12699999809E+01 0.  1.
       -4    1    3    3    0  502 -0.10721854384E+04 -0.89119031473E+03  0.77658559928E+03  0.15958974269E+04  0.12699999809E+01 0. -1.
</event>
<event>
 5   0  0.7649458E-07  0.3063385E+04  0.7818609E-02  0.8225859E-01
       -2   -1    0    0    0  501  0.00000000000E+00  0.00000000000E+00  0.10275881478E+04  0.10275881478E+04  0.25500000920E-02 0.  1.
        2   -1    0    0  501    0  0.00000000000E+00  0.00000000000E+00 -0.22830961898E+04  0.22830961898E+04  0.25500000920E-02 0. -1.
    10030    2    1    2    0    0  0.00000000000E+00  0.00000000000E+00 -0.12555080420E+04  0.33106843377E+04  0.30633854378E+04 0.  0.
        4    1    3    3  502    0  0.14531925203E+04 -0.46986807981E+03 -0.50201540873E+03  0.16076584205E+04  0.12699999809E+01 0.  1.
       -4    1    3    3    0  502 -0.14531925203E+04  0.46986807981E+03 -0.75349263324E+03  0.17030259172E+04  0.12699999809E+01 0. -1.
</event>
<event>
 5   0  0.8421677E-07  0.3801414E+04  0.7818609E-02  0.8045851E-01
        2   -1    0    0  501    0  0.00000000000E+00  0.00000000000E+00  0.19555313164E+04  0.19555313164E+04  0.25500000920E-02 0.  1.
       -2   -1    0    0    0  501  0.00000000000E+00  0.00000000000E+00 -0.18474200583E+04  0.18474200583E+04  0.25500000920E-02 0. -1.
    10030    2    1    2    0    0  0.00000000000E+00  0.00000000000E+00  0.10811125808E+03  0.38029513747E+04  0.38014143571E+04 0.  0.
        3    1    3    3  502    0 -0.12107766362E+04  0.29514900306E+03 -0.13816534680E+04  0.18606609881E+04  0.10100000352E+00 0. -1.
       -3    1    3    3    0  502  0.12107766362E+04 -0.29514900306E+03  0.14897647261E+04  0.19422903866E+04  0.10100000352E+00 0.  1.
</event>
<event>
 5   0  0.2529875E-07  0.3853546E+04  0.7818609E-02  0.8034761E-01
        1   -1    0    0  501    0  0.00000000000E+00  0.00000000000E+00  0.14057564309E+04  0.14057564310E+04  0.50400001928E-02 0.  1.
       -1   -1    0    0    0  501  0.00000000000E+00  0.00000000000E+00 -0.26408950044E+04  0.26408950044E+04  0.50400001928E-02 0. -1.
    10030    2    1    2    0    0  0.00000000000E+00  0.00000000000E+00 -0.12351385735E+04  0.40466514354E+04  0.38535464891E+04 0.  0.
        1    1    3    3  502    0  0.11068433147E+04  0.12593000567E+04 -0.16146309215E+04  0.23276537046E+04  0.50400001928E-02 0. -1.
       -1    1    3    3    0  502 -0.11068433147E+04 -0.12593000567E+04  0.37949234800E+03  0.17189977307E+04  0.50400001928E-02 0.  1.
</event>
<event>
 5   0  0.7649458E-07  0.3809046E+04  0.7818609E-02  0.8044216E-01
        2   -1    0    0  501    0  0.00000000000E+00  0.00000000000E+00  0.21084125293E+04  0.21084125293E+04  0.25500000920E-02 0. -1.
       -2   -1    0    0    0  501  0.00000000000E+00  0.00000000000E+00 -0.17203499851E+04  0.17203499851E+04  0.25500000920E-02 0.  1.
    10030    2    1    2    0    0  0.00000000000E+00  0.00000000000E+00  0.38806254418E+03  0.38287625145E+04  0.38090457931E+04 0.  0.
        4    1    3    3  502    0 -0.11915659820E+04 -0.14417897885E+04 -0.16645943064E+03  0.18778438803E+04  0.12699999809E+01 0.  1.
       -4    1    3    3    0  502  0.11915659820E+04  0.14417897885E+04  0.55452197482E+03  0.19509186342E+04  0.12699999809E+01 0. -1.
</event>
<event>
 5   0  0.2529875E-07  0.3876345E+04  0.7818609E-02  0.8029967E-01
       -1   -1    0    0    0  501  0.00000000000E+00  0.00000000000E+00  0.15995410254E+04  0.15995410254E+04  0.50400001928E-02 0. -1.
        1   -1    0    0  501    0  0.00000000000E+00  0.00000000000E+00 -0.23484935451E+04  0.23484935451E+04  0.50400001928E-02 0.  1.
    10030    2    1    2    0    0  0.00000000000E+00  0.00000000000E+00 -0.74895251969E+03  0.39480345705E+04  0.38763445529E+04 0.  0.
        4    1    3    3  502    0  0.13516535056E+04 -0.65363511165E+03  0.87387700258E+03  0.17372013950E+04  0.12699999809E+01 0. -1.
       -4    1    3    3    0  502 -0.13516535056E+04  0.65363511165E+03 -0.16228295223E+04  0.22108331754E+04  0.12699999809E+01 0.  1.
</event>
<event>
 5   0  0.7551495E-07  0.3831731E+04  0.7818609E-02  0.8039380E-01
        2   -1    0    0  501    0  0.00000000000E+00  0.00000000000E+00  0.24226421853E+04  0.24226421853E+04  0.25500000920E-02 0.  1.
       -2   -1    0    0    0  501  0.00000000000E+00  0.00000000000E+00 -0.15150979715E+04  0.15150979715E+04  0.25500000920E-02 0. -1.
    10030    2    1    2    0    0  0.00000000000E+00  0.00000000000E+00  0.90754421378E+03  0.39377401569E+04  0.38317308156E+04 0.  0.
        1    1    3    3  502    0 -0.14770508315E+04  0.71084090610E+03 -0.56541491478E+03  0.17339746188E+04  0.50400001928E-02 0. -1.
       -1    1    3    3    0  502  0.14770508315E+04 -0.71084090610E+03  0.14729591286E+04  0.22037655381E+04  0.50400001928E-02 0.  1.
</event>
<event>
 5   0  0.7638805E-07  0.3791296E+04  0.7818609E-02  0.8048025E-01
        2   -1    0    0  501    0  0.00000000000E+00  0.00000000000E+00  0.25097533399E+04  0.25097533399E+04  0.25500000920E-02 0. -1.
       -2   -1    0    0    0  501  0.00000000000E+00  0.00000000000E+00 -0.14318063625E+04  0.14318063625E+04  0.25500000920E-02 0.  1.
    10030    2    1    2    0    0  0.00000000000E+00  0.00000000000E+00  0.10779469774E+04  0.39415597024E+04  0.37912957154E+04 0.  0.
        5    1    3    3  502    0  0.26161186342E+02 -0.49289257716E+01  0.25095529349E+04  0.25096985327E+04  0.46999998093E+01 0. -1.
       -5    1    3    3    0  502 -0.26161186342E+02  0.49289257716E+01 -0.14316059574E+04  0.14318611697E+04  0.46999998093E+01 0.  1.
</event>
<event>
 5   0  0.2529875E-07  0.3816474E+04  0.7818609E-02  0.8042629E-01
       -1   -1    0    0    0  501  0.00000000000E+00  0.00000000000E+00  0.23925208417E+04  0.23925208417E+04  0.50400001928E-02 0.  1.
        1   -1    0    0  501    0  0.00000000000E+00  0.00000000000E+00 -0.15219801783E+04  0.15219801783E+04  0.50400001928E-02 0. -1.
    10030    2    1    2    0    0  0.00000000000E+00  0.00000000000E+00  0.87054066341E+03  0.39145010199E+04  0.38164744449E+04 0.  0.
        1    1    3    3  502    0 -0.62933079443E+02  0.88441137550E+03 -0.12978720368E+04  0.15718192891E+04  0.50400001928E-02 0. -1.
       -1    1    3    3    0  502  0.62933079443E+02 -0.88441137550E+03  0.21684127002E+04  0.23426817309E+04  0.50400001928E-02 0.  1.
</event>
<event>
 5   0  0.2529875E-07  0.2491569E+04  0.7818609E-02  0.8405995E-01
       -1   -1    0    0    0  501  0.00000000000E+00  0.00000000000E+00  0.12262713244E+04  0.12262713244E+04  0.50400001928E-02 0.  1.
        1   -1    0    0  501    0  0.00000000000E+00  0.00000000000E+00 -0.12656077545E+04  0.12656077545E+04  0.50400001928E-02 0. -1.
    10030    2    1    2    0    0  0.00000000000E+00  0.00000000000E+00 -0.39336430120E+02  0.24918790789E+04  0.24915685801E+04 0.  0.
        1    1    3    3  502    0 -0.11001481390E+04  0.23885987471E+03  0.51387603567E+03  0.12375170898E+04  0.50400001928E-02 0. -1.
       -1    1    3    3    0  502  0.11001481390E+04 -0.23885987471E+03 -0.55321246579E+03  0.12543619891E+04  0.50400001928E-02 0.  1.
</event>
<event>
 5   0  0.2529875E-07  0.3860219E+04  0.7818609E-02  0.8033354E-01
        1   -1    0    0  501    0  0.00000000000E+00  0.00000000000E+00  0.24698751558E+04  0.24698751558E+04  0.50400001928E-02 0. -1.
       -1   -1    0    0    0  501  0.00000000000E+00  0.00000000000E+00 -0.15083038973E+04  0.15083038973E+04  0.50400001928E-02 0.  1.
    10030    2    1    2    0    0  0.00000000000E+00  0.00000000000E+00  0.96157125849E+03  0.39781790531E+04  0.38602188142E+04 0.  0.
        4    1    3    3  502    0  0.47434465737E+03  0.66300136775E+03 -0.13221744987E+04  0.15532934962E+04  0.12699999809E+01 0.  1.
       -4    1    3    3    0  502 -0.47434465737E+03 -0.66300136775E+03  0.22837457572E+04  0.24248855569E+04  0.12699999809E+01 0. -1.
</event>
<event>
 5   0  0.7649458E-07  0.3135422E+04  0.7818609E-02  0.8206083E-01
       -2   -1    0    0    0  501  0.00000000000E+00  0.00000000000E+00  0.11579222648E+04  0.11579222648E+04  0.25500000920E-02 0.  1.
        2   -1    0    0  501    0  0.00000000000E+00  0.00000000000E+00 -0.21225233594E+04  0.21225233594E+04  0.25500000920E-02 0. -1.
    10030    2    1    2    0    0  0.00000000000E+00  0.00000000000E+00 -0.96460109459E+03  0.32804456242E+04  0.31354215381E+04 0.  0.
        4    1    3    3  502    0 -0.55419078321E+03  0.15268385143E+03 -0.20082803713E+04  0.20889306943E+04  0.12699999809E+01 0. -1.
       -4    1    3    3    0  502  0.55419078321E+03 -0.15268385143E+03  0.10436792767E+04  0.11915149300E+04  0.12699999809E+01 0.  1.
</event>
<event>
 5   0  0.2529875E-07  0.3415506E+04  0.7818609E-02  0.8134111E-01
        1   -1    0    0  501    0  0.00000000000E+00  0.00000000000E+00  0.25600673774E+04  0.25600673774E+04  0.50400001928E-02 0. -1.
       -1   -1    0    0    0  501  0.00000000000E+00  0.00000000000E+00 -0.11391968700E+04  0.11391968700E+04  0.50400001928E-02 0.  1.
    10030    2    1    2    0    0  0.00000000000E+00  0.00000000000E+00  0.14208705074E+04  0.36992642474E+04  0.34155062543E+04 0.  0.
        1    1    3    3  502    0 -0.65612544567E+03  0.95488408077E+03  0.20693077565E+04  0.23715688477E+04  0.50400001928E-02 0. -1.
       -1    1    3    3    0  502  0.65612544567E+03 -0.95488408077E+03 -0.64843724916E+03  0.13276953997E+04  0.50400001928E-02 0.  1.
</event>
<event>
 5   0  0.7551495E-07  0.2322219E+04  0.7818609E-02  0.8469212E-01
       -2   -1    0    0    0  501  0.00000000000E+00  0.00000000000E+00  0.15817906202E+04  0.15817906202E+04  0.25500000920E-02 0.  1.
        2   -1    0    0  501    0  0.00000000000E+00  0.00000000000E+00 -0.85230940036E+03  0.85230940036E+03  0.25500000920E-02 0. -1.
    10030    2    1    2    0    0  0.00000000000E+00  0.00000000000E+00  0.72948121986E+03  0.24341000206E+04  0.23222187795E+04 0.  0.
        1    1    3    3  502    0 -0.96230662685E+03 -0.55656064931E+03  0.71612474387E+03  0.13223571565E+04  0.50400001928E-02 0. -1.
       -1    1    3    3    0  502  0.96230662685E+03  0.55656064931E+03  0.13356475982E+02  0.11117428641E+04  0.50400001928E-02 0.  1.
</event>
<event>
 5   0  0.2529875E-07  0.3805658E+04  0.7818609E-02  0.8044942E-01
        3   -1    0    0  501    0  0.00000000000E+00  0.00000000000E+00  0.11619936677E+04  0.11619936721E+04  0.10100000352E+00 0. -1.
       -3   -1    0    0    0  501  0.00000000000E+00  0.00000000000E+00 -0.31159879455E+04  0.31159879472E+04  0.10100000352E+00 0.  1.
    10030    2    1    2    0    0  0.00000000000E+00  0.00000000000E+00 -0.19539942778E+04  0.42779816193E+04  0.38056580374E+04 0.  0.
        4    1    3    3  502    0 -0.43643870051E+03  0.17497604131E+04 -0.16594874503E+04  0.24507224349E+04  0.12699999809E+01 0.  1.
       -4    1    3    3    0  502  0.43643870051E+03 -0.17497604131E+04 -0.29450682749E+03  0.18272591844E+04  0.12699999809E+01 0. -1.
</event>
<event>
 5   0  0.8421677E-07  0.3770815E+04  0.7818609E-02  0.8052447E-01
        2   -1    0    0  501    0  0.00000000000E+00  0.00000000000E+00  0.20226770696E+04  0.20226770696E+04  0.25500000920E-02 0.  1.
       -2   -1    0    0    0  501  0.00000000000E+00  0.00000000000E+00 -0.17574541664E+04  0.17574541664E+04  0.25500000920E-02 0. -1.
    10030    2    1    2    0    0  0.00000000000E+00  0.00000000000E+00  0.26522290320E+03  0.37801312360E+04  0.37708154255E+04 0.  0.
        3    1    3    3  502    0 -0.61332086878E+03  0.12316915975E+04  0.14248015891E+04  0.19807287189E+04  0.10100000352E+00 0.  1.
       -3    1    3    3    0  502  0.61332086878E+03 -0.12316915975E+04 -0.11595786859E+04  0.17994025171E+04  0.10100000352E+00 0. -1.
</event>
<event>
 5   0  0.2529875E-07  0.3472427E+04  0.7818609E-02  0.8120356E-01
        1   -1    0    0  501    0  0.00000000000E+00  0.00000000000E+00  0.24706270523E+04  0.24706270523E+04  0.50400001928E-02 0.  1.
       -1   -1    0    0    0  501  0.00000000000E+00  0.00000000000E+00 -0.12201102186E+04  0.12201102186E+04  0.50400001928E-02 0. -1.
    10030    2    1    2    0    0  0.00000000000E+00  0.00000000000E+00  0.12505168337E+04  0.36907372709E+04  0.34724269973E+04 0.  0.
        1    1    3    3  502    0  0.10039493638E+04 -0.11840945662E+04 -0.20107953468E+03  0.15653840571E+04  0.50400001928E-02 0. -1.
       -1    1    3    3    0  502 -0.10039493638E+04  0.11840945662E+04  0.14515963684E+04  0.21253532139E+04  0.50400001928E-02 0.  1.
</event>
<event>
 5   0  0.2529875E-07  0.3780303E+04  0.7818609E-02  0.8050395E-01
        3   -1    0    0  501    0  0.00000000000E+00  0.00000000000E+00  0.27180541593E+04  0.27180541612E+04  0.10100000352E+00 0. -1.
       -3   -1    0    0    0  501  0.00000000000E+00  0.00000000000E+00 -0.13144225993E+04  0.13144226032E+04  0.10100000352E+00 0.  1.
    10030    2    1    2    0    0  0.00000000000E+00  0.00000000000E+00  0.14036315600E+04  0.40324767644E+04  0.37803025407E+04 0.  0.
        4    1    3    3  502    0 -0.64674815551E+03 -0.14916221736E+04 -0.32657555226E+03  0.16582741298E+04  0.12699999809E+01 0.  1.
       -4    1    3    3    0  502  0.64674815551E+03  0.14916221736E+04  0.17302071123E+04  0.23742026345E+04  0.12699999809E+01 0. -1.
</event>
<event>
 5   0  0.7638805E-07  0.2958637E+04  0.7818609E-02  0.8255642E-01
        2   -1    0    0  501    0  0.00000000000E+00  0.00000000000E+00  0.12266579237E+04  0.12266579237E+04  0.25500000920E-02 0. -1.
       -2   -1    0    0    0  501  0.00000000000E+00  0.00000000000E+00 -0.17840210830E+04  0.17840210830E+04  0.25500000920E-02 0.  1.
    10030    2    1    2    0    0  0.00000000000E+00  0.00000000000E+00 -0.55736315930E+03  0.30106790068E+04  0.29586372523E+04 0.  0.
        5    1    3    3  502    0  0.14911263365E+03  0.77063512217E+03  0.99726743003E+03  0.12691246929E+04  0.46999998093E+01 0. -1.
       -5    1    3    3    0  502 -0.14911263365E+03 -0.77063512217E+03 -0.15546305893E+04  0.17415543139E+04  0.46999998093E+01 0.  1.
</event>
<event>
 5   0  0.2529875E-07  0.3800728E+04  0.7818609E-02  0.8045999E-01
        1   -1    0    0  501    0  0.00000000000E+00  0.00000000000E+00  0.19668377865E+04  0.19668377865E+04  0.50400001928E-02 0. -1.
       -1   -1    0    0    0  501  0.00000000000E+00  0.00000000000E+00 -0.18361371137E+04  0.18361371137E+04  0.50400001928E-02 0.  1.
    10030    2    1    2    0    0  0.00000000000E+00  0.00000000000E+00  0.13070067285E+03  0.38029749002E+04  0.38007282757E+04 0.  0.
        1    1    3    3  502    0  0.13306312652E+03  0.82369923376E+03 -0.16430538955E+04  0.18427729993E+04  0.50400001928E-02 0.  1.
       -1    1    3    3    0  502 -0.13306312652E+03 -0.82369923376E+03  0.17737545684E+04  0.19602019009E+04  0.50400001928E-02 0. -1.
</event>
<event>
 5   0  0.2529875E-07  0.3870887E+04  0.7818609E-02  0.8031112E-01
        1   -1    0    0  501    0  0.00000000000E+00  0.00000000000E+00  0.23862781967E+04  0.23862781967E+04  0.50400001928E-02 0.  1.
       -1   -1    0    0    0  501  0.00000000000E+00  0.00000000000E+00 -0.15697840156E+04  0.15697840156E+04  0.50400001928E-02 0. -1.
    10030    2    1    2    0    0  0.00000000000E+00  0.00000000000E+00  0.81649418105E+03  0.39560622123E+04  0.38708869113E+04 0.  0.
        5    1    3    3  502    0  0.14798336660E+04 -0.12375557338E+04  0.24838459114E+03  0.19450369838E+04  0.46999998093E+01 0.  1.
       -5    1    3    3    0  502 -0.14798336660E+04  0.12375557338E+04  0.56810958991E+03  0.20110252285E+04  0.46999998093E+01 0. -1.
</event>
<event>
 5   0  0.2529875E-07  0.3566274E+04  0.7818609E-02  0.8098261E-01
       -1   -1    0    0    0  501  0.00000000000E+00  0.00000000000E+00  0.18056449661E+04  0.18056449661E+04  0.50400001928E-02 0. -1.
        1   -1    0    0  501    0  0.00000000000E+00  0.00000000000E+00 -0.17609092958E+04  0.17609092959E+04  0.50400001928E-02 0.  1.
    10030    2    1    2    0    0  0.00000000000E+00  0.00000000000E+00  0.44735670281E+02  0.35665542620E+04  0.35662736888E+04 0.  0.
        3    1    3    3  502    0  0.16846266504E+04 -0.37812042296E+03 -0.42335208404E+03  0.17776864185E+04  0.10100000352E+00 0.  1.
       -3    1    3    3    0  502 -0.16846266504E+04  0.37812042296E+03  0.46808775433E+03  0.17888678434E+04  0.10100000352E+00 0. -1.
</event>
<event>
 5   0  0.7649458E-07  0.2672918E+04  0.7818609E-02  0.8343846E-01
       -2   -1    0    0    0  501  0.00000000000E+00  0.00000000000E+00  0.15998936001E+04  0.15998936001E+04  0.25500000920E-02 0.  1.
        2   -1    0    0  501    0  0.00000000000E+00  0.00000000000E+00 -0.11164006459E+04  0.11164006459E+04  0.25500000920E-02 0. -1.
    10030    2    1    2    0    0  0.00000000000E+00  0.00000000000E+00  0.48349295413E+03  0.27162942460E+04  0.26729176931E+04 0.  0.
        4    1    3    3  502    0  0.28440226486E+03 -0.43253985361E+03  0.14938720693E+04  0.15810220573E+04  0.12699999809E+01 0.  1.
       -4    1    3    3    0  502 -0.28440226486E+03  0.43253985361E+03 -0.10103791152E+04  0.11352721887E+04  0.12699999809E+01 0. -1.
</event>
<event>
 5   0  0.2907071E-07  0.3863321E+04  0.7818609E-02  0.8032701E-01
        1   -1    0    0  501    0  0.00000000000E+00  0.00000000000E+00  0.20317690172E+04  0.20317690172E+04  0.50400001928E-02 0.  1.
       -1   -1    0    0    0  501  0.00000000000E+00  0.00000000000E+00 -0.18364847962E+04  0.18364847962E+04  0.50400001928E-02 0. -1.
    10030    2    1    2    0    0  0.00000000000E+00  0.00000000000E+00  0.19528422103E+03  0.38682538135E+04  0.38633213222E+04 0.  0.
        2    1    3    3  502    0  0.34843054228E+03  0.97282713782E+03 -0.15364698966E+04  0.18516306938E+04  0.25500000920E-02 0. -1.
       -2    1    3    3    0  502 -0.34843054228E+03 -0.97282713782E+03  0.17317541176E+04  0.20166231197E+04  0.25500000920E-02 0.  1.
</event>
<event>
 5   0  0.7551495E-07  0.3941743E+04  0.7818609E-02  0.8016403E-01
        2   -1    0    0  501    0  0.00000000000E+00  0.00000000000E+00  0.14961636985E+04  0.14961636985E+04  0.25500000920E-02 0.  1.
       -2   -1    0    0    0  501  0.00000000000E+00  0.00000000000E+00 -0.25961959393E+04  0.25961959393E+04  0.25500000920E-02 0. -1.
    10030    2    1    2    0    0  0.00000000000E+00  0.00000000000E+00 -0.11000322408E+04  0.40923596378E+04  0.39417428220E+04 0.  0.
        1    1    3    3  502    0  0.50797983380E+03  0.15144880724E+04 -0.17485162849E+04  0.23683384116E+04  0.50400001928E-02 0. -1.
       -1    1    3    3    0  502 -0.50797983380E+03 -0.15144880724E+04  0.64848404417E+03  0.17240212263E+04  0.50400001928E-02 0.  1.
</event>
<event>
 5   0  0.7649458E-07  0.3801103E+04  0.7818609E-02  0.8045918E-01
       -2   -1    0    0    0  501  0.00000000000E+00  0.00000000000E+00  0.15234135292E+04  0.15234135292E+04  0.25500000920E-02 0.  1.
        2   -1    0    0  501    0  0.00000000000E+00  0.00000000000E+00 -0.23710541243E+04  0.23710541243E+04  0.25500000920E-02 0. -1.
    10030    2    1    2    0    0  0.00000000000E+00  0.00000000000E+00 -0.84764059512E+03  0.38944676536E+04  0.38011029618E+04 0.  0.
        4    1    3    3  502    0  0.12076178644E+04 -0.37307825904E+03  0.10303967118E+04  0.16307198688E+04  0.12699999809E+01 0.  1.
       -4    1    3    3    0  502 -0.12076178644E+04  0.37307825904E+03 -0.18780373069E+04  0.22637477848E+04  0.12699999809E+01 0. -1.
</event>
<event>
 5   0  0.7649458E-07  0.3803467E+04  0.7818609E-02  0.8045411E-01
       -2   -1    0    0    0  501  0.00000000000E+00  0.00000000000E+00  0.16507205974E+04  0.16507205974E+04  0.25500000920E-02 0.  1.
        2   -1    0    0  501    0  0.00000000000E+00  0.00000000000E+00 -0.21909155707E+04  0.21909155707E+04  0.25500000920E-02 0. -1.
    10030    2    1    2    0    0  0.00000000000E+00  0.00000000000E+00 -0.54019497335E+03  0.38416361681E+04  0.38034665555E+04 0.  0.
        4    1    3    3  502    0  0.99882998774E+03  0.15149598540E+04 -0.84486282752E+03  0.20016392067E+04  0.12699999809E+01 0. -1.
       -4    1    3    3    0  502 -0.99882998774E+03 -0.15149598540E+04  0.30466785418E+03  0.18399969614E+04  0.12699999809E+01 0.  1.
</event>
<event>
 5   0  0.8038352E-07  0.3080139E+04  0.7818609E-02  0.8221210E-01
        2   -1    0    0  501    0  0.00000000000E+00  0.00000000000E+00  0.17753121311E+04  0.17753121311E+04  0.25500000920E-02 0. -1.
       -2   -1    0    0    0  501  0.00000000000E+00  0.00000000000E+00 -0.13359982910E+04  0.13359982910E+04  0.25500000920E-02 0.  1.
    10030    2    1    2    0    0  0.00000000000E+00  0.00000000000E+00  0.43931384009E+03  0.31113104221E+04  0.30801389404E+04 0.  0.
        2    1    3    3  502    0  0.14506729912E+04 -0.21117658068E+02 -0.30221057954E+03  0.14819680554E+04  0.25500000920E-02 0.  1.
       -2    1    3    3    0  502 -0.14506729912E+04  0.21117658068E+02  0.74152441964E+03  0.16293423667E+04  0.25500000920E-02 0. -1.
</event>
<event>
 5   0  0.8421677E-07  0.3693237E+04  0.7818609E-02  0.8069462E-01
       -2   -1    0    0    0  501  0.00000000000E+00  0.00000000000E+00  0.21055095239E+04  0.21055095239E+04  0.25500000920E-02 0.  1.
        2   -1    0    0  501    0  0.00000000000E+00  0.00000000000E+00 -0.16195600774E+04  0.16195600774E+04  0.25500000920E-02 0. -1.
    10030    2    1    2    0    0  0.00000000000E+00  0.00000000000E+00  0.48594944650E+03  0.37250696013E+04  0.36932366117E+04 0.  0.
        3    1    3    3  502    0 -0.99161209043E+03  0.14979147961E+04 -0.18844545033E+03  0.18062544040E+04  0.10100000352E+00 0. -1.
       -3    1    3    3    0  502  0.99161209043E+03 -0.14979147961E+04  0.67439489683E+03  0.19188151973E+04  0.10100000352E+00 0.  1.
</event>
<event>
 5   0  0.2529875E-07  0.3761093E+04  0.7818609E-02  0.8054556E-01
        1   -1    0    0  501    0  0.00000000000E+00  0.00000000000E+00  0.18800436648E+04  0.18800436648E+04  0.50400001928E-02 0.  1.
       -1   -1    0    0    0  501  0.00000000000E+00  0.00000000000E+00 -0.18810492428E+04  0.18810492428E+04  0.50400001928E-02 0. -1.
    10030    2    1    2    0    0  0.00000000000E+00  0.00000000000E+00 -0.10055779979E+01  0.37610929076E+04  0.37610927732E+04 0.  0.
        3    1    3    3  502    0  0.43364718659E+03 -0.17555817581E+04  0.51557620586E+03  0.18804084732E+04  0.10100000352E+00 0. -1.
       -3    1    3    3    0  502 -0.43364718659E+03  0.17555817581E+04 -0.51658178386E+03  0.18806844343E+04  0.10100000352E+00 0.  1.
</event>
<event>
 5   0  0.2529875E-07  0.3303729E+04  0.7818609E-02  0.8161947E-01
       -1   -1    0    0    0  501  0.00000000000E+00  0.00000000000E+00  0.11114906286E+04  0.11114906287E+04  0.50400001928E-02 0.  1.
        1   -1    0    0  501    0  0.00000000000E+00  0.00000000000E+00 -0.24549517208E+04  0.24549517208E+04  0.50400001928E-02 0. -1.
    10030    2    1    2    0    0  0.00000000000E+00  0.00000000000E+00 -0.13434610922E+04  0.35664423495E+04  0.33037287004E+04 0.  0.
        4    1    3    3  502    0 -0.92039465581E+03 -0.13707200556E+04 -0.72734863834E+03  0.18041722334E+04  0.12699999809E+01 0.  1.
       -4    1    3    3    0  502  0.92039465581E+03  0.13707200556E+04 -0.61611245384E+03  0.17622701161E+04  0.12699999809E+01 0. -1.
</event>
<event>
 5   0  0.8421677E-07  0.3757282E+04  0.7818609E-02  0.8055385E-01
       -2   -1    0    0    0  501  0.00000000000E+00  0.00000000000E+00  0.24304318496E+04  0.24304318496E+04  0.25500000920E-02 0.  1.
        2   -1    0    0  501    0  0.00000000000E+00  0.00000000000E+00 -0.14521255717E+04  0.14521255717E+04  0.25500000920E-02 0. -1.
    10030    2    1    2    0    0  0.00000000000E+00  0.00000000000E+00  0.97830627797E+03  0.38825574213E+04  0.37572821236E+04 0.  0.
        3    1    3    3  502    0 -0.77480519694E+03 -0.15759745934E+04  0.11786898099E+04  0.21150245129E+04  0.10100000352E+00 0.  1.
       -3    1    3    3    0  502  0.77480519694E+03  0.15759745934E+04 -0.20038353189E+03  0.17675329084E+04  0.10100000352E+00 0. -1.
</event>
<event>
 5   0  0.8038352E-07  0.3822528E+04  0.7818609E-02  0.8041338E-01
        2   -1    0    0  501    0  0.00000000000E+00  0.00000000000E+00  0.12940709324E+04  0.12940709324E+04  0.25500000920E-02 0. -1.
       -2   -1    0    0    0  501  0.00000000000E+00  0.00000000000E+00 -0.28228208792E+04  0.28228208792E+04  0.25500000920E-02 0.  1.
    10030    2    1    2    0    0  0.00000000000E+00  0.00000000000E+00 -0.15287499468E+04  0.41168918116E+04  0.38225281933E+04 0.  0.
        2    1    3    3  502    0 -0.48258029317E+03  0.16836974300E+04 -0.15882749768E+04  0.23643895993E+04  0.25500000920E-02 0.  1.
       -2    1    3    3    0  502  0.48258029317E+03 -0.16836974300E+04  0.59525030044E+02  0.17525022123E+04  0.25500000920E-02 0. -1.
</event>
<event>
 5   0  0.2529875E-07  0.3802168E+04  0.7818609E-02  0.8045690E-01
       -1   -1    0    0    0  501  0.00000000000E+00  0.00000000000E+00  0.17215325606E+04  0.17215325606E+04  0.50400001928E-02 0. -1.
        1   -1    0    0  501    0  0.00000000000E+00  0.00000000000E+00 -0.20993623449E+04  0.20993623449E+04  0.50400001928E-02 0.  1.
    10030    2    1    2    0    0  0.00000000000E+00  0.00000000000E+00 -0.37782978426E+03  0.38208949055E+04  0.38021681358E+04 0.  0.
        1    1    3    3  502    0  0.33006060379E+03 -0.84077355953E+03 -0.18699601039E+04  0.20766778688E+04  0.50400001928E-02 0.  1.
       -1    1    3    3    0  502 -0.33006060379E+03  0.84077355953E+03  0.14921303196E+04  0.17442170368E+04  0.50400001928E-02 0. -1.
</event>
<event>
 5   0  0.7551495E-07  0.3823646E+04  0.7818609E-02  0.8041099E-01
        2   -1    0    0  501    0  0.00000000000E+00  0.00000000000E+00  0.25935859131E+04  0.25935859131E+04  0.25500000920E-02 0. -1.
       -2   -1    0    0    0  501  0.00000000000E+00  0.00000000000E+00 -0.14092720216E+04  0.14092720216E+04  0.25500000920E-02 0.  1.
    10030    2    1    2    0    0  0.00000000000E+00  0.00000000000E+00  0.11843138915E+04  0.40028579346E+04  0.38236464600E+04 0.  0.
        1    1    3    3  502    0  0.84479366492E+03  0.16611019482E+04  0.14538527422E+03  0.18692439371E+04  0.50400001928E-02 0.  1.
       -1    1    3    3    0  502 -0.84479366492E+03 -0.16611019482E+04  0.10389286172E+04  0.21336139975E+04  0.50400001928E-02 0. -1.
</event>
<event>
 5   0  0.2907071E-07  0.3158732E+04  0.7818609E-02  0.8199802E-01
       -1   -1    0    0    0  501  0.00000000000E+00  0.00000000000E+00  0.12458782530E+04  0.12458782530E+04  0.50400001928E-02 0.  1.
        1   -1    0    0  501    0  0.00000000000E+00  0.00000000000E+00 -0.20021191302E+04  0.20021191302E+04  0.50400001928E-02 0. -1.
    10030    2    1    2    0    0  0.00000000000E+00  0.00000000000E+00 -0.75624087717E+03  0.32479973832E+04  0.31587318241E+04 0.  0.
        2    1    3    3  502    0 -0.12496998342E+03  0.15522907010E+04 -0.64856016579E+03  0.16869659765E+04  0.25500000920E-02 0. -1.
       -2    1    3    3    0  502  0.12496998342E+03 -0.15522907010E+04 -0.10768071138E+03  0.15610314067E+04  0.25500000920E-02 0.  1.
</event>
<event>
 5   0  0.7638805E-07  0.3782352E+04  0.7818609E-02  0.8049953E-01
        2   -1    0    0  501    0  0.00000000000E+00  0.00000000000E+00  0.13146416699E+04  0.13146416699E+04  0.25500000920E-02 0.  1.
       -2   -1    0    0    0  501  0.00000000000E+00  0.00000000000E+00 -0.27205489378E+04  0.27205489378E+04  0.25500000920E-02 0. -1.
    10030    2    1    2    0    0  0.00000000000E+00  0.00000000000E+00 -0.14059072680E+04  0.40351906077E+04  0.37823521775E+04 0.  0.
        5    1    3    3  502    0 -0.43078971511E+03  0.14037649993E+04  0.56851524219E+03  0.15746007820E+04  0.46999998093E+01 0.  1.
       -5    1    3    3    0  502  0.43078971511E+03 -0.14037649993E+04 -0.19744225102E+04  0.24605898257E+04  0.46999998093E+01 0. -1.
</event>
<event>
 5   0  0.2907071E-07  0.3909353E+04  0.7818609E-02  0.8023087E-01
        1   -1    0    0  501    0  0.00000000000E+00  0.00000000000E+00  0.20991581574E+04  0.20991581574E+04  0.50400001928E-02 0.  1.
       -1   -1    0    0    0  501  0.00000000000E+00  0.00000000000E+00 -0.18201394136E+04  0.18201394136E+04  0.50400001928E-02 0. -1.
    10030    2    1    2    0    0  0.00000000000E+00  0.00000000000E+00  0.27901874388E+03  0.39192975710E+04  0.39093531422E+04 0.  0.
        2    1    3    3  502    0  0.86856405704E+03 -0.17447428845E+04 -0.99646348217E+01  0.19490075803E+04  0.25500000920E-02 0. -1.
       -2    1    3    3    0  502 -0.86856405704E+03  0.17447428845E+04  0.28898337871E+03  0.19702899907E+04  0.25500000920E-02 0.  1.
</event>
<event>
 5   0  0.2529875E-07  0.3804037E+04  0.7818609E-02  0.8045289E-01
       -1   -1    0    0    0  501  0.00000000000E+00  0.00000000000E+00  0.23762004964E+04  0.23762004964E+04  0.50400001928E-02 0.  1.
        1   -1    0    0  501    0  0.00000000000E+00  0.00000000000E+00 -0.15224616583E+04  0.15224616583E+04  0.50400001928E-02 0. -1.
    10030    2    1    2    0    0  0.00000000000E+00  0.00000000000E+00  0.85373883806E+03  0.38986621547E+04  0.38040368811E+04 0.  0.
        3    1    3    3  502    0 -0.18699547743E+04 -0.34122256424E+03  0.35803899956E+03  0.19342584191E+04  0.10100000352E+00 0.  1.
       -3    1    3    3    0  502  0.18699547743E+04  0.34122256424E+03  0.49569983850E+03  0.19644037356E+04  0.10100000352E+00 0. -1.
</event>
<event>
 5   0  0.2529875E-07  0.3797398E+04  0.7818609E-02  0.8046713E-01
       -1   -1    0    0    0  501  0.00000000000E+00  0.00000000000E+00  0.11643808208E+04  0.11643808208E+04  0.50400001928E-02 0.  1.
        1   -1    0    0  501    0  0.00000000000E+00  0.00000000000E+00 -0.30961165300E+04  0.30961165300E+04  0.50400001928E-02 0. -1.
    10030    2    1    2    0    0  0.00000000000E+00  0.00000000000E+00 -0.19317357092E+04  0.42604973508E+04  0.37973984287E+04 0.  0.
        5    1    3    3  502    0 -0.38027051165E+03  0.18475920369E+04 -0.12086728585E+04  0.22403379579E+04  0.46999998093E+01 0.  1.
       -5    1    3    3    0  502  0.38027051165E+03 -0.18475920369E+04 -0.72306285063E+03  0.20201593929E+04  0.46999998093E+01 0. -1.
</event>
<event>
 5   0  0.7551495E-07  0.3749332E+04  0.7818609E-02  0.8057116E-01
       -2   -1    0    0    0  501  0.00000000000E+00  0.00000000000E+00  0.12578812642E+04  0.12578812642E+04  0.25500000920E-02 0. -1.
        2   -1    0    0  501    0  0.00000000000E+00  0.00000000000E+00 -0.27938825970E+04  0.27938825970E+04  0.25500000920E-02 0.  1.
    10030    2    1    2    0    0  0.00000000000E+00  0.00000000000E+00 -0.15360013328E+04  0.40517638611E+04  0.37493319794E+04 0.  0.
        1    1    3    3  502    0  0.33568350677E+03  0.82276772797E+01 -0.27611196326E+04  0.27814623379E+04  0.50400001928E-02 0.  1.
       -1    1    3    3    0  502 -0.33568350677E+03 -0.82276772797E+01  0.12251182998E+04  0.12703015233E+04  0.50400001928E-02 0. -1.
</event>
<event>
 5   0  0.2529875E-07  0.3836628E+04  0.7818609E-02  0.8038340E-01
        1   -1    0    0  501    0  0.00000000000E+00  0.00000000000E+00  0.17857921124E+04  0.17857921124E+04  0.50400001928E-02 0. -1.
       -1   -1    0    0    0  501  0.00000000000E+00  0.00000000000E+00 -0.20606698191E+04  0.20606698191E+04  0.50400001928E-02 0.  1.
    10030    2    1    2    0    0  0.00000000000E+00  0.00000000000E+00 -0.27487770665E+03  0.38464619315E+04  0.38366276386E+04 0.  0.
        3    1    3    3  502    0  0.89709012893E+03 -0.16923455614E+04 -0.24317815375E+03  0.19307873584E+04  0.10100000352E+00 0.  1.
       -3    1    3    3    0  502 -0.89709012893E+03  0.16923455614E+04 -0.31699552902E+02  0.19156745732E+04  0.10100000352E+00 0. -1.
</event>
<event>
 5   0  0.8038352E-07  0.3809194E+04  0.7818609E-02  0.8044185E-01
        2   -1    0    0  501    0  0.00000000000E+00  0.00000000000E+00  0.20259299084E+04  0.20259299084E+04  0.25500000920E-02 0.  1.
       -2   -1    0    0    0  501  0.00000000000E+00  0.00000000000E+00 -0.17905308930E+04  0.17905308930E+04  0.25500000920E-02 0. -1.
    10030    2    1    2    0    0  0.00000000000E+00  0.00000000000E+00  0.23539901540E+03  0.38164608014E+04  0.38091941867E+04 0.  0.
        2    1    3    3  502    0 -0.22671291545E+03 -0.18910539696E+04  0.11519956575E+03  0.19080762045E+04  0.25500000920E-02 0. -1.
       -2    1    3    3    0  502  0.22671291545E+03  0.18910539696E+04  0.12019944966E+03  0.19083845969E+04  0.25500000920E-02 0.  1.
</event>
<event>
 5   0  0.2529875E-07  0.3727699E+04  0.7818609E-02  0.8061851E-01
        1   -1    0    0  501    0  0.00000000000E+00  0.00000000000E+00  0.33003045729E+04  0.33003045729E+04  0.50400001928E-02 0.  1.
       -1   -1    0    0    0  501  0.00000000000E+00  0.00000000000E+00 -0.10526102862E+04  0.10526102862E+04  0.50400001928E-02 0. -1.
    10030    2    1    2    0    0  0.00000000000E+00  0.00000000000E+00  0.22476942867E+04  0.43529148590E+04  0.37276987759E+04 0.  0.
        4    1    3    3  502    0  0.96583832788E+02 -0.13932664442E+04  0.25651266299E+04  0.29206841770E+04  0.12699999809E+01 0.  1.
       -4    1    3    3    0  502 -0.96583832788E+02  0.13932664442E+04 -0.31743234319E+03  0.14322306821E+04  0.12699999809E+01 0. -1.
</event>
<event>
 5   0  0.2529875E-07  0.3835600E+04  0.7818609E-02  0.8038558E-01
        1   -1    0    0  501    0  0.00000000000E+00  0.00000000000E+00  0.34442070954E+04  0.34442070954E+04  0.50400001928E-02 0.  1.
       -1   -1    0    0    0  501  0.00000000000E+00  0.00000000000E+00 -0.10678677730E+04  0.10678677731E+04  0.50400001928E-02 0. -1.
    10030    2    1    2    0    0  0.00000000000E+00  0.00000000000E+00  0.23763393223E+04  0.45120748684E+04  0.38356004802E+04 0.  0.
        5    1    3    3  502    0 -0.91253528014E+03 -0.13443461617E+04  0.23866497447E+04  0.28872316038E+04  0.46999998093E+01 0.  1.
       -5    1    3    3    0  502  0.91253528014E+03  0.13443461617E+04 -0.10310422389E+02  0.16248432647E+04  0.46999998093E+01 0. -1.
</event>
<event>
 5   0  0.7638805E-07  0.3791406E+04  0.7818609E-02  0.8048002E-01
        2   -1    0    0  501    0  0.00000000000E+00  0.00000000000E+00  0.21188562567E+04  0.21188562567E+04  0.25500000920E-02 0. -1.
       -2   -1    0    0    0  501  0.00000000000E+00  0.00000000000E+00 -0.16960519212E+04  0.16960519212E+04  0.25500000920E-02 0.  1.
    10030    2    1    2    0    0  0.00000000000E+00  0.00000000000E+00  0.42280433548E+03  0.38149081780E+04  0.37914061904E+04 0.  0.
        5    1    3    3  502    0  0.15851082917E+04  0.86983541886E+03 -0.36176575704E+03  0.18439301790E+04  0.46999998093E+01 0. -1.
       -5    1    3    3    0  502 -0.15851082917E+04 -0.86983541886E+03  0.78457009252E+03  0.19709779989E+04  0.46999998093E+01 0.  1.
</event>
<event>
 5   0  0.2529875E-07  0.3528675E+04  0.7818609E-02  0.8107028E-01
       -1   -1    0    0    0  501  0.00000000000E+00  0.00000000000E+00  0.15658125439E+04  0.15658125439E+04  0.50400001928E-02 0.  1.
        1   -1    0    0  501    0  0.00000000000E+00  0.00000000000E+00 -0.19880328505E+04  0.19880328505E+04  0.50400001928E-02 0. -1.
    10030    2    1    2    0    0  0.00000000000E+00  0.00000000000E+00 -0.42222030663E+03  0.35538453944E+04  0.35286749780E+04 0.  0.
        5    1    3    3  502    0 -0.96826506233E+03 -0.46366795582E+03 -0.16212186059E+04  0.19444528954E+04  0.46999998093E+01 0. -1.
       -5    1    3    3    0  502  0.96826506233E+03  0.46366795582E+03  0.11989982993E+04  0.16093924990E+04  0.46999998093E+01 0.  1.
</event>
<event>
 5   0  0.2907071E-07  0.3814852E+04  0.7818609E-02  0.8042975E-01
       -1   -1    0    0    0  501  0.00000000000E+00  0.00000000000E+00  0.21551708147E+04  0.21551708147E+04  0.50400001928E-02 0.  1.
        1   -1    0    0  501    0  0.00000000000E+00  0.00000000000E+00 -0.16881601737E+04  0.16881601737E+04  0.50400001928E-02 0. -1.
    10030    2    1    2    0    0  0.00000000000E+00  0.00000000000E+00  0.46701064098E+03  0.38433309884E+04  0.38148517858E+04 0.  0.
        2    1    3    3  502    0  0.56137663701E+03  0.83185523922E+03  0.18676956909E+04  0.21202391520E+04  0.25500000920E-02 0.  1.
       -2    1    3    3    0  502 -0.56137663701E+03 -0.83185523922E+03 -0.14006850499E+04  0.17230918364E+04  0.25500000920E-02 0. -1.
</event>
<event>
 5   0  0.7551495E-07  0.2690721E+04  0.7818609E-02  0.8338022E-01
       -2   -1    0    0    0  501  0.00000000000E+00  0.00000000000E+00  0.82079395155E+03  0.82079395156E+03  0.25500000920E-02 0. -1.
        2   -1    0    0  501    0  0.00000000000E+00  0.00000000000E+00 -0.22051755947E+04  0.22051755947E+04  0.25500000920E-02 0.  1.
    10030    2    1    2    0    0  0.00000000000E+00  0.00000000000E+00 -0.13843816431E+04  0.30259695462E+04  0.26907209370E+04 0.  0.
        1    1    3    3  502    0  0.77735932277E+03  0.10199719836E+04 -0.23487425005E+03  0.13037623546E+04  0.50400001928E-02 0. -1.
       -1    1    3    3    0  502 -0.77735932277E+03 -0.10199719836E+04 -0.11495073931E+04  0.17222071916E+04  0.50400001928E-02 0.  1.
</event>
<event>
 5   0  0.2529875E-07  0.2962092E+04  0.7818609E-02  0.8254639E-01
       -1   -1    0    0    0  501  0.00000000000E+00  0.00000000000E+00  0.82979520085E+03  0.82979520087E+03  0.50400001928E-02 0.  1.
        1   -1    0    0  501    0  0.00000000000E+00  0.00000000000E+00 -0.26434191647E+04  0.26434191647E+04  0.50400001928E-02 0. -1.
    10030    2    1    2    0    0  0.00000000000E+00  0.00000000000E+00 -0.18136239639E+04  0.34732143656E+04  0.29620915156E+04 0.  0.
        4    1    3    3  502    0  0.19170778971E+03 -0.57176575983E+02 -0.26275031174E+04  0.26351082107E+04  0.12699999809E+01 0. -1.
       -4    1    3    3    0  502 -0.19170778971E+03  0.57176575983E+02  0.81387915349E+03  0.83810615489E+03  0.12699999809E+01 0.  1.
</event>
<event>
 5   0  0.7551495E-07  0.3662463E+04  0.7818609E-02  0.8076332E-01
       -2   -1    0    0    0  501  0.00000000000E+00  0.00000000000E+00  0.13585131671E+04  0.13585131671E+04  0.25500000920E-02 0. -1.
        2   -1    0    0  501    0  0.00000000000E+00  0.00000000000E+00 -0.24684410342E+04  0.24684410342E+04  0.25500000920E-02 0.  1.
    10030    2    1    2    0    0  0.00000000000E+00  0.00000000000E+00 -0.11099278671E+04  0.38269542014E+04  0.36624634591E+04 0.  0.
        1    1    3    3  502    0 -0.15567562466E+04 -0.77950647274E+03 -0.11481663407E+04  0.20855230275E+04  0.50400001928E-02 0.  1.
       -1    1    3    3    0  502  0.15567562466E+04  0.77950647274E+03  0.38238473568E+02  0.17414311739E+04  0.50400001928E-02 0. -1.
</event>
<event>
 5   0  0.7551495E-07  0.2696351E+04  0.7818609E-02  0.8336190E-01
       -2   -1    0    0    0  501  0.00000000000E+00  0.00000000000E+00  0.20398193494E+04  0.20398193494E+04  0.25500000920E-02 0.  1.
        2   -1    0    0  501    0  0.00000000000E+00  0.00000000000E+00 -0.89104828399E+03  0.89104828399E+03  0.25500000920E-02 0. -1.
    10030    2    1    2    0    0  0.00000000000E+00  0.00000000000E+00  0.11487710654E+04  0.29308676334E+04  0.26963512612E+04 0.  0.
        1    1    3    3  502    0 -0.73233396414E+03 -0.81327606924E+02  0.18015853038E+04  0.19464420930E+04  0.50400001928E-02 0.  1.
       -1    1    3    3    0  502  0.73233396414E+03  0.81327606924E+02 -0.65281423836E+03  0.98442554036E+03  0.50400001928E-02 0. -1.
</event>
<event>
 5   0  0.2529875E-07  0.2726412E+04  0.7818609E-02  0.8326486E-01
       -1   -1    0    0    0  501  0.00000000000E+00  0.00000000000E+00  0.12253183545E+04  0.12253183545E+04  0.50400001928E-02 0. -1.
        1   -1    0    0  501    0  0.00000000000E+00  0.00000000000E+00 -0.15166109108E+04  0.15166109108E+04  0.50400001928E-02 0.  1.
    10030    2    1    2    0    0  0.00000000000E+00  0.00000000000E+00 -0.29129255631E+03  0.27419292653E+04  0.27264124307E+04 0.  0.
        4    1    3    3  502    0 -0.94270172996E+03  0.98441826259E+03 -0.12176867317E+03  0.13684279630E+04  0.12699999809E+01 0.  1.
       -4    1    3    3    0  502  0.94270172996E+03 -0.98441826259E+03 -0.16952388315E+03  0.13735013022E+04  0.12699999809E+01 0. -1.
</event>
<event>
 5   0  0.2529875E-07  0.3477292E+04  0.7818609E-02  0.8119193E-01
       -1   -1    0    0    0  501  0.00000000000E+00  0.00000000000E+00  0.12074745778E+04  0.12074745779E+04  0.50400001928E-02 0. -1.
        1   -1    0    0  501    0  0.00000000000E+00  0.00000000000E+00 -0.25034814274E+04  0.25034814274E+04  0.50400001928E-02 0.  1.
    10030    2    1    2    0    0  0.00000000000E+00  0.00000000000E+00 -0.12960068496E+04  0.37109560053E+04  0.34772921532E+04 0.  0.
        5    1    3    3  502    0 -0.17010170346E+04 -0.30456492598E+03 -0.44369902215E+03  0.17841271419E+04  0.46999998093E+01 0.  1.
       -5    1    3    3    0  502  0.17010170346E+04  0.30456492598E+03 -0.85230782745E+03  0.19268288634E+04  0.46999998093E+01 0. -1.
</event>
<event>
 5   0  0.7649458E-07  0.3867734E+04  0.7818609E-02  0.8031774E-01
        2   -1    0    0  501    0  0.00000000000E+00  0.00000000000E+00  0.17215900295E+04  0.17215900295E+04  0.25500000920E-02 0. -1.
       -2   -1    0    0    0  501  0.00000000000E+00  0.00000000000E+00 -0.21723178560E+04  0.21723178560E+04  0.25500000920E-02 0.  1.
    10030    2    1    2    0    0  0.00000000000E+00  0.00000000000E+00 -0.45072782651E+03  0.38939078855E+04  0.38677335801E+04 0.  0.
        4    1    3    3  502    0  0.38216797708E+03 -0.13062982881E+04  0.11577496074E+04  0.17868557151E+04  0.12699999809E+01 0. -1.
       -4    1    3    3    0  502 -0.38216797708E+03  0.13062982881E+04 -0.16084774339E+04  0.21070521704E+04  0.12699999809E+01 0.  1.
</event>
<event>
 5   0  0.2529875E-07  0.3847429E+04  0.7818609E-02  0.8036053E-01
        1   -1    0    0  501    0  0.00000000000E+00  0.00000000000E+00  0.21572052234E+04  0.21572052234E+04  0.50400001928E-02 0. -1.
       -1   -1    0    0    0  501  0.00000000000E+00  0.00000000000E+00 -0.17154963129E+04  0.17154963129E+04  0.50400001928E-02 0.  1.
    10030    2    1    2    0    0  0.00000000000E+00  0.00000000000E+00  0.44170891050E+03  0.38727015362E+04  0.38474290672E+04 0.  0.
        4    1    3    3  502    0 -0.12503508575E+04  0.54108797272E+03 -0.11461986589E+04  0.17804287235E+04  0.12699999809E+01 0.  1.
       -4    1    3    3    0  502  0.12503508575E+04 -0.54108797272E+03  0.15879075694E+04  0.20922728127E+04  0.12699999809E+01 0. -1.
</event>
<event>
 5   0  0.2529875E-07  0.3826532E+04  0.7818609E-02  0.8040485E-01
        1   -1    0    0  501    0  0.00000000000E+00  0.00000000000E+00  0.21901604450E+04  0.21901604450E+04  0.50400001928E-02 0.  1.
       -1   -1    0    0    0  501  0.00000000000E+00  0.00000000000E+00 -0.16713782220E+04  0.16713782220E+04  0.50400001928E-02 0. -1.
    10030    2    1    2    0    0  0.00000000000E+00  0.00000000000E+00  0.51878222292E+03  0.38615386670E+04  0.38265318347E+04 0.  0.
        1    1    3    3  502    0 -0.15644371116E+04  0.43779540023E+03 -0.76052711497E+03  0.17937474129E+04  0.50400001928E-02 0. -1.
       -1    1    3    3    0  502  0.15644371116E+04 -0.43779540023E+03  0.12793093379E+04  0.20677912541E+04  0.50400001928E-02 0.  1.
</event>
<event>
 5   0  0.2529875E-07  0.3793236E+04  0.7818609E-02  0.8047608E-01
       -1   -1    0    0    0  501  0.00000000000E+00  0.00000000000E+00  0.21133784002E+04  0.21133784002E+04  0.50400001928E-02 0. -1.
        1   -1    0    0  501    0  0.00000000000E+00  0.00000000000E+00 -0.17020900550E+04  0.17020900550E+04  0.50400001928E-02 0.  1.
    10030    2    1    2    0    0  0.00000000000E+00  0.00000000000E+00  0.41128834520E+03  0.38154684551E+04  0.37932362738E+04 0.  0.
        5    1    3    3  502    0 -0.14469978324E+04 -0.11913087271E+04  0.49737691233E+03  0.19391815524E+04  0.46999998093E+01 0. -1.
       -5    1    3    3    0  502  0.14469978324E+04  0.11913087271E+04 -0.86088567136E+02  0.18762869028E+04  0.46999998093E+01 0.  1.
</event>
<event>
 5   0  0.7649458E-07  0.3683846E+04  0.7818609E-02  0.8071551E-01
       -2   -1    0    0    0  501  0.00000000000E+00  0.00000000000E+00  0.15382367751E+04  0.15382367751E+04  0.25500000920E-02 0. -1.
        2   -1    0    0  501    0  0.00000000000E+00  0.00000000000E+00 -0.22055646697E+04  0.22055646697E+04  0.25500000920E-02 0.  1.
    10030    2    1    2    0    0  0.00000000000E+00  0.00000000000E+00 -0.66732789451E+03  0.37438014448E+04  0.36838461883E+04 0.  0.
        4    1    3    3  502    0 -0.37691184668E+02  0.18392953971E+04 -0.42597669581E+03  0.18883553536E+04  0.12699999809E+01 0. -1.
       -4    1    3    3    0  502  0.37691184668E+02 -0.18392953971E+04 -0.24135119870E+03  0.18554460912E+04  0.12699999809E+01 0.  1.
</event>
<event>
 5   0  0.8038352E-07  0.3776613E+04  0.7818609E-02  0.8051192E-01
        2   -1    0    0  501    0  0.00000000000E+00  0.00000000000E+00  0.15845155566E+04  0.15845155566E+04  0.25500000920E-02 0.  1.
       -2   -1    0    0    0  501  0.00000000000E+00  0.00000000000E+00 -0.22503411610E+04  0.22503411610E+04  0.25500000920E-02 0. -1.
    10030    2    1    2    0    0  0.00000000000E+00  0.00000000000E+00 -0.66582560441E+03  0.38348567176E+04  0.37766125442E+04 0.  0.
        2    1    3    3  502    0  0.22503069491E+03  0.14898690787E+04  0.82277516771E+03  0.17167724549E+04  0.25500000920E-02 0.  1.
       -2    1    3    3    0  502 -0.22503069491E+03 -0.14898690787E+04 -0.14886007721E+04  0.21180842627E+04  0.25500000920E-02 0. -1.
</event>
<event>
 5   0  0.2529875E-07  0.3828130E+04  0.7818609E-02  0.8040145E-01
       -1   -1    0    0    0  501  0.00000000000E+00  0.00000000000E+00  0.16051322185E+04  0.16051322185E+04  0.50400001928E-02 0.  1.
        1   -1    0    0  501    0  0.00000000000E+00  0.00000000000E+00 -0.22824565374E+04  0.22824565374E+04  0.50400001928E-02 0. -1.
    10030    2    1    2    0    0  0.00000000000E+00  0.00000000000E+00 -0.67732431897E+03  0.38875887559E+04  0.38281298439E+04 0.  0.
        5    1    3    3  502    0 -0.16947194743E+04 -0.47181276043E+03 -0.11046595594E+04  0.20772520814E+04  0.46999998093E+01 0. -1.
       -5    1    3    3    0  502  0.16947194743E+04  0.47181276043E+03  0.42733524044E+03  0.18103366745E+04  0.46999998093E+01 0.  1.
</event>
<event>
 5   0  0.2529875E-07  0.3757152E+04  0.7818609E-02  0.8055413E-01
        1   -1    0    0  501    0  0.00000000000E+00  0.00000000000E+00  0.15579903194E+04  0.15579903194E+04  0.50400001928E-02 0. -1.
       -1   -1    0    0    0  501  0.00000000000E+00  0.00000000000E+00 -0.22651279807E+04  0.22651279807E+04  0.50400001928E-02 0.  1.
    10030    2    1    2    0    0  0.00000000000E+00  0.00000000000E+00 -0.70713766138E+03  0.38231183001E+04  0.37571518288E+04 0.  0.
        1    1    3    3  502    0  0.41887298824E+03 -0.46155320796E+02  0.15092738429E+04  0.15670010934E+04  0.50400001928E-02 0. -1.
       -1    1    3    3    0  502 -0.41887298824E+03  0.46155320796E+02 -0.22164115043E+04  0.22561172067E+04  0.50400001928E-02 0.  1.
</event>
<event>
 5   0  0.8421677E-07  0.3830131E+04  0.7818609E-02  0.8039720E-01
       -2   -1    0    0    0  501  0.00000000000E+00  0.00000000000E+00  0.20459133321E+04  0.20459133321E+04  0.25500000920E-02 0. -1.
        2   -1    0    0  501    0  0.00000000000E+00  0.00000000000E+00 -0.17925859092E+04  0.17925859092E+04  0.25500000920E-02 0.  1.
    10030    2    1    2    0    0  0.00000000000E+00  0.00000000000E+00  0.25332742297E+03  0.38384992413E+04  0.38301307605E+04 0.  0.
        3    1    3    3  502    0 -0.96306326216E+03  0.70814853106E+03  0.16260978622E+04  0.20182069906E+04  0.10100000352E+00 0. -1.
       -3    1    3    3    0  502  0.96306326216E+03 -0.70814853106E+03 -0.13727704393E+04  0.18202922507E+04  0.10100000352E+00 0.  1.
</event>
<event>
 5   0  0.7649458E-07  0.3860007E+04  0.7818609E-02  0.8033399E-01
        2   -1    0    0  501    0  0.00000000000E+00  0.00000000000E+00  0.14297247573E+04  0.14297247573E+04  0.25500000920E-02 0. -1.
       -2   -1    0    0    0  501  0.00000000000E+00  0.00000000000E+00 -0.26053359855E+04  0.26053359855E+04  0.25500000920E-02 0.  1.
    10030    2    1    2    0    0  0.00000000000E+00  0.00000000000E+00 -0.11756112282E+04  0.40350607428E+04  0.38600069220E+04 0.  0.
        4    1    3    3  502    0 -0.54912651752E+03  0.91776406404E+03  0.10916278593E+04  0.15282289768E+04  0.12699999809E+01 0. -1.
       -4    1    3    3    0  502  0.54912651752E+03 -0.91776406404E+03 -0.22672390876E+04  0.25068317659E+04  0.12699999809E+01 0.  1.
</event>
<event>
 5   0  0.7649458E-07  0.3783196E+04  0.7818609E-02  0.8049771E-01
       -2   -1    0    0    0  501  0.00000000000E+00  0.00000000000E+00  0.14912944228E+04  0.14912944228E+04  0.25500000920E-02 0.  1.
        2   -1    0    0  501    0  0.00000000000E+00  0.00000000000E+00 -0.23993533175E+04  0.23993533175E+04  0.25500000920E-02 0. -1.
    10030    2    1    2    0    0  0.00000000000E+00  0.00000000000E+00 -0.90805889462E+03  0.38906477403E+04  0.37831955914E+04 0.  0.
        4    1    3    3  502    0  0.17872717316E+04 -0.57395499447E+03 -0.21421968263E+03  0.18893533983E+04  0.12699999809E+01 0.  1.
       -4    1    3    3    0  502 -0.17872717316E+04  0.57395499447E+03 -0.69383921200E+03  0.20012943420E+04  0.12699999809E+01 0. -1.
</event>
<event>
 5   0  0.2529875E-07  0.3788840E+04  0.7818609E-02  0.8048554E-01
       -1   -1    0    0    0  501  0.00000000000E+00  0.00000000000E+00  0.16313504932E+04  0.16313504933E+04  0.50400001928E-02 0.  1.
        1   -1    0    0  501    0  0.00000000000E+00  0.00000000000E+00 -0.21999114309E+04  0.21999114309E+04  0.50400001928E-02 0. -1.
    10030    2    1    2    0    0  0.00000000000E+00  0.00000000000E+00 -0.56856093768E+03  0.38312619242E+04  0.37888397158E+04 0.  0.
        3    1    3    3  502    0 -0.10967392431E+04 -0.20036043796E+03  0.12644837127E+04  0.16857936832E+04  0.10100000352E+00 0.  1.
       -3    1    3    3    0  502  0.10967392431E+04  0.20036043796E+03 -0.18330446504E+04  0.21454682410E+04  0.10100000352E+00 0. -1.
</event>
<event>
 5   0  0.4273390E-07  0.2434525E+04  0.7818609E-02  0.8426690E-01
       -1   -1    0    0    0  501  0.00000000000E+00  0.00000000000E+00  0.96887492763E+03  0.96887492765E+03  0.50400001928E-02 0. -1.
        1   -1    0    0  501    0  0.00000000000E+00  0.00000000000E+00 -0.15293289547E+04  0.15293289547E+04  0.50400001928E-02 0.  1.
    10030    2    1    2    0    0  0.00000000000E+00  0.00000000000E+00 -0.56045402709E+03  0.24982038824E+04  0.24345253996E+04 0.  0.
        3    1    3    3  502    0 -0.18918532633E+02 -0.18402996633E+03 -0.15148188043E+04  0.15260737071E+04  0.10100000352E+00 0.  1.
       -3    1    3    3    0  502  0.18918532633E+02  0.18402996633E+03  0.95436477725E+03  0.97213017526E+03  0.10100000352E+00 0. -1.
</event>
<event>
 5   0  0.2529875E-07  0.3828923E+04  0.7818609E-02  0.8039976E-01
        1   -1    0    0  501    0  0.00000000000E+00  0.00000000000E+00  0.21681736181E+04  0.21681736181E+04  0.50400001928E-02 0.  1.
       -1   -1    0    0    0  501  0.00000000000E+00  0.00000000000E+00 -0.16904379919E+04  0.16904379919E+04  0.50400001928E-02 0. -1.
    10030    2    1    2    0    0  0.00000000000E+00  0.00000000000E+00  0.47773562618E+03  0.38586116100E+04  0.38289231160E+04 0.  0.
        3    1    3    3  502    0  0.90744431640E+03 -0.18172162773E+03  0.19277756336E+04  0.21384098861E+04  0.10100000352E+00 0.  1.
       -3    1    3    3    0  502 -0.90744431640E+03  0.18172162773E+03 -0.14500400074E+04  0.17202017238E+04  0.10100000352E+00 0. -1.
</event>
<event>
 5   0  0.2907071E-07  0.3795645E+04  0.7818609E-02  0.8047090E-01
       -1   -1    0    0    0  501  0.00000000000E+00  0.00000000000E+00  0.29587974106E+04  0.29587974106E+04  0.50400001928E-02 0.  1.
        1   -1    0    0  501    0  0.00000000000E+00  0.00000000000E+00 -0.12172955415E+04  0.12172955416E+04  0.50400001928E-02 0. -1.
    10030    2    1    2    0    0  0.00000000000E+00  0.00000000000E+00  0.17415018691E+04  0.41760929522E+04  0.37956453450E+04 0.  0.
        2    1    3    3  502    0 -0.32501457017E+03 -0.15563251462E+04  0.20109383706E+04  0.25635240514E+04  0.25500000920E-02 0.  1.
       -2    1    3    3    0  502  0.32501457017E+03  0.15563251462E+04 -0.26943650148E+03  0.16125689008E+04  0.25500000920E-02 0. -1.
</event>
<event>
 5   0  0.8421677E-07  0.3799122E+04  0.7818609E-02  0.8046343E-01
        2   -1    0    0  501    0  0.00000000000E+00  0.00000000000E+00  0.11579588533E+04  0.11579588533E+04  0.25500000920E-02 0.  1.
       -2   -1    0    0    0  501  0.00000000000E+00  0.00000000000E+00 -0.31161133761E+04  0.31161133761E+04  0.25500000920E-02 0. -1.
    10030    2    1    2    0    0  0.00000000000E+00  0.00000000000E+00 -0.19581545228E+04  0.42740722294E+04  0.37991215152E+04 0.  0.
        3    1    3    3  502    0  0.15224948885E+04 -0.10033347754E+04 -0.15782575195E+04  0.24115489141E+04  0.10100000352E+00 0. -1.
       -3    1    3    3    0  502 -0.15224948885E+04  0.10033347754E+04 -0.37989700325E+03  0.18625233153E+04  0.10100000352E+00 0.  1.
</event>
<event>
 5   0  0.8421677E-07  0.2972782E+04  0.7818609E-02  0.8251546E-01
        2   -1    0    0  501    0  0.00000000000E+00  0.00000000000E+00  0.17205406478E+04  0.17205406478E+04  0.25500000920E-02 0. -1.
       -2   -1    0    0    0  501  0.00000000000E+00  0.00000000000E+00 -0.12841072998E+04  0.12841072998E+04  0.25500000920E-02 0.  1.
    10030    2    1    2    0    0  0.00000000000E+00  0.00000000000E+00  0.43643334798E+03  0.30046479476E+04  0.29727824040E+04 0.  0.
        3    1    3    3  502    0  0.14102518857E+04 -0.26356715851E+03  0.61107418614E+03  0.15593876040E+04  0.10100000352E+00 0. -1.
       -3    1    3    3    0  502 -0.14102518857E+04  0.26356715851E+03 -0.17464083816E+03  0.14452603436E+04  0.10100000352E+00 0.  1.
</event>
<event>
 5   0  0.2529875E-07  0.2787957E+04  0.7818609E-02  0.8307017E-01
       -1   -1    0    0    0  501  0.00000000000E+00  0.00000000000E+00  0.11829300367E+04  0.11829300367E+04  0.50400001928E-02 0. -1.
        1   -1    0    0  501    0  0.00000000000E+00  0.00000000000E+00 -0.16426805066E+04  0.16426805066E+04  0.50400001928E-02 0.  1.
    10030    2    1    2    0    0  0.00000000000E+00  0.00000000000E+00 -0.45975046988E+03  0.28256105434E+04  0.27879570384E+04 0.  0.
        3    1    3    3  502    0  0.91939891761E+03 -0.98969862656E+03 -0.57858361646E+03  0.14695430421E+04  0.10100000352E+00 0.  1.
       -3    1    3    3    0  502 -0.91939891761E+03  0.98969862656E+03  0.11883314658E+03  0.13560675013E+04  0.10100000352E+00 0. -1.
</event>
<event>
 5   0  0.8038352E-07  0.3544604E+04  0.7818609E-02  0.8103300E-01
       -2   -1    0    0    0  501  0.00000000000E+00  0.00000000000E+00  0.13405184710E+04  0.13405184710E+04  0.25500000920E-02 0.  1.
        2   -1    0    0  501    0  0.00000000000E+00  0.00000000000E+00 -0.23431644781E+04  0.23431644781E+04  0.25500000920E-02 0. -1.
    10030    2    1    2    0    0  0.00000000000E+00  0.00000000000E+00 -0.10026460071E+04  0.36836829490E+04  0.35446044989E+04 0.  0.
        2    1    3    3  502    0  0.56677497331E+02  0.29008485852E+03 -0.23173704717E+04  0.23361437171E+04  0.25500000920E-02 0. -1.
       -2    1    3    3    0  502 -0.56677497331E+02 -0.29008485852E+03  0.13147244646E+04  0.13475392319E+04  0.25500000920E-02 0.  1.
</event>
<event>
 5   0  0.7551495E-07  0.3801634E+04  0.7818609E-02  0.8045804E-01
       -2   -1    0    0    0  501  0.00000000000E+00  0.00000000000E+00  0.22378993132E+04  0.22378993132E+04  0.25500000920E-02 0. -1.
        2   -1    0    0  501    0  0.00000000000E+00  0.00000000000E+00 -0.16145074613E+04  0.16145074613E+04  0.25500000920E-02 0.  1.
    10030    2    1    2    0    0  0.00000000000E+00  0.00000000000E+00  0.62339185190E+03  0.38524067745E+04  0.38016339323E+04 0.  0.
        1    1    3    3  502    0 -0.43234597177E+02 -0.75711951212E+03  0.20779621040E+04  0.22120184655E+04  0.50400001928E-02 0. -1.
       -1    1    3    3    0  502  0.43234597177E+02  0.75711951212E+03 -0.14545702521E+04  0.16403883090E+04  0.50400001928E-02 0.  1.
</event>
<event>
 5   0  0.7649458E-07  0.3049561E+04  0.7818609E-02  0.8229718E-01
       -2   -1    0    0    0  501  0.00000000000E+00  0.00000000000E+00  0.20396640699E+04  0.20396640699E+04  0.25500000920E-02 0.  1.
        2   -1    0    0  501    0  0.00000000000E+00  0.00000000000E+00 -0.11398714974E+04  0.11398714974E+04  0.25500000920E-02 0. -1.
    10030    2    1    2    0    0  0.00000000000E+00  0.00000000000E+00  0.89979257244E+03  0.31795355673E+04  0.30495605831E+04 0.  0.
        4    1    3    3  502    0 -0.25095435899E+03  0.12945906888E+04  0.12480361513E+04  0.18156373508E+04  0.12699999809E+01 0.  1.
       -4    1    3    3    0  502  0.25095435899E+03 -0.12945906888E+04 -0.34824357882E+03  0.13638982165E+04  0.12699999809E+01 0. -1.
</event>
<event>
 5   0  0.2529875E-07  0.4303557E+04  0.7818609E-02  0.7945961E-01
       -1   -1    0    0    0  501  0.00000000000E+00  0.00000000000E+00  0.20649332097E+04  0.20649332097E+04  0.50400001928E-02 0.  1.
        1   -1    0    0  501    0  0.00000000000E+00  0.00000000000E+00 -0.22422763248E+04  0.22422763248E+04  0.50400001928E-02 0. -1.
    10030    2    1    2    0    0  0.00000000000E+00  0.00000000000E+00 -0.17734311505E+03  0.43072095345E+04  0.43035570629E+04 0.  0.
        5    1    3    3  502    0  0.81491857437E+03 -0.10003789417E+04 -0.18121314227E+04  0.22245657313E+04  0.46999998093E+01 0. -1.
       -5    1    3    3    0  502 -0.81491857437E+03  0.10003789417E+04  0.16347883077E+04  0.20826438031E+04  0.46999998093E+01 0.  1.
</event>
<event>
 5   0  0.7551495E-07  0.3187807E+04  0.7818609E-02  0.8192045E-01
        2   -1    0    0  501    0  0.00000000000E+00  0.00000000000E+00  0.23387355736E+04  0.23387355736E+04  0.25500000920E-02 0.  1.
       -2   -1    0    0    0  501  0.00000000000E+00  0.00000000000E+00 -0.10862827375E+04  0.10862827375E+04  0.25500000920E-02 0. -1.
    10030    2    1    2    0    0  0.00000000000E+00  0.00000000000E+00  0.12524528361E+04  0.34250183111E+04  0.31878068204E+04 0.  0.
        1    1    3    3  502    0 -0.10864957442E+04  0.46717073848E+03 -0.52184042110E+03  0.12926867084E+04  0.50400001928E-02 0. -1.
       -1    1    3    3    0  502  0.10864957442E+04 -0.46717073848E+03  0.17742932572E+04  0.21323316027E+04  0.50400001928E-02 0.  1.
</event>
<event>
 5   0  0.8421677E-07  0.3783186E+04  0.7818609E-02  0.8049773E-01
        2   -1    0    0  501    0  0.00000000000E+00  0.00000000000E+00  0.30535255105E+04  0.30535255105E+04  0.25500000920E-02 0.  1.
       -2   -1    0    0    0  501  0.00000000000E+00  0.00000000000E+00 -0.11718007810E+04  0.11718007810E+04  0.25500000920E-02 0. -1.
    10030    2    1    2    0    0  0.00000000000E+00  0.00000000000E+00  0.18817247295E+04  0.42253262915E+04  0.37831857359E+04 0.  0.
        3    1    3    3  502    0 -0.13806727858E+04 -0.12929957811E+04  0.93493808282E+03  0.21100248009E+04  0.10100000352E+00 0.  1.
       -3    1    3    3    0  502  0.13806727858E+04  0.12929957811E+04  0.94678664663E+03  0.21153014906E+04  0.10100000352E+00 0. -1.
</event>
<event>
 5   0  0.2529875E-07  0.3794966E+04  0.7818609E-02  0.8047236E-01
       -1   -1    0    0    0  501  0.00000000000E+00  0.00000000000E+00  0.17317940577E+04  0.17317940577E+04  0.50400001928E-02 0.  1.
        1   -1    0    0  501    0  0.00000000000E+00  0.00000000000E+00 -0.20790245139E+04  0.20790245139E+04  0.50400001928E-02 0. -1.
    10030    2    1    2    0    0  0.00000000000E+00  0.00000000000E+00 -0.34723045622E+03  0.38108185716E+04  0.37949662970E+04 0.  0.
        4    1    3    3  502    0 -0.69878394065E+03  0.12522993364E+04 -0.14213384394E+04  0.20190981145E+04  0.12699999809E+01 0. -1.
       -4    1    3    3    0  502  0.69878394065E+03 -0.12522993364E+04  0.10741079832E+04  0.17917204570E+04  0.12699999809E+01 0.  1.
</event>
<event>
 5   0  0.7638805E-07  0.3811329E+04  0.7818609E-02  0.8043728E-01
       -2   -1    0    0    0  501  0.00000000000E+00  0.00000000000E+00  0.15817249695E+04  0.15817249695E+04  0.25500000920E-02 0.  1.
        2   -1    0    0  501    0  0.00000000000E+00  0.00000000000E+00 -0.22959471018E+04  0.22959471018E+04  0.25500000920E-02 0. -1.
    10030    2    1    2    0    0  0.00000000000E+00  0.00000000000E+00 -0.71422213226E+03  0.38776720713E+04  0.38113288285E+04 0.  0.
        5    1    3    3  502    0 -0.16470410201E+04  0.68320636755E+03 -0.10411382222E+04  0.20648258886E+04  0.46999998093E+01 0. -1.
       -5    1    3    3    0  502  0.16470410201E+04 -0.68320636755E+03  0.32691608994E+03  0.18128461828E+04  0.46999998093E+01 0.  1.
</event>
<event>
 5   0  0.8038352E-07  0.3235897E+04  0.7818609E-02  0.8179401E-01
        2   -1    0    0  501    0  0.00000000000E+00  0.00000000000E+00  0.18427235508E+04  0.18427235508E+04  0.25500000920E-02 0.  1.
       -2   -1    0    0    0  501  0.00000000000E+00  0.00000000000E+00 -0.14205915596E+04  0.14205915596E+04  0.25500000920E-02 0. -1.
    10030    2    1    2    0    0  0.00000000000E+00  0.00000000000E+00  0.42213199121E+03  0.32633151104E+04  0.32358971077E+04 0.  0.
        2    1    3    3  502    0  0.12830880113E+04 -0.84281049623E+03  0.72638798698E+03  0.16983179576E+04  0.25500000920E-02 0.  1.
       -2    1    3    3    0  502 -0.12830880113E+04  0.84281049623E+03 -0.30425599576E+03  0.15649971528E+04  0.25500000920E-02 0. -1.
</event>
<event>
 5   0  0.8038352E-07  0.3749771E+04  0.7818609E-02  0.8057021E-01
        2   -1    0    0  501    0  0.00000000000E+00  0.00000000000E+00  0.22362233312E+04  0.22362233312E+04  0.25500000920E-02 0.  1.
       -2   -1    0    0    0  501  0.00000000000E+00  0.00000000000E+00 -0.15719336972E+04  0.15719336972E+04  0.25500000920E-02 0. -1.
    10030    2    1    2    0    0  0.00000000000E+00  0.00000000000E+00  0.66428963397E+03  0.38081570283E+04  0.37497705576E+04 0.  0.
        2    1    3    3  502    0 -0.17430056274E+04  0.69067954830E+03  0.32262045834E+03  0.19024170982E+04  0.25500000920E-02 0.  1.
       -2    1    3    3    0  502  0.17430056274E+04 -0.69067954830E+03  0.34166917562E+03  0.19057399301E+04  0.25500000920E-02 0. -1.
</event>
<event>
 5   0  0.2529875E-07  0.3779295E+04  0.7818609E-02  0.8050613E-01
        1   -1    0    0  501    0  0.00000000000E+00  0.00000000000E+00  0.12114891102E+04  0.12114891102E+04  0.50400001928E-02 0.  1.
       -1   -1    0    0    0  501  0.00000000000E+00  0.00000000000E+00 -0.29474198333E+04  0.29474198333E+04  0.50400001928E-02 0. -1.
    10030    2    1    2    0    0  0.00000000000E+00  0.00000000000E+00 -0.17359307231E+04  0.41589089435E+04  0.37792946597E+04 0.  0.
        3    1    3    3  502    0 -0.57673316188E+03  0.67264079296E+03 -0.27046553099E+04  0.28460897969E+04  0.10100000352E+00 0. -1.
       -3    1    3    3    0  502  0.57673316188E+03 -0.67264079296E+03  0.96872458684E+03  0.13128191466E+04  0.10100000352E+00 0.  1.
</event>
<event>
 5   0  0.2907071E-07  0.2358111E+04  0.7818609E-02  0.8455355E-01
       -1   -1    0    0    0  501  0.00000000000E+00  0.00000000000E+00  0.14136713777E+04  0.14136713777E+04  0.50400001928E-02 0. -1.
        1   -1    0    0  501    0  0.00000000000E+00  0.00000000000E+00 -0.98337738400E+03  0.98337738401E+03  0.50400001928E-02 0.  1.
    10030    2    1    2    0    0  0.00000000000E+00  0.00000000000E+00  0.43029399371E+03  0.23970487617E+04  0.23581114997E+04 0.  0.
        2    1    3    3  502    0 -0.98746858995E+03  0.48058979300E+03  0.65131441634E+03  0.12768207526E+04  0.25500000920E-02 0. -1.
       -2    1    3    3    0  502  0.98746858995E+03 -0.48058979300E+03 -0.22102042263E+03  0.11202280092E+04  0.25500000920E-02 0.  1.
</event>
<event>
 5   0  0.7551495E-07  0.3801228E+04  0.7818609E-02  0.8045891E-01
        2   -1    0    0  501    0  0.00000000000E+00  0.00000000000E+00  0.19042940432E+04  0.19042940432E+04  0.25500000920E-02 0. -1.
       -2   -1    0    0    0  501  0.00000000000E+00  0.00000000000E+00 -0.18969413249E+04  0.18969413249E+04  0.25500000920E-02 0.  1.
    10030    2    1    2    0    0  0.00000000000E+00  0.00000000000E+00  0.73527183099E+01  0.38012353681E+04  0.38012282569E+04 0.  0.
        1    1    3    3  502    0  0.62221574782E+03  0.17954152962E+04  0.44487497349E+02  0.19006966249E+04  0.50400001928E-02 0. -1.
       -1    1    3    3    0  502 -0.62221574782E+03 -0.17954152962E+04 -0.37134779039E+02  0.19005387432E+04  0.50400001928E-02 0.  1.
</event>
<event>
 5   0  0.2907071E-07  0.3824172E+04  0.7818609E-02  0.8040988E-01
        1   -1    0    0  501    0  0.00000000000E+00  0.00000000000E+00  0.19917450599E+04  0.19917450599E+04  0.50400001928E-02 0.  1.
       -1   -1    0    0    0  501  0.00000000000E+00  0.00000000000E+00 -0.18356124233E+04  0.18356124233E+04  0.50400001928E-02 0. -1.
    10030    2    1    2    0    0  0.00000000000E+00  0.00000000000E+00  0.15613263656E+03  0.38273574832E+04  0.38241715317E+04 0.  0.
        2    1    3    3  502    0  0.13373742251E+04  0.85233769577E+03 -0.99101019652E+03  0.18700669975E+04  0.25500000920E-02 0. -1.
       -2    1    3    3    0  502 -0.13373742251E+04 -0.85233769577E+03  0.11471428331E+04  0.19572904856E+04  0.25500000920E-02 0.  1.
</event>
<event>
 5   0  0.2529875E-07  0.3701574E+04  0.7818609E-02  0.8067613E-01
       -1   -1    0    0    0  501  0.00000000000E+00  0.00000000000E+00  0.12828241450E+04  0.12828241450E+04  0.50400001928E-02 0.  1.
        1   -1    0    0  501    0  0.00000000000E+00  0.00000000000E+00 -0.26702116609E+04  0.26702116609E+04  0.50400001928E-02 0. -1.
    10030    2    1    2    0    0  0.00000000000E+00  0.00000000000E+00 -0.13873875159E+04  0.39530358059E+04  0.37015737145E+04 0.  0.
        5    1    3    3  502    0  0.82630819802E+03  0.15475697719E+04 -0.13233514437E+04  0.21975073540E+04  0.46999998093E+01 0. -1.
       -5    1    3    3    0  502 -0.82630819802E+03 -0.15475697719E+04 -0.64036072160E+02  0.17555284520E+04  0.46999998093E+01 0.  1.
</event>
<event>
 5   0  0.7638805E-07  0.3771576E+04  0.7818609E-02  0.8052282E-01
       -2   -1    0    0    0  501  0.00000000000E+00  0.00000000000E+00  0.16673688939E+04  0.16673688939E+04  0.25500000920E-02 0. -1.
        2   -1    0    0  501    0  0.00000000000E+00  0.00000000000E+00 -0.21328196037E+04  0.21328196037E+04  0.25500000920E-02 0.  1.
    10030    2    1    2    0    0  0.00000000000E+00  0.00000000000E+00 -0.46545070975E+03  0.38001884976E+04  0.37715763619E+04 0.  0.
        5    1    3    3  502    0 -0.20298507289E+03  0.17622723499E+04 -0.87739806273E+03  0.19790543766E+04  0.46999998093E+01 0.  1.
       -5    1    3    3    0  502  0.20298507289E+03 -0.17622723499E+04  0.41194735298E+03  0.18211341210E+04  0.46999998093E+01 0. -1.
</event>
<event>
 5   0  0.2907071E-07  0.2847318E+04  0.7818609E-02  0.8288727E-01
       -1   -1    0    0    0  501  0.00000000000E+00  0.00000000000E+00  0.88574382561E+03  0.88574382562E+03  0.50400001928E-02 0.  1.
        1   -1    0    0  501    0  0.00000000000E+00  0.00000000000E+00 -0.22882521081E+04  0.22882521081E+04  0.50400001928E-02 0. -1.
    10030    2    1    2    0    0  0.00000000000E+00  0.00000000000E+00 -0.14025082825E+04  0.31739959337E+04  0.28473181601E+04 0.  0.
        2    1    3    3  502    0  0.36648171266E+03  0.90555415126E+03  0.45316240080E+03  0.10768905832E+04  0.25500000920E-02 0.  1.
       -2    1    3    3    0  502 -0.36648171266E+03 -0.90555415126E+03 -0.18556706833E+04  0.20971053506E+04  0.25500000920E-02 0. -1.
</event>
<event>
 5   0  0.2529875E-07  0.3865218E+04  0.7818609E-02  0.8032302E-01
       -1   -1    0    0    0  501  0.00000000000E+00  0.00000000000E+00  0.16701546519E+04  0.16701546519E+04  0.50400001928E-02 0.  1.
        1   -1    0    0  501    0  0.00000000000E+00  0.00000000000E+00 -0.22363066360E+04  0.22363066361E+04  0.50400001928E-02 0. -1.
    10030    2    1    2    0    0  0.00000000000E+00  0.00000000000E+00 -0.56615198411E+03  0.39064612880E+04  0.38652181990E+04 0.  0.
        3    1    3    3  502    0  0.17229466780E+04  0.84309195201E+03 -0.44702105484E+02  0.19186838153E+04  0.10100000352E+00 0.  1.
       -3    1    3    3    0  502 -0.17229466780E+04 -0.84309195201E+03 -0.52144987862E+03  0.19877774727E+04  0.10100000352E+00 0. -1.
</event>
<event>
 5   0  0.2529875E-07  0.3755620E+04  0.7818609E-02  0.8055746E-01
        1   -1    0    0  501    0  0.00000000000E+00  0.00000000000E+00  0.22598740613E+04  0.22598740613E+04  0.50400001928E-02 0.  1.
       -1   -1    0    0    0  501  0.00000000000E+00  0.00000000000E+00 -0.15603390431E+04  0.15603390431E+04  0.50400001928E-02 0. -1.
    10030    2    1    2    0    0  0.00000000000E+00  0.00000000000E+00  0.69953501820E+03  0.38202131044E+04  0.37556196454E+04 0.  0.
        5    1    3    3  502    0  0.18157128796E+04 -0.39512992831E+03  0.62498843969E+03  0.19605033948E+04  0.46999998093E+01 0.  1.
       -5    1    3    3    0  502 -0.18157128796E+04  0.39512992831E+03  0.74546578512E+02  0.18597097095E+04  0.46999998093E+01 0. -1.
</event>
<event>
 5   0  0.8038352E-07  0.3932675E+04  0.7818609E-02  0.8018267E-01
       -2   -1    0    0    0  501  0.00000000000E+00  0.00000000000E+00  0.13469485566E+04  0.13469485566E+04  0.25500000920E-02 0. -1.
        2   -1    0    0  501    0  0.00000000000E+00  0.00000000000E+00 -0.28705503000E+04  0.28705503000E+04  0.25500000920E-02 0.  1.
    10030    2    1    2    0    0  0.00000000000E+00  0.00000000000E+00 -0.15236017434E+04  0.42174988566E+04  0.39326752132E+04 0.  0.
        2    1    3    3  502    0 -0.11710120589E+04 -0.12903627355E+04 -0.17389314284E+04  0.24617448577E+04  0.25500000920E-02 0.  1.
       -2    1    3    3    0  502  0.11710120589E+04  0.12903627355E+04  0.21532968501E+03  0.17557539989E+04  0.25500000920E-02 0. -1.
</event>
<event>
 5   0  0.7551495E-07  0.3817985E+04  0.7818609E-02  0.8042306E-01
       -2   -1    0    0    0  501  0.00000000000E+00  0.00000000000E+00  0.12995478888E+04  0.12995478888E+04  0.25500000920E-02 0.  1.
        2   -1    0    0  501    0  0.00000000000E+00  0.00000000000E+00 -0.28042458908E+04  0.28042458908E+04  0.25500000920E-02 0. -1.
    10030    2    1    2    0    0  0.00000000000E+00  0.00000000000E+00 -0.15046980020E+04  0.41037937796E+04  0.38179847182E+04 0.  0.
        1    1    3    3  502    0 -0.17613566864E+04  0.69957001221E+03 -0.99857433335E+03  0.21421779286E+04  0.50400001928E-02 0. -1.
       -1    1    3    3    0  502  0.17613566864E+04 -0.69957001221E+03 -0.50612366869E+03  0.19616158510E+04  0.50400001928E-02 0.  1.
</event>
<event>
 5   0  0.2529875E-07  0.3714860E+04  0.7818609E-02  0.8064677E-01
        1   -1    0    0  501    0  0.00000000000E+00  0.00000000000E+00  0.13110352611E+04  0.13110352611E+04  0.50400001928E-02 0. -1.
       -1   -1    0    0    0  501  0.00000000000E+00  0.00000000000E+00 -0.26315427378E+04  0.26315427378E+04  0.50400001928E-02 0.  1.
    10030    2    1    2    0    0  0.00000000000E+00  0.00000000000E+00 -0.13205074767E+04  0.39425779990E+04  0.37148595238E+04 0.  0.
        3    1    3    3  502    0  0.66145738668E+03 -0.54100799370E+03  0.10900312226E+04  0.13850572552E+04  0.10100000352E+00 0. -1.
       -3    1    3    3    0  502 -0.66145738668E+03  0.54100799370E+03 -0.24105386994E+04  0.25575207438E+04  0.10100000352E+00 0.  1.
</event>
<event>
 5   0  0.7551495E-07  0.3794371E+04  0.7818609E-02  0.8047364E-01
        2   -1    0    0  501    0  0.00000000000E+00  0.00000000000E+00  0.14406698331E+04  0.14406698331E+04  0.25500000920E-02 0.  1.
       -2   -1    0    0    0  501  0.00000000000E+00  0.00000000000E+00 -0.24983604295E+04  0.24983604295E+04  0.25500000920E-02 0. -1.
    10030    2    1    2    0    0  0.00000000000E+00  0.00000000000E+00 -0.10576905964E+04  0.39390302626E+04  0.37943708321E+04 0.  0.
        1    1    3    3  502    0 -0.53263252297E+03 -0.13968939809E+04  0.68371920529E+03  0.16439227932E+04  0.50400001928E-02 0.  1.
       -1    1    3    3    0  502  0.53263252297E+03  0.13968939809E+04 -0.17414098017E+04  0.22951074693E+04  0.50400001928E-02 0. -1.
</event>
<event>
 5   0  0.7551495E-07  0.3031086E+04  0.7818609E-02  0.8234909E-01
        2   -1    0    0  501    0  0.00000000000E+00  0.00000000000E+00  0.21776230034E+04  0.21776230034E+04  0.25500000920E-02 0. -1.
       -2   -1    0    0    0  501  0.00000000000E+00  0.00000000000E+00 -0.10547605859E+04  0.10547605859E+04  0.25500000920E-02 0.  1.
    10030    2    1    2    0    0  0.00000000000E+00  0.00000000000E+00  0.11228624176E+04  0.32323835893E+04  0.30310862178E+04 0.  0.
        1    1    3    3  502    0 -0.71541150493E+03 -0.42777896731E+03 -0.78835294045E+03  0.11473050270E+04  0.50400001928E-02 0.  1.
       -1    1    3    3    0  502  0.71541150493E+03  0.42777896731E+03  0.19112153580E+04  0.20850785623E+04  0.50400001928E-02 0. -1.
</event>
<event>
 5   0  0.7638805E-07  0.3682602E+04  0.7818609E-02  0.8071828E-01
        2   -1    0    0  501    0  0.00000000000E+00  0.00000000000E+00  0.25905006691E+04  0.25905006691E+04  0.25500000920E-02 0. -1.
       -2   -1    0    0    0  501  0.00000000000E+00  0.00000000000E+00 -0.13087775036E+04  0.13087775036E+04  0.25500000920E-02 0.  1.
    10030    2    1    2    0    0  0.00000000000E+00  0.00000000000E+00  0.12817231655E+04  0.38992781727E+04  0.36826017970E+04 0.  0.
        5    1    3    3  502    0  0.37838439716E+03 -0.17570407111E+04  0.21732631481E+03  0.18104197385E+04  0.46999998093E+01 0.  1.
       -5    1    3    3    0  502 -0.37838439716E+03  0.17570407111E+04  0.10643968507E+04  0.20888584342E+04  0.46999998093E+01 0. -1.
</event>
<event>
 5   0  0.7551495E-07  0.3828905E+04  0.7818609E-02  0.8039980E-01
        2   -1    0    0  501    0  0.00000000000E+00  0.00000000000E+00  0.29449486137E+04  0.29449486137E+04  0.25500000920E-02 0.  1.
       -2   -1    0    0    0  501  0.00000000000E+00  0.00000000000E+00 -0.12445474413E+04  0.12445474413E+04  0.25500000920E-02 0. -1.
    10030    2    1    2    0    0  0.00000000000E+00  0.00000000000E+00  0.17004011724E+04  0.41894960550E+04  0.38289049410E+04 0.  0.
        1    1    3    3  502    0  0.37293307357E+03  0.48041613730E+03 -0.11360377234E+04  0.12885885501E+04  0.50400001928E-02 0. -1.
       -1    1    3    3    0  502 -0.37293307357E+03 -0.48041613730E+03  0.28364388958E+04  0.29009075049E+04  0.50400001928E-02 0.  1.
</event>
<event>
 5   0  0.2529875E-07  0.3896479E+04  0.7818609E-02  0.8025762E-01
       -1   -1    0    0    0  501  0.00000000000E+00  0.00000000000E+00  0.16671653303E+04  0.16671653303E+04  0.50400001928E-02 0. -1.
        1   -1    0    0  501    0  0.00000000000E+00  0.00000000000E+00 -0.22767014379E+04  0.22767014379E+04  0.50400001928E-02 0.  1.
    10030    2    1    2    0    0  0.00000000000E+00  0.00000000000E+00 -0.60953610759E+03  0.39438667682E+04  0.38964792850E+04 0.  0.
        1    1    3    3  502    0  0.11714216529E+02  0.62687866027E+03 -0.21717943647E+04  0.22604877439E+04  0.50400001928E-02 0.  1.
       -1    1    3    3    0  502 -0.11714216529E+02 -0.62687866027E+03  0.15622582571E+04  0.16833790243E+04  0.50400001928E-02 0. -1.
</event>
<event>
 5   0  0.2529875E-07  0.3820609E+04  0.7818609E-02  0.8041747E-01
        1   -1    0    0  501    0  0.00000000000E+00  0.00000000000E+00  0.19391555222E+04  0.19391555222E+04  0.50400001928E-02 0.  1.
       -1   -1    0    0    0  501  0.00000000000E+00  0.00000000000E+00 -0.18818831607E+04  0.18818831607E+04  0.50400001928E-02 0. -1.
    10030    2    1    2    0    0  0.00000000000E+00  0.00000000000E+00  0.57272361484E+02  0.38210386829E+04  0.38206094400E+04 0.  0.
        1    1    3    3  502    0  0.99371344987E+03 -0.44649219578E+02  0.16597100105E+04  0.19349670003E+04  0.50400001928E-02 0.  1.
       -1    1    3    3    0  502 -0.99371344987E+03  0.44649219578E+02 -0.16024376490E+04  0.18860716827E+04  0.50400001928E-02 0. -1.
</event>
<event>
 5   0  0.2529875E-07  0.3783757E+04  0.7818609E-02  0.8049650E-01
        1   -1    0    0  501    0  0.00000000000E+00  0.00000000000E+00  0.20417406093E+04  0.20417406093E+04  0.50400001928E-02 0.  1.
       -1   -1    0    0    0  501  0.00000000000E+00  0.00000000000E+00 -0.17530160691E+04  0.17530160691E+04  0.50400001928E-02 0. -1.
    10030    2    1    2    0    0  0.00000000000E+00  0.00000000000E+00  0.28872454022E+03  0.37947566784E+04  0.37837569145E+04 0.  0.
        3    1    3    3  502    0 -0.18495991542E+04  0.38418376666E+03  0.41155922426E+02  0.18895258712E+04  0.10100000352E+00 0. -1.
       -3    1    3    3    0  502  0.18495991542E+04 -0.38418376666E+03  0.24756861780E+03  0.19052308072E+04  0.10100000352E+00 0.  1.
</event>
<event>
 5   0  0.7638805E-07  0.3543780E+04  0.7818609E-02  0.8103492E-01
       -2   -1    0    0    0  501  0.00000000000E+00  0.00000000000E+00  0.22462762544E+04  0.22462762544E+04  0.25500000920E-02 0. -1.
        2   -1    0    0  501    0  0.00000000000E+00  0.00000000000E+00 -0.13976880026E+04  0.13976880026E+04  0.25500000920E-02 0.  1.
    10030    2    1    2    0    0  0.00000000000E+00  0.00000000000E+00  0.84858825186E+03  0.36439642570E+04  0.35437795480E+04 0.  0.
        5    1    3    3  502    0  0.97071133476E+02 -0.40502198351E+03  0.21952213752E+04  0.22343868484E+04  0.46999998093E+01 0. -1.
       -5    1    3    3    0  502 -0.97071133476E+02  0.40502198351E+03 -0.13466331233E+04  0.14095774086E+04  0.46999998093E+01 0.  1.
</event>
<event>
 5   0  0.7551495E-07  0.3534248E+04  0.7818609E-02  0.8105721E-01
       -2   -1    0    0    0  501  0.00000000000E+00  0.00000000000E+00  0.16333911544E+04  0.16333911544E+04  0.25500000920E-02 0.  1.
        2   -1    0    0  501    0  0.00000000000E+00  0.00000000000E+00 -0.19118060581E+04  0.19118060581E+04  0.25500000920E-02 0. -1.
    10030    2    1    2    0    0  0.00000000000E+00  0.00000000000E+00 -0.27841490368E+03  0.35451972125E+04  0.35342479281E+04 0.  0.
        1    1    3    3  502    0 -0.44242423211E+03 -0.10871960305E+04  0.11858667346E+04  0.16685365810E+04  0.50400001928E-02 0.  1.
       -1    1    3    3    0  502  0.44242423211E+03  0.10871960305E+04 -0.14642816383E+04  0.18766606315E+04  0.50400001928E-02 0. -1.
</event>
<event>
 5   0  0.2529875E-07  0.3869973E+04  0.7818609E-02  0.8031303E-01
        1   -1    0    0  501    0  0.00000000000E+00  0.00000000000E+00  0.29938694703E+04  0.29938694703E+04  0.50400001928E-02 0. -1.
       -1   -1    0    0    0  501  0.00000000000E+00  0.00000000000E+00 -0.12506129888E+04  0.12506129888E+04  0.50400001928E-02 0.  1.
    10030    2    1    2    0    0  0.00000000000E+00  0.00000000000E+00  0.17432564815E+04  0.42444824591E+04  0.38699726337E+04 0.  0.
        5    1    3    3  502    0 -0.15101297548E+03 -0.12199509478E+04 -0.76732855201E+03  0.14491033195E+04  0.46999998093E+01 0.  1.
       -5    1    3    3    0  502  0.15101297548E+03  0.12199509478E+04  0.25105850335E+04  0.27953791396E+04  0.46999998093E+01 0. -1.
</event>
<event>
 5   0  0.2529875E-07  0.3835707E+04  0.7818609E-02  0.8038535E-01
        1   -1    0    0  501    0  0.00000000000E+00  0.00000000000E+00  0.17096790488E+04  0.17096790488E+04  0.50400001928E-02 0.  1.
       -1   -1    0    0    0  501  0.00000000000E+00  0.00000000000E+00 -0.21513762012E+04  0.21513762012E+04  0.50400001928E-02 0. -1.
    10030    2    1    2    0    0  0.00000000000E+00  0.00000000000E+00 -0.44169715241E+03  0.38610552501E+04  0.38357074015E+04 0.  0.
        5    1    3    3  502    0 -0.99543042329E+03 -0.16110474846E+04 -0.52581105359E+03  0.19654147347E+04  0.46999998093E+01 0. -1.
       -5    1    3    3    0  502  0.99543042329E+03  0.16110474846E+04  0.84113901180E+02  0.18956405154E+04  0.46999998093E+01 0.  1.
</event>
<event>
 5   0  0.7551495E-07  0.2936784E+04  0.7818609E-02  0.8262017E-01
        2   -1    0    0  501    0  0.00000000000E+00  0.00000000000E+00  0.25687807507E+04  0.25687807507E+04  0.25500000920E-02 0.  1.
       -2   -1    0    0    0  501  0.00000000000E+00  0.00000000000E+00 -0.83937669567E+03  0.83937669568E+03  0.25500000920E-02 0. -1.
    10030    2    1    2    0    0  0.00000000000E+00  0.00000000000E+00  0.17294040550E+04  0.34081574464E+04  0.29367837499E+04 0.  0.
        1    1    3    3  502    0  0.10511753950E+04  0.74250242397E+02  0.20514255503E+04  0.23062587882E+04  0.50400001928E-02 0.  1.
       -1    1    3    3    0  502 -0.10511753950E+04 -0.74250242397E+02 -0.32202149525E+03  0.11018986582E+04  0.50400001928E-02 0. -1.
</event>
<event>
 5   0  0.2529875E-07  0.2850960E+04  0.7818609E-02  0.8287620E-01
        1   -1    0    0  501    0  0.00000000000E+00  0.00000000000E+00  0.21840269211E+04  0.21840269211E+04  0.50400001928E-02 0. -1.
       -1   -1    0    0    0  501  0.00000000000E+00  0.00000000000E+00 -0.93038834229E+03  0.93038834231E+03  0.50400001928E-02 0.  1.
    10030    2    1    2    0    0  0.00000000000E+00  0.00000000000E+00  0.12536385788E+04  0.31144152634E+04  0.28509599694E+04 0.  0.
        3    1    3    3  502    0  0.10627684623E+04 -0.22300418752E+03 -0.38198124728E+03  0.11511374182E+04  0.10100000352E+00 0.  1.
       -3    1    3    3    0  502 -0.10627684623E+04  0.22300418752E+03  0.16356198261E+04  0.19632778453E+04  0.10100000352E+00 0. -1.
</event>
<event>
 5   0  0.2907071E-07  0.3870778E+04  0.7818609E-02  0.8031134E-01
       -1   -1    0    0    0  501  0.00000000000E+00  0.00000000000E+00  0.16585366134E+04  0.16585366134E+04  0.50400001928E-02 0. -1.
        1   -1    0    0  501    0  0.00000000000E+00  0.00000000000E+00 -0.22584555876E+04  0.22584555876E+04  0.50400001928E-02 0.  1.
    10030    2    1    2    0    0  0.00000000000E+00  0.00000000000E+00 -0.59991897426E+03  0.39169922010E+04  0.38707783619E+04 0.  0.
        2    1    3    3  502    0 -0.93538251225E+03  0.23189817619E+03 -0.19983944077E+04  0.22186251187E+04  0.25500000920E-02 0.  1.
       -2    1    3    3    0  502  0.93538251225E+03 -0.23189817619E+03  0.13984754335E+04  0.16983670823E+04  0.25500000920E-02 0. -1.
</event>
<event>
 5   0  0.2529875E-07  0.2547722E+04  0.7818609E-02  0.8386179E-01
       -1   -1    0    0    0  501  0.00000000000E+00  0.00000000000E+00  0.12845235620E+04  0.12845235620E+04  0.50400001928E-02 0. -1.
        1   -1    0    0  501    0  0.00000000000E+00  0.00000000000E+00 -0.12632865079E+04  0.12632865079E+04  0.50400001928E-02 0.  1.
    10030    2    1    2    0    0  0.00000000000E+00  0.00000000000E+00  0.21237054126E+02  0.25478100699E+04  0.25477215585E+04 0.  0.
        4    1    3    3  502    0  0.62815795187E+02 -0.76564230248E+03  0.10268062358E+04  0.12823753811E+04  0.12699999809E+01 0. -1.
       -4    1    3    3    0  502 -0.62815795187E+02  0.76564230248E+03 -0.10055691816E+04  0.12654346887E+04  0.12699999809E+01 0.  1.
</event>
<event>
 5   0  0.2529875E-07  0.2340849E+04  0.7818609E-02  0.8461987E-01
       -1   -1    0    0    0  501  0.00000000000E+00  0.00000000000E+00  0.77907381576E+03  0.77907381577E+03  0.50400001928E-02 0.  1.
        1   -1    0    0  501    0  0.00000000000E+00  0.00000000000E+00 -0.17583615028E+04  0.17583615028E+04  0.50400001928E-02 0. -1.
    10030    2    1    2    0    0  0.00000000000E+00  0.00000000000E+00 -0.97928768702E+03  0.25374353186E+04  0.23408489105E+04 0.  0.
        4    1    3    3  502    0 -0.11169288878E+04 -0.33433325654E+03 -0.60115657928E+03  0.13117544407E+04  0.12699999809E+01 0. -1.
       -4    1    3    3    0  502  0.11169288878E+04  0.33433325654E+03 -0.37813110774E+03  0.12256808779E+04  0.12699999809E+01 0.  1.
</event>
<event>
 5   0  0.2529875E-07  0.3538095E+04  0.7818609E-02  0.8104821E-01
       -1   -1    0    0    0  501  0.00000000000E+00  0.00000000000E+00  0.18476147780E+04  0.18476147780E+04  0.50400001928E-02 0.  1.
        1   -1    0    0  501    0  0.00000000000E+00  0.00000000000E+00 -0.16938215983E+04  0.16938215983E+04  0.50400001928E-02 0. -1.
    10030    2    1    2    0    0  0.00000000000E+00  0.00000000000E+00  0.15379317969E+03  0.35414363763E+04  0.35380954291E+04 0.  0.
        1    1    3    3  502    0 -0.10481566913E+04  0.89420124347E+02 -0.13467338314E+04  0.17088945025E+04  0.50400001928E-02 0. -1.
       -1    1    3    3    0  502  0.10481566913E+04 -0.89420124347E+02  0.15005270111E+04  0.18325418738E+04  0.50400001928E-02 0.  1.
</event>
<event>
 5   0  0.2529875E-07  0.3003795E+04  0.7818609E-02  0.8242648E-01
        1   -1    0    0  501    0  0.00000000000E+00  0.00000000000E+00  0.18265457996E+04  0.18265457996E+04  0.50400001928E-02 0. -1.
       -1   -1    0    0    0  501  0.00000000000E+00  0.00000000000E+00 -0.12349519291E+04  0.12349519291E+04  0.50400001928E-02 0.  1.
    10030    2    1    2    0    0  0.00000000000E+00  0.00000000000E+00  0.59159387050E+03  0.30614977287E+04  0.30037951054E+04 0.  0.
        3    1    3    3  502    0  0.12915848502E+04 -0.71192963196E+03  0.63323094074E+01  0.14748136609E+04  0.10100000352E+00 0. -1.
       -3    1    3    3    0  502 -0.12915848502E+04  0.71192963196E+03  0.58526156109E+03  0.15866840678E+04  0.10100000352E+00 0.  1.
</event>
<event>
 5   0  0.2529875E-07  0.3819611E+04  0.7818609E-02  0.8041959E-01
        1   -1    0    0  501    0  0.00000000000E+00  0.00000000000E+00  0.19814227970E+04  0.19814227970E+04  0.50400001928E-02 0.  1.
       -1   -1    0    0    0  501  0.00000000000E+00  0.00000000000E+00 -0.18407768838E+04  0.18407768838E+04  0.50400001928E-02 0. -1.
    10030    2    1    2    0    0  0.00000000000E+00  0.00000000000E+00  0.14064591318E+03  0.38221996808E+04  0.38196111225E+04 0.  0.
        4    1    3    3  502    0  0.12337402282E+04 -0.12784781776E+03 -0.13828649280E+04  0.18576267217E+04  0.12699999809E+01 0. -1.
       -4    1    3    3    0  502 -0.12337402282E+04  0.12784781776E+03  0.15235108412E+04  0.19645729591E+04  0.12699999809E+01 0.  1.
</event>
<event>
 5   0  0.8421677E-07  0.2569137E+04  0.7818609E-02  0.8378761E-01
       -2   -1    0    0    0  501  0.00000000000E+00  0.00000000000E+00  0.10053860493E+04  0.10053860493E+04  0.25500000920E-02 0.  1.
        2   -1    0    0  501    0  0.00000000000E+00  0.00000000000E+00 -0.16412758819E+04  0.16412758819E+04  0.25500000920E-02 0. -1.
    10030    2    1    2    0    0  0.00000000000E+00  0.00000000000E+00 -0.63588983265E+03  0.26466619312E+04  0.25691367225E+04 0.  0.
        3    1    3    3  502    0  0.82116642260E+03 -0.24201072305E+03 -0.13045672516E+04  0.15603779055E+04  0.10100000352E+00 0. -1.
       -3    1    3    3    0  502 -0.82116642260E+03  0.24201072305E+03  0.66867741899E+03  0.10862840257E+04  0.10100000352E+00 0.  1.
</event>
<event>
 5   0  0.2907071E-07  0.3748990E+04  0.7818609E-02  0.8057191E-01
        1   -1    0    0  501    0  0.00000000000E+00  0.00000000000E+00  0.23425366904E+04  0.23425366904E+04  0.50400001928E-02 0.  1.
       -1   -1    0    0    0  501  0.00000000000E+00  0.00000000000E+00 -0.14999687658E+04  0.14999687658E+04  0.50400001928E-02 0. -1.
    10030    2    1    2    0    0  0.00000000000E+00  0.00000000000E+00  0.84256792463E+03  0.38425054562E+04  0.37489901938E+04 0.  0.
        2    1    3    3  502    0 -0.92046886617E+03 -0.80608159776E+03 -0.10342454557E+04  0.16020905526E+04  0.25500000920E-02 0. -1.
       -2    1    3    3    0  502  0.92046886617E+03  0.80608159776E+03  0.18768133804E+04  0.22404149037E+04  0.25500000920E-02 0.  1.
</event>
<event>
 5   0  0.2529875E-07  0.2909618E+04  0.7818609E-02  0.8270022E-01
       -1   -1    0    0    0  501  0.00000000000E+00  0.00000000000E+00  0.16174772788E+04  0.16174772788E+04  0.50400001928E-02 0.  1.
        1   -1    0    0  501    0  0.00000000000E+00  0.00000000000E+00 -0.13084997252E+04  0.13084997252E+04  0.50400001928E-02 0. -1.
    10030    2    1    2    0    0  0.00000000000E+00  0.00000000000E+00  0.30897755360E+03  0.29259770040E+04  0.29096175521E+04 0.  0.
        3    1    3    3  502    0  0.25587285202E+03  0.13352099470E+04  0.67529257149E+03  0.15179843828E+04  0.10100000352E+00 0.  1.
       -3    1    3    3    0  502 -0.25587285202E+03 -0.13352099470E+04 -0.36631501789E+03  0.14079926213E+04  0.10100000352E+00 0. -1.
</event>
<event>
 5   0  0.2907071E-07  0.3816620E+04  0.7818609E-02  0.8042598E-01
        1   -1    0    0  501    0  0.00000000000E+00  0.00000000000E+00  0.21646961262E+04  0.21646961262E+04  0.50400001928E-02 0.  1.
       -1   -1    0    0    0  501  0.00000000000E+00  0.00000000000E+00 -0.16822901002E+04  0.16822901003E+04  0.50400001928E-02 0. -1.
    10030    2    1    2    0    0  0.00000000000E+00  0.00000000000E+00  0.48240602597E+03  0.38469862265E+04  0.38166198989E+04 0.  0.
        2    1    3    3  502    0  0.39755192258E+03  0.18120378116E+04 -0.20970206373E+03  0.18669503254E+04  0.25500000920E-02 0.  1.
       -2    1    3    3    0  502 -0.39755192258E+03 -0.18120378116E+04  0.69210808970E+03  0.19800359011E+04  0.25500000920E-02 0. -1.
</event>
<event>
 5   0  0.7551495E-07  0.3765151E+04  0.7818609E-02  0.8053675E-01
       -2   -1    0    0    0  501  0.00000000000E+00  0.00000000000E+00  0.18839911699E+04  0.18839911700E+04  0.25500000920E-02 0.  1.
        2   -1    0    0  501    0  0.00000000000E+00  0.00000000000E+00 -0.18811606792E+04  0.18811606792E+04  0.25500000920E-02 0. -1.
    10030    2    1    2    0    0  0.00000000000E+00  0.00000000000E+00  0.28304907552E+01  0.37651518491E+04  0.37651507852E+04 0.  0.
        1    1    3    3  502    0  0.14372166180E+03 -0.16705593667E+04 -0.85454387115E+03  0.18819324487E+04  0.50400001928E-02 0. -1.
       -1    1    3    3    0  502 -0.14372166180E+03  0.16705593667E+04  0.85737436190E+03  0.18832194004E+04  0.50400001928E-02 0.  1.
</event>
<event>
 5   0  0.2529875E-07  0.3819644E+04  0.7818609E-02  0.8041952E-01
        1   -1    0    0  501    0  0.00000000000E+00  0.00000000000E+00  0.34434609100E+04  0.34434609100E+04  0.50400001928E-02 0. -1.
       -1   -1    0    0    0  501  0.00000000000E+00  0.00000000000E+00 -0.10592308682E+04  0.10592308683E+04  0.50400001928E-02 0.  1.
    10030    2    1    2    0    0  0.00000000000E+00  0.00000000000E+00  0.23842300418E+04  0.45026917783E+04  0.38196440093E+04 0.  0.
        1    1    3    3  502    0 -0.14162617429E+04  0.12812303000E+04  0.12020956678E+04  0.22566307630E+04  0.50400001928E-02 0. -1.
       -1    1    3    3    0  502  0.14162617429E+04 -0.12812303000E+04  0.11821343740E+04  0.22460610152E+04  0.50400001928E-02 0.  1.
</event>
<event>
 5   0  0.8038352E-07  0.3785778E+04  0.7818609E-02  0.8049214E-01
        2   -1    0    0  501    0  0.00000000000E+00  0.00000000000E+00  0.25615290474E+04  0.25615290474E+04  0.25500000920E-02 0. -1.
       -2   -1    0    0    0  501  0.00000000000E+00  0.00000000000E+00 -0.13987853826E+04  0.13987853826E+04  0.25500000920E-02 0.  1.
    10030    2    1    2    0    0  0.00000000000E+00  0.00000000000E+00  0.11627436648E+04  0.39603144301E+04  0.37857783288E+04 0.  0.
        2    1    3    3  502    0  0.76066145725E+03 -0.88215209097E+03 -0.97947260958E+03  0.15218951203E+04  0.25500000920E-02 0.  1.
       -2    1    3    3    0  502 -0.76066145725E+03  0.88215209097E+03  0.21422162744E+04  0.24384193098E+04  0.25500000920E-02 0. -1.
</event>
<event>
 5   0  0.2529875E-07  0.3774843E+04  0.7818609E-02  0.8051575E-01
       -3   -1    0    0    0  501  0.00000000000E+00  0.00000000000E+00  0.13267138393E+04  0.13267138431E+04  0.10100000352E+00 0.  1.
        3   -1    0    0  501    0  0.00000000000E+00  0.00000000000E+00 -0.26851009627E+04  0.26851009646E+04  0.10100000352E+00 0. -1.
    10030    2    1    2    0    0  0.00000000000E+00  0.00000000000E+00 -0.13583871234E+04  0.40118148077E+04  0.37748433708E+04 0.  0.
        1    1    3    3  502    0  0.18394051823E+04  0.26954763449E+03 -0.33270028043E+03  0.18885859336E+04  0.50400001928E-02 0.  1.
       -1    1    3    3    0  502 -0.18394051823E+04 -0.26954763449E+03 -0.10256868430E+04  0.21232288741E+04  0.50400001928E-02 0. -1.
</event>
<event>
 5   0  0.2529875E-07  0.3614727E+04  0.7818609E-02  0.8087127E-01
        1   -1    0    0  501    0  0.00000000000E+00  0.00000000000E+00  0.14096709347E+04  0.14096709347E+04  0.50400001928E-02 0. -1.
       -1   -1    0    0    0  501  0.00000000000E+00  0.00000000000E+00 -0.23172516294E+04  0.23172516294E+04  0.50400001928E-02 0.  1.
    10030    2    1    2    0    0  0.00000000000E+00  0.00000000000E+00 -0.90758069479E+03  0.37269225641E+04  0.36147266953E+04 0.  0.
        1    1    3    3  502    0  0.87479368751E+03 -0.59263581841E+03 -0.19656181222E+04  0.22316217894E+04  0.50400001928E-02 0.  1.
       -1    1    3    3    0  502 -0.87479368751E+03  0.59263581841E+03  0.10580374274E+04  0.14953007747E+04  0.50400001928E-02 0. -1.
</event>
<event>
 5   0  0.2529875E-07  0.3774382E+04  0.7818609E-02  0.8051675E-01
       -1   -1    0    0    0  501  0.00000000000E+00  0.00000000000E+00  0.20283247630E+04  0.20283247630E+04  0.50400001928E-02 0.  1.
        1   -1    0    0  501    0  0.00000000000E+00  0.00000000000E+00 -0.17558775451E+04  0.17558775451E+04  0.50400001928E-02 0. -1.
    10030    2    1    2    0    0  0.00000000000E+00  0.00000000000E+00  0.27244721788E+03  0.37842023080E+04  0.37743820185E+04 0.  0.
        3    1    3    3  502    0 -0.44405799181E+02 -0.42502914932E+03 -0.17067287990E+04  0.17594160555E+04  0.10100000352E+00 0. -1.
       -3    1    3    3    0  502  0.44405799181E+02  0.42502914932E+03  0.19791760168E+04  0.20247862526E+04  0.10100000352E+00 0.  1.
</event>
<event>
 5   0  0.8421677E-07  0.3831493E+04  0.7818609E-02  0.8039430E-01
       -2   -1    0    0    0  501  0.00000000000E+00  0.00000000000E+00  0.15804675958E+04  0.15804675958E+04  0.25500000920E-02 0.  1.
        2   -1    0    0  501    0  0.00000000000E+00  0.00000000000E+00 -0.23221517157E+04  0.23221517157E+04  0.25500000920E-02 0. -1.
    10030    2    1    2    0    0  0.00000000000E+00  0.00000000000E+00 -0.74168411995E+03  0.39026193115E+04  0.38314934629E+04 0.  0.
        3    1    3    3  502    0 -0.83422766088E+03 -0.16465583370E+04  0.15150861627E+03  0.18520380715E+04  0.10100000352E+00 0.  1.
       -3    1    3    3    0  502  0.83422766088E+03  0.16465583370E+04 -0.89319273622E+03  0.20505812399E+04  0.10100000352E+00 0. -1.
</event>
<event>
 5   0  0.7649458E-07  0.3799141E+04  0.7818609E-02  0.8046339E-01
       -2   -1    0    0    0  501  0.00000000000E+00  0.00000000000E+00  0.22516581273E+04  0.22516581273E+04  0.25500000920E-02 0.  1.
        2   -1    0    0  501    0  0.00000000000E+00  0.00000000000E+00 -0.16025378429E+04  0.16025378429E+04  0.25500000920E-02 0. -1.
    10030    2    1    2    0    0  0.00000000000E+00  0.00000000000E+00  0.64912028433E+03  0.38541959702E+04  0.37991406177E+04 0.  0.
        4    1    3    3  502    0  0.33210625508E+03  0.10066225776E+04  0.19237225988E+04  0.21964275149E+04  0.12699999809E+01 0.  1.
       -4    1    3    3    0  502 -0.33210625508E+03 -0.10066225776E+04 -0.12746023145E+04  0.16577684553E+04  0.12699999809E+01 0. -1.
</event>
<event>
 5   0  0.2529875E-07  0.3459886E+04  0.7818609E-02  0.8123363E-01
       -1   -1    0    0    0  501  0.00000000000E+00  0.00000000000E+00  0.27134868022E+04  0.27134868022E+04  0.50400001928E-02 0.  1.
        1   -1    0    0  501    0  0.00000000000E+00  0.00000000000E+00 -0.11028992055E+04  0.11028992055E+04  0.50400001928E-02 0. -1.
    10030    2    1    2    0    0  0.00000000000E+00  0.00000000000E+00  0.16105875967E+04  0.38163860077E+04  0.34598858006E+04 0.  0.
        1    1    3    3  502    0 -0.73697824724E+03 -0.12313863182E+04  0.18708841583E+04  0.23578924351E+04  0.50400001928E-02 0.  1.
       -1    1    3    3    0  502  0.73697824724E+03  0.12313863182E+04 -0.26029656161E+03  0.14584935727E+04  0.50400001928E-02 0. -1.
</event>
<event>
 5   0  0.2529875E-07  0.2442768E+04  0.7818609E-02  0.8423663E-01
       -1   -1    0    0    0  501  0.00000000000E+00  0.00000000000E+00  0.15758274142E+04  0.15758274142E+04  0.50400001928E-02 0.  1.
        1   -1    0    0  501    0  0.00000000000E+00  0.00000000000E+00 -0.94666369574E+03  0.94666369576E+03  0.50400001928E-02 0. -1.
    10030    2    1    2    0    0  0.00000000000E+00  0.00000000000E+00  0.62916371849E+03  0.25224911100E+04  0.24427677776E+04 0.  0.
        5    1    3    3  502    0 -0.11228937633E+04 -0.21683455214E+03  0.75735163178E+03  0.13716818913E+04  0.46999998093E+01 0.  1.
       -5    1    3    3    0  502  0.11228937633E+04  0.21683455214E+03 -0.12818791329E+03  0.11508092187E+04  0.46999998093E+01 0. -1.
</event>
<event>
 5   0  0.8421677E-07  0.3503264E+04  0.7818609E-02  0.8113017E-01
        2   -1    0    0  501    0  0.00000000000E+00  0.00000000000E+00  0.11713464632E+04  0.11713464632E+04  0.25500000920E-02 0. -1.
       -2   -1    0    0    0  501  0.00000000000E+00  0.00000000000E+00 -0.26193911848E+04  0.26193911848E+04  0.25500000920E-02 0.  1.
    10030    2    1    2    0    0  0.00000000000E+00  0.00000000000E+00 -0.14480447216E+04  0.37907376480E+04  0.35032639638E+04 0.  0.
        3    1    3    3  502    0 -0.64744144479E+03  0.16036904761E+04 -0.42335206982E+03  0.17805141260E+04  0.10100000352E+00 0.  1.
       -3    1    3    3    0  502  0.64744144479E+03 -0.16036904761E+04 -0.10246926517E+04  0.20102235220E+04  0.10100000352E+00 0. -1.
</event>
<event>
 5   0  0.2529875E-07  0.2525032E+04  0.7818609E-02  0.8394122E-01
        1   -1    0    0  501    0  0.00000000000E+00  0.00000000000E+00  0.74076267685E+03  0.74076267687E+03  0.50400001928E-02 0.  1.
       -1   -1    0    0    0  501  0.00000000000E+00  0.00000000000E+00 -0.21517638846E+04  0.21517638846E+04  0.50400001928E-02 0. -1.
    10030    2    1    2    0    0  0.00000000000E+00  0.00000000000E+00 -0.14110012078E+04  0.28925265615E+04  0.25250317821E+04 0.  0.
        4    1    3    3  502    0  0.72685210905E+03  0.46188908018E+03 -0.17630581599E+04  0.19621496372E+04  0.12699999809E+01 0. -1.
       -4    1    3    3    0  502 -0.72685210905E+03 -0.46188908018E+03  0.35205695210E+03  0.93037692428E+03  0.12699999809E+01 0.  1.
</event>
<event>
 5   0  0.8421677E-07  0.3694617E+04  0.7818609E-02  0.8069156E-01
        2   -1    0    0  501    0  0.00000000000E+00  0.00000000000E+00  0.18697647482E+04  0.18697647482E+04  0.25500000920E-02 0.  1.
       -2   -1    0    0    0  501  0.00000000000E+00  0.00000000000E+00 -0.18251221212E+04  0.18251221212E+04  0.25500000920E-02 0. -1.
    10030    2    1    2    0    0  0.00000000000E+00  0.00000000000E+00  0.44642626993E+02  0.36948868693E+04  0.36946171673E+04 0.  0.
        3    1    3    3  502    0  0.73802274539E+03 -0.16625804810E+04  0.34436588299E+03  0.18513344646E+04  0.10100000352E+00 0.  1.
       -3    1    3    3    0  502 -0.73802274539E+03  0.16625804810E+04 -0.29972325600E+03  0.18435524047E+04  0.10100000352E+00 0. -1.
</event>
<event>
 5   0  0.2529875E-07  0.3782085E+04  0.7818609E-02  0.8050010E-01
       -3   -1    0    0    0  501  0.00000000000E+00  0.00000000000E+00  0.26468834052E+04  0.26468834071E+04  0.10100000352E+00 0. -1.
        3   -1    0    0  501    0  0.00000000000E+00  0.00000000000E+00 -0.13510388560E+04  0.13510388598E+04  0.10100000352E+00 0.  1.
    10030    2    1    2    0    0  0.00000000000E+00  0.00000000000E+00  0.12958445492E+04  0.39979222669E+04  0.37820853185E+04 0.  0.
        4    1    3    3  502    0  0.22173916699E+03  0.14159216384E+04  0.19520370824E+04  0.24216632153E+04  0.12699999809E+01 0. -1.
       -4    1    3    3    0  502 -0.22173916699E+03 -0.14159216384E+04 -0.65619253322E+03  0.15762590516E+04  0.12699999809E+01 0.  1.
</event>
<event>
 5   0  0.2907071E-07  0.3669363E+04  0.7818609E-02  0.8074785E-01
        1   -1    0    0  501    0  0.00000000000E+00  0.00000000000E+00  0.23264074868E+04  0.23264074868E+04  0.50400001928E-02 0. -1.
       -1   -1    0    0    0  501  0.00000000000E+00  0.00000000000E+00 -0.14468901802E+04  0.14468901802E+04  0.50400001928E-02 0.  1.
    10030    2    1    2    0    0  0.00000000000E+00  0.00000000000E+00  0.87951730665E+03  0.37732976670E+04  0.36693629680E+04 0.  0.
        2    1    3    3  502    0 -0.18027426556E+04  0.20981915489E+03  0.71597637188E+03  0.19510323742E+04  0.25500000920E-02 0.  1.
       -2    1    3    3    0  502  0.18027426556E+04 -0.20981915489E+03  0.16354093477E+03  0.18222652928E+04  0.25500000920E-02 0. -1.
</event>
<event>
 5   0  0.7638805E-07  0.3784429E+04  0.7818609E-02  0.8049505E-01
       -2   -1    0    0    0  501  0.00000000000E+00  0.00000000000E+00  0.16532171111E+04  0.16532171111E+04  0.25500000920E-02 0.  1.
        2   -1    0    0  501    0  0.00000000000E+00  0.00000000000E+00 -0.21657629611E+04  0.21657629611E+04  0.25500000920E-02 0. -1.
    10030    2    1    2    0    0  0.00000000000E+00  0.00000000000E+00 -0.51254584992E+03  0.38189800722E+04  0.37844293551E+04 0.  0.
        5    1    3    3  502    0 -0.12673570823E+04  0.12536609214E+04 -0.89656919350E+03  0.19954242879E+04  0.46999998093E+01 0. -1.
       -5    1    3    3    0  502  0.12673570823E+04 -0.12536609214E+04  0.38402334358E+03  0.18235557843E+04  0.46999998093E+01 0.  1.
</event>
<event>
 5   0  0.2529875E-07  0.4072749E+04  0.7818609E-02  0.7990029E-01
       -1   -1    0    0    0  501  0.00000000000E+00  0.00000000000E+00  0.18347844286E+04  0.18347844286E+04  0.50400001928E-02 0.  1.
        1   -1    0    0  501    0  0.00000000000E+00  0.00000000000E+00 -0.22601136305E+04  0.22601136306E+04  0.50400001928E-02 0. -1.
    10030    2    1    2    0    0  0.00000000000E+00  0.00000000000E+00 -0.42532920196E+03  0.40948980592E+04  0.40727490943E+04 0.  0.
        1    1    3    3  502    0  0.14541413386E+04 -0.12023974657E+04  0.55735584393E+03  0.19674684839E+04  0.50400001928E-02 0.  1.
       -1    1    3    3    0  502 -0.14541413386E+04  0.12023974657E+04 -0.98268504588E+03  0.21274295753E+04  0.50400001928E-02 0. -1.
</event>
<event>
 5   0  0.2529875E-07  0.3771152E+04  0.7818609E-02  0.8052374E-01
       -1   -1    0    0    0  501  0.00000000000E+00  0.00000000000E+00  0.14225398094E+04  0.14225398095E+04  0.50400001928E-02 0. -1.
        1   -1    0    0  501    0  0.00000000000E+00  0.00000000000E+00 -0.24993304580E+04  0.24993304580E+04  0.50400001928E-02 0.  1.
    10030    2    1    2    0    0  0.00000000000E+00  0.00000000000E+00 -0.10767906485E+04  0.39218702674E+04  0.37711521175E+04 0.  0.
        1    1    3    3  502    0  0.13346415100E+03 -0.17461804836E+04 -0.12652104295E+04  0.21604898500E+04  0.50400001928E-02 0.  1.
       -1    1    3    3    0  502 -0.13346415100E+03  0.17461804836E+04  0.18841978098E+03  0.17613804174E+04  0.50400001928E-02 0. -1.
</event>
<event>
 5   0  0.8421677E-07  0.3830185E+04  0.7818609E-02  0.8039708E-01
        2   -1    0    0  501    0  0.00000000000E+00  0.00000000000E+00  0.16839995274E+04  0.16839995274E+04  0.25500000920E-02 0. -1.
       -2   -1    0    0    0  501  0.00000000000E+00  0.00000000000E+00 -0.21778981858E+04  0.21778981858E+04  0.25500000920E-02 0.  1.
    10030    2    1    2    0    0  0.00000000000E+00  0.00000000000E+00 -0.49389865839E+03  0.38618977131E+04  0.38301851211E+04 0.  0.
        3    1    3    3  502    0  0.68675101103E+03 -0.14233159461E+04 -0.13376284413E+04  0.20704359663E+04  0.10100000352E+00 0.  1.
       -3    1    3    3    0  502 -0.68675101103E+03  0.14233159461E+04  0.84372978290E+03  0.17914617468E+04  0.10100000352E+00 0. -1.
</event>
<event>
 5   0  0.2529875E-07  0.3673145E+04  0.7818609E-02  0.8073939E-01
        1   -1    0    0  501    0  0.00000000000E+00  0.00000000000E+00  0.21085809399E+04  0.21085809399E+04  0.50400001928E-02 0. -1.
       -1   -1    0    0    0  501  0.00000000000E+00  0.00000000000E+00 -0.15996533363E+04  0.15996533363E+04  0.50400001928E-02 0.  1.
    10030    2    1    2    0    0  0.00000000000E+00  0.00000000000E+00  0.50892760364E+03  0.37082342762E+04  0.36731449933E+04 0.  0.
        4    1    3    3  502    0  0.71682600041E+03 -0.13196054555E+04 -0.81289619262E+03  0.17076299090E+04  0.12699999809E+01 0.  1.
       -4    1    3    3    0  502 -0.71682600041E+03  0.13196054555E+04  0.13218237963E+04  0.20006043673E+04  0.12699999809E+01 0. -1.
</event>
<event>
 5   0  0.2529875E-07  0.3697150E+04  0.7818609E-02  0.8068594E-01
        1   -1    0    0  501    0  0.00000000000E+00  0.00000000000E+00  0.17856800889E+04  0.17856800889E+04  0.50400001928E-02 0.  1.
       -1   -1    0    0    0  501  0.00000000000E+00  0.00000000000E+00 -0.19136855730E+04  0.19136855730E+04  0.50400001928E-02 0. -1.
    10030    2    1    2    0    0  0.00000000000E+00  0.00000000000E+00 -0.12800548410E+03  0.36993656619E+04  0.36971503752E+04 0.  0.
        1    1    3    3  502    0  0.13874448077E+04 -0.59122848292E+03 -0.11336034972E+04  0.18866931660E+04  0.50400001928E-02 0. -1.
       -1    1    3    3    0  502 -0.13874448077E+04  0.59122848292E+03  0.10055980131E+04  0.18126724960E+04  0.50400001928E-02 0.  1.
</event>
<event>
 5   0  0.7638805E-07  0.3772642E+04  0.7818609E-02  0.8052051E-01
       -2   -1    0    0    0  501  0.00000000000E+00  0.00000000000E+00  0.12269284920E+04  0.12269284920E+04  0.25500000920E-02 0.  1.
        2   -1    0    0  501    0  0.00000000000E+00  0.00000000000E+00 -0.29000939042E+04  0.29000939042E+04  0.25500000920E-02 0. -1.
    10030    2    1    2    0    0  0.00000000000E+00  0.00000000000E+00 -0.16731654123E+04  0.41270223962E+04  0.37726424906E+04 0.  0.
        5    1    3    3  502    0  0.25205048562E+03  0.45143906247E+03 -0.28210585479E+04  0.28680516200E+04  0.46999998093E+01 0. -1.
       -5    1    3    3    0  502 -0.25205048562E+03 -0.45143906247E+03  0.11478931356E+04  0.12589707762E+04  0.46999998093E+01 0.  1.
</event>
<event>
 5   0  0.2529875E-07  0.3553082E+04  0.7818609E-02  0.8101324E-01
        1   -1    0    0  501    0  0.00000000000E+00  0.00000000000E+00  0.16738178386E+04  0.16738178386E+04  0.50400001928E-02 0.  1.
       -1   -1    0    0    0  501  0.00000000000E+00  0.00000000000E+00 -0.18855680383E+04  0.18855680383E+04  0.50400001928E-02 0. -1.
    10030    2    1    2    0    0  0.00000000000E+00  0.00000000000E+00 -0.21175019967E+03  0.35593858769E+04  0.35530817150E+04 0.  0.
        5    1    3    3  502    0  0.98797383036E+02  0.32176919088E+03  0.16415762031E+04  0.16757359147E+04  0.46999998093E+01 0.  1.
       -5    1    3    3    0  502 -0.98797383036E+02 -0.32176919088E+03 -0.18533264028E+04  0.18836499623E+04  0.46999998093E+01 0. -1.
</event>
<event>
 5   0  0.8421677E-07  0.3879997E+04  0.7818609E-02  0.8029202E-01
       -2   -1    0    0    0  501  0.00000000000E+00  0.00000000000E+00  0.19933046902E+04  0.19933046902E+04  0.25500000920E-02 0. -1.
        2   -1    0    0  501    0  0.00000000000E+00  0.00000000000E+00 -0.18881175572E+04  0.18881175572E+04  0.25500000920E-02 0.  1.
    10030    2    1    2    0    0  0.00000000000E+00  0.00000000000E+00  0.10518713301E+03  0.38814222474E+04  0.38799966919E+04 0.  0.
        3    1    3    3  502    0 -0.11910434811E+04  0.67684252175E+03 -0.13215534367E+04  0.19034715310E+04  0.10100000352E+00 0.  1.
       -3    1    3    3    0  502  0.11910434811E+04 -0.67684252175E+03  0.14267405697E+04  0.19779507164E+04  0.10100000352E+00 0. -1.
</event>
<event>
 5   0  0.2907071E-07  0.3954643E+04  0.7818609E-02  0.8013759E-01
       -1   -1    0    0    0  501  0.00000000000E+00  0.00000000000E+00  0.18999465195E+04  0.18999465195E+04  0.50400001928E-02 0.  1.
        1   -1    0    0  501    0  0.00000000000E+00  0.00000000000E+00 -0.20578475706E+04  0.20578475706E+04  0.50400001928E-02 0. -1.
    10030    2    1    2    0    0  0.00000000000E+00  0.00000000000E+00 -0.15790105112E+03  0.39577940901E+04  0.39546430076E+04 0.  0.
        2    1    3    3  502    0  0.19372858979E+04 -0.38144001445E+03 -0.18499340989E+03  0.19831277560E+04  0.25500000920E-02 0.  1.
       -2    1    3    3    0  502 -0.19372858979E+04  0.38144001445E+03  0.27092358765E+02  0.19746663341E+04  0.25500000920E-02 0. -1.
</event>
<event>
 5   0  0.2529875E-07  0.3790771E+04  0.7818609E-02  0.8048138E-01
       -1   -1    0    0    0  501  0.00000000000E+00  0.00000000000E+00  0.13840634019E+04  0.13840634019E+04  0.50400001928E-02 0.  1.
        1   -1    0    0  501    0  0.00000000000E+00  0.00000000000E+00 -0.25956085229E+04  0.25956085229E+04  0.50400001928E-02 0. -1.
    10030    2    1    2    0    0  0.00000000000E+00  0.00000000000E+00 -0.12115451210E+04  0.39796719248E+04  0.37907713000E+04 0.  0.
        4    1    3    3  502    0 -0.96222328100E+03  0.13120728783E+04 -0.16263668086E+04  0.23005389563E+04  0.12699999809E+01 0.  1.
       -4    1    3    3    0  502  0.96222328100E+03 -0.13120728783E+04  0.41482168752E+03  0.16791329685E+04  0.12699999809E+01 0. -1.
</event>
<event>
 5   0  0.2529875E-07  0.3532232E+04  0.7818609E-02  0.8106194E-01
        1   -1    0    0  501    0  0.00000000000E+00  0.00000000000E+00  0.24895867513E+04  0.24895867513E+04  0.50400001928E-02 0.  1.
       -1   -1    0    0    0  501  0.00000000000E+00  0.00000000000E+00 -0.12528851146E+04  0.12528851147E+04  0.50400001928E-02 0. -1.
    10030    2    1    2    0    0  0.00000000000E+00  0.00000000000E+00  0.12367016367E+04  0.37424718660E+04  0.35322322587E+04 0.  0.
        1    1    3    3  502    0  0.11872586487E+04 -0.12865416848E+04  0.37124492634E+03  0.17895796716E+04  0.50400001928E-02 0. -1.
       -1    1    3    3    0  502 -0.11872586487E+04  0.12865416848E+04  0.86545671035E+03  0.19528921944E+04  0.50400001928E-02 0.  1.
</event>
<event>
 5   0  0.2529875E-07  0.3750312E+04  0.7818609E-02  0.8056903E-01
        1   -1    0    0  501    0  0.00000000000E+00  0.00000000000E+00  0.23085022310E+04  0.23085022311E+04  0.50400001928E-02 0.  1.
       -1   -1    0    0    0  501  0.00000000000E+00  0.00000000000E+00 -0.15231565739E+04  0.15231565739E+04  0.50400001928E-02 0. -1.
    10030    2    1    2    0    0  0.00000000000E+00  0.00000000000E+00  0.78534565717E+03  0.38316588049E+04  0.37503121732E+04 0.  0.
        4    1    3    3  502    0  0.16627643920E+04  0.76294316699E+03 -0.27763773463E+02  0.18296557434E+04  0.12699999809E+01 0. -1.
       -4    1    3    3    0  502 -0.16627643920E+04 -0.76294316699E+03  0.81310943064E+03  0.20020030615E+04  0.12699999809E+01 0.  1.
</event>
<event>
 5   0  0.8038352E-07  0.3826659E+04  0.7818609E-02  0.8040458E-01
       -2   -1    0    0    0  501  0.00000000000E+00  0.00000000000E+00  0.13695437615E+04  0.13695437615E+04  0.25500000920E-02 0.  1.
        2   -1    0    0  501    0  0.00000000000E+00  0.00000000000E+00 -0.26730280079E+04  0.26730280079E+04  0.25500000920E-02 0. -1.
    10030    2    1    2    0    0  0.00000000000E+00  0.00000000000E+00 -0.13034842464E+04  0.40425717694E+04  0.38266585071E+04 0.  0.
        2    1    3    3  502    0 -0.95236218131E+03 -0.12882399788E+04 -0.17568402598E+04  0.23776130185E+04  0.25500000920E-02 0. -1.
       -2    1    3    3    0  502  0.95236218131E+03  0.12882399788E+04  0.45335601338E+03  0.16649587509E+04  0.25500000920E-02 0.  1.
</event>
<event>
 5   0  0.7551495E-07  0.3138777E+04  0.7818609E-02  0.8205176E-01
       -2   -1    0    0    0  501  0.00000000000E+00  0.00000000000E+00  0.10652294404E+04  0.10652294404E+04  0.25500000920E-02 0. -1.
        2   -1    0    0  501    0  0.00000000000E+00  0.00000000000E+00 -0.23121597375E+04  0.23121597375E+04  0.25500000920E-02 0.  1.
    10030    2    1    2    0    0  0.00000000000E+00  0.00000000000E+00 -0.12469302972E+04  0.33773891779E+04  0.31387772289E+04 0.  0.
        1    1    3    3  502    0 -0.21536438487E+03  0.56445254238E+03 -0.21820216166E+04  0.22641128121E+04  0.50400001928E-02 0.  1.
       -1    1    3    3    0  502  0.21536438487E+03 -0.56445254238E+03  0.93509131941E+03  0.11132763657E+04  0.50400001928E-02 0. -1.
</event>
<event>
 5   0  0.8421677E-07  0.3826586E+04  0.7818609E-02  0.8040474E-01
        2   -1    0    0  501    0  0.00000000000E+00  0.00000000000E+00  0.19505041984E+04  0.19505041984E+04  0.25500000920E-02 0.  1.
       -2   -1    0    0    0  501  0.00000000000E+00  0.00000000000E+00 -0.18767918902E+04  0.18767918902E+04  0.25500000920E-02 0. -1.
    10030    2    1    2    0    0  0.00000000000E+00  0.00000000000E+00  0.73712308183E+02  0.38272960887E+04  0.38265861869E+04 0.  0.
        3    1    3    3  502    0  0.93141835664E+03  0.10543000365E+04 -0.12601502927E+04  0.18886681795E+04  0.10100000352E+00 0. -1.
       -3    1    3    3    0  502 -0.93141835664E+03 -0.10543000365E+04  0.13338626009E+04  0.19386279092E+04  0.10100000352E+00 0.  1.
</event>
<event>
 5   0  0.7551495E-07  0.3743954E+04  0.7818609E-02  0.8058290E-01
       -2   -1    0    0    0  501  0.00000000000E+00  0.00000000000E+00  0.20072390235E+04  0.20072390235E+04  0.25500000920E-02 0.  1.
        2   -1    0    0  501    0  0.00000000000E+00  0.00000000000E+00 -0.17458302005E+04  0.17458302005E+04  0.25500000920E-02 0. -1.
    10030    2    1    2    0    0  0.00000000000E+00  0.00000000000E+00  0.26140882295E+03  0.37530692240E+04  0.37439543303E+04 0.  0.
        1    1    3    3  502    0  0.69574236441E+03  0.47038984611E+03  0.18077910558E+04  0.19933470712E+04  0.50400001928E-02 0.  1.
       -1    1    3    3    0  502 -0.69574236441E+03 -0.47038984611E+03 -0.15463822328E+04  0.17597221528E+04  0.50400001928E-02 0. -1.
</event>
<event>
 5   0  0.7649458E-07  0.3775598E+04  0.7818609E-02  0.8051412E-01
        2   -1    0    0  501    0  0.00000000000E+00  0.00000000000E+00  0.19270729552E+04  0.19270729552E+04  0.25500000920E-02 0.  1.
       -2   -1    0    0    0  501  0.00000000000E+00  0.00000000000E+00 -0.18493250765E+04  0.18493250765E+04  0.25500000920E-02 0. -1.
    10030    2    1    2    0    0  0.00000000000E+00  0.00000000000E+00  0.77747878694E+02  0.37763980317E+04  0.37755976164E+04 0.  0.
        4    1    3    3  502    0 -0.60121734119E+03  0.72353325172E+03 -0.15981831744E+04  0.18544955458E+04  0.12699999809E+01 0. -1.
       -4    1    3    3    0  502  0.60121734119E+03 -0.72353325172E+03  0.16759310531E+04  0.19219024859E+04  0.12699999809E+01 0.  1.
</event>
<event>
 5   0  0.2529875E-07  0.3770001E+04  0.7818609E-02  0.8052623E-01
        1   -1    0    0  501    0  0.00000000000E+00  0.00000000000E+00  0.28483204582E+04  0.28483204582E+04  0.50400001928E-02 0.  1.
       -1   -1    0    0    0  501  0.00000000000E+00  0.00000000000E+00 -0.12474811757E+04  0.12474811757E+04  0.50400001928E-02 0. -1.
    10030    2    1    2    0    0  0.00000000000E+00  0.00000000000E+00  0.16008392825E+04  0.40958016339E+04  0.37700006121E+04 0.  0.
        3    1    3    3  502    0  0.69589632692E+03 -0.52685175643E+03  0.26155470115E+04  0.27573412286E+04  0.10100000352E+00 0.  1.
       -3    1    3    3    0  502 -0.69589632692E+03  0.52685175643E+03 -0.10147077290E+04  0.13384604053E+04  0.10100000352E+00 0. -1.
</event>
<event>
 5   0  0.2529875E-07  0.3825568E+04  0.7818609E-02  0.8040690E-01
        1   -1    0    0  501    0  0.00000000000E+00  0.00000000000E+00  0.13573830175E+04  0.13573830175E+04  0.50400001928E-02 0.  1.
       -1   -1    0    0    0  501  0.00000000000E+00  0.00000000000E+00 -0.26954393260E+04  0.26954393260E+04  0.50400001928E-02 0. -1.
    10030    2    1    2    0    0  0.00000000000E+00  0.00000000000E+00 -0.13380563085E+04  0.40528223435E+04  0.38255684889E+04 0.  0.
        1    1    3    3  502    0  0.11421170655E+04  0.11635843159E+04 -0.17286353325E+04  0.23762449294E+04  0.50400001928E-02 0. -1.
       -1    1    3    3    0  502 -0.11421170655E+04 -0.11635843159E+04  0.39057902396E+03  0.16765774141E+04  0.50400001928E-02 0.  1.
</event>
<event>
 5   0  0.2529875E-07  0.3259189E+04  0.7818609E-02  0.8173358E-01
       -3   -1    0    0    0  501  0.00000000000E+00  0.00000000000E+00  0.14898450751E+04  0.14898450785E+04  0.10100000352E+00 0.  1.
        3   -1    0    0  501    0  0.00000000000E+00  0.00000000000E+00 -0.17824526772E+04  0.17824526800E+04  0.10100000352E+00 0. -1.
    10030    2    1    2    0    0  0.00000000000E+00  0.00000000000E+00 -0.29260760212E+03  0.32722977585E+04  0.32591890727E+04 0.  0.
        3    1    3    3  502    0 -0.55986906769E+03 -0.90902023716E+03 -0.13824369104E+04  0.17466834246E+04  0.10100000352E+00 0. -1.
       -3    1    3    3    0  502  0.55986906769E+03  0.90902023716E+03  0.10898293082E+04  0.15256143339E+04  0.10100000352E+00 0.  1.
</event>
<event>
 5   0  0.2529875E-07  0.3786590E+04  0.7818609E-02  0.8049039E-01
       -1   -1    0    0    0  501  0.00000000000E+00  0.00000000000E+00  0.25432819536E+04  0.25432819536E+04  0.50400001928E-02 0. -1.
        1   -1    0    0  501    0  0.00000000000E+00  0.00000000000E+00 -0.14094252528E+04  0.14094252528E+04  0.50400001928E-02 0.  1.
    10030    2    1    2    0    0  0.00000000000E+00  0.00000000000E+00  0.11338567008E+04  0.39527072064E+04  0.37865899225E+04 0.  0.
        1    1    3    3  502    0 -0.18955048794E+03 -0.86063263391E+03 -0.11822773859E+04  0.14745839194E+04  0.50400001928E-02 0.  1.
       -1    1    3    3    0  502  0.18955048794E+03  0.86063263391E+03  0.23161340867E+04  0.24781232870E+04  0.50400001928E-02 0. -1.
</event>
<event>
 5   0  0.2529875E-07  0.3772588E+04  0.7818609E-02  0.8052063E-01
       -1   -1    0    0    0  501  0.00000000000E+00  0.00000000000E+00  0.19878132160E+04  0.19878132160E+04  0.50400001928E-02 0.  1.
        1   -1    0    0  501    0  0.00000000000E+00  0.00000000000E+00 -0.17899590282E+04  0.17899590282E+04  0.50400001928E-02 0. -1.
    10030    2    1    2    0    0  0.00000000000E+00  0.00000000000E+00  0.19785418778E+03  0.37777722442E+04  0.37725875536E+04 0.  0.
        4    1    3    3  502    0 -0.99701529255E+02  0.48467794514E+03 -0.17238078267E+04  0.17934235812E+04  0.12699999809E+01 0. -1.
       -4    1    3    3    0  502  0.99701529255E+02 -0.48467794514E+03  0.19216620145E+04  0.19843486630E+04  0.12699999809E+01 0.  1.
</event>
<event>
 5   0  0.2529875E-07  0.3712099E+04  0.7818609E-02  0.8065286E-01
        1   -1    0    0  501    0  0.00000000000E+00  0.00000000000E+00  0.21767469247E+04  0.21767469247E+04  0.50400001928E-02 0. -1.
       -1   -1    0    0    0  501  0.00000000000E+00  0.00000000000E+00 -0.15825998548E+04  0.15825998548E+04  0.50400001928E-02 0.  1.
    10030    2    1    2    0    0  0.00000000000E+00  0.00000000000E+00  0.59414706990E+03  0.37593467795E+04  0.37120987956E+04 0.  0.
        3    1    3    3  502    0  0.17007695565E+03  0.17463012674E+04  0.91010879132E+03  0.19765607276E+04  0.10100000352E+00 0. -1.
       -3    1    3    3    0  502 -0.17007695565E+03 -0.17463012674E+04 -0.31596172142E+03  0.17827860520E+04  0.10100000352E+00 0.  1.
</event>
<event>
 5   0  0.7649458E-07  0.3637167E+04  0.7818609E-02  0.8082031E-01
       -2   -1    0    0    0  501  0.00000000000E+00  0.00000000000E+00  0.20266695378E+04  0.20266695378E+04  0.25500000920E-02 0. -1.
        2   -1    0    0  501    0  0.00000000000E+00  0.00000000000E+00 -0.16318620847E+04  0.16318620847E+04  0.25500000920E-02 0.  1.
    10030    2    1    2    0    0  0.00000000000E+00  0.00000000000E+00  0.39480745309E+03  0.36585316225E+04  0.36371665768E+04 0.  0.
        4    1    3    3  502    0 -0.16366207037E+04  0.12142367036E+02 -0.60007669834E+03  0.17432063623E+04  0.12699999809E+01 0.  1.
       -4    1    3    3    0  502  0.16366207037E+04 -0.12142367036E+02  0.99488415143E+03  0.19153252602E+04  0.12699999809E+01 0. -1.
</event>
<event>
 5   0  0.2907071E-07  0.3835188E+04  0.7818609E-02  0.8038645E-01
       -1   -1    0    0    0  501  0.00000000000E+00  0.00000000000E+00  0.14177349795E+04  0.14177349795E+04  0.50400001928E-02 0. -1.
        1   -1    0    0  501    0  0.00000000000E+00  0.00000000000E+00 -0.25936915531E+04  0.25936915531E+04  0.50400001928E-02 0.  1.
    10030    2    1    2    0    0  0.00000000000E+00  0.00000000000E+00 -0.11759565736E+04  0.40114265326E+04  0.38351882566E+04 0.  0.
        2    1    3    3  502    0  0.26745264040E+03  0.18984303574E+04 -0.54615973301E+03  0.19934540855E+04  0.25500000920E-02 0. -1.
       -2    1    3    3    0  502 -0.26745264040E+03 -0.18984303574E+04 -0.62979684064E+03  0.20179724471E+04  0.25500000920E-02 0.  1.
</event>
<event>
 5   0  0.2529875E-07  0.3758513E+04  0.7818609E-02  0.8055117E-01
        1   -1    0    0  501    0  0.00000000000E+00  0.00000000000E+00  0.23404005913E+04  0.23404005913E+04  0.50400001928E-02 0.  1.
       -1   -1    0    0    0  501  0.00000000000E+00  0.00000000000E+00 -0.15089747876E+04  0.15089747876E+04  0.50400001928E-02 0. -1.
    10030    2    1    2    0    0  0.00000000000E+00  0.00000000000E+00  0.83142580375E+03  0.38493753789E+04  0.37585132620E+04 0.  0.
        3    1    3    3  502    0 -0.16396321713E+04 -0.55124237900E+03 -0.33644143691E+03  0.17622300271E+04  0.10100000352E+00 0. -1.
       -3    1    3    3    0  502  0.16396321713E+04  0.55124237900E+03  0.11678672407E+04  0.20871453518E+04  0.10100000352E+00 0.  1.
</event>
<event>
 5   0  0.7638805E-07  0.3830962E+04  0.7818609E-02  0.8039543E-01
        2   -1    0    0  501    0  0.00000000000E+00  0.00000000000E+00  0.18869509779E+04  0.18869509779E+04  0.25500000920E-02 0.  1.
       -2   -1    0    0    0  501  0.00000000000E+00  0.00000000000E+00 -0.19444422685E+04  0.19444422685E+04  0.25500000920E-02 0. -1.
    10030    2    1    2    0    0  0.00000000000E+00  0.00000000000E+00 -0.57491290571E+02  0.38313932465E+04  0.38309618845E+04 0.  0.
        5    1    3    3  502    0 -0.46547674900E+03 -0.14558521948E+04 -0.11833759366E+04  0.19330222229E+04  0.46999998093E+01 0. -1.
       -5    1    3    3    0  502  0.46547674900E+03  0.14558521948E+04  0.11258846461E+04  0.18983710236E+04  0.46999998093E+01 0.  1.
</event>
<event>
 5   0  0.2907071E-07  0.3739413E+04  0.7818609E-02  0.8059283E-01
        1   -1    0    0  501    0  0.00000000000E+00  0.00000000000E+00  0.25117462165E+04  0.25117462165E+04  0.50400001928E-02 0.  1.
       -1   -1    0    0    0  501  0.00000000000E+00  0.00000000000E+00 -0.13917815873E+04  0.13917815873E+04  0.50400001928E-02 0. -1.
    10030    2    1    2    0    0  0.00000000000E+00  0.00000000000E+00  0.11199646292E+04  0.39035278038E+04  0.37394128610E+04 0.  0.
        2    1    3    3  502    0 -0.89293134184E+03  0.91612967563E+03 -0.86337793438E+03  0.15433863487E+04  0.25500000920E-02 0. -1.
       -2    1    3    3    0  502  0.89293134184E+03 -0.91612967563E+03  0.19833425635E+04  0.23601414551E+04  0.25500000920E-02 0.  1.
</event>
<event>
 5   0  0.2529875E-07  0.3568380E+04  0.7818609E-02  0.8097773E-01
       -1   -1    0    0    0  501  0.00000000000E+00  0.00000000000E+00  0.15198075342E+04  0.15198075342E+04  0.50400001928E-02 0. -1.
        1   -1    0    0  501    0  0.00000000000E+00  0.00000000000E+00 -0.20945636903E+04  0.20945636903E+04  0.50400001928E-02 0.  1.
    10030    2    1    2    0    0  0.00000000000E+00  0.00000000000E+00 -0.57475615610E+03  0.36143712246E+04  0.35683798439E+04 0.  0.
        5    1    3    3  502    0 -0.15964678328E+04 -0.73178957739E+03  0.31458368378E+02  0.17564843426E+04  0.46999998093E+01 0.  1.
       -5    1    3    3    0  502  0.15964678328E+04  0.73178957739E+03 -0.60621452448E+03  0.18578868820E+04  0.46999998093E+01 0. -1.
</event>
<event>
 5   0  0.2529875E-07  0.2677525E+04  0.7818609E-02  0.8342334E-01
        1   -1    0    0  501    0  0.00000000000E+00  0.00000000000E+00  0.16008314389E+04  0.16008314389E+04  0.50400001928E-02 0.  1.
       -1   -1    0    0    0  501  0.00000000000E+00  0.00000000000E+00 -0.11195962269E+04  0.11195962269E+04  0.50400001928E-02 0. -1.
    10030    2    1    2    0    0  0.00000000000E+00  0.00000000000E+00  0.48123521206E+03  0.27204276658E+04  0.26775248562E+04 0.  0.
        5    1    3    3  502    0 -0.13358972624E+04 -0.17826870654E+01  0.15182114844E+03  0.13445060151E+04  0.46999998093E+01 0.  1.
       -5    1    3    3    0  502  0.13358972624E+04  0.17826870654E+01  0.32941406362E+03  0.13759216507E+04  0.46999998093E+01 0. -1.
</event>
<event>
 5   0  0.8038352E-07  0.3784921E+04  0.7818609E-02  0.8049398E-01
        2   -1    0    0  501    0  0.00000000000E+00  0.00000000000E+00  0.19193655317E+04  0.19193655317E+04  0.25500000920E-02 0. -1.
       -2   -1    0    0    0  501  0.00000000000E+00  0.00000000000E+00 -0.18659330441E+04  0.18659330441E+04  0.25500000920E-02 0.  1.
    10030    2    1    2    0    0  0.00000000000E+00  0.00000000000E+00  0.53432487653E+02  0.37852985758E+04  0.37849214360E+04 0.  0.
        2    1    3    3  502    0 -0.18606307493E+04 -0.31511202244E+03 -0.11530212157E+03  0.18906445862E+04  0.25500000920E-02 0.  1.
       -2    1    3    3    0  502  0.18606307493E+04  0.31511202244E+03  0.16873460923E+03  0.18946539896E+04  0.25500000920E-02 0. -1.
</event>
<event>
 5   0  0.8038352E-07  0.3719784E+04  0.7818609E-02  0.8063592E-01
       -2   -1    0    0    0  501  0.00000000000E+00  0.00000000000E+00  0.15178638167E+04  0.15178638167E+04  0.25500000920E-02 0.  1.
        2   -1    0    0  501    0  0.00000000000E+00  0.00000000000E+00 -0.22789909689E+04  0.22789909689E+04  0.25500000920E-02 0. -1.
    10030    2    1    2    0    0  0.00000000000E+00  0.00000000000E+00 -0.76112715221E+03  0.37968547857E+04  0.37197838273E+04 0.  0.
        2    1    3    3  502    0  0.32692601795E+03  0.34446910948E+03 -0.22160591918E+04  0.22663755051E+04  0.25500000920E-02 0. -1.
       -2    1    3    3    0  502 -0.32692601795E+03 -0.34446910948E+03  0.14549320396E+04  0.15304792806E+04  0.25500000920E-02 0.  1.
</event>
<event>
 5   0  0.8421677E-07  0.3914944E+04  0.7818609E-02  0.8021928E-01
       -2   -1    0    0    0  501  0.00000000000E+00  0.00000000000E+00  0.13802934470E+04  0.13802934470E+04  0.25500000920E-02 0.  1.
        2   -1    0    0  501    0  0.00000000000E+00  0.00000000000E+00 -0.27760018326E+04  0.27760018326E+04  0.25500000920E-02 0. -1.
    10030    2    1    2    0    0  0.00000000000E+00  0.00000000000E+00 -0.13957083857E+04  0.41562952796E+04  0.39149442593E+04 0.  0.
        3    1    3    3  502    0  0.14858060047E+04 -0.70068263250E+03 -0.18279598519E+04  0.24576437629E+04  0.10100000352E+00 0. -1.
       -3    1    3    3    0  502 -0.14858060047E+04  0.70068263250E+03  0.43225146628E+03  0.16986515167E+04  0.10100000352E+00 0.  1.
</event>
<event>
 5   0  0.7649458E-07  0.2875594E+04  0.7818609E-02  0.8280176E-01
       -2   -1    0    0    0  501  0.00000000000E+00  0.00000000000E+00  0.11706725043E+04  0.11706725043E+04  0.25500000920E-02 0.  1.
        2   -1    0    0  501    0  0.00000000000E+00  0.00000000000E+00 -0.17658744084E+04  0.17658744084E+04  0.25500000920E-02 0. -1.
    10030    2    1    2    0    0  0.00000000000E+00  0.00000000000E+00 -0.59520190409E+03  0.29365469127E+04  0.28755942801E+04 0.  0.
        4    1    3    3  502    0  0.49232764423E+03 -0.50745339621E+01 -0.16771035750E+04  0.17478816534E+04  0.12699999809E+01 0. -1.
       -4    1    3    3    0  502 -0.49232764423E+03  0.50745339621E+01  0.10819016709E+04  0.11886652593E+04  0.12699999809E+01 0.  1.
</event>
<event>
 5   0  0.2529875E-07  0.3814633E+04  0.7818609E-02  0.8043022E-01
       -1   -1    0    0    0  501  0.00000000000E+00  0.00000000000E+00  0.15885603120E+04  0.15885603120E+04  0.50400001928E-02 0.  1.
        1   -1    0    0  501    0  0.00000000000E+00  0.00000000000E+00 -0.22900329120E+04  0.22900329120E+04  0.50400001928E-02 0. -1.
    10030    2    1    2    0    0  0.00000000000E+00  0.00000000000E+00 -0.70147260001E+03  0.38785932241E+04  0.38146325628E+04 0.  0.
        1    1    3    3  502    0 -0.12984167016E+04 -0.84161088103E+03  0.78315770481E+03  0.17342233987E+04  0.50400001928E-02 0.  1.
       -1    1    3    3    0  502  0.12984167016E+04  0.84161088103E+03 -0.14846303048E+04  0.21443698254E+04  0.50400001928E-02 0. -1.
</event>
<event>
 5   0  0.7649458E-07  0.3867101E+04  0.7818609E-02  0.8031906E-01
        2   -1    0    0  501    0  0.00000000000E+00  0.00000000000E+00  0.20401345129E+04  0.20401345129E+04  0.25500000920E-02 0. -1.
       -2   -1    0    0    0  501  0.00000000000E+00  0.00000000000E+00 -0.18325351920E+04  0.18325351920E+04  0.25500000920E-02 0.  1.
    10030    2    1    2    0    0  0.00000000000E+00  0.00000000000E+00  0.20759932099E+03  0.38726697049E+04  0.38671013906E+04 0.  0.
        4    1    3    3  502    0  0.21485075973E+02  0.19299253509E+04  0.22034252931E+03  0.19425822792E+04  0.12699999809E+01 0. -1.
       -4    1    3    3    0  502 -0.21485075973E+02 -0.19299253509E+04 -0.12743208322E+02  0.19300874257E+04  0.12699999809E+01 0.  1.
</event>
<event>
 5   0  0.2529875E-07  0.3836223E+04  0.7818609E-02  0.8038426E-01
        1   -1    0    0  501    0  0.00000000000E+00  0.00000000000E+00  0.23019824209E+04  0.23019824209E+04  0.50400001928E-02 0. -1.
       -1   -1    0    0    0  501  0.00000000000E+00  0.00000000000E+00 -0.15982534992E+04  0.15982534992E+04  0.50400001928E-02 0.  1.
    10030    2    1    2    0    0  0.00000000000E+00  0.00000000000E+00  0.70372892167E+03  0.39002359201E+04  0.38362228608E+04 0.  0.
        4    1    3    3  502    0 -0.52630380732E+03  0.40815798600E+03  0.21806461244E+04  0.22800894219E+04  0.12699999809E+01 0. -1.
       -4    1    3    3    0  502  0.52630380732E+03 -0.40815798600E+03 -0.14769172027E+04  0.16201464982E+04  0.12699999809E+01 0.  1.
</event>
<event>
 5   0  0.7551495E-07  0.3791324E+04  0.7818609E-02  0.8048019E-01
        2   -1    0    0  501    0  0.00000000000E+00  0.00000000000E+00  0.24062904167E+04  0.24062904167E+04  0.25500000920E-02 0. -1.
       -2   -1    0    0    0  501  0.00000000000E+00  0.00000000000E+00 -0.14933919424E+04  0.14933919424E+04  0.25500000920E-02 0.  1.
    10030    2    1    2    0    0  0.00000000000E+00  0.00000000000E+00  0.91289847429E+03  0.38996823592E+04  0.37913241589E+04 0.  0.
        1    1    3    3  502    0 -0.80666506404E+03 -0.16351238602E+04 -0.77220704487E+02  0.18249113954E+04  0.50400001928E-02 0.  1.
       -1    1    3    3    0  502  0.80666506404E+03  0.16351238602E+04  0.99011917877E+03  0.20747709638E+04  0.50400001928E-02 0. -1.
</event>
<event>
 5   0  0.2529875E-07  0.3774278E+04  0.7818609E-02  0.8051697E-01
       -1   -1    0    0    0  501  0.00000000000E+00  0.00000000000E+00  0.19711619561E+04  0.19711619561E+04  0.50400001928E-02 0.  1.
        1   -1    0    0  501    0  0.00000000000E+00  0.00000000000E+00 -0.18066980924E+04  0.18066980924E+04  0.50400001928E-02 0. -1.
    10030    2    1    2    0    0  0.00000000000E+00  0.00000000000E+00  0.16446386370E+03  0.37778600486E+04  0.37742784985E+04 0.  0.
        3    1    3    3  502    0  0.69851675803E+03 -0.88048883837E+03 -0.14351578884E+04  0.18228725766E+04  0.10100000352E+00 0. -1.
       -3    1    3    3    0  502 -0.69851675803E+03  0.88048883837E+03  0.15996217521E+04  0.19549874720E+04  0.10100000352E+00 0.  1.
</event>
<event>
 5   0  0.8421677E-07  0.2549287E+04  0.7818609E-02  0.8385634E-01
        2   -1    0    0  501    0  0.00000000000E+00  0.00000000000E+00  0.17379139195E+04  0.17379139195E+04  0.25500000920E-02 0.  1.
       -2   -1    0    0    0  501  0.00000000000E+00  0.00000000000E+00 -0.93486598535E+03  0.93486598535E+03  0.25500000920E-02 0. -1.
    10030    2    1    2    0    0  0.00000000000E+00  0.00000000000E+00  0.80304793419E+03  0.26727799049E+04  0.25492874368E+04 0.  0.
        3    1    3    3  502    0 -0.29371634390E+03 -0.18466129814E+03  0.16874573711E+04  0.17227540379E+04  0.10100000352E+00 0.  1.
       -3    1    3    3    0  502  0.29371634390E+03  0.18466129814E+03 -0.88440943689E+03  0.95002586700E+03  0.10100000352E+00 0. -1.
</event>
<event>
 5   0  0.2529875E-07  0.3782991E+04  0.7818609E-02  0.8049815E-01
        1   -1    0    0  501    0  0.00000000000E+00  0.00000000000E+00  0.13471615968E+04  0.13471615968E+04  0.50400001928E-02 0.  1.
       -1   -1    0    0    0  501  0.00000000000E+00  0.00000000000E+00 -0.26557725904E+04  0.26557725905E+04  0.50400001928E-02 0. -1.
    10030    2    1    2    0    0  0.00000000000E+00  0.00000000000E+00 -0.13086109937E+04  0.40029341872E+04  0.37829907976E+04 0.  0.
        5    1    3    3  502    0 -0.43105830998E+03 -0.10998393842E+03  0.12910110161E+04  0.13655179483E+04  0.46999998093E+01 0.  1.
       -5    1    3    3    0  502  0.43105830998E+03  0.10998393842E+03 -0.25996220098E+04  0.26374162389E+04  0.46999998093E+01 0. -1.
</event>
<event>
 5   0  0.7551495E-07  0.3846657E+04  0.7818609E-02  0.8036216E-01
       -2   -1    0    0    0  501  0.00000000000E+00  0.00000000000E+00  0.15107961534E+04  0.15107961534E+04  0.25500000920E-02 0.  1.
        2   -1    0    0  501    0  0.00000000000E+00  0.00000000000E+00 -0.24485058176E+04  0.24485058176E+04  0.25500000920E-02 0. -1.
    10030    2    1    2    0    0  0.00000000000E+00  0.00000000000E+00 -0.93770966416E+03  0.39593019710E+04  0.38466573390E+04 0.  0.
        1    1    3    3  502    0 -0.84505106045E+03 -0.16197187963E+04  0.15008020812E+03  0.18330641950E+04  0.50400001928E-02 0.  1.
       -1    1    3    3    0  502  0.84505106045E+03  0.16197187963E+04 -0.10877898723E+04  0.21262377760E+04  0.50400001928E-02 0. -1.
</event>
<event>
 5   0  0.8421677E-07  0.3810117E+04  0.7818609E-02  0.8043987E-01
       -2   -1    0    0    0  501  0.00000000000E+00  0.00000000000E+00  0.19614534503E+04  0.19614534503E+04  0.25500000920E-02 0.  1.
        2   -1    0    0  501    0  0.00000000000E+00  0.00000000000E+00 -0.18502851997E+04  0.18502851997E+04  0.25500000920E-02 0. -1.
    10030    2    1    2    0    0  0.00000000000E+00  0.00000000000E+00  0.11116825055E+03  0.38117386500E+04  0.38101172103E+04 0.  0.
        3    1    3    3  502    0  0.13705541185E+04 -0.11351396140E+04  0.73579092582E+03  0.19257073588E+04  0.10100000352E+00 0. -1.
       -3    1    3    3    0  502 -0.13705541185E+04  0.11351396140E+04 -0.62462267527E+03  0.18860312913E+04  0.10100000352E+00 0.  1.
</event>
<event>
 5   0  0.2529875E-07  0.3793287E+04  0.7818609E-02  0.8047597E-01
        3   -1    0    0  501    0  0.00000000000E+00  0.00000000000E+00  0.17177568851E+04  0.17177568880E+04  0.10100000352E+00 0.  1.
       -3   -1    0    0    0  501  0.00000000000E+00  0.00000000000E+00 -0.20941589004E+04  0.20941589028E+04  0.10100000352E+00 0. -1.
    10030    2    1    2    0    0  0.00000000000E+00  0.00000000000E+00 -0.37640201527E+03  0.38119157908E+04  0.37932866382E+04 0.  0.
        3    1    3    3  502    0  0.17256772644E+04  0.53398009151E+03  0.39270288959E+03  0.18485973949E+04  0.10100000352E+00 0.  1.
       -3    1    3    3    0  502 -0.17256772644E+04 -0.53398009151E+03 -0.76910490486E+03  0.19633183959E+04  0.10100000352E+00 0. -1.
</event>
<event>
 5   0  0.2529875E-07  0.2992158E+04  0.7818609E-02  0.8245974E-01
       -1   -1    0    0    0  501  0.00000000000E+00  0.00000000000E+00  0.14772270637E+04  0.14772270637E+04  0.50400001928E-02 0. -1.
        1   -1    0    0  501    0  0.00000000000E+00  0.00000000000E+00 -0.15151718541E+04  0.15151718541E+04  0.50400001928E-02 0.  1.
    10030    2    1    2    0    0  0.00000000000E+00  0.00000000000E+00 -0.37944790406E+02  0.29923989178E+04  0.29921583307E+04 0.  0.
        4    1    3    3  502    0 -0.34622343600E+03  0.15284944285E+03 -0.14665063510E+04  0.15145547564E+04  0.12699999809E+01 0.  1.
       -4    1    3    3    0  502  0.34622343600E+03 -0.15284944285E+03  0.14285615606E+04  0.14778441613E+04  0.12699999809E+01 0. -1.
</event>
<event>
 5   0  0.2907071E-07  0.2407462E+04  0.7818609E-02  0.8436715E-01
        1   -1    0    0  501    0  0.00000000000E+00  0.00000000000E+00  0.11503230268E+04  0.11503230268E+04  0.50400001928E-02 0.  1.
       -1   -1    0    0    0  501  0.00000000000E+00  0.00000000000E+00 -0.12596185022E+04  0.12596185022E+04  0.50400001928E-02 0. -1.
    10030    2    1    2    0    0  0.00000000000E+00  0.00000000000E+00 -0.10929547535E+03  0.24099415290E+04  0.24074618735E+04 0.  0.
        2    1    3    3  502    0 -0.82438992834E+03  0.83852401880E+03 -0.31225864586E+03  0.12166539138E+04  0.25500000920E-02 0. -1.
       -2    1    3    3    0  502  0.82438992834E+03 -0.83852401880E+03  0.20296317051E+03  0.11932876152E+04  0.25500000920E-02 0.  1.
</event>
<event>
 5   0  0.7649458E-07  0.3397599E+04  0.7818609E-02  0.8138496E-01
       -2   -1    0    0    0  501  0.00000000000E+00  0.00000000000E+00  0.18702257414E+04  0.18702257414E+04  0.25500000920E-02 0. -1.
        2   -1    0    0  501    0  0.00000000000E+00  0.00000000000E+00 -0.15430859942E+04  0.15430859942E+04  0.25500000920E-02 0.  1.
    10030    2    1    2    0    0  0.00000000000E+00  0.00000000000E+00  0.32713974728E+03  0.34133117356E+04  0.33975986505E+04 0.  0.
        4    1    3    3  502    0 -0.16646610653E+04 -0.32395661560E+03  0.63746445257E+02  0.16970885579E+04  0.12699999809E+01 0.  1.
       -4    1    3    3    0  502  0.16646610653E+04  0.32395661560E+03  0.26339330203E+03  0.17162231777E+04  0.12699999809E+01 0. -1.
</event>
<event>
 5   0  0.7551495E-07  0.3726352E+04  0.7818609E-02  0.8062147E-01
       -2   -1    0    0    0  501  0.00000000000E+00  0.00000000000E+00  0.12520928465E+04  0.12520928465E+04  0.25500000920E-02 0.  1.
        2   -1    0    0  501    0  0.00000000000E+00  0.00000000000E+00 -0.27724976656E+04  0.27724976656E+04  0.25500000920E-02 0. -1.
    10030    2    1    2    0    0  0.00000000000E+00  0.00000000000E+00 -0.15204048191E+04  0.40245905121E+04  0.37263518321E+04 0.  0.
        1    1    3    3  502    0 -0.16869865712E+04  0.38124121599E+03 -0.15085941634E+04  0.22950217659E+04  0.50400001928E-02 0. -1.
       -1    1    3    3    0  502  0.16869865712E+04 -0.38124121599E+03 -0.11810655698E+02  0.17295687462E+04  0.50400001928E-02 0.  1.
</event>
<event>
 5   0  0.2529875E-07  0.2437728E+04  0.7818609E-02  0.8425512E-01
       -1   -1    0    0    0  501  0.00000000000E+00  0.00000000000E+00  0.15753576687E+04  0.15753576687E+04  0.50400001928E-02 0.  1.
        1   -1    0    0  501    0  0.00000000000E+00  0.00000000000E+00 -0.94304296175E+03  0.94304296176E+03  0.50400001928E-02 0. -1.
    10030    2    1    2    0    0  0.00000000000E+00  0.00000000000E+00  0.63231470692E+03  0.25184006304E+04  0.24377284194E+04 0.  0.
        1    1    3    3  502    0  0.95015149440E+03  0.35511442910E+03  0.10143448158E+04  0.14344997474E+04  0.50400001928E-02 0.  1.
       -1    1    3    3    0  502 -0.95015149440E+03 -0.35511442910E+03 -0.38203010886E+03  0.10839008830E+04  0.50400001928E-02 0. -1.
</event>
<event>
 5   0  0.7638805E-07  0.3747116E+04  0.7818609E-02  0.8057600E-01
        2   -1    0    0  501    0  0.00000000000E+00  0.00000000000E+00  0.15945873409E+04  0.15945873409E+04  0.25500000920E-02 0.  1.
       -2   -1    0    0    0  501  0.00000000000E+00  0.00000000000E+00 -0.22013343601E+04  0.22013343601E+04  0.25500000920E-02 0. -1.
    10030    2    1    2    0    0  0.00000000000E+00  0.00000000000E+00 -0.60674701920E+03  0.37959217010E+04  0.37471161732E+04 0.  0.
        5    1    3    3  502    0 -0.12988856763E+04  0.11610172620E+04 -0.10016502280E+04  0.20095746695E+04  0.46999998093E+01 0. -1.
       -5    1    3    3    0  502  0.12988856763E+04 -0.11610172620E+04  0.39490320882E+03  0.17863470316E+04  0.46999998093E+01 0.  1.
</event>
<event>
 5   0  0.2529875E-07  0.3820027E+04  0.7818609E-02  0.8041871E-01
       -1   -1    0    0    0  501  0.00000000000E+00  0.00000000000E+00  0.28451208982E+04  0.28451208982E+04  0.50400001928E-02 0.  1.
        1   -1    0    0  501    0  0.00000000000E+00  0.00000000000E+00 -0.12822486271E+04  0.12822486271E+04  0.50400001928E-02 0. -1.
    10030    2    1    2    0    0  0.00000000000E+00  0.00000000000E+00  0.15628722711E+04  0.41273695253E+04  0.38200274165E+04 0.  0.
        4    1    3    3  502    0 -0.67098492712E+03 -0.17873005292E+04  0.71763618832E+03  0.20395262356E+04  0.12699999809E+01 0. -1.
       -4    1    3    3    0  502  0.67098492712E+03  0.17873005292E+04  0.84523608275E+03  0.20878432897E+04  0.12699999809E+01 0.  1.
</event>
<event>
 5   0  0.2529875E-07  0.3794936E+04  0.7818609E-02  0.8047242E-01
        1   -1    0    0  501    0  0.00000000000E+00  0.00000000000E+00  0.21118342796E+04  0.21118342796E+04  0.50400001928E-02 0.  1.
       -1   -1    0    0    0  501  0.00000000000E+00  0.00000000000E+00 -0.17048617867E+04  0.17048617867E+04  0.50400001928E-02 0. -1.
    10030    2    1    2    0    0  0.00000000000E+00  0.00000000000E+00  0.40697249296E+03  0.38166960663E+04  0.37949363964E+04 0.  0.
        5    1    3    3  502    0  0.39304117097E+02 -0.26685851285E+03 -0.16854750626E+04  0.17069289839E+04  0.46999998093E+01 0. -1.
       -5    1    3    3    0  502 -0.39304117097E+02  0.26685851285E+03  0.20924475555E+04  0.21097670824E+04  0.46999998093E+01 0.  1.
</event>
<event>
 5   0  0.2907071E-07  0.3829215E+04  0.7818609E-02  0.8039914E-01
        1   -1    0    0  501    0  0.00000000000E+00  0.00000000000E+00  0.20342862955E+04  0.20342862955E+04  0.50400001928E-02 0.  1.
       -1   -1    0    0    0  501  0.00000000000E+00  0.00000000000E+00 -0.18019697849E+04  0.18019697849E+04  0.50400001928E-02 0. -1.
    10030    2    1    2    0    0  0.00000000000E+00  0.00000000000E+00  0.23231651061E+03  0.38362560805E+04  0.38292152922E+04 0.  0.
        2    1    3    3  502    0 -0.46649227328E+03  0.12384338290E+04 -0.12700002873E+04  0.18341848652E+04  0.25500000920E-02 0. -1.
       -2    1    3    3    0  502  0.46649227328E+03 -0.12384338290E+04  0.15023167979E+04  0.20020712153E+04  0.25500000920E-02 0.  1.
</event>
<event>
 5   0  0.7649458E-07  0.3793784E+04  0.7818609E-02  0.8047490E-01
       -2   -1    0    0    0  501  0.00000000000E+00  0.00000000000E+00  0.21171093498E+04  0.21171093498E+04  0.25500000920E-02 0. -1.
        2   -1    0    0  501    0  0.00000000000E+00  0.00000000000E+00 -0.16995814847E+04  0.16995814847E+04  0.25500000920E-02 0.  1.
    10030    2    1    2    0    0  0.00000000000E+00  0.00000000000E+00  0.41752786510E+03  0.38166908345E+04  0.37937843123E+04 0.  0.
        4    1    3    3  502    0  0.20953605702E+03  0.14585344678E+04 -0.99300723433E+03  0.17768773546E+04  0.12699999809E+01 0.  1.
       -4    1    3    3    0  502 -0.20953605702E+03 -0.14585344678E+04  0.14105350994E+04  0.20398134799E+04  0.12699999809E+01 0. -1.
</event>
<event>
 5   0  0.2529875E-07  0.3761486E+04  0.7818609E-02  0.8054471E-01
        1   -1    0    0  501    0  0.00000000000E+00  0.00000000000E+00  0.96718708229E+03  0.96718708230E+03  0.50400001928E-02 0. -1.
       -1   -1    0    0    0  501  0.00000000000E+00  0.00000000000E+00 -0.36571982135E+04  0.36571982135E+04  0.50400001928E-02 0.  1.
    10030    2    1    2    0    0  0.00000000000E+00  0.00000000000E+00 -0.26900111313E+04  0.46243852958E+04  0.37614863390E+04 0.  0.
        1    1    3    3  502    0  0.72228818060E+03 -0.46704938072E+03  0.71121011370E+03  0.11160892284E+04  0.50400001928E-02 0. -1.
       -1    1    3    3    0  502 -0.72228818060E+03  0.46704938072E+03 -0.34012212450E+04  0.35082960675E+04  0.50400001928E-02 0.  1.
</event>
<event>
 5   0  0.2529875E-07  0.3810397E+04  0.7818609E-02  0.8043927E-01
        1   -1    0    0  501    0  0.00000000000E+00  0.00000000000E+00  0.20029440151E+04  0.20029440151E+04  0.50400001928E-02 0.  1.
       -1   -1    0    0    0  501  0.00000000000E+00  0.00000000000E+00 -0.18122234659E+04  0.18122234659E+04  0.50400001928E-02 0. -1.
    10030    2    1    2    0    0  0.00000000000E+00  0.00000000000E+00  0.19072054918E+03  0.38151674809E+04  0.38103974307E+04 0.  0.
        3    1    3    3  502    0  0.95897919712E+03 -0.89607754511E+03 -0.12873776189E+04  0.18384605547E+04  0.10100000352E+00 0. -1.
       -3    1    3    3    0  502 -0.95897919712E+03  0.89607754511E+03  0.14780981681E+04  0.19767069262E+04  0.10100000352E+00 0.  1.
</event>
<event>
 5   0  0.8038352E-07  0.3768298E+04  0.7818609E-02  0.8052992E-01
        2   -1    0    0  501    0  0.00000000000E+00  0.00000000000E+00  0.24072832873E+04  0.24072832873E+04  0.25500000920E-02 0. -1.
       -2   -1    0    0    0  501  0.00000000000E+00  0.00000000000E+00 -0.14746990511E+04  0.14746990511E+04  0.25500000920E-02 0.  1.
    10030    2    1    2    0    0  0.00000000000E+00  0.00000000000E+00  0.93258423619E+03  0.38819823383E+04  0.37682984910E+04 0.  0.
        2    1    3    3  502    0 -0.11004010754E+04 -0.13705178166E+04 -0.23302215947E+03  0.17729920866E+04  0.25500000920E-02 0.  1.
       -2    1    3    3    0  502  0.11004010754E+04  0.13705178166E+04  0.11656063957E+04  0.21089902517E+04  0.25500000920E-02 0. -1.
</event>
<event>
 5   0  0.7649458E-07  0.3876768E+04  0.7818609E-02  0.8029879E-01
        2   -1    0    0  501    0  0.00000000000E+00  0.00000000000E+00  0.27526069610E+04  0.27526069610E+04  0.25500000920E-02 0.  1.
       -2   -1    0    0    0  501  0.00000000000E+00  0.00000000000E+00 -0.13650083922E+04  0.13650083922E+04  0.25500000920E-02 0. -1.
    10030    2    1    2    0    0  0.00000000000E+00  0.00000000000E+00  0.13875985687E+04  0.41176153532E+04  0.38767675206E+04 0.  0.
        4    1    3    3  502    0 -0.25257565984E+03 -0.10800516132E+04  0.23822201200E+04  0.26277899962E+04  0.12699999809E+01 0.  1.
       -4    1    3    3    0  502  0.25257565984E+03  0.10800516132E+04 -0.99462155125E+03  0.14898253570E+04  0.12699999809E+01 0. -1.
</event>
<event>
 5   0  0.2529875E-07  0.3762828E+04  0.7818609E-02  0.8054179E-01
       -1   -1    0    0    0  501  0.00000000000E+00  0.00000000000E+00  0.14862109582E+04  0.14862109582E+04  0.50400001928E-02 0. -1.
        1   -1    0    0  501    0  0.00000000000E+00  0.00000000000E+00 -0.23817064070E+04  0.23817064070E+04  0.50400001928E-02 0.  1.
    10030    2    1    2    0    0  0.00000000000E+00  0.00000000000E+00 -0.89549544872E+03  0.38679173652E+04  0.37628277459E+04 0.  0.
        5    1    3    3  502    0 -0.10122667047E+04 -0.20508498157E+03  0.11687337164E+04  0.15597128970E+04  0.46999998093E+01 0. -1.
       -5    1    3    3    0  502  0.10122667047E+04  0.20508498157E+03 -0.20642291651E+04  0.23082044682E+04  0.46999998093E+01 0.  1.
</event>
<event>
 5   0  0.7649458E-07  0.3748187E+04  0.7818609E-02  0.8057366E-01
       -2   -1    0    0    0  501  0.00000000000E+00  0.00000000000E+00  0.21605083338E+04  0.21605083338E+04  0.25500000920E-02 0.  1.
        2   -1    0    0  501    0  0.00000000000E+00  0.00000000000E+00 -0.16256486015E+04  0.16256486015E+04  0.25500000920E-02 0. -1.
    10030    2    1    2    0    0  0.00000000000E+00  0.00000000000E+00  0.53485973228E+03  0.37861569353E+04  0.37481874827E+04 0.  0.
        4    1    3    3  502    0 -0.12857535209E+03  0.71361540631E+03  0.20130700218E+04  0.21396801385E+04  0.12699999809E+01 0.  1.
       -4    1    3    3    0  502  0.12857535209E+03 -0.71361540631E+03 -0.14782102896E+04  0.16464767968E+04  0.12699999809E+01 0. -1.
</event>
<event>
 5   0  0.2907071E-07  0.3705863E+04  0.7818609E-02  0.8066664E-01
        1   -1    0    0  501    0  0.00000000000E+00  0.00000000000E+00  0.23634395107E+04  0.23634395108E+04  0.50400001928E-02 0.  1.
       -1   -1    0    0    0  501  0.00000000000E+00  0.00000000000E+00 -0.14526945920E+04  0.14526945920E+04  0.50400001928E-02 0. -1.
    10030    2    1    2    0    0  0.00000000000E+00  0.00000000000E+00  0.91074491875E+03  0.38161341028E+04  0.37058633519E+04 0.  0.
        2    1    3    3  502    0  0.31256453594E+03 -0.16778238678E+04 -0.28759918820E+03  0.17307520948E+04  0.25500000920E-02 0. -1.
       -2    1    3    3    0  502 -0.31256453594E+03  0.16778238678E+04  0.11983441069E+04  0.20853820080E+04  0.25500000920E-02 0.  1.
</event>
<event>
 5   0  0.7638805E-07  0.2944318E+04  0.7818609E-02  0.8259812E-01
       -2   -1    0    0    0  501  0.00000000000E+00  0.00000000000E+00  0.10110789924E+04  0.10110789924E+04  0.25500000920E-02 0. -1.
        2   -1    0    0  501    0  0.00000000000E+00  0.00000000000E+00 -0.21435044739E+04  0.21435044739E+04  0.25500000920E-02 0.  1.
    10030    2    1    2    0    0  0.00000000000E+00  0.00000000000E+00 -0.11324254816E+04  0.31545834663E+04  0.29443181511E+04 0.  0.
        5    1    3    3  502    0  0.96855610412E+03  0.10132628650E+04 -0.84162560465E+02  0.14042464125E+04  0.46999998093E+01 0.  1.
       -5    1    3    3    0  502 -0.96855610412E+03 -0.10132628650E+04 -0.10482629211E+04  0.17503370539E+04  0.46999998093E+01 0. -1.
</event>
<event>
 5   0  0.2529875E-07  0.3767492E+04  0.7818609E-02  0.8053167E-01
        1   -1    0    0  501    0  0.00000000000E+00  0.00000000000E+00  0.20215437724E+04  0.20215437724E+04  0.50400001928E-02 0. -1.
       -1   -1    0    0    0  501  0.00000000000E+00  0.00000000000E+00 -0.17553411490E+04  0.17553411490E+04  0.50400001928E-02 0.  1.
    10030    2    1    2    0    0  0.00000000000E+00  0.00000000000E+00  0.26620262341E+03  0.37768849213E+04  0.37674919870E+04 0.  0.
        4    1    3    3  502    0  0.63482194678E+03 -0.11354154616E+04 -0.12327676241E+04  0.17921732066E+04  0.12699999809E+01 0.  1.
       -4    1    3    3    0  502 -0.63482194678E+03  0.11354154616E+04  0.14989702475E+04  0.19847117147E+04  0.12699999809E+01 0. -1.
</event>
<event>
 5   0  0.7551495E-07  0.2790502E+04  0.7818609E-02  0.8306223E-01
        2   -1    0    0  501    0  0.00000000000E+00  0.00000000000E+00  0.12634990910E+04  0.12634990910E+04  0.25500000920E-02 0. -1.
       -2   -1    0    0    0  501  0.00000000000E+00  0.00000000000E+00 -0.15407415133E+04  0.15407415133E+04  0.25500000920E-02 0.  1.
    10030    2    1    2    0    0  0.00000000000E+00  0.00000000000E+00 -0.27724242226E+03  0.28042406043E+04  0.27905021065E+04 0.  0.
        1    1    3    3  502    0  0.30024581881E+03  0.12528585773E+04  0.39966822115E+03  0.13489020919E+04  0.50400001928E-02 0. -1.
       -1    1    3    3    0  502 -0.30024581881E+03 -0.12528585773E+04 -0.67691064341E+03  0.14553385124E+04  0.50400001928E-02 0.  1.
</event>
<event>
 5   0  0.7638805E-07  0.3469733E+04  0.7818609E-02  0.8121001E-01
       -2   -1    0    0    0  501  0.00000000000E+00  0.00000000000E+00  0.15751379701E+04  0.15751379701E+04  0.25500000920E-02 0. -1.
        2   -1    0    0  501    0  0.00000000000E+00  0.00000000000E+00 -0.19107921421E+04  0.19107921421E+04  0.25500000920E-02 0.  1.
    10030    2    1    2    0    0  0.00000000000E+00  0.00000000000E+00 -0.33565417198E+03  0.34859301123E+04  0.34697327021E+04 0.  0.
        5    1    3    3  502    0  0.15967692400E+04  0.59653273350E+03  0.15650473560E+03  0.17117357069E+04  0.46999998093E+01 0.  1.
       -5    1    3    3    0  502 -0.15967692400E+04 -0.59653273350E+03 -0.49215890758E+03  0.17741944054E+04  0.46999998093E+01 0. -1.
</event>
<event>
 5   0  0.8038352E-07  0.3847764E+04  0.7818609E-02  0.8035982E-01
       -2   -1    0    0    0  501  0.00000000000E+00  0.00000000000E+00  0.16214464215E+04  0.16214464215E+04  0.25500000920E-02 0.  1.
        2   -1    0    0  501    0  0.00000000000E+00  0.00000000000E+00 -0.22827280638E+04  0.22827280638E+04  0.25500000920E-02 0. -1.
    10030    2    1    2    0    0  0.00000000000E+00  0.00000000000E+00 -0.66128164221E+03  0.39041744853E+04  0.38477636364E+04 0.  0.
        2    1    3    3  502    0 -0.57303292053E+03 -0.17786327742E+04  0.13369253871E+03  0.18734393421E+04  0.25500000920E-02 0.  1.
       -2    1    3    3    0  502  0.57303292053E+03  0.17786327742E+04 -0.79497418092E+03  0.20307351432E+04  0.25500000920E-02 0. -1.
</event>
<event>
 5   0  0.7649458E-07  0.3786686E+04  0.7818609E-02  0.8049018E-01
        2   -1    0    0  501    0  0.00000000000E+00  0.00000000000E+00  0.15091952084E+04  0.15091952085E+04  0.25500000920E-02 0. -1.
       -2   -1    0    0    0  501  0.00000000000E+00  0.00000000000E+00 -0.23752713825E+04  0.23752713825E+04  0.25500000920E-02 0.  1.
    10030    2    1    2    0    0  0.00000000000E+00  0.00000000000E+00 -0.86607617406E+03  0.38844665910E+04  0.37866862501E+04 0.  0.
        4    1    3    3  502    0 -0.77230328956E+03  0.11366495293E+04 -0.17690988869E+04  0.22401198647E+04  0.12699999809E+01 0.  1.
       -4    1    3    3    0  502  0.77230328956E+03 -0.11366495293E+04  0.90302271286E+03  0.16443467263E+04  0.12699999809E+01 0. -1.
</event>
<event>
 5   0  0.7638805E-07  0.3823534E+04  0.7818609E-02  0.8041123E-01
       -2   -1    0    0    0  501  0.00000000000E+00  0.00000000000E+00  0.14198260685E+04  0.14198260685E+04  0.25500000920E-02 0.  1.
        2   -1    0    0  501    0  0.00000000000E+00  0.00000000000E+00 -0.25741551418E+04  0.25741551418E+04  0.25500000920E-02 0. -1.
    10030    2    1    2    0    0  0.00000000000E+00  0.00000000000E+00 -0.11543290733E+04  0.39939812102E+04  0.38235337449E+04 0.  0.
        5    1    3    3  502    0  0.15137446935E+04 -0.23516569930E+03  0.61754498038E+03  0.16516990634E+04  0.46999998093E+01 0.  1.
       -5    1    3    3    0  502 -0.15137446935E+04  0.23516569930E+03 -0.17718740537E+04  0.23422821468E+04  0.46999998093E+01 0. -1.
</event>
<event>
 5   0  0.2566461E-07  0.2346902E+04  0.7818609E-02  0.8459655E-01
       -1   -1    0    0    0  501  0.00000000000E+00  0.00000000000E+00  0.12858757545E+04  0.12858757546E+04  0.50400001928E-02 0.  1.
        1   -1    0    0  501    0  0.00000000000E+00  0.00000000000E+00 -0.10708556582E+04  0.10708556582E+04  0.50400001928E-02 0. -1.
    10030    2    1    2    0    0  0.00000000000E+00  0.00000000000E+00  0.21502009638E+03  0.23567314127E+04  0.23469020665E+04 0.  0.
        1    1    3    3  502    0 -0.12470247558E+03 -0.16203470608E+03  0.12678500268E+04  0.12842311489E+04  0.50400001928E-02 0.  1.
       -1    1    3    3    0  502  0.12470247558E+03  0.16203470608E+03 -0.10528299304E+04  0.10725002638E+04  0.50400001928E-02 0. -1.
</event>
<event>
 5   0  0.2907071E-07  0.3785157E+04  0.7818609E-02  0.8049348E-01
       -1   -1    0    0    0  501  0.00000000000E+00  0.00000000000E+00  0.18798017731E+04  0.18798017731E+04  0.50400001928E-02 0. -1.
        1   -1    0    0  501    0  0.00000000000E+00  0.00000000000E+00 -0.19054423984E+04  0.19054423984E+04  0.50400001928E-02 0.  1.
    10030    2    1    2    0    0  0.00000000000E+00  0.00000000000E+00 -0.25640625323E+02  0.37852441716E+04  0.37851573279E+04 0.  0.
        2    1    3    3  502    0 -0.32273453492E+03  0.52133680276E+03 -0.18033653320E+04  0.19047509451E+04  0.25500000920E-02 0.  1.
       -2    1    3    3    0  502  0.32273453492E+03 -0.52133680276E+03  0.17777247067E+04  0.18804932265E+04  0.25500000920E-02 0. -1.
</event>
<event>
 5   0  0.7638805E-07  0.3674458E+04  0.7818609E-02  0.8073646E-01
        2   -1    0    0  501    0  0.00000000000E+00  0.00000000000E+00  0.28024722244E+04  0.28024722244E+04  0.25500000920E-02 0.  1.
       -2   -1    0    0    0  501  0.00000000000E+00  0.00000000000E+00 -0.12044399831E+04  0.12044399831E+04  0.25500000920E-02 0. -1.
    10030    2    1    2    0    0  0.00000000000E+00  0.00000000000E+00  0.15980322413E+04  0.40069122075E+04  0.36744575646E+04 0.  0.
        5    1    3    3  502    0 -0.45545347668E+03 -0.11415926148E+03  0.27359312023E+04  0.27759344084E+04  0.46999998093E+01 0.  1.
       -5    1    3    3    0  502  0.45545347668E+03  0.11415926148E+03 -0.11378989610E+04  0.12309777991E+04  0.46999998093E+01 0. -1.
</event>
<event>
 5   0  0.2529875E-07  0.4027904E+04  0.7818609E-02  0.7998941E-01
        1   -1    0    0  501    0  0.00000000000E+00  0.00000000000E+00  0.23112119260E+04  0.23112119260E+04  0.50400001928E-02 0. -1.
       -1   -1    0    0    0  501  0.00000000000E+00  0.00000000000E+00 -0.17549243310E+04  0.17549243310E+04  0.50400001928E-02 0.  1.
    10030    2    1    2    0    0  0.00000000000E+00  0.00000000000E+00  0.55628759500E+03  0.40661362571E+04  0.40279036946E+04 0.  0.
        3    1    3    3  502    0  0.10059474841E+04  0.83574870706E+03 -0.12679272109E+04  0.18215503464E+04  0.10100000352E+00 0.  1.
       -3    1    3    3    0  502 -0.10059474841E+04 -0.83574870706E+03  0.18242148059E+04  0.22445859107E+04  0.10100000352E+00 0. -1.
</event>
<event>
 5   0  0.7551495E-07  0.3805737E+04  0.7818609E-02  0.8044925E-01
        2   -1    0    0  501    0  0.00000000000E+00  0.00000000000E+00  0.18676128782E+04  0.18676128782E+04  0.25500000920E-02 0.  1.
       -2   -1    0    0    0  501  0.00000000000E+00  0.00000000000E+00 -0.19387900041E+04  0.19387900041E+04  0.25500000920E-02 0. -1.
    10030    2    1    2    0    0  0.00000000000E+00  0.00000000000E+00 -0.71177125961E+02  0.38064028823E+04  0.38057373424E+04 0.  0.
        1    1    3    3  502    0  0.60038232684E+03  0.23156267934E+03 -0.18266638470E+04  0.19366933218E+04  0.50400001928E-02 0. -1.
       -1    1    3    3    0  502 -0.60038232684E+03 -0.23156267934E+03  0.17554867210E+04  0.18697095605E+04  0.50400001928E-02 0.  1.
</event>
<event>
 5   0  0.2529875E-07  0.3905879E+04  0.7818609E-02  0.8023808E-01
        1   -1    0    0  501    0  0.00000000000E+00  0.00000000000E+00  0.27953941378E+04  0.27953941378E+04  0.50400001928E-02 0. -1.
       -1   -1    0    0    0  501  0.00000000000E+00  0.00000000000E+00 -0.13643770932E+04  0.13643770932E+04  0.50400001928E-02 0.  1.
    10030    2    1    2    0    0  0.00000000000E+00  0.00000000000E+00  0.14310170446E+04  0.41597712310E+04  0.39058785071E+04 0.  0.
        1    1    3    3  502    0  0.16394958123E+03  0.17162381471E+04 -0.26152272336E+03  0.17437737747E+04  0.50400001928E-02 0. -1.
       -1    1    3    3    0  502 -0.16394958123E+03 -0.17162381471E+04  0.16925397679E+04  0.24159974563E+04  0.50400001928E-02 0.  1.
</event>
<event>
 5   0  0.7551495E-07  0.3745572E+04  0.7818609E-02  0.8057937E-01
        2   -1    0    0  501    0  0.00000000000E+00  0.00000000000E+00  0.21167132246E+04  0.21167132246E+04  0.25500000920E-02 0.  1.
       -2   -1    0    0    0  501  0.00000000000E+00  0.00000000000E+00 -0.16569689969E+04  0.16569689969E+04  0.25500000920E-02 0. -1.
    10030    2    1    2    0    0  0.00000000000E+00  0.00000000000E+00  0.45974422771E+03  0.37736822216E+04  0.37455724201E+04 0.  0.
        1    1    3    3  502    0  0.23284350734E+03 -0.86479263152E+03 -0.14272346598E+04  0.16849573195E+04  0.50400001928E-02 0. -1.
       -1    1    3    3    0  502 -0.23284350734E+03  0.86479263152E+03  0.18869788875E+04  0.20887249020E+04  0.50400001928E-02 0.  1.
</event>
<event>
 5   0  0.7551495E-07  0.2586021E+04  0.7818609E-02  0.8372965E-01
        2   -1    0    0  501    0  0.00000000000E+00  0.00000000000E+00  0.14240673269E+04  0.14240673269E+04  0.25500000920E-02 0. -1.
       -2   -1    0    0    0  501  0.00000000000E+00  0.00000000000E+00 -0.11740147768E+04  0.11740147768E+04  0.25500000920E-02 0.  1.
    10030    2    1    2    0    0  0.00000000000E+00  0.00000000000E+00  0.25005255015E+03  0.25980821037E+04  0.25860209472E+04 0.  0.
        1    1    3    3  502    0 -0.17024634142E+03 -0.75640291411E+03  0.11646214275E+04  0.13990969425E+04  0.50400001928E-02 0. -1.
       -1    1    3    3    0  502  0.17024634142E+03  0.75640291411E+03 -0.91456887732E+03  0.11989851611E+04  0.50400001928E-02 0.  1.
</event>
<event>
 5   0  0.7638805E-07  0.3074331E+04  0.7818609E-02  0.8222818E-01
       -2   -1    0    0    0  501  0.00000000000E+00  0.00000000000E+00  0.15346042853E+04  0.15346042854E+04  0.25500000920E-02 0. -1.
        2   -1    0    0  501    0  0.00000000000E+00  0.00000000000E+00 -0.15397313414E+04  0.15397313414E+04  0.25500000920E-02 0.  1.
    10030    2    1    2    0    0  0.00000000000E+00  0.00000000000E+00 -0.51270560769E+01  0.30743356268E+04  0.30743313516E+04 0.  0.
        5    1    3    3  502    0 -0.22098492067E+03 -0.14618416827E+04  0.41819920418E+03  0.15364661092E+04  0.46999998093E+01 0. -1.
       -5    1    3    3    0  502  0.22098492067E+03  0.14618416827E+04 -0.42332626026E+03  0.15378695176E+04  0.46999998093E+01 0.  1.
</event>
<event>
 5   0  0.8421677E-07  0.3821693E+04  0.7818609E-02  0.8041516E-01
        2   -1    0    0  501    0  0.00000000000E+00  0.00000000000E+00  0.17960218271E+04  0.17960218271E+04  0.25500000920E-02 0. -1.
       -2   -1    0    0    0  501  0.00000000000E+00  0.00000000000E+00 -0.20330123935E+04  0.20330123935E+04  0.25500000920E-02 0.  1.
    10030    2    1    2    0    0  0.00000000000E+00  0.00000000000E+00 -0.23699056643E+03  0.38290342207E+04  0.38216931502E+04 0.  0.
        3    1    3    3  502    0  0.16055233463E+04  0.10240247384E+04  0.39931009791E+02  0.19047116255E+04  0.10100000352E+00 0.  1.
       -3    1    3    3    0  502 -0.16055233463E+04 -0.10240247384E+04 -0.27692157622E+03  0.19243225951E+04  0.10100000352E+00 0. -1.
</event>
<event>
 5   0  0.2529875E-07  0.3622948E+04  0.7818609E-02  0.8085255E-01
        1   -1    0    0  501    0  0.00000000000E+00  0.00000000000E+00  0.10702928098E+04  0.10702928098E+04  0.50400001928E-02 0.  1.
       -1   -1    0    0    0  501  0.00000000000E+00  0.00000000000E+00 -0.30659263740E+04  0.30659263740E+04  0.50400001928E-02 0. -1.
    10030    2    1    2    0    0  0.00000000000E+00  0.00000000000E+00 -0.19956335642E+04  0.41362191838E+04  0.36229484972E+04 0.  0.
        4    1    3    3  502    0 -0.68433854775E+03 -0.14373293614E+04 -0.19846880687E+04  0.25442529914E+04  0.12699999809E+01 0. -1.
       -4    1    3    3    0  502  0.68433854775E+03  0.14373293614E+04 -0.10945495486E+02  0.15919661924E+04  0.12699999809E+01 0.  1.
</event>
<event>
 5   0  0.2529875E-07  0.4139592E+04  0.7818609E-02  0.7976964E-01
        1   -1    0    0  501    0  0.00000000000E+00  0.00000000000E+00  0.17678234374E+04  0.17678234374E+04  0.50400001928E-02 0.  1.
       -1   -1    0    0    0  501  0.00000000000E+00  0.00000000000E+00 -0.24233499025E+04  0.24233499025E+04  0.50400001928E-02 0. -1.
    10030    2    1    2    0    0  0.00000000000E+00  0.00000000000E+00 -0.65552646517E+03  0.41911733399E+04  0.41395916488E+04 0.  0.
        3    1    3    3  502    0 -0.14604384120E+04  0.37678661087E+02  0.11567106978E+04  0.18634054001E+04  0.10100000352E+00 0. -1.
       -3    1    3    3    0  502  0.14604384120E+04 -0.37678661087E+02 -0.18122371629E+04  0.23277679398E+04  0.10100000352E+00 0.  1.
</event>
<event>
 5   0  0.2907071E-07  0.3546127E+04  0.7818609E-02  0.8102945E-01
        1   -1    0    0  501    0  0.00000000000E+00  0.00000000000E+00  0.13434028014E+04  0.13434028014E+04  0.50400001928E-02 0.  1.
       -1   -1    0    0    0  501  0.00000000000E+00  0.00000000000E+00 -0.23401422311E+04  0.23401422311E+04  0.50400001928E-02 0. -1.
    10030    2    1    2    0    0  0.00000000000E+00  0.00000000000E+00 -0.99673942976E+03  0.36835450325E+04  0.35461266920E+04 0.  0.
        2    1    3    3  502    0  0.15493595948E+04  0.72669983880E+03 -0.98018235771E+03  0.19721473738E+04  0.25500000920E-02 0. -1.
       -2    1    3    3    0  502 -0.15493595948E+04 -0.72669983880E+03 -0.16557072048E+02  0.17113976587E+04  0.25500000920E-02 0.  1.
</event>
<event>
 5   0  0.2785147E-07  0.2320166E+04  0.7818609E-02  0.8470012E-01
       -1   -1    0    0    0  501  0.00000000000E+00  0.00000000000E+00  0.72502985987E+03  0.72502985989E+03  0.50400001928E-02 0. -1.
        1   -1    0    0  501    0  0.00000000000E+00  0.00000000000E+00 -0.18561890104E+04  0.18561890104E+04  0.50400001928E-02 0.  1.
    10030    2    1    2    0    0  0.00000000000E+00  0.00000000000E+00 -0.11311591505E+04  0.25812188703E+04  0.23201659062E+04 0.  0.
        1    1    3    3  502    0  0.30402687210E+03  0.79470671219E+03  0.31168708504E+03  0.90616771977E+03  0.50400001928E-02 0. -1.
       -1    1    3    3    0  502 -0.30402687210E+03 -0.79470671219E+03 -0.14428462355E+04  0.16750511505E+04  0.50400001928E-02 0.  1.
</event>
<event>
 5   0  0.7649458E-07  0.3441510E+04  0.7818609E-02  0.8127793E-01
        2   -1    0    0  501    0  0.00000000000E+00  0.00000000000E+00  0.25428180792E+04  0.25428180792E+04  0.25500000920E-02 0. -1.
       -2   -1    0    0    0  501  0.00000000000E+00  0.00000000000E+00 -0.11644552754E+04  0.11644552754E+04  0.25500000920E-02 0.  1.
    10030    2    1    2    0    0  0.00000000000E+00  0.00000000000E+00  0.13783628038E+04  0.37072733547E+04  0.34415100911E+04 0.  0.
        4    1    3    3  502    0 -0.10458716792E+04  0.38452307373E+03  0.21016546327E+04  0.23787936799E+04  0.12699999809E+01 0. -1.
       -4    1    3    3    0  502  0.10458716792E+04 -0.38452307373E+03 -0.72329182890E+03  0.13284796747E+04  0.12699999809E+01 0.  1.
</event>
<event>
 5   0  0.2529875E-07  0.2446554E+04  0.7818609E-02  0.8422277E-01
        1   -1    0    0  501    0  0.00000000000E+00  0.00000000000E+00  0.10074813608E+04  0.10074813608E+04  0.50400001928E-02 0. -1.
       -1   -1    0    0    0  501  0.00000000000E+00  0.00000000000E+00 -0.14852945504E+04  0.14852945505E+04  0.50400001928E-02 0.  1.
    10030    2    1    2    0    0  0.00000000000E+00  0.00000000000E+00 -0.47781318967E+03  0.24927759112E+04  0.24465539641E+04 0.  0.
        3    1    3    3  502    0 -0.10669130443E+03 -0.96249301514E+03 -0.10004433152E+04  0.13923586736E+04  0.10100000352E+00 0.  1.
       -3    1    3    3    0  502  0.10669130443E+03  0.96249301514E+03  0.52263012556E+03  0.11004172377E+04  0.10100000352E+00 0. -1.
</event>
<event>
 5   0  0.8038352E-07  0.3629274E+04  0.7818609E-02  0.8083819E-01
        2   -1    0    0  501    0  0.00000000000E+00  0.00000000000E+00  0.19574028676E+04  0.19574028676E+04  0.25500000920E-02 0. -1.
       -2   -1    0    0    0  501  0.00000000000E+00  0.00000000000E+00 -0.16822838563E+04  0.16822838563E+04  0.25500000920E-02 0.  1.
    10030    2    1    2    0    0  0.00000000000E+00  0.00000000000E+00  0.27511901123E+03  0.36396867239E+04  0.36292738912E+04 0.  0.
        2    1    3    3  502    0 -0.17970362239E+04  0.12903158477E+03 -0.79669689172E+02  0.18034233000E+04  0.25500000920E-02 0.  1.
       -2    1    3    3    0  502  0.17970362239E+04 -0.12903158477E+03  0.35478870040E+03  0.18362634238E+04  0.25500000920E-02 0. -1.
</event>
<event>
 5   0  0.2529875E-07  0.2760923E+04  0.7818609E-02  0.8315504E-01
        1   -1    0    0  501    0  0.00000000000E+00  0.00000000000E+00  0.21059863202E+04  0.21059863202E+04  0.50400001928E-02 0. -1.
       -1   -1    0    0    0  501  0.00000000000E+00  0.00000000000E+00 -0.90488437580E+03  0.90488437582E+03  0.50400001928E-02 0.  1.
    10030    2    1    2    0    0  0.00000000000E+00  0.00000000000E+00  0.12011019444E+04  0.30108706960E+04  0.27609231187E+04 0.  0.
        5    1    3    3  502    0  0.11959329218E+04 -0.12147064706E+03 -0.13959819383E+03  0.12101737137E+04  0.46999998093E+01 0.  1.
       -5    1    3    3    0  502 -0.11959329218E+04  0.12147064706E+03  0.13407001382E+04  0.18006969823E+04  0.46999998093E+01 0. -1.
</event>
<event>
 5   0  0.7649458E-07  0.3005602E+04  0.7818609E-02  0.8242133E-01
        2   -1    0    0  501    0  0.00000000000E+00  0.00000000000E+00  0.12425609383E+04  0.12425609383E+04  0.25500000920E-02 0.  1.
       -2   -1    0    0    0  501  0.00000000000E+00  0.00000000000E+00 -0.18175454202E+04  0.18175454202E+04  0.25500000920E-02 0. -1.
    10030    2    1    2    0    0  0.00000000000E+00  0.00000000000E+00 -0.57498448194E+03  0.30601063585E+04  0.30056020646E+04 0.  0.
        4    1    3    3  502    0 -0.11997392535E+04 -0.58474330680E+02  0.63199955280E+03  0.13572835266E+04  0.12699999809E+01 0.  1.
       -4    1    3    3    0  502  0.11997392535E+04  0.58474330680E+02 -0.12069840347E+04  0.17028228319E+04  0.12699999809E+01 0. -1.
</event>
<event>
 5   0  0.7551495E-07  0.3805381E+04  0.7818609E-02  0.8045001E-01
       -2   -1    0    0    0  501  0.00000000000E+00  0.00000000000E+00  0.12935855962E+04  0.12935855962E+04  0.25500000920E-02 0.  1.
        2   -1    0    0  501    0  0.00000000000E+00  0.00000000000E+00 -0.27986025367E+04  0.27986025367E+04  0.25500000920E-02 0. -1.
    10030    2    1    2    0    0  0.00000000000E+00  0.00000000000E+00 -0.15050169405E+04  0.40921881328E+04  0.38053814162E+04 0.  0.
        1    1    3    3  502    0 -0.11040505402E+04 -0.97215320114E+03  0.54518244870E+03  0.15688318406E+04  0.50400001928E-02 0.  1.
       -1    1    3    3    0  502  0.11040505402E+04  0.97215320114E+03 -0.20501993892E+04  0.25233562922E+04  0.50400001928E-02 0. -1.
</event>
<event>
 5   0  0.7551495E-07  0.3438914E+04  0.7818609E-02  0.8128421E-01
        2   -1    0    0  501    0  0.00000000000E+00  0.00000000000E+00  0.19430702629E+04  0.19430702630E+04  0.25500000920E-02 0.  1.
       -2   -1    0    0    0  501  0.00000000000E+00  0.00000000000E+00 -0.15215779414E+04  0.15215779414E+04  0.25500000920E-02 0. -1.
    10030    2    1    2    0    0  0.00000000000E+00  0.00000000000E+00  0.42149232153E+03  0.34646482044E+04  0.34389142768E+04 0.  0.
        1    1    3    3  502    0 -0.14025276281E+04 -0.97061421885E+03  0.42999158229E+03  0.17589964384E+04  0.50400001928E-02 0.  1.
       -1    1    3    3    0  502  0.14025276281E+04  0.97061421885E+03 -0.84992607591E+01  0.17056517660E+04  0.50400001928E-02 0. -1.
</event>
<event>
 5   0  0.2529875E-07  0.3197494E+04  0.7818609E-02  0.8189479E-01
       -1   -1    0    0    0  501  0.00000000000E+00  0.00000000000E+00  0.16767748872E+04  0.16767748872E+04  0.50400001928E-02 0. -1.
        1   -1    0    0  501    0  0.00000000000E+00  0.00000000000E+00 -0.15243502262E+04  0.15243502262E+04  0.50400001928E-02 0.  1.
    10030    2    1    2    0    0  0.00000000000E+00  0.00000000000E+00  0.15242466094E+03  0.32011251134E+04  0.31974941305E+04 0.  0.
        4    1    3    3  502    0  0.69753297129E+03 -0.41451574231E+03 -0.13028914440E+04  0.15348951998E+04  0.12699999809E+01 0.  1.
       -4    1    3    3    0  502 -0.69753297129E+03  0.41451574231E+03  0.14553161050E+04  0.16662299136E+04  0.12699999809E+01 0. -1.
</event>
<event>
 5   0  0.7649458E-07  0.3323380E+04  0.7818609E-02  0.8156972E-01
        2   -1    0    0  501    0  0.00000000000E+00  0.00000000000E+00  0.26936783156E+04  0.26936783156E+04  0.25500000920E-02 0. -1.
       -2   -1    0    0    0  501  0.00000000000E+00  0.00000000000E+00 -0.10250717767E+04  0.10250717768E+04  0.25500000920E-02 0.  1.
    10030    2    1    2    0    0  0.00000000000E+00  0.00000000000E+00  0.16686065389E+04  0.37187500924E+04  0.33233799765E+04 0.  0.
        4    1    3    3  502    0  0.38134256182E+03 -0.14836431184E+04  0.15547932609E+04  0.21826595587E+04  0.12699999809E+01 0. -1.
       -4    1    3    3    0  502 -0.38134256182E+03  0.14836431184E+04  0.11381327794E+03  0.15360905336E+04  0.12699999809E+01 0.  1.
</event>
<event>
 5   0  0.7649458E-07  0.3838825E+04  0.7818609E-02  0.8037874E-01
       -2   -1    0    0    0  501  0.00000000000E+00  0.00000000000E+00  0.24537923246E+04  0.24537923246E+04  0.25500000920E-02 0. -1.
        2   -1    0    0  501    0  0.00000000000E+00  0.00000000000E+00 -0.15014085510E+04  0.15014085510E+04  0.25500000920E-02 0.  1.
    10030    2    1    2    0    0  0.00000000000E+00  0.00000000000E+00  0.95238377364E+03  0.39552008756E+04  0.38388252257E+04 0.  0.
        4    1    3    3  502    0  0.85659942039E+03  0.14307501267E+04  0.14554440632E+04  0.22133972816E+04  0.12699999809E+01 0. -1.
       -4    1    3    3    0  502 -0.85659942039E+03 -0.14307501267E+04 -0.50306028955E+03  0.17418035940E+04  0.12699999809E+01 0.  1.
</event>
<event>
 5   0  0.2907071E-07  0.3772399E+04  0.7818609E-02  0.8052104E-01
        1   -1    0    0  501    0  0.00000000000E+00  0.00000000000E+00  0.16169034613E+04  0.16169034613E+04  0.50400001928E-02 0.  1.
       -1   -1    0    0    0  501  0.00000000000E+00  0.00000000000E+00 -0.22003474539E+04  0.22003474539E+04  0.50400001928E-02 0. -1.
    10030    2    1    2    0    0  0.00000000000E+00  0.00000000000E+00 -0.58344399257E+03  0.38172509152E+04  0.37723994562E+04 0.  0.
        2    1    3    3  502    0  0.14075452269E+04  0.19469369242E+03  0.96345333867E+03  0.17167794079E+04  0.25500000920E-02 0.  1.
       -2    1    3    3    0  502 -0.14075452269E+04 -0.19469369242E+03 -0.15468973312E+04  0.21004715073E+04  0.25500000920E-02 0. -1.
</event>
<event>
 5   0  0.7649458E-07  0.3397847E+04  0.7818609E-02  0.8138435E-01
       -2   -1    0    0    0  501  0.00000000000E+00  0.00000000000E+00  0.12656569036E+04  0.12656569036E+04  0.25500000920E-02 0. -1.
        2   -1    0    0  501    0  0.00000000000E+00  0.00000000000E+00 -0.22805082700E+04  0.22805082700E+04  0.25500000920E-02 0.  1.
    10030    2    1    2    0    0  0.00000000000E+00  0.00000000000E+00 -0.10148513664E+04  0.35461651736E+04  0.33978469864E+04 0.  0.
        4    1    3    3  502    0 -0.16348170077E+04  0.42177247115E+03 -0.70495088825E+03  0.18296108968E+04  0.12699999809E+01 0.  1.
       -4    1    3    3    0  502  0.16348170077E+04 -0.42177247115E+03 -0.30990047813E+03  0.17165542768E+04  0.12699999809E+01 0. -1.
</event>
<event>
 5   0  0.2529875E-07  0.3755646E+04  0.7818609E-02  0.8055741E-01
        1   -1    0    0  501    0  0.00000000000E+00  0.00000000000E+00  0.21540741823E+04  0.21540741823E+04  0.50400001928E-02 0. -1.
       -1   -1    0    0    0  501  0.00000000000E+00  0.00000000000E+00 -0.16369995572E+04  0.16369995572E+04  0.50400001928E-02 0.  1.
    10030    2    1    2    0    0  0.00000000000E+00  0.00000000000E+00  0.51707462512E+03  0.37910737395E+04  0.37556456077E+04 0.  0.
        5    1    3    3  502    0  0.97444627531E+02 -0.18557892708E+04 -0.13723745547E+02  0.18584024603E+04  0.46999998093E+01 0.  1.
       -5    1    3    3    0  502 -0.97444627531E+02  0.18557892708E+04  0.53079837066E+03  0.19326712792E+04  0.46999998093E+01 0. -1.
</event>
<event>
 5   0  0.2529875E-07  0.3790085E+04  0.7818609E-02  0.8048286E-01
        1   -1    0    0  501    0  0.00000000000E+00  0.00000000000E+00  0.18250412473E+04  0.18250412473E+04  0.50400001928E-02 0. -1.
       -1   -1    0    0    0  501  0.00000000000E+00  0.00000000000E+00 -0.19677291917E+04  0.19677291917E+04  0.50400001928E-02 0.  1.
    10030    2    1    2    0    0  0.00000000000E+00  0.00000000000E+00 -0.14268794442E+03  0.37927704390E+04  0.37900854546E+04 0.  0.
        5    1    3    3  502    0  0.11951898200E+04  0.92164870680E+03 -0.12181269229E+04  0.19395283795E+04  0.46999998093E+01 0.  1.
       -5    1    3    3    0  502 -0.11951898200E+04 -0.92164870680E+03  0.10754389784E+04  0.18532420595E+04  0.46999998093E+01 0. -1.
</event>
<event>
 5   0  0.2529875E-07  0.3580916E+04  0.7818609E-02  0.8094877E-01
        1   -1    0    0  501    0  0.00000000000E+00  0.00000000000E+00  0.12666136233E+04  0.12666136233E+04  0.50400001928E-02 0. -1.
       -1   -1    0    0    0  501  0.00000000000E+00  0.00000000000E+00 -0.25309537400E+04  0.25309537400E+04  0.50400001928E-02 0.  1.
    10030    2    1    2    0    0  0.00000000000E+00  0.00000000000E+00 -0.12643401167E+04  0.37975673633E+04  0.35809163560E+04 0.  0.
        5    1    3    3  502    0  0.12118497793E+03  0.60382467187E+03 -0.24150836714E+04  0.24923766295E+04  0.46999998093E+01 0.  1.
       -5    1    3    3    0  502 -0.12118497793E+03 -0.60382467187E+03  0.11507435547E+04  0.13051907339E+04  0.46999998093E+01 0. -1.
</event>
<event>
 5   0  0.2907071E-07  0.3759667E+04  0.7818609E-02  0.8054866E-01
       -1   -1    0    0    0  501  0.00000000000E+00  0.00000000000E+00  0.19524237275E+04  0.19524237275E+04  0.50400001928E-02 0. -1.
        1   -1    0    0  501    0  0.00000000000E+00  0.00000000000E+00 -0.18099423066E+04  0.18099423066E+04  0.50400001928E-02 0.  1.
    10030    2    1    2    0    0  0.00000000000E+00  0.00000000000E+00  0.14248142090E+03  0.37623660341E+04  0.37596671686E+04 0.  0.
        2    1    3    3  502    0  0.40592932901E+03  0.57115617024E+03 -0.16743670281E+04  0.18150765647E+04  0.25500000920E-02 0.  1.
       -2    1    3    3    0  502 -0.40592932901E+03 -0.57115617024E+03  0.18168484490E+04  0.19472894694E+04  0.25500000920E-02 0. -1.
</event>
<event>
 5   0  0.8421677E-07  0.2774821E+04  0.7818609E-02  0.8311128E-01
        2   -1    0    0  501    0  0.00000000000E+00  0.00000000000E+00  0.19155747642E+04  0.19155747642E+04  0.25500000920E-02 0. -1.
       -2   -1    0    0    0  501  0.00000000000E+00  0.00000000000E+00 -0.10048719816E+04  0.10048719816E+04  0.25500000920E-02 0.  1.
    10030    2    1    2    0    0  0.00000000000E+00  0.00000000000E+00  0.91070278255E+03  0.29204467458E+04  0.27748206495E+04 0.  0.
        3    1    3    3  502    0 -0.79375137862E+03 -0.10544904591E+04  0.90548376088E+03  0.16005912129E+04  0.10100000352E+00 0. -1.
       -3    1    3    3    0  502  0.79375137862E+03  0.10544904591E+04  0.52190216694E+01  0.13198555329E+04  0.10100000352E+00 0.  1.
</event>
<event>
 5   0  0.7638805E-07  0.2615332E+04  0.7818609E-02  0.8363012E-01
       -2   -1    0    0    0  501  0.00000000000E+00  0.00000000000E+00  0.80243660280E+03  0.80243660280E+03  0.25500000920E-02 0.  1.
        2   -1    0    0  501    0  0.00000000000E+00  0.00000000000E+00 -0.21309980528E+04  0.21309980528E+04  0.25500000920E-02 0. -1.
    10030    2    1    2    0    0  0.00000000000E+00  0.00000000000E+00 -0.13285614500E+04  0.29334346556E+04  0.26153323598E+04 0.  0.
        5    1    3    3  502    0 -0.24289879340E+03 -0.12179087232E+04 -0.11235566417E+04  0.16747247830E+04  0.46999998093E+01 0. -1.
       -5    1    3    3    0  502  0.24289879340E+03  0.12179087232E+04 -0.20500480825E+03  0.12587098725E+04  0.46999998093E+01 0.  1.
</event>
<event>
 5   0  0.8038352E-07  0.3808603E+04  0.7818609E-02  0.8044311E-01
       -2   -1    0    0    0  501  0.00000000000E+00  0.00000000000E+00  0.23553112637E+04  0.23553112637E+04  0.25500000920E-02 0. -1.
        2   -1    0    0  501    0  0.00000000000E+00  0.00000000000E+00 -0.15396536904E+04  0.15396536904E+04  0.25500000920E-02 0.  1.
    10030    2    1    2    0    0  0.00000000000E+00  0.00000000000E+00  0.81565757327E+03  0.38949649541E+04  0.38086027250E+04 0.  0.
        2    1    3    3  502    0  0.14474398138E+04  0.88149445715E+03  0.12959971628E+04  0.21334767725E+04  0.25500000920E-02 0. -1.
       -2    1    3    3    0  502 -0.14474398138E+04 -0.88149445715E+03 -0.48033958953E+03  0.17614881816E+04  0.25500000920E-02 0.  1.
</event>
<event>
 5   0  0.2529875E-07  0.3798411E+04  0.7818609E-02  0.8046496E-01
       -1   -1    0    0    0  501  0.00000000000E+00  0.00000000000E+00  0.12565788402E+04  0.12565788402E+04  0.50400001928E-02 0.  1.
        1   -1    0    0  501    0  0.00000000000E+00  0.00000000000E+00 -0.28704783952E+04  0.28704783952E+04  0.50400001928E-02 0. -1.
    10030    2    1    2    0    0  0.00000000000E+00  0.00000000000E+00 -0.16138995550E+04  0.41270572354E+04  0.37984114641E+04 0.  0.
        4    1    3    3  502    0 -0.17567394891E+04  0.62361928904E+03 -0.41227729790E+03  0.19091906227E+04  0.12699999809E+01 0.  1.
       -4    1    3    3    0  502  0.17567394891E+04 -0.62361928904E+03 -0.12016222571E+04  0.22178666128E+04  0.12699999809E+01 0. -1.
</event>
<event>
 5   0  0.7551495E-07  0.3800269E+04  0.7818609E-02  0.8046097E-01
        2   -1    0    0  501    0  0.00000000000E+00  0.00000000000E+00  0.19604260147E+04  0.19604260147E+04  0.25500000920E-02 0. -1.
       -2   -1    0    0    0  501  0.00000000000E+00  0.00000000000E+00 -0.18416969337E+04  0.18416969337E+04  0.25500000920E-02 0.  1.
    10030    2    1    2    0    0  0.00000000000E+00  0.00000000000E+00  0.11872908101E+03  0.38021229485E+04  0.38002687169E+04 0.  0.
        1    1    3    3  502    0  0.13720886857E+04  0.52317114768E+03  0.12658447769E+04  0.19387362921E+04  0.50400001928E-02 0. -1.
       -1    1    3    3    0  502 -0.13720886857E+04 -0.52317114768E+03 -0.11471156959E+04  0.18633866563E+04  0.50400001928E-02 0.  1.
</event>
<event>
 5   0  0.2907071E-07  0.3793266E+04  0.7818609E-02  0.8047602E-01
       -1   -1    0    0    0  501  0.00000000000E+00  0.00000000000E+00  0.14778423268E+04  0.14778423268E+04  0.50400001928E-02 0.  1.
        1   -1    0    0  501    0  0.00000000000E+00  0.00000000000E+00 -0.24341004787E+04  0.24341004787E+04  0.50400001928E-02 0. -1.
    10030    2    1    2    0    0  0.00000000000E+00  0.00000000000E+00 -0.95625815192E+03  0.39119428055E+04  0.37932659886E+04 0.  0.
        2    1    3    3  502    0 -0.60815160234E+03  0.57005062328E+03  0.12788177896E+04  0.15264930473E+04  0.25500000920E-02 0.  1.
       -2    1    3    3    0  502  0.60815160234E+03 -0.57005062328E+03 -0.22350759415E+04  0.23854497582E+04  0.25500000920E-02 0. -1.
</event>
<event>
 5   0  0.2529875E-07  0.3849853E+04  0.7818609E-02  0.8035540E-01
        1   -1    0    0  501    0  0.00000000000E+00  0.00000000000E+00  0.21551776234E+04  0.21551776234E+04  0.50400001928E-02 0. -1.
       -1   -1    0    0    0  501  0.00000000000E+00  0.00000000000E+00 -0.17192741687E+04  0.17192741687E+04  0.50400001928E-02 0.  1.
    10030    2    1    2    0    0  0.00000000000E+00  0.00000000000E+00  0.43590345471E+03  0.38744517921E+04  0.38498525774E+04 0.  0.
        1    1    3    3  502    0 -0.53200467296E+03 -0.14473514494E+04  0.13774794631E+04  0.20676810348E+04  0.50400001928E-02 0. -1.
       -1    1    3    3    0  502  0.53200467296E+03  0.14473514494E+04 -0.94157600844E+03  0.18067707574E+04  0.50400001928E-02 0.  1.
</event>
<event>
 5   0  0.2529875E-07  0.3866077E+04  0.7818609E-02  0.8032122E-01
        1   -1    0    0  501    0  0.00000000000E+00  0.00000000000E+00  0.14273530604E+04  0.14273530604E+04  0.50400001928E-02 0.  1.
       -1   -1    0    0    0  501  0.00000000000E+00  0.00000000000E+00 -0.26178791891E+04  0.26178791891E+04  0.50400001928E-02 0. -1.
    10030    2    1    2    0    0  0.00000000000E+00  0.00000000000E+00 -0.11905261287E+04  0.40452322494E+04  0.38660770154E+04 0.  0.
        3    1    3    3  502    0  0.93251249565E+03 -0.14226372281E+04  0.36552671740E+03  0.17398523008E+04  0.10100000352E+00 0.  1.
       -3    1    3    3    0  502 -0.93251249565E+03  0.14226372281E+04 -0.15560528461E+04  0.23053799486E+04  0.10100000352E+00 0. -1.
</event>
<event>
 5   0  0.2907071E-07  0.3867785E+04  0.7818609E-02  0.8031763E-01
        1   -1    0    0  501    0  0.00000000000E+00  0.00000000000E+00  0.22643065661E+04  0.22643065661E+04  0.50400001928E-02 0. -1.
       -1   -1    0    0    0  501  0.00000000000E+00  0.00000000000E+00 -0.16516934671E+04  0.16516934671E+04  0.50400001928E-02 0.  1.
    10030    2    1    2    0    0  0.00000000000E+00  0.00000000000E+00  0.61261309906E+03  0.39160000332E+04  0.38677850833E+04 0.  0.
        2    1    3    3  502    0  0.62446642444E+03 -0.10416023869E+04 -0.12174616832E+04  0.17196240280E+04  0.25500000920E-02 0.  1.
       -2    1    3    3    0  502 -0.62446642444E+03  0.10416023869E+04  0.18300747823E+04  0.21963760052E+04  0.25500000920E-02 0. -1.
</event>
<event>
 5   0  0.2529875E-07  0.3892587E+04  0.7818609E-02  0.8026573E-01
       -1   -1    0    0    0  501  0.00000000000E+00  0.00000000000E+00  0.13194067877E+04  0.13194067877E+04  0.50400001928E-02 0.  1.
        1   -1    0    0  501    0  0.00000000000E+00  0.00000000000E+00 -0.28710319073E+04  0.28710319073E+04  0.50400001928E-02 0. -1.
    10030    2    1    2    0    0  0.00000000000E+00  0.00000000000E+00 -0.15516251196E+04  0.41904386949E+04  0.38925873072E+04 0.  0.
        3    1    3    3  502    0 -0.46191292932E+03 -0.25020990778E+03 -0.27932681045E+04  0.28422377216E+04  0.10100000352E+00 0. -1.
       -3    1    3    3    0  502  0.46191292932E+03  0.25020990778E+03  0.12416429849E+04  0.13482009733E+04  0.10100000352E+00 0.  1.
</event>
<event>
 5   0  0.2529875E-07  0.3630583E+04  0.7818609E-02  0.8083522E-01
        1   -1    0    0  501    0  0.00000000000E+00  0.00000000000E+00  0.16373029271E+04  0.16373029271E+04  0.50400001928E-02 0.  1.
       -1   -1    0    0    0  501  0.00000000000E+00  0.00000000000E+00 -0.20126292368E+04  0.20126292368E+04  0.50400001928E-02 0. -1.
    10030    2    1    2    0    0  0.00000000000E+00  0.00000000000E+00 -0.37532630974E+03  0.36499321639E+04  0.36305832813E+04 0.  0.
        1    1    3    3  502    0 -0.11806478044E+04  0.77059994635E+03 -0.13372300747E+04  0.19431772405E+04  0.50400001928E-02 0. -1.
       -1    1    3    3    0  502  0.11806478044E+04 -0.77059994635E+03  0.96190376494E+03  0.17067549234E+04  0.50400001928E-02 0.  1.
</event>
<event>
 5   0  0.2907071E-07  0.3768016E+04  0.7818609E-02  0.8053054E-01
        1   -1    0    0  501    0  0.00000000000E+00  0.00000000000E+00  0.26598335880E+04  0.26598335880E+04  0.50400001928E-02 0.  1.
       -1   -1    0    0    0  501  0.00000000000E+00  0.00000000000E+00 -0.13344767456E+04  0.13344767456E+04  0.50400001928E-02 0. -1.
    10030    2    1    2    0    0  0.00000000000E+00  0.00000000000E+00  0.13253568425E+04  0.39943103336E+04  0.37680159609E+04 0.  0.
        2    1    3    3  502    0 -0.36702176773E+03  0.62263966819E+03 -0.11816681017E+04  0.13851803627E+04  0.25500000920E-02 0. -1.
       -2    1    3    3    0  502  0.36702176773E+03 -0.62263966819E+03  0.25070249442E+04  0.26091299710E+04  0.25500000920E-02 0.  1.
</event>
<event>
 5   0  0.8038352E-07  0.3156063E+04  0.7818609E-02  0.8200518E-01
       -2   -1    0    0    0  501  0.00000000000E+00  0.00000000000E+00  0.10031618073E+04  0.10031618073E+04  0.25500000920E-02 0.  1.
        2   -1    0    0  501    0  0.00000000000E+00  0.00000000000E+00 -0.24823345551E+04  0.24823345551E+04  0.25500000920E-02 0. -1.
    10030    2    1    2    0    0  0.00000000000E+00  0.00000000000E+00 -0.14791727478E+04  0.34854963624E+04  0.31560628755E+04 0.  0.
        2    1    3    3  502    0  0.75461795038E+03 -0.38099579958E+02 -0.22695761879E+04  0.23920442934E+04  0.25500000920E-02 0. -1.
       -2    1    3    3    0  502 -0.75461795038E+03  0.38099579958E+02  0.79040344007E+03  0.10934520690E+04  0.25500000920E-02 0.  1.
</event>
<event>
 5   0  0.2907071E-07  0.3688313E+04  0.7818609E-02  0.8070557E-01
       -1   -1    0    0    0  501  0.00000000000E+00  0.00000000000E+00  0.19793166449E+04  0.19793166449E+04  0.50400001928E-02 0.  1.
        1   -1    0    0  501    0  0.00000000000E+00  0.00000000000E+00 -0.17182263722E+04  0.17182263722E+04  0.50400001928E-02 0. -1.
    10030    2    1    2    0    0  0.00000000000E+00  0.00000000000E+00  0.26109027268E+03  0.36975430170E+04  0.36883134672E+04 0.  0.
        2    1    3    3  502    0 -0.34699651523E+03 -0.14839240244E+04 -0.91055103159E+03  0.17752578047E+04  0.25500000920E-02 0. -1.
       -2    1    3    3    0  502  0.34699651523E+03  0.14839240244E+04  0.11716413043E+04  0.19222852124E+04  0.25500000920E-02 0.  1.
</event>
<event>
 5   0  0.2529875E-07  0.3784067E+04  0.7818609E-02  0.8049583E-01
        1   -1    0    0  501    0  0.00000000000E+00  0.00000000000E+00  0.15025772214E+04  0.15025772214E+04  0.50400001928E-02 0.  1.
       -1   -1    0    0    0  501  0.00000000000E+00  0.00000000000E+00 -0.23824342218E+04  0.23824342218E+04  0.50400001928E-02 0. -1.
    10030    2    1    2    0    0  0.00000000000E+00  0.00000000000E+00 -0.87985700043E+03  0.38850114432E+04  0.37840673319E+04 0.  0.
        5    1    3    3  502    0 -0.12223918921E+04  0.68909671124E+03  0.86304969498E+03  0.16474140589E+04  0.46999998093E+01 0.  1.
       -5    1    3    3    0  502  0.12223918921E+04 -0.68909671124E+03 -0.17429066954E+04  0.22375973843E+04  0.46999998093E+01 0. -1.
</event>
<event>
 5   0  0.8421677E-07  0.3732379E+04  0.7818609E-02  0.8060824E-01
        2   -1    0    0  501    0  0.00000000000E+00  0.00000000000E+00  0.20542260283E+04  0.20542260283E+04  0.25500000920E-02 0. -1.
       -2   -1    0    0    0  501  0.00000000000E+00  0.00000000000E+00 -0.16953650458E+04  0.16953650458E+04  0.25500000920E-02 0.  1.
    10030    2    1    2    0    0  0.00000000000E+00  0.00000000000E+00  0.35886098252E+03  0.37495910742E+04  0.37323788686E+04 0.  0.
        3    1    3    3  502    0 -0.55558893109E+03 -0.12386385508E+04 -0.11070053363E+04  0.17516750112E+04  0.10100000352E+00 0.  1.
       -3    1    3    3    0  502  0.55558893109E+03  0.12386385508E+04  0.14658663188E+04  0.19979160630E+04  0.10100000352E+00 0. -1.
</event>
<event>
 5   0  0.8421677E-07  0.3742951E+04  0.7818609E-02  0.8058510E-01
        2   -1    0    0  501    0  0.00000000000E+00  0.00000000000E+00  0.18788006691E+04  0.18788006691E+04  0.25500000920E-02 0.  1.
       -2   -1    0    0    0  501  0.00000000000E+00  0.00000000000E+00 -0.18641786690E+04  0.18641786690E+04  0.25500000920E-02 0. -1.
    10030    2    1    2    0    0  0.00000000000E+00  0.00000000000E+00  0.14622000110E+02  0.37429793381E+04  0.37429507774E+04 0.  0.
        3    1    3    3  502    0 -0.96718797002E+03  0.13783910221E+04 -0.80939942616E+03  0.18682991785E+04  0.10100000352E+00 0. -1.
       -3    1    3    3    0  502  0.96718797002E+03 -0.13783910221E+04  0.82402142627E+03  0.18746801595E+04  0.10100000352E+00 0.  1.
</event>
<event>
 5   0  0.7649458E-07  0.3778059E+04  0.7818609E-02  0.8050880E-01
        2   -1    0    0  501    0  0.00000000000E+00  0.00000000000E+00  0.16271070449E+04  0.16271070449E+04  0.25500000920E-02 0. -1.
       -2   -1    0    0    0  501  0.00000000000E+00  0.00000000000E+00 -0.21931151858E+04  0.21931151858E+04  0.25500000920E-02 0.  1.
    10030    2    1    2    0    0  0.00000000000E+00  0.00000000000E+00 -0.56600814097E+03  0.38202222307E+04  0.37780593797E+04 0.  0.
        4    1    3    3  502    0 -0.89566064518E+03  0.27544462126E+03 -0.19415387173E+04  0.21558413518E+04  0.12699999809E+01 0.  1.
       -4    1    3    3    0  502  0.89566064518E+03 -0.27544462126E+03  0.13755305763E+04  0.16643808789E+04  0.12699999809E+01 0. -1.
</event>
<event>
 5   0  0.8421677E-07  0.2888080E+04  0.7818609E-02  0.8276433E-01
       -2   -1    0    0    0  501  0.00000000000E+00  0.00000000000E+00  0.18670573740E+04  0.18670573740E+04  0.25500000920E-02 0.  1.
        2   -1    0    0  501    0  0.00000000000E+00  0.00000000000E+00 -0.11168654247E+04  0.11168654247E+04  0.25500000920E-02 0. -1.
    10030    2    1    2    0    0  0.00000000000E+00  0.00000000000E+00  0.75019194926E+03  0.29839227986E+04  0.28880802114E+04 0.  0.
        3    1    3    3  502    0 -0.12084733007E+03 -0.11859274825E+03 -0.11065740859E+04  0.11194527837E+04  0.10100000352E+00 0. -1.
       -3    1    3    3    0  502  0.12084733007E+03  0.11859274825E+03  0.18567660352E+04  0.18644700150E+04  0.10100000352E+00 0.  1.
</event>
<event>
 5   0  0.7551495E-07  0.3707762E+04  0.7818609E-02  0.8066244E-01
       -2   -1    0    0    0  501  0.00000000000E+00  0.00000000000E+00  0.14552084128E+04  0.14552084128E+04  0.25500000920E-02 0. -1.
        2   -1    0    0  501    0  0.00000000000E+00  0.00000000000E+00 -0.23617750195E+04  0.23617750195E+04  0.25500000920E-02 0.  1.
    10030    2    1    2    0    0  0.00000000000E+00  0.00000000000E+00 -0.90656660672E+03  0.38169834324E+04  0.37077620623E+04 0.  0.
        1    1    3    3  502    0  0.19304183738E+03  0.11029782942E+04 -0.19743215042E+04  0.22697514557E+04  0.50400001928E-02 0.  1.
       -1    1    3    3    0  502 -0.19304183738E+03 -0.11029782942E+04  0.10677548975E+04  0.15472319767E+04  0.50400001928E-02 0. -1.
</event>
<event>
 5   0  0.8421677E-07  0.3848520E+04  0.7818609E-02  0.8035822E-01
       -2   -1    0    0    0  501  0.00000000000E+00  0.00000000000E+00  0.21252173147E+04  0.21252173147E+04  0.25500000920E-02 0. -1.
        2   -1    0    0  501    0  0.00000000000E+00  0.00000000000E+00 -0.17423049604E+04  0.17423049604E+04  0.25500000920E-02 0.  1.
    10030    2    1    2    0    0  0.00000000000E+00  0.00000000000E+00  0.38291235432E+03  0.38675222752E+04  0.38485200633E+04 0.  0.
        3    1    3    3  502    0 -0.11032174110E+04  0.12403535402E+04 -0.78659697659E+03  0.18369268832E+04  0.10100000352E+00 0.  1.
       -3    1    3    3    0  502  0.11032174110E+04 -0.12403535402E+04  0.11695093309E+04  0.20305953919E+04  0.10100000352E+00 0. -1.
</event>
<event>
 5   0  0.7638805E-07  0.3800123E+04  0.7818609E-02  0.8046129E-01
       -2   -1    0    0    0  501  0.00000000000E+00  0.00000000000E+00  0.17491000715E+04  0.17491000715E+04  0.25500000920E-02 0.  1.
        2   -1    0    0  501    0  0.00000000000E+00  0.00000000000E+00 -0.20640516288E+04  0.20640516288E+04  0.25500000920E-02 0. -1.
    10030    2    1    2    0    0  0.00000000000E+00  0.00000000000E+00 -0.31495155733E+03  0.38131517002E+04  0.38001225514E+04 0.  0.
        5    1    3    3  502    0 -0.32839213532E+03 -0.35729329683E+03 -0.20008128861E+04  0.20588283536E+04  0.46999998093E+01 0. -1.
       -5    1    3    3    0  502  0.32839213532E+03  0.35729329683E+03  0.16858613288E+04  0.17543233466E+04  0.46999998093E+01 0.  1.
</event>
<event>
 5   0  0.2529875E-07  0.3789781E+04  0.7818609E-02  0.8048351E-01
        1   -1    0    0  501    0  0.00000000000E+00  0.00000000000E+00  0.19695028927E+04  0.19695028927E+04  0.50400001928E-02 0. -1.
       -1   -1    0    0    0  501  0.00000000000E+00  0.00000000000E+00 -0.18231045564E+04  0.18231045564E+04  0.50400001928E-02 0.  1.
    10030    2    1    2    0    0  0.00000000000E+00  0.00000000000E+00  0.14639833629E+03  0.37926074490E+04  0.37897808366E+04 0.  0.
        3    1    3    3  502    0  0.51856759664E+02 -0.11029482241E+04  0.16142911703E+04  0.19557913747E+04  0.10100000352E+00 0. -1.
       -3    1    3    3    0  502 -0.51856759664E+02  0.11029482241E+04 -0.14678928341E+04  0.18368160743E+04  0.10100000352E+00 0.  1.
</event>
<event>
 5   0  0.2529875E-07  0.3752425E+04  0.7818609E-02  0.8056442E-01
        1   -1    0    0  501    0  0.00000000000E+00  0.00000000000E+00  0.23031088587E+04  0.23031088588E+04  0.50400001928E-02 0. -1.
       -1   -1    0    0    0  501  0.00000000000E+00  0.00000000000E+00 -0.15284440745E+04  0.15284440745E+04  0.50400001928E-02 0.  1.
    10030    2    1    2    0    0  0.00000000000E+00  0.00000000000E+00  0.77466478425E+03  0.38315529333E+04  0.37524248630E+04 0.  0.
        1    1    3    3  502    0  0.26800342696E+03  0.17818660266E+04 -0.14647330980E+03  0.18078514331E+04  0.50400001928E-02 0.  1.
       -1    1    3    3    0  502 -0.26800342696E+03 -0.17818660266E+04  0.92113809405E+03  0.20237015002E+04  0.50400001928E-02 0. -1.
</event>
<event>
 5   0  0.2529875E-07  0.3762931E+04  0.7818609E-02  0.8054157E-01
       -1   -1    0    0    0  501  0.00000000000E+00  0.00000000000E+00  0.15297984034E+04  0.15297984034E+04  0.50400001928E-02 0.  1.
        1   -1    0    0  501    0  0.00000000000E+00  0.00000000000E+00 -0.23139734806E+04  0.23139734806E+04  0.50400001928E-02 0. -1.
    10030    2    1    2    0    0  0.00000000000E+00  0.00000000000E+00 -0.78417507723E+03  0.38437718841E+04  0.37629312703E+04 0.  0.
        3    1    3    3  502    0  0.10897929016E+04  0.29294057482E+02  0.11742853250E+04  0.16023272902E+04  0.10100000352E+00 0.  1.
       -3    1    3    3    0  502 -0.10897929016E+04 -0.29294057482E+02 -0.19584604022E+04  0.22414445939E+04  0.10100000352E+00 0. -1.
</event>
<event>
 5   0  0.2529875E-07  0.3481128E+04  0.7818609E-02  0.8118277E-01
        1   -1    0    0  501    0  0.00000000000E+00  0.00000000000E+00  0.20151350362E+04  0.20151350362E+04  0.50400001928E-02 0.  1.
       -1   -1    0    0    0  501  0.00000000000E+00  0.00000000000E+00 -0.15034047433E+04  0.15034047433E+04  0.50400001928E-02 0. -1.
    10030    2    1    2    0    0  0.00000000000E+00  0.00000000000E+00  0.51173029287E+03  0.35185397795E+04  0.34811283067E+04 0.  0.
        1    1    3    3  502    0  0.12855369352E+04 -0.84687817401E+03 -0.56511757374E+03  0.16398675939E+04  0.50400001928E-02 0. -1.
       -1    1    3    3    0  502 -0.12855369352E+04  0.84687817401E+03  0.10768478666E+04  0.18786721857E+04  0.50400001928E-02 0.  1.
</event>
<event>
 5   0  0.2529875E-07  0.3787479E+04  0.7818609E-02  0.8048847E-01
       -1   -1    0    0    0  501  0.00000000000E+00  0.00000000000E+00  0.20810797246E+04  0.20810797246E+04  0.50400001928E-02 0.  1.
        1   -1    0    0  501    0  0.00000000000E+00  0.00000000000E+00 -0.17232633651E+04  0.17232633651E+04  0.50400001928E-02 0. -1.
    10030    2    1    2    0    0  0.00000000000E+00  0.00000000000E+00  0.35781635951E+03  0.38043430897E+04  0.37874785540E+04 0.  0.
        4    1    3    3  502    0 -0.32257310011E+03 -0.10375191189E+04 -0.13790454103E+04  0.17556386826E+04  0.12699999809E+01 0. -1.
       -4    1    3    3    0  502  0.32257310011E+03  0.10375191189E+04  0.17368617699E+04  0.20487044071E+04  0.12699999809E+01 0.  1.
</event>
<event>
 5   0  0.7649458E-07  0.3559045E+04  0.7818609E-02  0.8099938E-01
       -2   -1    0    0    0  501  0.00000000000E+00  0.00000000000E+00  0.18939110999E+04  0.18939110999E+04  0.25500000920E-02 0. -1.
        2   -1    0    0  501    0  0.00000000000E+00  0.00000000000E+00 -0.16720424514E+04  0.16720424514E+04  0.25500000920E-02 0.  1.
    10030    2    1    2    0    0  0.00000000000E+00  0.00000000000E+00  0.22186864854E+03  0.35659535513E+04  0.35590446799E+04 0.  0.
        4    1    3    3  502    0 -0.20117764196E+03  0.14460021981E+04 -0.90853943176E+03  0.17195465427E+04  0.12699999809E+01 0.  1.
       -4    1    3    3    0  502  0.20117764196E+03 -0.14460021981E+04  0.11304080803E+04  0.18464070086E+04  0.12699999809E+01 0. -1.
</event>
<event>
 5   0  0.7638805E-07  0.2523240E+04  0.7818609E-02  0.8394753E-01
        2   -1    0    0  501    0  0.00000000000E+00  0.00000000000E+00  0.19102691943E+04  0.19102691943E+04  0.25500000920E-02 0.  1.
       -2   -1    0    0    0  501  0.00000000000E+00  0.00000000000E+00 -0.83322553045E+03  0.83322553045E+03  0.25500000920E-02 0. -1.
    10030    2    1    2    0    0  0.00000000000E+00  0.00000000000E+00  0.10770436639E+04  0.27434947248E+04  0.25232400304E+04 0.  0.
        5    1    3    3  502    0 -0.14141028288E+03 -0.12524882812E+04  0.59746871939E+03  0.13948887853E+04  0.46999998093E+01 0.  1.
       -5    1    3    3    0  502  0.14141028288E+03  0.12524882812E+04  0.47957494450E+03  0.13486059395E+04  0.46999998093E+01 0. -1.
</event>
<event>
 5   0  0.2529875E-07  0.3678465E+04  0.7818609E-02  0.8072751E-01
        1   -1    0    0  501    0  0.00000000000E+00  0.00000000000E+00  0.15029037280E+04  0.15029037280E+04  0.50400001928E-02 0. -1.
       -1   -1    0    0    0  501  0.00000000000E+00  0.00000000000E+00 -0.22508263589E+04  0.22508263589E+04  0.50400001928E-02 0.  1.
    10030    2    1    2    0    0  0.00000000000E+00  0.00000000000E+00 -0.74792263095E+03  0.37537300869E+04  0.36784645307E+04 0.  0.
        1    1    3    3  502    0  0.14783177111E+04 -0.83299041702E+03  0.35011970606E+03  0.17325934602E+04  0.50400001928E-02 0. -1.
       -1    1    3    3    0  502 -0.14783177111E+04  0.83299041702E+03 -0.10980423370E+04  0.20211366267E+04  0.50400001928E-02 0.  1.
</event>
<event>
 5   0  0.8421677E-07  0.3713264E+04  0.7818609E-02  0.8065029E-01
        2   -1    0    0  501    0  0.00000000000E+00  0.00000000000E+00  0.12490757206E+04  0.12490757206E+04  0.25500000920E-02 0. -1.
       -2   -1    0    0    0  501  0.00000000000E+00  0.00000000000E+00 -0.27597070295E+04  0.27597070295E+04  0.25500000920E-02 0.  1.
    10030    2    1    2    0    0  0.00000000000E+00  0.00000000000E+00 -0.15106313089E+04  0.40087827501E+04  0.37132643572E+04 0.  0.
        3    1    3    3  502    0  0.53154401644E+03  0.15597880635E+04  0.16809534074E+03  0.16564220170E+04  0.10100000352E+00 0. -1.
       -3    1    3    3    0  502 -0.53154401644E+03 -0.15597880635E+04 -0.16787266497E+04  0.23523607332E+04  0.10100000352E+00 0.  1.
</event>
<event>
 5   0  0.7551495E-07  0.3842098E+04  0.7818609E-02  0.8037181E-01
        2   -1    0    0  501    0  0.00000000000E+00  0.00000000000E+00  0.16248630016E+04  0.16248630016E+04  0.25500000920E-02 0. -1.
       -2   -1    0    0    0  501  0.00000000000E+00  0.00000000000E+00 -0.22712243568E+04  0.22712243568E+04  0.25500000920E-02 0.  1.
    10030    2    1    2    0    0  0.00000000000E+00  0.00000000000E+00 -0.64636135519E+03  0.38960873583E+04  0.38420975654E+04 0.  0.
        1    1    3    3  502    0  0.98524397227E+03  0.16331203532E+03 -0.19872930909E+04  0.22241201261E+04  0.50400001928E-02 0.  1.
       -1    1    3    3    0  502 -0.98524397227E+03 -0.16331203532E+03  0.13409317358E+04  0.16719672323E+04  0.50400001928E-02 0. -1.
</event>
<event>
 5   0  0.8038352E-07  0.3847979E+04  0.7818609E-02  0.8035936E-01
       -2   -1    0    0    0  501  0.00000000000E+00  0.00000000000E+00  0.31808120389E+04  0.31808120389E+04  0.25500000920E-02 0.  1.
        2   -1    0    0  501    0  0.00000000000E+00  0.00000000000E+00 -0.11637703751E+04  0.11637703751E+04  0.25500000920E-02 0. -1.
    10030    2    1    2    0    0  0.00000000000E+00  0.00000000000E+00  0.20170416638E+04  0.43445824140E+04  0.38479785964E+04 0.  0.
        2    1    3    3  502    0 -0.33284049791E+03  0.65791965772E+03 -0.99792713220E+03  0.12407657451E+04  0.25500000920E-02 0. -1.
       -2    1    3    3    0  502  0.33284049791E+03 -0.65791965772E+03  0.30149687960E+04  0.31038166689E+04  0.25500000920E-02 0.  1.
</event>
<event>
 5   0  0.2907071E-07  0.2490180E+04  0.7818609E-02  0.8406492E-01
       -1   -1    0    0    0  501  0.00000000000E+00  0.00000000000E+00  0.10646666776E+04  0.10646666776E+04  0.50400001928E-02 0.  1.
        1   -1    0    0  501    0  0.00000000000E+00  0.00000000000E+00 -0.14560892579E+04  0.14560892579E+04  0.50400001928E-02 0. -1.
    10030    2    1    2    0    0  0.00000000000E+00  0.00000000000E+00 -0.39142258028E+03  0.25207559355E+04  0.24901804854E+04 0.  0.
        2    1    3    3  502    0 -0.26217835169E+03  0.91136698851E+03  0.62099254281E+03  0.11335603266E+04  0.25500000920E-02 0. -1.
       -2    1    3    3    0  502  0.26217835169E+03 -0.91136698851E+03 -0.10124151231E+04  0.13871956089E+04  0.25500000920E-02 0.  1.
</event>
<event>
 5   0  0.2529875E-07  0.3792570E+04  0.7818609E-02  0.8047751E-01
       -1   -1    0    0    0  501  0.00000000000E+00  0.00000000000E+00  0.26454160320E+04  0.26454160320E+04  0.50400001928E-02 0. -1.
        1   -1    0    0  501    0  0.00000000000E+00  0.00000000000E+00 -0.13592937258E+04  0.13592937258E+04  0.50400001928E-02 0.  1.
    10030    2    1    2    0    0  0.00000000000E+00  0.00000000000E+00  0.12861223063E+04  0.40047097578E+04  0.37925703234E+04 0.  0.
        4    1    3    3  502    0  0.14514241718E+04  0.66741994792E+03 -0.43575892918E+03  0.16558891782E+04  0.12699999809E+01 0. -1.
       -4    1    3    3    0  502 -0.14514241718E+04 -0.66741994792E+03  0.17218812354E+04  0.23488205796E+04  0.12699999809E+01 0.  1.
</event>
<event>
 5   0  0.7638805E-07  0.3901483E+04  0.7818609E-02  0.8024721E-01
        2   -1    0    0  501    0  0.00000000000E+00  0.00000000000E+00  0.29491762911E+04  0.29491762911E+04  0.25500000920E-02 0.  1.
       -2   -1    0    0    0  501  0.00000000000E+00  0.00000000000E+00 -0.12903241155E+04  0.12903241155E+04  0.25500000920E-02 0. -1.
    10030    2    1    2    0    0  0.00000000000E+00  0.00000000000E+00  0.16588521757E+04  0.42395004066E+04  0.39014834559E+04 0.  0.
        5    1    3    3  502    0  0.18550765288E+04  0.42386505297E+03  0.12960491298E+04  0.23023327187E+04  0.46999998093E+01 0.  1.
       -5    1    3    3    0  502 -0.18550765288E+04 -0.42386505297E+03  0.36280304584E+03  0.19371676879E+04  0.46999998093E+01 0. -1.
</event>
<event>
 5   0  0.7638805E-07  0.3717666E+04  0.7818609E-02  0.8064058E-01
       -2   -1    0    0    0  501  0.00000000000E+00  0.00000000000E+00  0.18198116982E+04  0.18198116982E+04  0.25500000920E-02 0.  1.
        2   -1    0    0  501    0  0.00000000000E+00  0.00000000000E+00 -0.18986909506E+04  0.18986909506E+04  0.25500000920E-02 0. -1.
    10030    2    1    2    0    0  0.00000000000E+00  0.00000000000E+00 -0.78879252363E+02  0.37185026488E+04  0.37176659362E+04 0.  0.
        5    1    3    3  502    0 -0.90946485450E+03  0.11062391023E+04  0.11458784100E+04  0.18341076014E+04  0.46999998093E+01 0.  1.
       -5    1    3    3    0  502  0.90946485450E+03 -0.11062391023E+04 -0.12247576624E+04  0.18843950474E+04  0.46999998093E+01 0. -1.
</event>
<event>
 5   0  0.2529875E-07  0.3810827E+04  0.7818609E-02  0.8043835E-01
        1   -1    0    0  501    0  0.00000000000E+00  0.00000000000E+00  0.25760778924E+04  0.25760778924E+04  0.50400001928E-02 0.  1.
       -1   -1    0    0    0  501  0.00000000000E+00  0.00000000000E+00 -0.14093521425E+04  0.14093521425E+04  0.50400001928E-02 0. -1.
    10030    2    1    2    0    0  0.00000000000E+00  0.00000000000E+00  0.11667257498E+04  0.39854300349E+04  0.38108271527E+04 0.  0.
        5    1    3    3  502    0 -0.11336493650E+04  0.15133707391E+04  0.33781405967E+03  0.19208311497E+04  0.46999998093E+01 0.  1.
       -5    1    3    3    0  502  0.11336493650E+04 -0.15133707391E+04  0.82891169018E+03  0.20645988852E+04  0.46999998093E+01 0. -1.
</event>
<event>
 5   0  0.2529875E-07  0.3781905E+04  0.7818609E-02  0.8050049E-01
        1   -1    0    0  501    0  0.00000000000E+00  0.00000000000E+00  0.16186688713E+04  0.16186688713E+04  0.50400001928E-02 0. -1.
       -1   -1    0    0    0  501  0.00000000000E+00  0.00000000000E+00 -0.22090384181E+04  0.22090384181E+04  0.50400001928E-02 0.  1.
    10030    2    1    2    0    0  0.00000000000E+00  0.00000000000E+00 -0.59036954685E+03  0.38277072894E+04  0.37819051934E+04 0.  0.
        4    1    3    3  502    0  0.16140174844E+04 -0.22940135992E+03  0.67455406250E+03  0.17642851867E+04  0.12699999809E+01 0. -1.
       -4    1    3    3    0  502 -0.16140174844E+04  0.22940135992E+03 -0.12649236094E+04  0.20634221028E+04  0.12699999809E+01 0.  1.
</event>
<event>
 5   0  0.2529875E-07  0.3846311E+04  0.7818609E-02  0.8036289E-01
       -1   -1    0    0    0  501  0.00000000000E+00  0.00000000000E+00  0.14769062370E+04  0.14769062370E+04  0.50400001928E-02 0.  1.
        1   -1    0    0  501    0  0.00000000000E+00  0.00000000000E+00 -0.25042398646E+04  0.25042398646E+04  0.50400001928E-02 0. -1.
    10030    2    1    2    0    0  0.00000000000E+00  0.00000000000E+00 -0.10273336275E+04  0.39811461016E+04  0.38463112069E+04 0.  0.
        3    1    3    3  502    0  0.15670539677E+04 -0.65088398243E+03 -0.14505033103E+04  0.22323234442E+04  0.10100000352E+00 0. -1.
       -3    1    3    3    0  502 -0.15670539677E+04  0.65088398243E+03  0.42316968276E+03  0.17488226574E+04  0.10100000352E+00 0.  1.
</event>
<event>
 5   0  0.2529875E-07  0.3790667E+04  0.7818609E-02  0.8048161E-01
        1   -1    0    0  501    0  0.00000000000E+00  0.00000000000E+00  0.24638785589E+04  0.24638785589E+04  0.50400001928E-02 0.  1.
       -1   -1    0    0    0  501  0.00000000000E+00  0.00000000000E+00 -0.14579813755E+04  0.14579813755E+04  0.50400001928E-02 0. -1.
    10030    2    1    2    0    0  0.00000000000E+00  0.00000000000E+00  0.10058971834E+04  0.39218599344E+04  0.37906669864E+04 0.  0.
        5    1    3    3  502    0  0.88600767864E+03 -0.13832992674E+04  0.14810461241E+04  0.22117970480E+04  0.46999998093E+01 0.  1.
       -5    1    3    3    0  502 -0.88600767864E+03  0.13832992674E+04 -0.47514894073E+03  0.17100628864E+04  0.46999998093E+01 0. -1.
</event>
<event>
 5   0  0.2529875E-07  0.3817038E+04  0.7818609E-02  0.8042508E-01
       -1   -1    0    0    0  501  0.00000000000E+00  0.00000000000E+00  0.14640566877E+04  0.14640566877E+04  0.50400001928E-02 0. -1.
        1   -1    0    0  501    0  0.00000000000E+00  0.00000000000E+00 -0.24879129782E+04  0.24879129782E+04  0.50400001928E-02 0.  1.
    10030    2    1    2    0    0  0.00000000000E+00  0.00000000000E+00 -0.10238562905E+04  0.39519696660E+04  0.38170384511E+04 0.  0.
        1    1    3    3  502    0  0.17118721437E+04 -0.77060760556E+03 -0.15611817514E+03  0.18838033875E+04  0.50400001928E-02 0. -1.
       -1    1    3    3    0  502 -0.17118721437E+04  0.77060760556E+03 -0.86773811537E+03  0.20681662784E+04  0.50400001928E-02 0.  1.
</event>
<event>
 5   0  0.7551495E-07  0.2704391E+04  0.7818609E-02  0.8333582E-01
        2   -1    0    0  501    0  0.00000000000E+00  0.00000000000E+00  0.12698874525E+04  0.12698874525E+04  0.25500000920E-02 0.  1.
       -2   -1    0    0    0  501  0.00000000000E+00  0.00000000000E+00 -0.14398388170E+04  0.14398388170E+04  0.25500000920E-02 0. -1.
    10030    2    1    2    0    0  0.00000000000E+00  0.00000000000E+00 -0.16995136453E+03  0.27097262694E+04  0.27043914267E+04 0.  0.
        1    1    3    3  502    0 -0.64788493093E+03 -0.17700285786E+03  0.10909442935E+04  0.12811105913E+04  0.50400001928E-02 0.  1.
       -1    1    3    3    0  502  0.64788493093E+03  0.17700285786E+03 -0.12608956581E+04  0.14286156782E+04  0.50400001928E-02 0. -1.
</event>
<event>
 5   0  0.2529875E-07  0.3486883E+04  0.7818609E-02  0.8116906E-01
       -1   -1    0    0    0  501  0.00000000000E+00  0.00000000000E+00  0.21341682943E+04  0.21341682943E+04  0.50400001928E-02 0.  1.
        1   -1    0    0  501    0  0.00000000000E+00  0.00000000000E+00 -0.14242495397E+04  0.14242495397E+04  0.50400001928E-02 0. -1.
    10030    2    1    2    0    0  0.00000000000E+00  0.00000000000E+00  0.70991875456E+03  0.35584178340E+04  0.34868829696E+04 0.  0.
        1    1    3    3  502    0  0.10223057827E+04 -0.14056061350E+04  0.21521772009E+03  0.17513298910E+04  0.50400001928E-02 0. -1.
       -1    1    3    3    0  502 -0.10223057827E+04  0.14056061350E+04  0.49470103447E+03  0.18070879430E+04  0.50400001928E-02 0.  1.
</event>
<event>
 5   0  0.7649458E-07  0.3008349E+04  0.7818609E-02  0.8241351E-01
        2   -1    0    0  501    0  0.00000000000E+00  0.00000000000E+00  0.26038766794E+04  0.26038766794E+04  0.25500000920E-02 0.  1.
       -2   -1    0    0    0  501  0.00000000000E+00  0.00000000000E+00 -0.86891224675E+03  0.86891224675E+03  0.25500000920E-02 0. -1.
    10030    2    1    2    0    0  0.00000000000E+00  0.00000000000E+00  0.17349644326E+04  0.34727889261E+04  0.30083486073E+04 0.  0.
        4    1    3    3  502    0 -0.29296738550E+03  0.38434338295E+02 -0.83507996597E+03  0.88581445563E+03  0.12699999809E+01 0. -1.
       -4    1    3    3    0  502  0.29296738550E+03 -0.38434338295E+02  0.25700443986E+04  0.25869744705E+04  0.12699999809E+01 0.  1.
</event>
<event>
 5   0  0.7638805E-07  0.3774402E+04  0.7818609E-02  0.8051671E-01
        2   -1    0    0  501    0  0.00000000000E+00  0.00000000000E+00  0.18942140182E+04  0.18942140182E+04  0.25500000920E-02 0.  1.
       -2   -1    0    0    0  501  0.00000000000E+00  0.00000000000E+00 -0.18802137826E+04  0.18802137826E+04  0.25500000920E-02 0. -1.
    10030    2    1    2    0    0  0.00000000000E+00  0.00000000000E+00  0.14000235555E+02  0.37744278008E+04  0.37744018356E+04 0.  0.
        5    1    3    3  502    0  0.51219054646E+03 -0.12361366048E+04  0.13378482387E+04  0.18921503274E+04  0.46999998093E+01 0.  1.
       -5    1    3    3    0  502 -0.51219054646E+03  0.12361366048E+04 -0.13238480031E+04  0.18822774734E+04  0.46999998093E+01 0. -1.
</event>
<event>
 5   0  0.2907071E-07  0.3798960E+04  0.7818609E-02  0.8046378E-01
       -1   -1    0    0    0  501  0.00000000000E+00  0.00000000000E+00  0.18375684780E+04  0.18375684780E+04  0.50400001928E-02 0.  1.
        1   -1    0    0  501    0  0.00000000000E+00  0.00000000000E+00 -0.19634776722E+04  0.19634776722E+04  0.50400001928E-02 0. -1.
    10030    2    1    2    0    0  0.00000000000E+00  0.00000000000E+00 -0.12590919420E+03  0.38010461502E+04  0.37989602145E+04 0.  0.
        2    1    3    3  502    0  0.11229023444E+04 -0.10003156605E+04  0.10980633374E+04  0.18620644964E+04  0.25500000920E-02 0.  1.
       -2    1    3    3    0  502 -0.11229023444E+04  0.10003156605E+04 -0.12239725316E+04  0.19389816538E+04  0.25500000920E-02 0. -1.
</event>
<event>
 5   0  0.2529875E-07  0.2861168E+04  0.7818609E-02  0.8284526E-01
       -1   -1    0    0    0  501  0.00000000000E+00  0.00000000000E+00  0.82672163983E+03  0.82672163985E+03  0.50400001928E-02 0. -1.
        1   -1    0    0  501    0  0.00000000000E+00  0.00000000000E+00 -0.24755256919E+04  0.24755256919E+04  0.50400001928E-02 0.  1.
    10030    2    1    2    0    0  0.00000000000E+00  0.00000000000E+00 -0.16488040520E+04  0.33022473317E+04  0.28611680548E+04 0.  0.
        1    1    3    3  502    0  0.87946596342E+03  0.74300040612E+03  0.15565678146E+03  0.11617826896E+04  0.50400001928E-02 0. -1.
       -1    1    3    3    0  502 -0.87946596342E+03 -0.74300040612E+03 -0.18044608335E+04  0.21404646421E+04  0.50400001928E-02 0.  1.
</event>
<event>
 5   0  0.8038352E-07  0.3702510E+04  0.7818609E-02  0.8067406E-01
       -2   -1    0    0    0  501  0.00000000000E+00  0.00000000000E+00  0.13941158137E+04  0.13941158137E+04  0.25500000920E-02 0. -1.
        2   -1    0    0  501    0  0.00000000000E+00  0.00000000000E+00 -0.24582925364E+04  0.24582925364E+04  0.25500000920E-02 0.  1.
    10030    2    1    2    0    0  0.00000000000E+00  0.00000000000E+00 -0.10641767227E+04  0.38524083501E+04  0.37025096892E+04 0.  0.
        2    1    3    3  502    0  0.97324892480E+03  0.23442700683E+03 -0.21523671454E+04  0.23737847038E+04  0.25500000920E-02 0.  1.
       -2    1    3    3    0  502 -0.97324892480E+03 -0.23442700683E+03  0.10881904227E+04  0.14786236463E+04  0.25500000920E-02 0. -1.
</event>
<event>
 5   0  0.2529875E-07  0.3742265E+04  0.7818609E-02  0.8058659E-01
       -1   -1    0    0    0  501  0.00000000000E+00  0.00000000000E+00  0.15202610785E+04  0.15202610785E+04  0.50400001928E-02 0. -1.
        1   -1    0    0  501    0  0.00000000000E+00  0.00000000000E+00 -0.23029838419E+04  0.23029838419E+04  0.50400001928E-02 0.  1.
    10030    2    1    2    0    0  0.00000000000E+00  0.00000000000E+00 -0.78272276344E+03  0.38232449205E+04  0.37422649288E+04 0.  0.
        3    1    3    3  502    0  0.22301109791E+03  0.55529922022E+03 -0.22025885575E+04  0.22824301824E+04  0.10100000352E+00 0.  1.
       -3    1    3    3    0  502 -0.22301109791E+03 -0.55529922022E+03  0.14198657940E+04  0.15408147381E+04  0.10100000352E+00 0. -1.
</event>
<event>
 5   0  0.2529875E-07  0.3101578E+04  0.7818609E-02  0.8215305E-01
        1   -1    0    0  501    0  0.00000000000E+00  0.00000000000E+00  0.17370562790E+04  0.17370562790E+04  0.50400001928E-02 0. -1.
       -1   -1    0    0    0  501  0.00000000000E+00  0.00000000000E+00 -0.13844952744E+04  0.13844952745E+04  0.50400001928E-02 0.  1.
    10030    2    1    2    0    0  0.00000000000E+00  0.00000000000E+00  0.35256100451E+03  0.31215515534E+04  0.31015777983E+04 0.  0.
        3    1    3    3  502    0 -0.23410130899E+03 -0.15161018555E+04 -0.52289814760E+02  0.15349600953E+04  0.10100000352E+00 0.  1.
       -3    1    3    3    0  502  0.23410130899E+03  0.15161018555E+04  0.40485081927E+03  0.15865914582E+04  0.10100000352E+00 0. -1.
</event>
<event>
 5   0  0.1010280E-06  0.2326333E+04  0.7818609E-02  0.8467610E-01
       -2   -1    0    0    0  501  0.00000000000E+00  0.00000000000E+00  0.88243684556E+03  0.88243684556E+03  0.25500000920E-02 0. -1.
        2   -1    0    0  501    0  0.00000000000E+00  0.00000000000E+00 -0.15332050844E+04  0.15332050844E+04  0.25500000920E-02 0.  1.
    10030    2    1    2    0    0  0.00000000000E+00  0.00000000000E+00 -0.65076823883E+03  0.24156419300E+04  0.23263333022E+04 0.  0.
        2    1    3    3  502    0  0.56418250933E+02 -0.64844315724E+03  0.67562364867E+03  0.93815183305E+03  0.25500000920E-02 0. -1.
       -2    1    3    3    0  502 -0.56418250933E+02  0.64844315724E+03 -0.13263918875E+04  0.14774900969E+04  0.25500000920E-02 0.  1.
</event>
<event>
 5   0  0.2529875E-07  0.3615260E+04  0.7818609E-02  0.8087005E-01
       -1   -1    0    0    0  501  0.00000000000E+00  0.00000000000E+00  0.16742690544E+04  0.16742690544E+04  0.50400001928E-02 0.  1.
        1   -1    0    0  501    0  0.00000000000E+00  0.00000000000E+00 -0.19516130672E+04  0.19516130672E+04  0.50400001928E-02 0. -1.
    10030    2    1    2    0    0  0.00000000000E+00  0.00000000000E+00 -0.27734401281E+03  0.36258821217E+04  0.36152595285E+04 0.  0.
        5    1    3    3  502    0  0.36187098198E+03  0.43325322126E+03 -0.18609375923E+04  0.19446772929E+04  0.46999998093E+01 0. -1.
       -5    1    3    3    0  502 -0.36187098198E+03 -0.43325322126E+03  0.15835935794E+04  0.16812048287E+04  0.46999998093E+01 0.  1.
</event>
<event>
 5   0  0.8421677E-07  0.3593427E+04  0.7818609E-02  0.8091999E-01
       -2   -1    0    0    0  501  0.00000000000E+00  0.00000000000E+00  0.19838974914E+04  0.19838974914E+04  0.25500000920E-02 0. -1.
        2   -1    0    0  501    0  0.00000000000E+00  0.00000000000E+00 -0.16271906943E+04  0.16271906943E+04  0.25500000920E-02 0.  1.
    10030    2    1    2    0    0  0.00000000000E+00  0.00000000000E+00  0.35670679705E+03  0.36110881857E+04  0.35934270753E+04 0.  0.
        3    1    3    3  502    0 -0.16364168857E+04 -0.53781035636E+03  0.69182389858E+03  0.18562652074E+04  0.10100000352E+00 0. -1.
       -3    1    3    3    0  502  0.16364168857E+04  0.53781035636E+03 -0.33511710153E+03  0.17548229783E+04  0.10100000352E+00 0.  1.
</event>
<event>
 5   0  0.8421677E-07  0.3809314E+04  0.7818609E-02  0.8044159E-01
        2   -1    0    0  501    0  0.00000000000E+00  0.00000000000E+00  0.14861877089E+04  0.14861877089E+04  0.25500000920E-02 0.  1.
       -2   -1    0    0    0  501  0.00000000000E+00  0.00000000000E+00 -0.24409559204E+04  0.24409559204E+04  0.25500000920E-02 0. -1.
    10030    2    1    2    0    0  0.00000000000E+00  0.00000000000E+00 -0.95476821146E+03  0.39271436293E+04  0.38093142096E+04 0.  0.
        3    1    3    3  502    0  0.18735829442E+04 -0.31963568354E+03 -0.35012075771E+03  0.19326315154E+04  0.10100000352E+00 0.  1.
       -3    1    3    3    0  502 -0.18735829442E+04  0.31963568354E+03 -0.60464745375E+03  0.19945121139E+04  0.10100000352E+00 0. -1.
</event>
<event>
 5   0  0.8038352E-07  0.3744128E+04  0.7818609E-02  0.8058252E-01
        2   -1    0    0  501    0  0.00000000000E+00  0.00000000000E+00  0.26520206969E+04  0.26520206969E+04  0.25500000920E-02 0. -1.
       -2   -1    0    0    0  501  0.00000000000E+00  0.00000000000E+00 -0.13214916879E+04  0.13214916879E+04  0.25500000920E-02 0.  1.
    10030    2    1    2    0    0  0.00000000000E+00  0.00000000000E+00  0.13305290089E+04  0.39735123848E+04  0.37441278328E+04 0.  0.
        2    1    3    3  502    0 -0.13319651234E+02  0.17389581314E+04 -0.70361836619E+02  0.17404320107E+04  0.25500000920E-02 0.  1.
       -2    1    3    3    0  502  0.13319651234E+02 -0.17389581314E+04  0.14008908455E+04  0.22330803741E+04  0.25500000920E-02 0. -1.
</event>
<event>
 5   0  0.2529875E-07  0.3723465E+04  0.7818609E-02  0.8062781E-01
        1   -1    0    0  501    0  0.00000000000E+00  0.00000000000E+00  0.11781438509E+04  0.11781438509E+04  0.50400001928E-02 0.  1.
       -1   -1    0    0    0  501  0.00000000000E+00  0.00000000000E+00 -0.29419567586E+04  0.29419567586E+04  0.50400001928E-02 0. -1.
    10030    2    1    2    0    0  0.00000000000E+00  0.00000000000E+00 -0.17638129077E+04  0.41201006095E+04  0.37234651950E+04 0.  0.
        4    1    3    3  502    0 -0.13099459948E+04  0.13214673269E+04 -0.81358595948E+03  0.20308023370E+04  0.12699999809E+01 0.  1.
       -4    1    3    3    0  502  0.13099459948E+04 -0.13214673269E+04 -0.95022694826E+03  0.20892982725E+04  0.12699999809E+01 0. -1.
</event>
<event>
 5   0  0.7551495E-07  0.3753879E+04  0.7818609E-02  0.8056125E-01
       -2   -1    0    0    0  501  0.00000000000E+00  0.00000000000E+00  0.13614525078E+04  0.13614525078E+04  0.25500000920E-02 0. -1.
        2   -1    0    0  501    0  0.00000000000E+00  0.00000000000E+00 -0.25876053420E+04  0.25876053420E+04  0.25500000920E-02 0.  1.
    10030    2    1    2    0    0  0.00000000000E+00  0.00000000000E+00 -0.12261528342E+04  0.39490578498E+04  0.37538789443E+04 0.  0.
        1    1    3    3  502    0  0.85195467653E+03  0.40030171980E+03  0.10951860145E+04  0.14441262563E+04  0.50400001928E-02 0. -1.
       -1    1    3    3    0  502 -0.85195467653E+03 -0.40030171980E+03 -0.23213388487E+04  0.25049315936E+04  0.50400001928E-02 0.  1.
</event>
<event>
 5   0  0.8038352E-07  0.3764340E+04  0.7818609E-02  0.8053851E-01
       -2   -1    0    0    0  501  0.00000000000E+00  0.00000000000E+00  0.13132426299E+04  0.13132426299E+04  0.25500000920E-02 0.  1.
        2   -1    0    0  501    0  0.00000000000E+00  0.00000000000E+00 -0.26975697460E+04  0.26975697460E+04  0.25500000920E-02 0. -1.
    10030    2    1    2    0    0  0.00000000000E+00  0.00000000000E+00 -0.13843271161E+04  0.40108123759E+04  0.37643398292E+04 0.  0.
        2    1    3    3  502    0 -0.18083667229E+04 -0.49470145167E+03 -0.86931424435E+03  0.20665495364E+04  0.25500000920E-02 0.  1.
       -2    1    3    3    0  502  0.18083667229E+04  0.49470145167E+03 -0.51501287177E+03  0.19442628395E+04  0.25500000920E-02 0. -1.
</event>
<event>
 5   0  0.7649458E-07  0.3801271E+04  0.7818609E-02  0.8045882E-01
        2   -1    0    0  501    0  0.00000000000E+00  0.00000000000E+00  0.20650849417E+04  0.20650849417E+04  0.25500000920E-02 0.  1.
       -2   -1    0    0    0  501  0.00000000000E+00  0.00000000000E+00 -0.17492819054E+04  0.17492819054E+04  0.25500000920E-02 0. -1.
    10030    2    1    2    0    0  0.00000000000E+00  0.00000000000E+00  0.31580303631E+03  0.38143668471E+04  0.38012712198E+04 0.  0.
        4    1    3    3  502    0  0.11658649953E+03 -0.95126499673E+02  0.20590983130E+04  0.20645892905E+04  0.12699999809E+01 0.  1.
       -4    1    3    3    0  502 -0.11658649953E+03  0.95126499673E+02 -0.17432952767E+04  0.17497775566E+04  0.12699999809E+01 0. -1.
</event>
<event>
 5   0  0.8421677E-07  0.3622263E+04  0.7818609E-02  0.8085411E-01
        2   -1    0    0  501    0  0.00000000000E+00  0.00000000000E+00  0.26708111146E+04  0.26708111146E+04  0.25500000920E-02 0. -1.
       -2   -1    0    0    0  501  0.00000000000E+00  0.00000000000E+00 -0.12281649395E+04  0.12281649395E+04  0.25500000920E-02 0.  1.
    10030    2    1    2    0    0  0.00000000000E+00  0.00000000000E+00  0.14426461751E+04  0.38989760540E+04  0.36222625917E+04 0.  0.
        3    1    3    3  502    0 -0.13939276623E+04 -0.49125303390E+03 -0.40546633876E+03  0.15325687042E+04  0.10100000352E+00 0.  1.
       -3    1    3    3    0  502  0.13939276623E+04  0.49125303390E+03  0.18481125139E+04  0.23664073498E+04  0.10100000352E+00 0. -1.
</event>
<event>
 5   0  0.2907071E-07  0.3588798E+04  0.7818609E-02  0.8093063E-01
        1   -1    0    0  501    0  0.00000000000E+00  0.00000000000E+00  0.10951109473E+04  0.10951109473E+04  0.50400001928E-02 0.  1.
       -1   -1    0    0    0  501  0.00000000000E+00  0.00000000000E+00 -0.29402198115E+04  0.29402198115E+04  0.50400001928E-02 0. -1.
    10030    2    1    2    0    0  0.00000000000E+00  0.00000000000E+00 -0.18451088643E+04  0.40353307588E+04  0.35887975162E+04 0.  0.
        2    1    3    3  502    0  0.90263539863E+03 -0.64527673104E+03 -0.25082453953E+04  0.27427044473E+04  0.25500000920E-02 0. -1.
       -2    1    3    3    0  502 -0.90263539863E+03  0.64527673104E+03  0.66313653097E+03  0.12926263115E+04  0.25500000920E-02 0.  1.
</event>
<event>
 5   0  0.7551495E-07  0.3824301E+04  0.7818609E-02  0.8040960E-01
        2   -1    0    0  501    0  0.00000000000E+00  0.00000000000E+00  0.18222200787E+04  0.18222200787E+04  0.25500000920E-02 0. -1.
       -2   -1    0    0    0  501  0.00000000000E+00  0.00000000000E+00 -0.20065187675E+04  0.20065187675E+04  0.25500000920E-02 0.  1.
    10030    2    1    2    0    0  0.00000000000E+00  0.00000000000E+00 -0.18429868883E+03  0.38287388462E+04  0.38243006087E+04 0.  0.
        1    1    3    3  502    0  0.15778935607E+04 -0.43262256774E+03 -0.10829485206E+04  0.19620621481E+04  0.50400001928E-02 0. -1.
       -1    1    3    3    0  502 -0.15778935607E+04  0.43262256774E+03  0.89864983176E+03  0.18666766981E+04  0.50400001928E-02 0.  1.
</event>
<event>
 5   0  0.7649458E-07  0.3875245E+04  0.7818609E-02  0.8030198E-01
       -2   -1    0    0    0  501  0.00000000000E+00  0.00000000000E+00  0.12649152727E+04  0.12649152727E+04  0.25500000920E-02 0.  1.
        2   -1    0    0  501    0  0.00000000000E+00  0.00000000000E+00 -0.29680891554E+04  0.29680891554E+04  0.25500000920E-02 0. -1.
    10030    2    1    2    0    0  0.00000000000E+00  0.00000000000E+00 -0.17031738827E+04  0.42330044281E+04  0.38752451811E+04 0.  0.
        4    1    3    3  502    0 -0.97619599913E+03 -0.44614534427E+03  0.91052912044E+03  0.14075045964E+04  0.12699999809E+01 0.  1.
       -4    1    3    3    0  502  0.97619599913E+03  0.44614534427E+03 -0.26137030031E+04  0.28254998316E+04  0.12699999809E+01 0. -1.
</event>
<event>
 5   0  0.2529875E-07  0.3750615E+04  0.7818609E-02  0.8056837E-01
       -1   -1    0    0    0  501  0.00000000000E+00  0.00000000000E+00  0.15619395858E+04  0.15619395859E+04  0.50400001928E-02 0. -1.
        1   -1    0    0  501    0  0.00000000000E+00  0.00000000000E+00 -0.22515455547E+04  0.22515455547E+04  0.50400001928E-02 0.  1.
    10030    2    1    2    0    0  0.00000000000E+00  0.00000000000E+00 -0.68960596885E+03  0.38134851405E+04  0.37506149529E+04 0.  0.
        1    1    3    3  502    0  0.38055283887E+03  0.74561421372E+03  0.13614256359E+04  0.15981992307E+04  0.50400001928E-02 0. -1.
       -1    1    3    3    0  502 -0.38055283887E+03 -0.74561421372E+03 -0.20510316047E+04  0.22152859099E+04  0.50400001928E-02 0.  1.
</event>
<event>
 5   0  0.2907071E-07  0.3814587E+04  0.7818609E-02  0.8043032E-01
        1   -1    0    0  501    0  0.00000000000E+00  0.00000000000E+00  0.16652350892E+04  0.16652350892E+04  0.50400001928E-02 0.  1.
       -1   -1    0    0    0  501  0.00000000000E+00  0.00000000000E+00 -0.21845375159E+04  0.21845375159E+04  0.50400001928E-02 0. -1.
    10030    2    1    2    0    0  0.00000000000E+00  0.00000000000E+00 -0.51930242672E+03  0.38497726052E+04  0.38145870158E+04 0.  0.
        2    1    3    3  502    0  0.83035624232E+03 -0.14798380750E+04 -0.11385203293E+04  0.20434384644E+04  0.25500000920E-02 0. -1.
       -2    1    3    3    0  502 -0.83035624232E+03  0.14798380750E+04  0.61921790257E+03  0.18063341408E+04  0.25500000920E-02 0.  1.
</event>
<event>
 5   0  0.2529875E-07  0.3713287E+04  0.7818609E-02  0.8065024E-01
        1   -1    0    0  501    0  0.00000000000E+00  0.00000000000E+00  0.28022146546E+04  0.28022146546E+04  0.50400001928E-02 0. -1.
       -1   -1    0    0    0  501  0.00000000000E+00  0.00000000000E+00 -0.12301434028E+04  0.12301434028E+04  0.50400001928E-02 0.  1.
    10030    2    1    2    0    0  0.00000000000E+00  0.00000000000E+00  0.15720712519E+04  0.40323580574E+04  0.37132874225E+04 0.  0.
        5    1    3    3  502    0 -0.10527741311E+04  0.11637696860E+04  0.18634645915E+04  0.24362297977E+04  0.46999998093E+01 0. -1.
       -5    1    3    3    0  502  0.10527741311E+04 -0.11637696860E+04 -0.29139333967E+03  0.15961282597E+04  0.46999998093E+01 0.  1.
</event>
<event>
 5   0  0.2529875E-07  0.3747037E+04  0.7818609E-02  0.8057617E-01
       -1   -1    0    0    0  501  0.00000000000E+00  0.00000000000E+00  0.19358139529E+04  0.19358139529E+04  0.50400001928E-02 0.  1.
        1   -1    0    0  501    0  0.00000000000E+00  0.00000000000E+00 -0.18132281194E+04  0.18132281194E+04  0.50400001928E-02 0. -1.
    10030    2    1    2    0    0  0.00000000000E+00  0.00000000000E+00  0.12258583345E+03  0.37490420723E+04  0.37470373862E+04 0.  0.
        3    1    3    3  502    0 -0.67498487679E+03 -0.81767374138E+03  0.16067478499E+04  0.19250541797E+04  0.10100000352E+00 0.  1.
       -3    1    3    3    0  502  0.67498487679E+03  0.81767374138E+03 -0.14841620165E+04  0.18239878927E+04  0.10100000352E+00 0. -1.
</event>
<event>
 5   0  0.7649458E-07  0.3794535E+04  0.7818609E-02  0.8047329E-01
       -2   -1    0    0    0  501  0.00000000000E+00  0.00000000000E+00  0.12553674494E+04  0.12553674494E+04  0.25500000920E-02 0.  1.
        2   -1    0    0  501    0  0.00000000000E+00  0.00000000000E+00 -0.28673870453E+04  0.28673870453E+04  0.25500000920E-02 0. -1.
    10030    2    1    2    0    0  0.00000000000E+00  0.00000000000E+00 -0.16120195959E+04  0.41227544947E+04  0.37945352081E+04 0.  0.
        4    1    3    3  502    0 -0.10235263583E+04  0.81408788169E+03  0.68739230652E+03  0.14774488422E+04  0.12699999809E+01 0. -1.
       -4    1    3    3    0  502  0.10235263583E+04 -0.81408788169E+03 -0.22994119024E+04  0.26453056525E+04  0.12699999809E+01 0.  1.
</event>
<event>
 5   0  0.2529875E-07  0.2442829E+04  0.7818609E-02  0.8423641E-01
       -1   -1    0    0    0  501  0.00000000000E+00  0.00000000000E+00  0.50232757088E+03  0.50232757090E+03  0.50400001928E-02 0.  1.
        1   -1    0    0  501    0  0.00000000000E+00  0.00000000000E+00 -0.29698825739E+04  0.29698825740E+04  0.50400001928E-02 0. -1.
    10030    2    1    2    0    0  0.00000000000E+00  0.00000000000E+00 -0.24675550031E+04  0.34722101449E+04  0.24428294244E+04 0.  0.
        1    1    3    3  502    0  0.86607269464E+03  0.11491173848E+03 -0.24470202115E+04  0.25983060896E+04  0.50400001928E-02 0. -1.
       -1    1    3    3    0  502 -0.86607269464E+03 -0.11491173848E+03 -0.20534791593E+02  0.87390405522E+03  0.50400001928E-02 0.  1.
</event>
<event>
 5   0  0.7638805E-07  0.3740603E+04  0.7818609E-02  0.8059023E-01
       -2   -1    0    0    0  501  0.00000000000E+00  0.00000000000E+00  0.20465404898E+04  0.20465404898E+04  0.25500000920E-02 0. -1.
        2   -1    0    0  501    0  0.00000000000E+00  0.00000000000E+00 -0.17092391760E+04  0.17092391760E+04  0.25500000920E-02 0.  1.
    10030    2    1    2    0    0  0.00000000000E+00  0.00000000000E+00  0.33730131374E+03  0.37557796658E+04  0.37406027217E+04 0.  0.
        5    1    3    3  502    0  0.54139773393E+03 -0.17884341362E+04  0.24895594332E+03  0.18851019383E+04  0.46999998093E+01 0.  1.
       -5    1    3    3    0  502 -0.54139773393E+03  0.17884341362E+04  0.88345370428E+02  0.18706777276E+04  0.46999998093E+01 0. -1.
</event>
<event>
 5   0  0.7638805E-07  0.3823904E+04  0.7818609E-02  0.8041045E-01
        2   -1    0    0  501    0  0.00000000000E+00  0.00000000000E+00  0.17416265438E+04  0.17416265438E+04  0.25500000920E-02 0.  1.
       -2   -1    0    0    0  501  0.00000000000E+00  0.00000000000E+00 -0.20989348124E+04  0.20989348124E+04  0.25500000920E-02 0. -1.
    10030    2    1    2    0    0  0.00000000000E+00  0.00000000000E+00 -0.35730826865E+03  0.38405613562E+04  0.38239040694E+04 0.  0.
        5    1    3    3  502    0 -0.56905942293E+02 -0.11165381475E+04  0.13791156927E+04  0.17753528959E+04  0.46999998093E+01 0.  1.
       -5    1    3    3    0  502  0.56905942293E+02  0.11165381475E+04 -0.17364239614E+04  0.20652084603E+04  0.46999998093E+01 0. -1.
</event>
<event>
 5   0  0.7638805E-07  0.3769933E+04  0.7818609E-02  0.8052638E-01
       -2   -1    0    0    0  501  0.00000000000E+00  0.00000000000E+00  0.11018770952E+04  0.11018770952E+04  0.25500000920E-02 0. -1.
        2   -1    0    0  501    0  0.00000000000E+00  0.00000000000E+00 -0.32245879389E+04  0.32245879389E+04  0.25500000920E-02 0.  1.
    10030    2    1    2    0    0  0.00000000000E+00  0.00000000000E+00 -0.21227108436E+04  0.43264650341E+04  0.37699334696E+04 0.  0.
        5    1    3    3  502    0  0.36174085087E+03  0.10652236711E+04 -0.27970844356E+04  0.30148401852E+04  0.46999998093E+01 0.  1.
       -5    1    3    3    0  502 -0.36174085087E+03 -0.10652236711E+04  0.67437359199E+03  0.13116248489E+04  0.46999998093E+01 0. -1.
</event>
<event>
 5   0  0.8038352E-07  0.3605791E+04  0.7818609E-02  0.8089167E-01
       -2   -1    0    0    0  501  0.00000000000E+00  0.00000000000E+00  0.14002216163E+04  0.14002216163E+04  0.25500000920E-02 0.  1.
        2   -1    0    0  501    0  0.00000000000E+00  0.00000000000E+00 -0.23213696022E+04  0.23213696022E+04  0.25500000920E-02 0. -1.
    10030    2    1    2    0    0  0.00000000000E+00  0.00000000000E+00 -0.92114798586E+03  0.37215912185E+04  0.36057908406E+04 0.  0.
        2    1    3    3  502    0  0.10072831260E+04 -0.43424951601E+03  0.10161948191E+04  0.14952738373E+04  0.25500000920E-02 0.  1.
       -2    1    3    3    0  502 -0.10072831260E+04  0.43424951601E+03 -0.19373428050E+04  0.22263173813E+04  0.25500000920E-02 0. -1.
</event>
<event>
 5   0  0.2529875E-07  0.3731523E+04  0.7818609E-02  0.8061012E-01
       -1   -1    0    0    0  501  0.00000000000E+00  0.00000000000E+00  0.16854355942E+04  0.16854355942E+04  0.50400001928E-02 0. -1.
        1   -1    0    0  501    0  0.00000000000E+00  0.00000000000E+00 -0.20653809444E+04  0.20653809444E+04  0.50400001928E-02 0.  1.
    10030    2    1    2    0    0  0.00000000000E+00  0.00000000000E+00 -0.37994535017E+03  0.37508165385E+04  0.37315233132E+04 0.  0.
        4    1    3    3  502    0 -0.89226112675E+03 -0.97253355242E+03  0.11356002602E+04  0.17411321009E+04  0.12699999809E+01 0. -1.
       -4    1    3    3    0  502  0.89226112675E+03  0.97253355242E+03 -0.15155456104E+04  0.20096844376E+04  0.12699999809E+01 0.  1.
</event>
<event>
 5   0  0.7551495E-07  0.3737605E+04  0.7818609E-02  0.8059679E-01
       -2   -1    0    0    0  501  0.00000000000E+00  0.00000000000E+00  0.25945032365E+04  0.25945032365E+04  0.25500000920E-02 0.  1.
        2   -1    0    0  501    0  0.00000000000E+00  0.00000000000E+00 -0.13460852286E+04  0.13460852286E+04  0.25500000920E-02 0. -1.
    10030    2    1    2    0    0  0.00000000000E+00  0.00000000000E+00  0.12484180079E+04  0.39405884651E+04  0.37376048385E+04 0.  0.
        1    1    3    3  502    0  0.13248590247E+04  0.17212946330E+03 -0.75348719023E+03  0.15338262396E+04  0.50400001928E-02 0. -1.
       -1    1    3    3    0  502 -0.13248590247E+04 -0.17212946330E+03  0.20019051982E+04  0.24067622255E+04  0.50400001928E-02 0.  1.
</event>
<event>
 5   0  0.7638805E-07  0.3766719E+04  0.7818609E-02  0.8053335E-01
        2   -1    0    0  501    0  0.00000000000E+00  0.00000000000E+00  0.21301684703E+04  0.21301684703E+04  0.25500000920E-02 0.  1.
       -2   -1    0    0    0  501  0.00000000000E+00  0.00000000000E+00 -0.16651463574E+04  0.16651463574E+04  0.25500000920E-02 0. -1.
    10030    2    1    2    0    0  0.00000000000E+00  0.00000000000E+00  0.46502211290E+03  0.37953148276E+04  0.37667186085E+04 0.  0.
        5    1    3    3  502    0 -0.45575273588E+03 -0.86049175120E+03  0.18568489285E+04  0.20966799096E+04  0.46999998093E+01 0.  1.
       -5    1    3    3    0  502  0.45575273588E+03  0.86049175120E+03 -0.13918268156E+04  0.16986349180E+04  0.46999998093E+01 0. -1.
</event>
<event>
 5   0  0.7649458E-07  0.3780633E+04  0.7818609E-02  0.8050324E-01
       -2   -1    0    0    0  501  0.00000000000E+00  0.00000000000E+00  0.12599097587E+04  0.12599097587E+04  0.25500000920E-02 0. -1.
        2   -1    0    0  501    0  0.00000000000E+00  0.00000000000E+00 -0.28361521398E+04  0.28361521398E+04  0.25500000920E-02 0.  1.
    10030    2    1    2    0    0  0.00000000000E+00  0.00000000000E+00 -0.15762423812E+04  0.40960618985E+04  0.37806326233E+04 0.  0.
        4    1    3    3  502    0 -0.57960144784E+03  0.41183378538E+03  0.11095106638E+04  0.13177861857E+04  0.12699999809E+01 0. -1.
       -4    1    3    3    0  502  0.57960144784E+03 -0.41183378538E+03 -0.26857530450E+04  0.27782757129E+04  0.12699999809E+01 0.  1.
</event>
<event>
 5   0  0.8421677E-07  0.3789460E+04  0.7818609E-02  0.8048420E-01
       -2   -1    0    0    0  501  0.00000000000E+00  0.00000000000E+00  0.12886423712E+04  0.12886423712E+04  0.25500000920E-02 0.  1.
        2   -1    0    0  501    0  0.00000000000E+00  0.00000000000E+00 -0.27858792259E+04  0.27858792259E+04  0.25500000920E-02 0. -1.
    10030    2    1    2    0    0  0.00000000000E+00  0.00000000000E+00 -0.14972368547E+04  0.40745215971E+04  0.37894601260E+04 0.  0.
        3    1    3    3  502    0 -0.30356005195E+03 -0.18673632860E+04 -0.63683819642E+03  0.19961856742E+04  0.10100000352E+00 0. -1.
       -3    1    3    3    0  502  0.30356005195E+03  0.18673632860E+04 -0.86039865831E+03  0.20783359229E+04  0.10100000352E+00 0.  1.
</event>
<event>
 5   0  0.7638805E-07  0.3589885E+04  0.7818609E-02  0.8092813E-01
        2   -1    0    0  501    0  0.00000000000E+00  0.00000000000E+00  0.22591475621E+04  0.22591475621E+04  0.25500000920E-02 0. -1.
       -2   -1    0    0    0  501  0.00000000000E+00  0.00000000000E+00 -0.14261210981E+04  0.14261210981E+04  0.25500000920E-02 0.  1.
    10030    2    1    2    0    0  0.00000000000E+00  0.00000000000E+00  0.83302646399E+03  0.36852686602E+04  0.35898846789E+04 0.  0.
        5    1    3    3  502    0 -0.21756123460E+03 -0.14767811896E+04 -0.60675655389E+03  0.16113321131E+04  0.46999998093E+01 0.  1.
       -5    1    3    3    0  502  0.21756123460E+03  0.14767811896E+04  0.14397830179E+04  0.20739365471E+04  0.46999998093E+01 0. -1.
</event>
<event>
 5   0  0.2529875E-07  0.3393785E+04  0.7818609E-02  0.8139433E-01
       -1   -1    0    0    0  501  0.00000000000E+00  0.00000000000E+00  0.16594682928E+04  0.16594682928E+04  0.50400001928E-02 0.  1.
        1   -1    0    0  501    0  0.00000000000E+00  0.00000000000E+00 -0.17351603509E+04  0.17351603509E+04  0.50400001928E-02 0. -1.
    10030    2    1    2    0    0  0.00000000000E+00  0.00000000000E+00 -0.75692058080E+02  0.33946286437E+04  0.33937846633E+04 0.  0.
        4    1    3    3  502    0 -0.10313965721E+04 -0.81471083357E+03 -0.11113833294E+04  0.17212516229E+04  0.12699999809E+01 0. -1.
       -4    1    3    3    0  502  0.10313965721E+04  0.81471083357E+03  0.10356912714E+04  0.16733770208E+04  0.12699999809E+01 0.  1.
</event>
<event>
 5   0  0.2529875E-07  0.3775518E+04  0.7818609E-02  0.8051429E-01
       -1   -1    0    0    0  501  0.00000000000E+00  0.00000000000E+00  0.24332655889E+04  0.24332655889E+04  0.50400001928E-02 0.  1.
        1   -1    0    0  501    0  0.00000000000E+00  0.00000000000E+00 -0.14645479629E+04  0.14645479629E+04  0.50400001928E-02 0. -1.
    10030    2    1    2    0    0  0.00000000000E+00  0.00000000000E+00  0.96871762604E+03  0.38978135518E+04  0.37755180632E+04 0.  0.
        3    1    3    3  502    0  0.57462475950E+03 -0.50597381398E+03 -0.12970572514E+04  0.15061741726E+04  0.10100000352E+00 0. -1.
       -3    1    3    3    0  502 -0.57462475950E+03  0.50597381398E+03  0.22657748774E+04  0.23916393792E+04  0.10100000352E+00 0.  1.
</event>
<event>
 5   0  0.2529875E-07  0.3304082E+04  0.7818609E-02  0.8161858E-01
       -1   -1    0    0    0  501  0.00000000000E+00  0.00000000000E+00  0.14129969973E+04  0.14129969974E+04  0.50400001928E-02 0.  1.
        1   -1    0    0  501    0  0.00000000000E+00  0.00000000000E+00 -0.19315252739E+04  0.19315252739E+04  0.50400001928E-02 0. -1.
    10030    2    1    2    0    0  0.00000000000E+00  0.00000000000E+00 -0.51852827659E+03  0.33445222713E+04  0.33040819678E+04 0.  0.
        5    1    3    3  502    0 -0.16445218653E+04 -0.15437625798E+01 -0.41855208843E+03  0.16969568319E+04  0.46999998093E+01 0. -1.
       -5    1    3    3    0  502  0.16445218653E+04  0.15437625798E+01 -0.99976188158E+02  0.16475654394E+04  0.46999998093E+01 0.  1.
</event>
<event>
 5   0  0.7551495E-07  0.3833455E+04  0.7818609E-02  0.8039013E-01
       -2   -1    0    0    0  501  0.00000000000E+00  0.00000000000E+00  0.19767903945E+04  0.19767903945E+04  0.25500000920E-02 0.  1.
        2   -1    0    0  501    0  0.00000000000E+00  0.00000000000E+00 -0.18584891747E+04  0.18584891747E+04  0.25500000920E-02 0. -1.
    10030    2    1    2    0    0  0.00000000000E+00  0.00000000000E+00  0.11830121984E+03  0.38352795692E+04  0.38334546032E+04 0.  0.
        1    1    3    3  502    0  0.91887492206E+03  0.14494465257E+04  0.91314773870E+03  0.19439817761E+04  0.50400001928E-02 0.  1.
       -1    1    3    3    0  502 -0.91887492206E+03 -0.14494465257E+04 -0.79484651886E+03  0.18912977930E+04  0.50400001928E-02 0. -1.
</event>
<event>
 5   0  0.7638805E-07  0.3749932E+04  0.7818609E-02  0.8056985E-01
       -2   -1    0    0    0  501  0.00000000000E+00  0.00000000000E+00  0.18179690453E+04  0.18179690453E+04  0.25500000920E-02 0. -1.
        2   -1    0    0  501    0  0.00000000000E+00  0.00000000000E+00 -0.19337503416E+04  0.19337503416E+04  0.25500000920E-02 0.  1.
    10030    2    1    2    0    0  0.00000000000E+00  0.00000000000E+00 -0.11578129637E+03  0.37517193869E+04  0.37499324060E+04 0.  0.
        5    1    3    3  502    0  0.11000574178E+04 -0.33782900029E+03  0.14230922381E+04  0.18301552841E+04  0.46999998093E+01 0. -1.
       -5    1    3    3    0  502 -0.11000574178E+04  0.33782900029E+03 -0.15388735344E+04  0.19215641027E+04  0.46999998093E+01 0.  1.
</event>
<event>
 5   0  0.2529875E-07  0.3782509E+04  0.7818609E-02  0.8049919E-01
        1   -1    0    0  501    0  0.00000000000E+00  0.00000000000E+00  0.13648807384E+04  0.13648807384E+04  0.50400001928E-02 0.  1.
       -1   -1    0    0    0  501  0.00000000000E+00  0.00000000000E+00 -0.26206265597E+04  0.26206265597E+04  0.50400001928E-02 0. -1.
    10030    2    1    2    0    0  0.00000000000E+00  0.00000000000E+00 -0.12557458213E+04  0.39855072981E+04  0.37825085400E+04 0.  0.
        5    1    3    3  502    0 -0.16145258957E+04 -0.26556415096E+02  0.40955999268E+03  0.16658813249E+04  0.46999998093E+01 0.  1.
       -5    1    3    3    0  502  0.16145258957E+04  0.26556415096E+02 -0.16653058139E+04  0.23196259731E+04  0.46999998093E+01 0. -1.
</event>
<event>
 5   0  0.2529875E-07  0.2568558E+04  0.7818609E-02  0.8378961E-01
       -1   -1    0    0    0  501  0.00000000000E+00  0.00000000000E+00  0.10457288434E+04  0.10457288434E+04  0.50400001928E-02 0.  1.
        1   -1    0    0  501    0  0.00000000000E+00  0.00000000000E+00 -0.15772465377E+04  0.15772465377E+04  0.50400001928E-02 0. -1.
    10030    2    1    2    0    0  0.00000000000E+00  0.00000000000E+00 -0.53151769430E+03  0.26229753810E+04  0.25685577257E+04 0.  0.
        1    1    3    3  502    0  0.59253388633E+03 -0.11369343182E+04 -0.18895813674E+03  0.12959248542E+04  0.50400001928E-02 0.  1.
       -1    1    3    3    0  502 -0.59253388633E+03  0.11369343182E+04 -0.34255955755E+03  0.13270505268E+04  0.50400001928E-02 0. -1.
</event>
<event>
 5   0  0.7649458E-07  0.3822789E+04  0.7818609E-02  0.8041282E-01
        2   -1    0    0  501    0  0.00000000000E+00  0.00000000000E+00  0.18823598794E+04  0.18823598794E+04  0.25500000920E-02 0.  1.
       -2   -1    0    0    0  501  0.00000000000E+00  0.00000000000E+00 -0.19408766705E+04  0.19408766705E+04  0.25500000920E-02 0. -1.
    10030    2    1    2    0    0  0.00000000000E+00  0.00000000000E+00 -0.58516791085E+02  0.38232365499E+04  0.38227887075E+04 0.  0.
        4    1    3    3  502    0  0.15115236586E+04 -0.14751999610E+03  0.11314639900E+04  0.18938527644E+04  0.12699999809E+01 0.  1.
       -4    1    3    3    0  502 -0.15115236586E+04  0.14751999610E+03 -0.11899807810E+04  0.19293837855E+04  0.12699999809E+01 0. -1.
</event>
<event>
 5   0  0.2529875E-07  0.3675208E+04  0.7818609E-02  0.8073478E-01
       -1   -1    0    0    0  501  0.00000000000E+00  0.00000000000E+00  0.29360044971E+04  0.29360044971E+04  0.50400001928E-02 0.  1.
        1   -1    0    0  501    0  0.00000000000E+00  0.00000000000E+00 -0.11501305028E+04  0.11501305028E+04  0.50400001928E-02 0. -1.
    10030    2    1    2    0    0  0.00000000000E+00  0.00000000000E+00  0.17858739943E+04  0.40861349999E+04  0.36752079280E+04 0.  0.
        1    1    3    3  502    0 -0.37594491354E+03 -0.11516122534E+04 -0.64331123513E+03  0.13716394226E+04  0.50400001928E-02 0. -1.
       -1    1    3    3    0  502  0.37594491354E+03  0.11516122534E+04  0.24291852295E+04  0.27144955773E+04  0.50400001928E-02 0.  1.
</event>
<event>
 5   0  0.7649458E-07  0.3720876E+04  0.7818609E-02  0.8063351E-01
        2   -1    0    0  501    0  0.00000000000E+00  0.00000000000E+00  0.25819181769E+04  0.25819181769E+04  0.25500000920E-02 0.  1.
       -2   -1    0    0    0  501  0.00000000000E+00  0.00000000000E+00 -0.13405652237E+04  0.13405652237E+04  0.25500000920E-02 0. -1.
    10030    2    1    2    0    0  0.00000000000E+00  0.00000000000E+00  0.12413529533E+04  0.39224834006E+04  0.37208760895E+04 0.  0.
        4    1    3    3  502    0 -0.72061000379E+03 -0.35449724072E+03 -0.11484297131E+04  0.14013705756E+04  0.12699999809E+01 0. -1.
       -4    1    3    3    0  502  0.72061000379E+03  0.35449724072E+03  0.23897826663E+04  0.25211128250E+04  0.12699999809E+01 0.  1.
</event>
<event>
 5   0  0.7551495E-07  0.3757197E+04  0.7818609E-02  0.8055403E-01
       -2   -1    0    0    0  501  0.00000000000E+00  0.00000000000E+00  0.22411022910E+04  0.22411022910E+04  0.25500000920E-02 0.  1.
        2   -1    0    0  501    0  0.00000000000E+00  0.00000000000E+00 -0.15747305590E+04  0.15747305590E+04  0.25500000920E-02 0. -1.
    10030    2    1    2    0    0  0.00000000000E+00  0.00000000000E+00  0.66637173193E+03  0.38158328500E+04  0.37571969677E+04 0.  0.
        1    1    3    3  502    0 -0.12419629600E+04 -0.99662756463E+03  0.13454319251E+04  0.20846883608E+04  0.50400001928E-02 0.  1.
       -1    1    3    3    0  502  0.12419629600E+04  0.99662756463E+03 -0.67906019315E+03  0.17311444892E+04  0.50400001928E-02 0. -1.
</event>
<event>
 5   0  0.7638805E-07  0.2667906E+04  0.7818609E-02  0.8345494E-01
       -2   -1    0    0    0  501  0.00000000000E+00  0.00000000000E+00  0.13928209936E+04  0.13928209936E+04  0.25500000920E-02 0.  1.
        2   -1    0    0  501    0  0.00000000000E+00  0.00000000000E+00 -0.12775732024E+04  0.12775732024E+04  0.25500000920E-02 0. -1.
    10030    2    1    2    0    0  0.00000000000E+00  0.00000000000E+00  0.11524779114E+03  0.26703941960E+04  0.26679061282E+04 0.  0.
        5    1    3    3  502    0  0.69080103274E+03  0.51601128454E+03  0.10763820047E+04  0.13791642479E+04  0.46999998093E+01 0.  1.
       -5    1    3    3    0  502 -0.69080103274E+03 -0.51601128454E+03 -0.96113421353E+03  0.12912299482E+04  0.46999998093E+01 0. -1.
</event>
<event>
 5   0  0.2529875E-07  0.3785655E+04  0.7818609E-02  0.8049240E-01
       -1   -1    0    0    0  501  0.00000000000E+00  0.00000000000E+00  0.14787657637E+04  0.14787657637E+04  0.50400001928E-02 0. -1.
        1   -1    0    0  501    0  0.00000000000E+00  0.00000000000E+00 -0.24228290553E+04  0.24228290553E+04  0.50400001928E-02 0.  1.
    10030    2    1    2    0    0  0.00000000000E+00  0.00000000000E+00 -0.94406329162E+03  0.39015948190E+04  0.37856553769E+04 0.  0.
        1    1    3    3  502    0 -0.13340993950E+04  0.11412239309E+04  0.25715601786E+03  0.17743569184E+04  0.50400001928E-02 0. -1.
       -1    1    3    3    0  502  0.13340993950E+04 -0.11412239309E+04 -0.12012193095E+04  0.21272379006E+04  0.50400001928E-02 0.  1.
</event>
<event>
 5   0  0.2529875E-07  0.3710337E+04  0.7818609E-02  0.8065675E-01
        3   -1    0    0  501    0  0.00000000000E+00  0.00000000000E+00  0.23053748634E+04  0.23053748656E+04  0.10100000352E+00 0. -1.
       -3   -1    0    0    0  501  0.00000000000E+00  0.00000000000E+00 -0.14928810858E+04  0.14928810892E+04  0.10100000352E+00 0.  1.
    10030    2    1    2    0    0  0.00000000000E+00  0.00000000000E+00  0.81249377757E+03  0.37982559548E+04  0.37103372029E+04 0.  0.
        5    1    3    3  502    0  0.18440182864E+04  0.83829647671E+02  0.21693902417E+03  0.18586326912E+04  0.46999998093E+01 0.  1.
       -5    1    3    3    0  502 -0.18440182864E+04 -0.83829647671E+02  0.59555475340E+03  0.19396232636E+04  0.46999998093E+01 0. -1.
</event>
<event>
 5   0  0.7649458E-07  0.3750034E+04  0.7818609E-02  0.8056963E-01
        2   -1    0    0  501    0  0.00000000000E+00  0.00000000000E+00  0.11239885441E+04  0.11239885441E+04  0.25500000920E-02 0. -1.
       -2   -1    0    0    0  501  0.00000000000E+00  0.00000000000E+00 -0.31278693914E+04  0.31278693914E+04  0.25500000920E-02 0.  1.
    10030    2    1    2    0    0  0.00000000000E+00  0.00000000000E+00 -0.20038808473E+04  0.42518579355E+04  0.37500343270E+04 0.  0.
        4    1    3    3  502    0 -0.28657409446E+03 -0.77346389066E+03 -0.29111090377E+04  0.30257112460E+04  0.12699999809E+01 0.  1.
       -4    1    3    3    0  502  0.28657409446E+03  0.77346389066E+03  0.90722819044E+03  0.12261466895E+04  0.12699999809E+01 0. -1.
</event>
<event>
 5   0  0.2529875E-07  0.3863025E+04  0.7818609E-02  0.8032763E-01
        1   -1    0    0  501    0  0.00000000000E+00  0.00000000000E+00  0.17425832346E+04  0.17425832346E+04  0.50400001928E-02 0. -1.
       -1   -1    0    0    0  501  0.00000000000E+00  0.00000000000E+00 -0.21409258119E+04  0.21409258119E+04  0.50400001928E-02 0.  1.
    10030    2    1    2    0    0  0.00000000000E+00  0.00000000000E+00 -0.39834257728E+03  0.38835090465E+04  0.38630254601E+04 0.  0.
        4    1    3    3  502    0  0.57644546873E+03  0.14260702099E+04  0.97525875147E+03  0.18212898910E+04  0.12699999809E+01 0. -1.
       -4    1    3    3    0  502 -0.57644546873E+03 -0.14260702099E+04 -0.13736013288E+04  0.20622191555E+04  0.12699999809E+01 0.  1.
</event>
<event>
 5   0  0.7649458E-07  0.3743741E+04  0.7818609E-02  0.8058337E-01
        2   -1    0    0  501    0  0.00000000000E+00  0.00000000000E+00  0.27758197934E+04  0.27758197935E+04  0.25500000920E-02 0. -1.
       -2   -1    0    0    0  501  0.00000000000E+00  0.00000000000E+00 -0.12622933569E+04  0.12622933569E+04  0.25500000920E-02 0.  1.
    10030    2    1    2    0    0  0.00000000000E+00  0.00000000000E+00  0.15135264365E+04  0.40381131504E+04  0.37437408486E+04 0.  0.
        4    1    3    3  502    0  0.79601376075E+03  0.16732508322E+04  0.10431411818E+04  0.21263939881E+04  0.12699999809E+01 0. -1.
       -4    1    3    3    0  502 -0.79601376075E+03 -0.16732508322E+04  0.47038525475E+03  0.19117191623E+04  0.12699999809E+01 0.  1.
</event>
<event>
 5   0  0.2907071E-07  0.2336792E+04  0.7818609E-02  0.8463554E-01
       -1   -1    0    0    0  501  0.00000000000E+00  0.00000000000E+00  0.14162391019E+04  0.14162391019E+04  0.50400001928E-02 0. -1.
        1   -1    0    0  501    0  0.00000000000E+00  0.00000000000E+00 -0.96392555510E+03  0.96392555512E+03  0.50400001928E-02 0.  1.
    10030    2    1    2    0    0  0.00000000000E+00  0.00000000000E+00  0.45231354683E+03  0.23801646571E+04  0.23367918714E+04 0.  0.
        2    1    3    3  502    0  0.65814624569E+03  0.95524249754E+03  0.36840692554E+03  0.12171147738E+04  0.25500000920E-02 0. -1.
       -2    1    3    3    0  502 -0.65814624569E+03 -0.95524249754E+03  0.83906621287E+02  0.11630498832E+04  0.25500000920E-02 0.  1.
</event>
<event>
 5   0  0.7551495E-07  0.3767686E+04  0.7818609E-02  0.8053125E-01
        2   -1    0    0  501    0  0.00000000000E+00  0.00000000000E+00  0.19719679521E+04  0.19719679521E+04  0.25500000920E-02 0. -1.
       -2   -1    0    0    0  501  0.00000000000E+00  0.00000000000E+00 -0.17996564432E+04  0.17996564432E+04  0.25500000920E-02 0.  1.
    10030    2    1    2    0    0  0.00000000000E+00  0.00000000000E+00  0.17231150891E+03  0.37716243953E+04  0.37676862028E+04 0.  0.
        1    1    3    3  502    0  0.17211928156E+04 -0.42385147427E+03  0.72456058351E+03  0.19149785429E+04  0.50400001928E-02 0.  1.
       -1    1    3    3    0  502 -0.17211928156E+04  0.42385147427E+03 -0.55224907460E+03  0.18566458524E+04  0.50400001928E-02 0. -1.
</event>
<event>
 5   0  0.2529875E-07  0.3635494E+04  0.7818609E-02  0.8082409E-01
       -1   -1    0    0    0  501  0.00000000000E+00  0.00000000000E+00  0.26568636764E+04  0.26568636764E+04  0.50400001928E-02 0.  1.
        1   -1    0    0  501    0  0.00000000000E+00  0.00000000000E+00 -0.12436486549E+04  0.12436486549E+04  0.50400001928E-02 0. -1.
    10030    2    1    2    0    0  0.00000000000E+00  0.00000000000E+00  0.14132150215E+04  0.39005123313E+04  0.36354944298E+04 0.  0.
        3    1    3    3  502    0 -0.17725977850E+03  0.78798035447E+03  0.24537742649E+04  0.25832812896E+04  0.10100000352E+00 0.  1.
       -3    1    3    3    0  502  0.17725977850E+03 -0.78798035447E+03 -0.10405592433E+04  0.13172310417E+04  0.10100000352E+00 0. -1.
</event>
<event>
 5   0  0.2529875E-07  0.3734441E+04  0.7818609E-02  0.8060372E-01
       -1   -1    0    0    0  501  0.00000000000E+00  0.00000000000E+00  0.16272998850E+04  0.16272998850E+04  0.50400001928E-02 0.  1.
        1   -1    0    0  501    0  0.00000000000E+00  0.00000000000E+00 -0.21425140721E+04  0.21425140721E+04  0.50400001928E-02 0. -1.
    10030    2    1    2    0    0  0.00000000000E+00  0.00000000000E+00 -0.51521418704E+03  0.37698139571E+04  0.37344412718E+04 0.  0.
        1    1    3    3  502    0  0.98921868355E+03  0.15815137142E+04 -0.17452521080E+03  0.18735523162E+04  0.50400001928E-02 0. -1.
       -1    1    3    3    0  502 -0.98921868355E+03 -0.15815137142E+04 -0.34068897624E+03  0.18962616409E+04  0.50400001928E-02 0.  1.
</event>
<event>
 5   0  0.2529875E-07  0.2401073E+04  0.7818609E-02  0.8439102E-01
       -1   -1    0    0    0  501  0.00000000000E+00  0.00000000000E+00  0.18001849441E+04  0.18001849441E+04  0.50400001928E-02 0. -1.
        1   -1    0    0  501    0  0.00000000000E+00  0.00000000000E+00 -0.80063330371E+03  0.80063330372E+03  0.50400001928E-02 0.  1.
    10030    2    1    2    0    0  0.00000000000E+00  0.00000000000E+00  0.99955164041E+03  0.26008182478E+04  0.24010731094E+04 0.  0.
        3    1    3    3  502    0 -0.15911046364E+03 -0.11122048190E+04  0.95802061594E+03  0.14765226750E+04  0.10100000352E+00 0. -1.
       -3    1    3    3    0  502  0.15911046364E+03  0.11122048190E+04  0.41531024470E+02  0.11242955729E+04  0.10100000352E+00 0.  1.
</event>
<event>
 5   0  0.8421677E-07  0.3899687E+04  0.7818609E-02  0.8025094E-01
       -2   -1    0    0    0  501  0.00000000000E+00  0.00000000000E+00  0.12763212180E+04  0.12763212180E+04  0.25500000920E-02 0. -1.
        2   -1    0    0  501    0  0.00000000000E+00  0.00000000000E+00 -0.29787873475E+04  0.29787873475E+04  0.25500000920E-02 0.  1.
    10030    2    1    2    0    0  0.00000000000E+00  0.00000000000E+00 -0.17024661294E+04  0.42551085655E+04  0.38996869082E+04 0.  0.
        3    1    3    3  502    0  0.82602178034E+02  0.18876639471E+04 -0.32590649624E+03  0.19173714693E+04  0.10100000352E+00 0. -1.
       -3    1    3    3    0  502 -0.82602178034E+02 -0.18876639471E+04 -0.13765596332E+04  0.23377370962E+04  0.10100000352E+00 0.  1.
</event>
<event>
 5   0  0.8038352E-07  0.2550800E+04  0.7818609E-02  0.8385108E-01
       -2   -1    0    0    0  501  0.00000000000E+00  0.00000000000E+00  0.16343124081E+04  0.16343124081E+04  0.25500000920E-02 0.  1.
        2   -1    0    0  501    0  0.00000000000E+00  0.00000000000E+00 -0.99530850177E+03  0.99530850177E+03  0.25500000920E-02 0. -1.
    10030    2    1    2    0    0  0.00000000000E+00  0.00000000000E+00  0.63900390632E+03  0.26296209099E+04  0.25507999015E+04 0.  0.
        2    1    3    3  502    0 -0.13486451549E+02 -0.12619968374E+04  0.12989714591E+03  0.12687360523E+04  0.25500000920E-02 0.  1.
       -2    1    3    3    0  502  0.13486451549E+02  0.12619968374E+04  0.50910676041E+03  0.13608848575E+04  0.25500000920E-02 0. -1.
</event>
<event>
 5   0  0.2529875E-07  0.3819045E+04  0.7818609E-02  0.8042080E-01
        1   -1    0    0  501    0  0.00000000000E+00  0.00000000000E+00  0.12520560989E+04  0.12520560989E+04  0.50400001928E-02 0. -1.
       -1   -1    0    0    0  501  0.00000000000E+00  0.00000000000E+00 -0.29122300042E+04  0.29122300042E+04  0.50400001928E-02 0.  1.
    10030    2    1    2    0    0  0.00000000000E+00  0.00000000000E+00 -0.16601739054E+04  0.41642861031E+04  0.38190445601E+04 0.  0.
        4    1    3    3  502    0  0.10159689160E+04 -0.12946350019E+04  0.22597040690E+03  0.16611251802E+04  0.12699999809E+01 0. -1.
       -4    1    3    3    0  502 -0.10159689160E+04  0.12946350019E+04 -0.18861443123E+04  0.25031609229E+04  0.12699999809E+01 0.  1.
</event>
<event>
 5   0  0.7649458E-07  0.3749949E+04  0.7818609E-02  0.8056982E-01
        2   -1    0    0  501    0  0.00000000000E+00  0.00000000000E+00  0.23969401934E+04  0.23969401934E+04  0.25500000920E-02 0. -1.
       -2   -1    0    0    0  501  0.00000000000E+00  0.00000000000E+00 -0.14666736174E+04  0.14666736174E+04  0.25500000920E-02 0.  1.
    10030    2    1    2    0    0  0.00000000000E+00  0.00000000000E+00  0.93026657600E+03  0.38636138107E+04  0.37499487698E+04 0.  0.
        4    1    3    3  502    0 -0.11416188701E+04  0.23406156756E+03  0.19784806746E+04  0.22961850655E+04  0.12699999809E+01 0. -1.
       -4    1    3    3    0  502  0.11416188701E+04 -0.23406156756E+03 -0.10482140986E+04  0.15674287453E+04  0.12699999809E+01 0.  1.
</event>
<event>
 5   0  0.7638805E-07  0.3825033E+04  0.7818609E-02  0.8040804E-01
       -2   -1    0    0    0  501  0.00000000000E+00  0.00000000000E+00  0.32903748331E+04  0.32903748331E+04  0.25500000920E-02 0.  1.
        2   -1    0    0  501    0  0.00000000000E+00  0.00000000000E+00 -0.11116420627E+04  0.11116420627E+04  0.25500000920E-02 0. -1.
    10030    2    1    2    0    0  0.00000000000E+00  0.00000000000E+00  0.21787327704E+04  0.44020168958E+04  0.38250328451E+04 0.  0.
        5    1    3    3  502    0  0.17524800434E+04 -0.54799478706E+03  0.17050544708E+04  0.25057369031E+04  0.46999998093E+01 0.  1.
       -5    1    3    3    0  502 -0.17524800434E+04  0.54799478706E+03  0.47367829964E+03  0.18962799927E+04  0.46999998093E+01 0. -1.
</event>
<event>
 5   0  0.2529875E-07  0.3772286E+04  0.7818609E-02  0.8052128E-01
        1   -1    0    0  501    0  0.00000000000E+00  0.00000000000E+00  0.21896495106E+04  0.21896495106E+04  0.50400001928E-02 0.  1.
       -1   -1    0    0    0  501  0.00000000000E+00  0.00000000000E+00 -0.16247055463E+04  0.16247055463E+04  0.50400001928E-02 0. -1.
    10030    2    1    2    0    0  0.00000000000E+00  0.00000000000E+00  0.56494396434E+03  0.38143550569E+04  0.37722861526E+04 0.  0.
        4    1    3    3  502    0 -0.18537574942E+04 -0.11543381038E+03  0.61445075489E+03  0.19563468903E+04  0.12699999809E+01 0.  1.
       -4    1    3    3    0  502  0.18537574942E+04  0.11543381038E+03 -0.49506790547E+02  0.18580081666E+04  0.12699999809E+01 0. -1.
</event>
<event>
 5   0  0.7551495E-07  0.3615378E+04  0.7818609E-02  0.8086978E-01
        2   -1    0    0  501    0  0.00000000000E+00  0.00000000000E+00  0.18044773065E+04  0.18044773065E+04  0.25500000920E-02 0. -1.
       -2   -1    0    0    0  501  0.00000000000E+00  0.00000000000E+00 -0.18109067605E+04  0.18109067605E+04  0.25500000920E-02 0.  1.
    10030    2    1    2    0    0  0.00000000000E+00  0.00000000000E+00 -0.64294540840E+01  0.36153840670E+04  0.36153783501E+04 0.  0.
        1    1    3    3  502    0 -0.13210290987E+04  0.22855560968E+03  0.12093813546E+04  0.18055356012E+04  0.50400001928E-02 0. -1.
       -1    1    3    3    0  502  0.13210290987E+04 -0.22855560968E+03 -0.12158108087E+04  0.18098484658E+04  0.50400001928E-02 0.  1.
</event>
<event>
 5   0  0.2529875E-07  0.3699196E+04  0.7818609E-02  0.8068140E-01
       -1   -1    0    0    0  501  0.00000000000E+00  0.00000000000E+00  0.26280800445E+04  0.26280800445E+04  0.50400001928E-02 0.  1.
        1   -1    0    0  501    0  0.00000000000E+00  0.00000000000E+00 -0.13017155791E+04  0.13017155791E+04  0.50400001928E-02 0. -1.
    10030    2    1    2    0    0  0.00000000000E+00  0.00000000000E+00  0.13263644654E+04  0.39297956236E+04  0.36991959868E+04 0.  0.
        1    1    3    3  502    0 -0.11619431594E+04 -0.44807405855E+03 -0.78959349910E+03  0.14745643972E+04  0.50400001928E-02 0. -1.
       -1    1    3    3    0  502  0.11619431594E+04  0.44807405855E+03  0.21159579645E+04  0.24552312264E+04  0.50400001928E-02 0.  1.
</event>
<event>
 5   0  0.7551495E-07  0.3349683E+04  0.7818609E-02  0.8150367E-01
        2   -1    0    0  501    0  0.00000000000E+00  0.00000000000E+00  0.23415638029E+04  0.23415638029E+04  0.25500000920E-02 0. -1.
       -2   -1    0    0    0  501  0.00000000000E+00  0.00000000000E+00 -0.11979573099E+04  0.11979573099E+04  0.25500000920E-02 0.  1.
    10030    2    1    2    0    0  0.00000000000E+00  0.00000000000E+00  0.11436064929E+04  0.35395211128E+04  0.33496826562E+04 0.  0.
        1    1    3    3  502    0  0.14806014128E+03  0.96801514870E+02  0.23316647989E+04  0.23383654704E+04  0.50400001928E-02 0. -1.
       -1    1    3    3    0  502 -0.14806014128E+03 -0.96801514870E+02 -0.11880583060E+04  0.12011556424E+04  0.50400001928E-02 0.  1.
</event>
<event>
 5   0  0.2529875E-07  0.2526410E+04  0.7818609E-02  0.8393637E-01
       -1   -1    0    0    0  501  0.00000000000E+00  0.00000000000E+00  0.13492897613E+04  0.13492897614E+04  0.50400001928E-02 0. -1.
        1   -1    0    0  501    0  0.00000000000E+00  0.00000000000E+00 -0.11826126263E+04  0.11826126263E+04  0.50400001928E-02 0.  1.
    10030    2    1    2    0    0  0.00000000000E+00  0.00000000000E+00  0.16667713508E+03  0.25319023876E+04  0.25264101870E+04 0.  0.
        4    1    3    3  502    0 -0.58221992285E+03  0.39069709834E+03  0.11363659756E+04  0.13352728203E+04  0.12699999809E+01 0. -1.
       -4    1    3    3    0  502  0.58221992285E+03 -0.39069709834E+03 -0.96968884049E+03  0.11966295674E+04  0.12699999809E+01 0.  1.
</event>
<event>
 5   0  0.8038352E-07  0.2608791E+04  0.7818609E-02  0.8365221E-01
        2   -1    0    0  501    0  0.00000000000E+00  0.00000000000E+00  0.15962339845E+04  0.15962339845E+04  0.25500000920E-02 0. -1.
       -2   -1    0    0    0  501  0.00000000000E+00  0.00000000000E+00 -0.10659135449E+04  0.10659135449E+04  0.25500000920E-02 0.  1.
    10030    2    1    2    0    0  0.00000000000E+00  0.00000000000E+00  0.53032043966E+03  0.26621475294E+04  0.26087908501E+04 0.  0.
        2    1    3    3  502    0  0.22592133017E+03  0.59559474369E+03 -0.89639726689E+03  0.10996825025E+04  0.25500000920E-02 0.  1.
       -2    1    3    3    0  502 -0.22592133017E+03 -0.59559474369E+03  0.14267177066E+04  0.15624650269E+04  0.25500000920E-02 0. -1.
</event>
<event>
 5   0  0.8038352E-07  0.3772283E+04  0.7818609E-02  0.8052129E-01
        2   -1    0    0  501    0  0.00000000000E+00  0.00000000000E+00  0.10116874107E+04  0.10116874107E+04  0.25500000920E-02 0.  1.
       -2   -1    0    0    0  501  0.00000000000E+00  0.00000000000E+00 -0.35164326809E+04  0.35164326809E+04  0.25500000920E-02 0. -1.
    10030    2    1    2    0    0  0.00000000000E+00  0.00000000000E+00 -0.25047452702E+04  0.45281200916E+04  0.37722834856E+04 0.  0.
        2    1    3    3  502    0 -0.16077833170E+04 -0.24307569323E+03 -0.23996345738E+04  0.28986719502E+04  0.25500000920E-02 0.  1.
       -2    1    3    3    0  502  0.16077833170E+04  0.24307569323E+03 -0.10511069645E+03  0.16294481415E+04  0.25500000920E-02 0. -1.
</event>
<event>
 5   0  0.2529875E-07  0.3778680E+04  0.7818609E-02  0.8050746E-01
       -1   -1    0    0    0  501  0.00000000000E+00  0.00000000000E+00  0.13373787964E+04  0.13373787964E+04  0.50400001928E-02 0.  1.
        1   -1    0    0  501    0  0.00000000000E+00  0.00000000000E+00 -0.26691065613E+04  0.26691065613E+04  0.50400001928E-02 0. -1.
    10030    2    1    2    0    0  0.00000000000E+00  0.00000000000E+00 -0.13317277649E+04  0.40064853577E+04  0.37786804683E+04 0.  0.
        4    1    3    3  502    0 -0.23044585869E+03  0.12890319330E+04  0.77818936430E+03  0.15232494601E+04  0.12699999809E+01 0.  1.
       -4    1    3    3    0  502  0.23044585869E+03 -0.12890319330E+04 -0.21099171292E+04  0.24832358976E+04  0.12699999809E+01 0. -1.
</event>
<event>
 5   0  0.2529875E-07  0.3765289E+04  0.7818609E-02  0.8053645E-01
        1   -1    0    0  501    0  0.00000000000E+00  0.00000000000E+00  0.18905019444E+04  0.18905019444E+04  0.50400001928E-02 0.  1.
       -1   -1    0    0    0  501  0.00000000000E+00  0.00000000000E+00 -0.18748194166E+04  0.18748194166E+04  0.50400001928E-02 0. -1.
    10030    2    1    2    0    0  0.00000000000E+00  0.00000000000E+00  0.15682527760E+02  0.37653213610E+04  0.37652887021E+04 0.  0.
        5    1    3    3  502    0  0.14611192407E+04  0.50009430839E+03 -0.10689056988E+04  0.18781760396E+04  0.46999998093E+01 0. -1.
       -5    1    3    3    0  502 -0.14611192407E+04 -0.50009430839E+03  0.10845882265E+04  0.18871453214E+04  0.46999998093E+01 0.  1.
</event>
<event>
 5   0  0.2907071E-07  0.3837108E+04  0.7818609E-02  0.8038238E-01
       -1   -1    0    0    0  501  0.00000000000E+00  0.00000000000E+00  0.19445547182E+04  0.19445547182E+04  0.50400001928E-02 0. -1.
        1   -1    0    0  501    0  0.00000000000E+00  0.00000000000E+00 -0.18929006051E+04  0.18929006051E+04  0.50400001928E-02 0.  1.
    10030    2    1    2    0    0  0.00000000000E+00  0.00000000000E+00  0.51654113089E+02  0.38374553234E+04  0.38371076622E+04 0.  0.
        2    1    3    3  502    0  0.38635382023E+03 -0.27027838489E+03  0.18857076633E+04  0.19437626067E+04  0.25500000920E-02 0. -1.
       -2    1    3    3    0  502 -0.38635382023E+03  0.27027838489E+03 -0.18340535503E+04  0.18936927166E+04  0.25500000920E-02 0.  1.
</event>
<event>
 5   0  0.8421677E-07  0.3773058E+04  0.7818609E-02  0.8051961E-01
       -2   -1    0    0    0  501  0.00000000000E+00  0.00000000000E+00  0.15647328529E+04  0.15647328529E+04  0.25500000920E-02 0.  1.
        2   -1    0    0  501    0  0.00000000000E+00  0.00000000000E+00 -0.22745045954E+04  0.22745045954E+04  0.25500000920E-02 0. -1.
    10030    2    1    2    0    0  0.00000000000E+00  0.00000000000E+00 -0.70977174252E+03  0.38392374484E+04  0.37730582103E+04 0.  0.
        3    1    3    3  502    0 -0.13850523222E+04  0.63198628752E+03  0.77875384910E+03  0.17100392307E+04  0.10100000352E+00 0.  1.
       -3    1    3    3    0  502  0.13850523222E+04 -0.63198628752E+03 -0.14885255916E+04  0.21291982177E+04  0.10100000352E+00 0. -1.
</event>
<event>
 5   0  0.2907071E-07  0.3215635E+04  0.7818609E-02  0.8184700E-01
       -1   -1    0    0    0  501  0.00000000000E+00  0.00000000000E+00  0.10127348469E+04  0.10127348469E+04  0.50400001928E-02 0. -1.
        1   -1    0    0  501    0  0.00000000000E+00  0.00000000000E+00 -0.25525701056E+04  0.25525701056E+04  0.50400001928E-02 0.  1.
    10030    2    1    2    0    0  0.00000000000E+00  0.00000000000E+00 -0.15398352587E+04  0.35653049525E+04  0.32156347399E+04 0.  0.
        2    1    3    3  502    0 -0.38283282333E+03  0.12557688299E+04 -0.17990537650E+04  0.22271306145E+04  0.25500000920E-02 0.  1.
       -2    1    3    3    0  502  0.38283282333E+03 -0.12557688299E+04  0.25921850632E+03  0.13381743380E+04  0.25500000920E-02 0. -1.
</event>
<event>
 5   0  0.2529875E-07  0.3778187E+04  0.7818609E-02  0.8050852E-01
       -1   -1    0    0    0  501  0.00000000000E+00  0.00000000000E+00  0.17755367660E+04  0.17755367660E+04  0.50400001928E-02 0. -1.
        1   -1    0    0  501    0  0.00000000000E+00  0.00000000000E+00 -0.20099132014E+04  0.20099132015E+04  0.50400001928E-02 0.  1.
    10030    2    1    2    0    0  0.00000000000E+00  0.00000000000E+00 -0.23437643548E+03  0.37854499674E+04  0.37781872826E+04 0.  0.
        1    1    3    3  502    0  0.33727551546E+03 -0.16267154656E+04 -0.10182037191E+04  0.19485114301E+04  0.50400001928E-02 0.  1.
       -1    1    3    3    0  502 -0.33727551546E+03  0.16267154656E+04  0.78382728365E+03  0.18369385374E+04  0.50400001928E-02 0. -1.
</event>
<event>
 5   0  0.7551495E-07  0.3790436E+04  0.7818609E-02  0.8048210E-01
        2   -1    0    0  501    0  0.00000000000E+00  0.00000000000E+00  0.24114914806E+04  0.24114914806E+04  0.25500000920E-02 0. -1.
       -2   -1    0    0    0  501  0.00000000000E+00  0.00000000000E+00 -0.14894729798E+04  0.14894729798E+04  0.25500000920E-02 0.  1.
    10030    2    1    2    0    0  0.00000000000E+00  0.00000000000E+00  0.92201850074E+03  0.39009644604E+04  0.37904360706E+04 0.  0.
        1    1    3    3  502    0 -0.18753127644E+03 -0.18855769117E+04  0.42414389184E+03  0.19417688612E+04  0.50400001928E-02 0. -1.
       -1    1    3    3    0  502  0.18753127644E+03  0.18855769117E+04  0.49787460890E+03  0.19591955991E+04  0.50400001928E-02 0.  1.
</event>
<event>
 5   0  0.2529875E-07  0.3767860E+04  0.7818609E-02  0.8053087E-01
        3   -1    0    0  501    0  0.00000000000E+00  0.00000000000E+00  0.15882829211E+04  0.15882829243E+04  0.10100000352E+00 0.  1.
       -3   -1    0    0    0  501  0.00000000000E+00  0.00000000000E+00 -0.22346095704E+04  0.22346095727E+04  0.10100000352E+00 0. -1.
    10030    2    1    2    0    0  0.00000000000E+00  0.00000000000E+00 -0.64632664930E+03  0.38228924970E+04  0.37678599903E+04 0.  0.
        4    1    3    3  502    0  0.92426373519E+02 -0.31465592342E+03 -0.22054251135E+04  0.22296754313E+04  0.12699999809E+01 0. -1.
       -4    1    3    3    0  502 -0.92426373519E+02  0.31465592342E+03  0.15590984642E+04  0.15932170658E+04  0.12699999809E+01 0.  1.
</event>
<event>
 5   0  0.3103516E-07  0.2468310E+04  0.7818609E-02  0.8414363E-01
       -1   -1    0    0    0  501  0.00000000000E+00  0.00000000000E+00  0.10802920496E+04  0.10802920496E+04  0.50400001928E-02 0.  1.
        1   -1    0    0  501    0  0.00000000000E+00  0.00000000000E+00 -0.14099320645E+04  0.14099320646E+04  0.50400001928E-02 0. -1.
    10030    2    1    2    0    0  0.00000000000E+00  0.00000000000E+00 -0.32964001494E+03  0.24902241142E+04  0.24683098670E+04 0.  0.
        5    1    3    3  502    0  0.10413540611E+04 -0.65402299973E+03 -0.59239344537E+02  0.12311359611E+04  0.46999998093E+01 0.  1.
       -5    1    3    3    0  502 -0.10413540611E+04  0.65402299973E+03 -0.27040067040E+03  0.12590881531E+04  0.46999998093E+01 0. -1.
</event>
<event>
 5   0  0.8038352E-07  0.3819671E+04  0.7818609E-02  0.8041947E-01
       -2   -1    0    0    0  501  0.00000000000E+00  0.00000000000E+00  0.14124483116E+04  0.14124483116E+04  0.25500000920E-02 0. -1.
        2   -1    0    0  501    0  0.00000000000E+00  0.00000000000E+00 -0.25823747960E+04  0.25823747960E+04  0.25500000920E-02 0.  1.
    10030    2    1    2    0    0  0.00000000000E+00  0.00000000000E+00 -0.11699264844E+04  0.39948231077E+04  0.38196706249E+04 0.  0.
        2    1    3    3  502    0 -0.14789983639E+04 -0.45351265532E+03 -0.17563030836E+04  0.23404508989E+04  0.25500000920E-02 0.  1.
       -2    1    3    3    0  502  0.14789983639E+04  0.45351265532E+03  0.58637659920E+03  0.16543722087E+04  0.25500000920E-02 0. -1.
</event>
<event>
 5   0  0.8038352E-07  0.3817267E+04  0.7818609E-02  0.8042459E-01
        2   -1    0    0  501    0  0.00000000000E+00  0.00000000000E+00  0.14347218744E+04  0.14347218744E+04  0.25500000920E-02 0. -1.
       -2   -1    0    0    0  501  0.00000000000E+00  0.00000000000E+00 -0.25390863421E+04  0.25390863421E+04  0.25500000920E-02 0.  1.
    10030    2    1    2    0    0  0.00000000000E+00  0.00000000000E+00 -0.11043644677E+04  0.39738082165E+04  0.38172674604E+04 0.  0.
        2    1    3    3  502    0 -0.77082610984E+03 -0.11411679572E+04 -0.19279078822E+04  0.23692332094E+04  0.25500000920E-02 0.  1.
       -2    1    3    3    0  502  0.77082610984E+03  0.11411679572E+04  0.82354341452E+03  0.16045750072E+04  0.25500000920E-02 0. -1.
</event>
<event>
 5   0  0.2529875E-07  0.3003065E+04  0.7818609E-02  0.8242856E-01
        1   -1    0    0  501    0  0.00000000000E+00  0.00000000000E+00  0.12421195376E+04  0.12421195376E+04  0.50400001928E-02 0. -1.
       -1   -1    0    0    0  501  0.00000000000E+00  0.00000000000E+00 -0.18151229156E+04  0.18151229156E+04  0.50400001928E-02 0.  1.
    10030    2    1    2    0    0  0.00000000000E+00  0.00000000000E+00 -0.57300337795E+03  0.30572424532E+04  0.30030648588E+04 0.  0.
        3    1    3    3  502    0 -0.13342247000E+04  0.69075144811E+02  0.41118884164E+03  0.13978566448E+04  0.10100000352E+00 0. -1.
       -3    1    3    3    0  502  0.13342247000E+04 -0.69075144811E+02 -0.98419221958E+03  0.16593858084E+04  0.10100000352E+00 0.  1.
</event>
<event>
 5   0  0.7638805E-07  0.3795209E+04  0.7818609E-02  0.8047184E-01
        2   -1    0    0  501    0  0.00000000000E+00  0.00000000000E+00  0.20270752500E+04  0.20270752500E+04  0.25500000920E-02 0.  1.
       -2   -1    0    0    0  501  0.00000000000E+00  0.00000000000E+00 -0.17764030893E+04  0.17764030893E+04  0.25500000920E-02 0. -1.
    10030    2    1    2    0    0  0.00000000000E+00  0.00000000000E+00  0.25067216075E+03  0.38034783393E+04  0.37952089462E+04 0.  0.
        5    1    3    3  502    0  0.57850519489E+03  0.17725464795E+04 -0.22798189487E+03  0.18784533843E+04  0.46999998093E+01 0. -1.
       -5    1    3    3    0  502 -0.57850519489E+03 -0.17725464795E+04  0.47865405562E+03  0.19250249550E+04  0.46999998093E+01 0.  1.
</event>
<event>
 5   0  0.2529875E-07  0.3811261E+04  0.7818609E-02  0.8043743E-01
        1   -1    0    0  501    0  0.00000000000E+00  0.00000000000E+00  0.24263550217E+04  0.24263550218E+04  0.50400001928E-02 0. -1.
       -1   -1    0    0    0  501  0.00000000000E+00  0.00000000000E+00 -0.14966596035E+04  0.14966596035E+04  0.50400001928E-02 0.  1.
    10030    2    1    2    0    0  0.00000000000E+00  0.00000000000E+00  0.92969541824E+03  0.39230146253E+04  0.38112609697E+04 0.  0.
        4    1    3    3  502    0 -0.73738211773E+03  0.96638915736E+03  0.19754581023E+04  0.23194992386E+04  0.12699999809E+01 0. -1.
       -4    1    3    3    0  502  0.73738211773E+03 -0.96638915736E+03 -0.10457626841E+04  0.16035153867E+04  0.12699999809E+01 0.  1.
</event>
<event>
 5   0  0.8038352E-07  0.3845141E+04  0.7818609E-02  0.8036536E-01
        2   -1    0    0  501    0  0.00000000000E+00  0.00000000000E+00  0.16574762103E+04  0.16574762104E+04  0.25500000920E-02 0.  1.
       -2   -1    0    0    0  501  0.00000000000E+00  0.00000000000E+00 -0.22300641192E+04  0.22300641192E+04  0.25500000920E-02 0. -1.
    10030    2    1    2    0    0  0.00000000000E+00  0.00000000000E+00 -0.57258790882E+03  0.38875403295E+04  0.38451414669E+04 0.  0.
        2    1    3    3  502    0 -0.65040330915E+03 -0.27898759288E+03 -0.20935785126E+04  0.22099614318E+04  0.25500000920E-02 0. -1.
       -2    1    3    3    0  502  0.65040330915E+03  0.27898759288E+03  0.15209906038E+04  0.16775788978E+04  0.25500000920E-02 0.  1.
</event>
<event>
 5   0  0.2529875E-07  0.3787398E+04  0.7818609E-02  0.8048865E-01
        1   -1    0    0  501    0  0.00000000000E+00  0.00000000000E+00  0.19052096876E+04  0.19052096877E+04  0.50400001928E-02 0.  1.
       -1   -1    0    0    0  501  0.00000000000E+00  0.00000000000E+00 -0.18822580997E+04  0.18822580997E+04  0.50400001928E-02 0. -1.
    10030    2    1    2    0    0  0.00000000000E+00  0.00000000000E+00  0.22951587926E+02  0.37874677874E+04  0.37873982448E+04 0.  0.
        5    1    3    3  502    0  0.16103670822E+04 -0.98435739021E+03  0.16585694647E+03  0.18946694244E+04  0.46999998093E+01 0. -1.
       -5    1    3    3    0  502 -0.16103670822E+04  0.98435739021E+03 -0.14290535855E+03  0.18927983629E+04  0.46999998093E+01 0.  1.
</event>
<event>
 5   0  0.2529875E-07  0.3765052E+04  0.7818609E-02  0.8053696E-01
       -3   -1    0    0    0  501  0.00000000000E+00  0.00000000000E+00  0.24525378084E+04  0.24525378105E+04  0.10100000352E+00 0.  1.
        3   -1    0    0  501    0  0.00000000000E+00  0.00000000000E+00 -0.14449949492E+04  0.14449949528E+04  0.10100000352E+00 0. -1.
    10030    2    1    2    0    0  0.00000000000E+00  0.00000000000E+00  0.10075428591E+04  0.38975327632E+04  0.37650523273E+04 0.  0.
        1    1    3    3  502    0  0.51871112922E+03  0.33168153404E+03  0.23453659410E+04  0.24248330402E+04  0.50400001928E-02 0.  1.
       -1    1    3    3    0  502 -0.51871112922E+03 -0.33168153404E+03 -0.13378230819E+04  0.14726997230E+04  0.50400001928E-02 0. -1.
</event>
<event>
 5   0  0.2907071E-07  0.3763676E+04  0.7818609E-02  0.8053995E-01
       -1   -1    0    0    0  501  0.00000000000E+00  0.00000000000E+00  0.15126210178E+04  0.15126210178E+04  0.50400001928E-02 0.  1.
        1   -1    0    0  501    0  0.00000000000E+00  0.00000000000E+00 -0.23411777666E+04  0.23411777666E+04  0.50400001928E-02 0. -1.
    10030    2    1    2    0    0  0.00000000000E+00  0.00000000000E+00 -0.82855674874E+03  0.38537987844E+04  0.37636762327E+04 0.  0.
        2    1    3    3  502    0  0.51991362982E+03 -0.92217372366E+03  0.11788042677E+04  0.15843907538E+04  0.25500000920E-02 0.  1.
       -2    1    3    3    0  502 -0.51991362982E+03  0.92217372366E+03 -0.20073610164E+04  0.22694080306E+04  0.25500000920E-02 0. -1.
</event>
<event>
 5   0  0.2529875E-07  0.3809897E+04  0.7818609E-02  0.8044034E-01
       -1   -1    0    0    0  501  0.00000000000E+00  0.00000000000E+00  0.16765065131E+04  0.16765065132E+04  0.50400001928E-02 0. -1.
        1   -1    0    0  501    0  0.00000000000E+00  0.00000000000E+00 -0.21645179101E+04  0.21645179101E+04  0.50400001928E-02 0.  1.
    10030    2    1    2    0    0  0.00000000000E+00  0.00000000000E+00 -0.48801139692E+03  0.38410244232E+04  0.38098967829E+04 0.  0.
        5    1    3    3  502    0 -0.27562858497E+03  0.41645067456E+03  0.16093292516E+04  0.16850415459E+04  0.46999998093E+01 0. -1.
       -5    1    3    3    0  502  0.27562858497E+03 -0.41645067456E+03 -0.20973406486E+04  0.21559828773E+04  0.46999998093E+01 0.  1.
</event>
<event>
 5   0  0.8038352E-07  0.3796170E+04  0.7818609E-02  0.8046977E-01
       -2   -1    0    0    0  501  0.00000000000E+00  0.00000000000E+00  0.16055941814E+04  0.16055941814E+04  0.25500000920E-02 0.  1.
        2   -1    0    0  501    0  0.00000000000E+00  0.00000000000E+00 -0.22438587528E+04  0.22438587528E+04  0.25500000920E-02 0. -1.
    10030    2    1    2    0    0  0.00000000000E+00  0.00000000000E+00 -0.63826457142E+03  0.38494529342E+04  0.37961699421E+04 0.  0.
        2    1    3    3  502    0  0.85864054905E+03  0.79677282848E+03 -0.18336200774E+04  0.21758384868E+04  0.25500000920E-02 0. -1.
       -2    1    3    3    0  502 -0.85864054905E+03 -0.79677282848E+03  0.11953555060E+04  0.16736144473E+04  0.25500000920E-02 0.  1.
</event>
<event>
 5   0  0.8038352E-07  0.3765253E+04  0.7818609E-02  0.8053653E-01
       -2   -1    0    0    0  501  0.00000000000E+00  0.00000000000E+00  0.26977624234E+04  0.26977624234E+04  0.25500000920E-02 0. -1.
        2   -1    0    0  501    0  0.00000000000E+00  0.00000000000E+00 -0.13137857820E+04  0.13137857820E+04  0.25500000920E-02 0.  1.
    10030    2    1    2    0    0  0.00000000000E+00  0.00000000000E+00  0.13839766414E+04  0.40115482054E+04  0.37652526689E+04 0.  0.
        2    1    3    3  502    0  0.10959901048E+04  0.11778744009E+04 -0.34955795414E+03  0.16464425824E+04  0.25500000920E-02 0.  1.
       -2    1    3    3    0  502 -0.10959901048E+04 -0.11778744009E+04  0.17335345955E+04  0.23651056230E+04  0.25500000920E-02 0. -1.
</event>
<event>
 5   0  0.2529875E-07  0.3730775E+04  0.7818609E-02  0.8061176E-01
       -1   -1    0    0    0  501  0.00000000000E+00  0.00000000000E+00  0.15415563327E+04  0.15415563327E+04  0.50400001928E-02 0.  1.
        1   -1    0    0  501    0  0.00000000000E+00  0.00000000000E+00 -0.22572456626E+04  0.22572456626E+04  0.50400001928E-02 0. -1.
    10030    2    1    2    0    0  0.00000000000E+00  0.00000000000E+00 -0.71568932989E+03  0.37988019954E+04  0.37307754399E+04 0.  0.
        4    1    3    3  502    0 -0.27357634459E+03 -0.13644133948E+04 -0.16227525785E+04  0.21377079950E+04  0.12699999809E+01 0. -1.
       -4    1    3    3    0  502  0.27357634459E+03  0.13644133948E+04  0.90706324856E+03  0.16610940003E+04  0.12699999809E+01 0.  1.
</event>
<event>
 5   0  0.7649458E-07  0.3978946E+04  0.7818609E-02  0.8008807E-01
        2   -1    0    0  501    0  0.00000000000E+00  0.00000000000E+00  0.23617986014E+04  0.23617986014E+04  0.25500000920E-02 0.  1.
       -2   -1    0    0    0  501  0.00000000000E+00  0.00000000000E+00 -0.16758428092E+04  0.16758428092E+04  0.25500000920E-02 0. -1.
    10030    2    1    2    0    0  0.00000000000E+00  0.00000000000E+00  0.68595579215E+03  0.40376414106E+04  0.39789461936E+04 0.  0.
        4    1    3    3  502    0 -0.15785819914E+04  0.88681742905E+03  0.11795389736E+04  0.21609442518E+04  0.12699999809E+01 0.  1.
       -4    1    3    3    0  502  0.15785819914E+04 -0.88681742905E+03 -0.49358318150E+03  0.18766971588E+04  0.12699999809E+01 0. -1.
</event>
<event>
 5   0  0.2529875E-07  0.3158651E+04  0.7818609E-02  0.8199824E-01
       -3   -1    0    0    0  501  0.00000000000E+00  0.00000000000E+00  0.18279751748E+04  0.18279751776E+04  0.10100000352E+00 0. -1.
        3   -1    0    0  501    0  0.00000000000E+00  0.00000000000E+00 -0.13644981290E+04  0.13644981328E+04  0.10100000352E+00 0.  1.
    10030    2    1    2    0    0  0.00000000000E+00  0.00000000000E+00  0.46347704581E+03  0.31924733104E+04  0.31586507983E+04 0.  0.
        1    1    3    3  502    0 -0.10819787442E+04 -0.11252535517E+04 -0.10399664637E+02  0.15610835056E+04  0.50400001928E-02 0.  1.
       -1    1    3    3    0  502  0.10819787442E+04  0.11252535517E+04  0.47387671045E+03  0.16313898048E+04  0.50400001928E-02 0. -1.
</event>
<event>
 5   0  0.2529875E-07  0.2863677E+04  0.7818609E-02  0.8283767E-01
        1   -1    0    0  501    0  0.00000000000E+00  0.00000000000E+00  0.16221823436E+04  0.16221823436E+04  0.50400001928E-02 0. -1.
       -1   -1    0    0    0  501  0.00000000000E+00  0.00000000000E+00 -0.12638293484E+04  0.12638293484E+04  0.50400001928E-02 0.  1.
    10030    2    1    2    0    0  0.00000000000E+00  0.00000000000E+00  0.35835299525E+03  0.28860116920E+04  0.28636771147E+04 0.  0.
        3    1    3    3  502    0  0.20193614399E+02  0.11217277023E+04  0.10757672104E+04  0.15543345590E+04  0.10100000352E+00 0. -1.
       -3    1    3    3    0  502 -0.20193614399E+02 -0.11217277023E+04 -0.71741421520E+03  0.13316771330E+04  0.10100000352E+00 0.  1.
</event>
<event>
 5   0  0.8038352E-07  0.3825138E+04  0.7818609E-02  0.8040782E-01
        2   -1    0    0  501    0  0.00000000000E+00  0.00000000000E+00  0.23097230361E+04  0.23097230361E+04  0.25500000920E-02 0.  1.
       -2   -1    0    0    0  501  0.00000000000E+00  0.00000000000E+00 -0.15837048189E+04  0.15837048189E+04  0.25500000920E-02 0. -1.
    10030    2    1    2    0    0  0.00000000000E+00  0.00000000000E+00  0.72601821717E+03  0.38934278550E+04  0.38251376459E+04 0.  0.
        2    1    3    3  502    0  0.34863912867E+03 -0.13832679406E+04 -0.93368131902E+03  0.17049164915E+04  0.25500000920E-02 0. -1.
       -2    1    3    3    0  502 -0.34863912867E+03  0.13832679406E+04  0.16596995362E+04  0.21885113635E+04  0.25500000920E-02 0.  1.
</event>
<event>
 5   0  0.2529875E-07  0.3814505E+04  0.7818609E-02  0.8043049E-01
       -1   -1    0    0    0  501  0.00000000000E+00  0.00000000000E+00  0.30109515392E+04  0.30109515392E+04  0.50400001928E-02 0. -1.
        1   -1    0    0  501    0  0.00000000000E+00  0.00000000000E+00 -0.12081271220E+04  0.12081271220E+04  0.50400001928E-02 0.  1.
    10030    2    1    2    0    0  0.00000000000E+00  0.00000000000E+00  0.18028244172E+04  0.42190786611E+04  0.38145050622E+04 0.  0.
        1    1    3    3  502    0 -0.19483742133E+03  0.45313595712E+03 -0.11363603810E+04  0.12387932563E+04  0.50400001928E-02 0.  1.
       -1    1    3    3    0  502  0.19483742133E+03 -0.45313595712E+03  0.29391847982E+04  0.29802854048E+04  0.50400001928E-02 0. -1.
</event>
<event>
 5   0  0.8038352E-07  0.3474595E+04  0.7818609E-02  0.8119837E-01
       -2   -1    0    0    0  501  0.00000000000E+00  0.00000000000E+00  0.16549609804E+04  0.16549609804E+04  0.25500000920E-02 0.  1.
        2   -1    0    0  501    0  0.00000000000E+00  0.00000000000E+00 -0.18237308431E+04  0.18237308431E+04  0.25500000920E-02 0. -1.
    10030    2    1    2    0    0  0.00000000000E+00  0.00000000000E+00 -0.16876986267E+03  0.34786918235E+04  0.34745954493E+04 0.  0.
        2    1    3    3  502    0 -0.13378476121E+04  0.64686505846E+03 -0.98540857870E+03  0.17830593664E+04  0.25500000920E-02 0. -1.
       -2    1    3    3    0  502  0.13378476121E+04 -0.64686505846E+03  0.81663871603E+03  0.16956324571E+04  0.25500000920E-02 0.  1.
</event>
<event>
 5   0  0.8038352E-07  0.3758521E+04  0.7818609E-02  0.8055115E-01
        2   -1    0    0  501    0  0.00000000000E+00  0.00000000000E+00  0.25490913575E+04  0.25490913575E+04  0.25500000920E-02 0.  1.
       -2   -1    0    0    0  501  0.00000000000E+00  0.00000000000E+00 -0.13854424016E+04  0.13854424016E+04  0.25500000920E-02 0. -1.
    10030    2    1    2    0    0  0.00000000000E+00  0.00000000000E+00  0.11636489559E+04  0.39345337590E+04  0.37585205877E+04 0.  0.
        2    1    3    3  502    0 -0.18792117768E+03 -0.12990156451E+04 -0.82609951069E+03  0.15508695680E+04  0.25500000920E-02 0.  1.
       -2    1    3    3    0  502  0.18792117768E+03  0.12990156451E+04  0.19897484666E+04  0.23836641911E+04  0.25500000920E-02 0. -1.
</event>
<event>
 5   0  0.2529875E-07  0.3724839E+04  0.7818609E-02  0.8062479E-01
       -1   -1    0    0    0  501  0.00000000000E+00  0.00000000000E+00  0.13603037355E+04  0.13603037355E+04  0.50400001928E-02 0. -1.
        1   -1    0    0  501    0  0.00000000000E+00  0.00000000000E+00 -0.25498758702E+04  0.25498758702E+04  0.50400001928E-02 0.  1.
    10030    2    1    2    0    0  0.00000000000E+00  0.00000000000E+00 -0.11895721348E+04  0.39101796057E+04  0.37248386120E+04 0.  0.
        3    1    3    3  502    0 -0.64097249387E+03 -0.53288641900E+03 -0.23431272609E+04  0.24869778938E+04  0.10100000352E+00 0.  1.
       -3    1    3    3    0  502  0.64097249387E+03  0.53288641900E+03  0.11535551261E+04  0.14232017119E+04  0.10100000352E+00 0. -1.
</event>
<event>
 5   0  0.2529875E-07  0.2766024E+04  0.7818609E-02  0.8313895E-01
        1   -1    0    0  501    0  0.00000000000E+00  0.00000000000E+00  0.18408806682E+04  0.18408806682E+04  0.50400001928E-02 0.  1.
       -1   -1    0    0    0  501  0.00000000000E+00  0.00000000000E+00 -0.10390255103E+04  0.10390255104E+04  0.50400001928E-02 0. -1.
    10030    2    1    2    0    0  0.00000000000E+00  0.00000000000E+00  0.80185515788E+03  0.28799061786E+04  0.27660238436E+04 0.  0.
        1    1    3    3  502    0  0.18833150961E+03 -0.13552540251E+04  0.61056216240E+03  0.14983218560E+04  0.50400001928E-02 0.  1.
       -1    1    3    3    0  502 -0.18833150961E+03  0.13552540251E+04  0.19129299548E+03  0.13815843225E+04  0.50400001928E-02 0. -1.
</event>
<event>
 5   0  0.2529875E-07  0.3789150E+04  0.7818609E-02  0.8048487E-01
       -1   -1    0    0    0  501  0.00000000000E+00  0.00000000000E+00  0.11173358372E+04  0.11173358372E+04  0.50400001928E-02 0.  1.
        1   -1    0    0  501    0  0.00000000000E+00  0.00000000000E+00 -0.32124765563E+04  0.32124765563E+04  0.50400001928E-02 0. -1.
    10030    2    1    2    0    0  0.00000000000E+00  0.00000000000E+00 -0.20951407191E+04  0.43298123935E+04  0.37891503968E+04 0.  0.
        3    1    3    3  502    0 -0.11951815590E+04  0.72279353998E+03  0.41512494145E+03  0.14571266889E+04  0.10100000352E+00 0. -1.
       -3    1    3    3    0  502  0.11951815590E+04 -0.72279353998E+03 -0.25102656605E+04  0.28726857045E+04  0.10100000352E+00 0.  1.
</event>
<event>
 5   0  0.2529875E-07  0.3787741E+04  0.7818609E-02  0.8048791E-01
       -3   -1    0    0    0  501  0.00000000000E+00  0.00000000000E+00  0.20802927838E+04  0.20802927862E+04  0.10100000352E+00 0. -1.
        3   -1    0    0  501    0  0.00000000000E+00  0.00000000000E+00 -0.17241544778E+04  0.17241544807E+04  0.10100000352E+00 0.  1.
    10030    2    1    2    0    0  0.00000000000E+00  0.00000000000E+00  0.35613830600E+03  0.38044472670E+04  0.37877413473E+04 0.  0.
        5    1    3    3  502    0  0.47718486286E+03 -0.77377010538E+03 -0.14906731528E+04  0.17460109129E+04  0.46999998093E+01 0.  1.
       -5    1    3    3    0  502 -0.47718486286E+03  0.77377010538E+03  0.18468114588E+04  0.20584363541E+04  0.46999998093E+01 0. -1.
</event>
<event>
 5   0  0.2529875E-07  0.2831623E+04  0.7818609E-02  0.8293518E-01
        1   -1    0    0  501    0  0.00000000000E+00  0.00000000000E+00  0.98050845695E+03  0.98050845696E+03  0.50400001928E-02 0.  1.
       -1   -1    0    0    0  501  0.00000000000E+00  0.00000000000E+00 -0.20443694352E+04  0.20443694353E+04  0.50400001928E-02 0. -1.
    10030    2    1    2    0    0  0.00000000000E+00  0.00000000000E+00 -0.10638609783E+04  0.30248778922E+04  0.28316225175E+04 0.  0.
        4    1    3    3  502    0 -0.71047568700E+03 -0.29638607689E+03  0.73739903775E+03  0.10660109578E+04  0.12699999809E+01 0.  1.
       -4    1    3    3    0  502  0.71047568700E+03  0.29638607689E+03 -0.18012600161E+04  0.19588669344E+04  0.12699999809E+01 0. -1.
</event>
<event>
 5   0  0.2529875E-07  0.2388142E+04  0.7818609E-02  0.8443956E-01
       -1   -1    0    0    0  501  0.00000000000E+00  0.00000000000E+00  0.93430643069E+03  0.93430643070E+03  0.50400001928E-02 0.  1.
        1   -1    0    0  501    0  0.00000000000E+00  0.00000000000E+00 -0.15260579775E+04  0.15260579775E+04  0.50400001928E-02 0. -1.
    10030    2    1    2    0    0  0.00000000000E+00  0.00000000000E+00 -0.59175154683E+03  0.24603644082E+04  0.23881421918E+04 0.  0.
        4    1    3    3  502    0 -0.11119512916E+04 -0.42909956262E+03 -0.22128411989E+03  0.12122418835E+04  0.12699999809E+01 0. -1.
       -4    1    3    3    0  502  0.11119512916E+04  0.42909956262E+03 -0.37046742694E+03  0.12481225247E+04  0.12699999809E+01 0.  1.
</event>
<event>
 5   0  0.7551495E-07  0.3732444E+04  0.7818609E-02  0.8060810E-01
        2   -1    0    0  501    0  0.00000000000E+00  0.00000000000E+00  0.18995163058E+04  0.18995163058E+04  0.25500000920E-02 0.  1.
       -2   -1    0    0    0  501  0.00000000000E+00  0.00000000000E+00 -0.18335110042E+04  0.18335110042E+04  0.25500000920E-02 0. -1.
    10030    2    1    2    0    0  0.00000000000E+00  0.00000000000E+00  0.66005301581E+02  0.37330273101E+04  0.37324437300E+04 0.  0.
        1    1    3    3  502    0  0.17517050466E+02  0.16362960192E+04  0.93036784540E+03  0.18823803646E+04  0.50400001928E-02 0.  1.
       -1    1    3    3    0  502 -0.17517050466E+02 -0.16362960192E+04 -0.86436254382E+03  0.18506469454E+04  0.50400001928E-02 0. -1.
</event>
<event>
 5   0  0.8421677E-07  0.3670702E+04  0.7818609E-02  0.8074486E-01
        2   -1    0    0  501    0  0.00000000000E+00  0.00000000000E+00  0.11760627092E+04  0.11760627092E+04  0.25500000920E-02 0. -1.
       -2   -1    0    0    0  501  0.00000000000E+00  0.00000000000E+00 -0.28642297542E+04  0.28642297542E+04  0.25500000920E-02 0.  1.
    10030    2    1    2    0    0  0.00000000000E+00  0.00000000000E+00 -0.16881670450E+04  0.40402924633E+04  0.36707022785E+04 0.  0.
        3    1    3    3  502    0  0.13794863513E+04  0.42607627559E+03  0.40314058841E+03  0.14990149866E+04  0.10100000352E+00 0. -1.
       -3    1    3    3    0  502 -0.13794863513E+04 -0.42607627559E+03 -0.20913076334E+04  0.25412774767E+04  0.10100000352E+00 0.  1.
</event>
<event>
 5   0  0.2529875E-07  0.2781493E+04  0.7818609E-02  0.8309037E-01
       -3   -1    0    0    0  501  0.00000000000E+00  0.00000000000E+00  0.10155878770E+04  0.10155878820E+04  0.10100000352E+00 0. -1.
        3   -1    0    0  501    0  0.00000000000E+00  0.00000000000E+00 -0.19044894257E+04  0.19044894284E+04  0.10100000352E+00 0.  1.
    10030    2    1    2    0    0  0.00000000000E+00  0.00000000000E+00 -0.88890154867E+03  0.29200773104E+04  0.27814934002E+04 0.  0.
        1    1    3    3  502    0  0.84371586540E+03 -0.87900279808E+03 -0.11484386932E+04  0.16743398140E+04  0.50400001928E-02 0.  1.
       -1    1    3    3    0  502 -0.84371586540E+03  0.87900279808E+03  0.25953714454E+03  0.12457374964E+04  0.50400001928E-02 0. -1.
</event>
<event>
 5   0  0.8038352E-07  0.3671466E+04  0.7818609E-02  0.8074315E-01
        2   -1    0    0  501    0  0.00000000000E+00  0.00000000000E+00  0.14936613162E+04  0.14936613162E+04  0.25500000920E-02 0. -1.
       -2   -1    0    0    0  501  0.00000000000E+00  0.00000000000E+00 -0.22561446730E+04  0.22561446730E+04  0.25500000920E-02 0.  1.
    10030    2    1    2    0    0  0.00000000000E+00  0.00000000000E+00 -0.76248335685E+03  0.37498059892E+04  0.36714662040E+04 0.  0.
        2    1    3    3  502    0 -0.11491417604E+04 -0.14012841740E+04 -0.82089337132E+02  0.18140735325E+04  0.25500000920E-02 0. -1.
       -2    1    3    3    0  502  0.11491417604E+04  0.14012841740E+04 -0.68039401971E+03  0.19357324567E+04  0.25500000920E-02 0.  1.
</event>
<event>
 5   0  0.7649458E-07  0.3783071E+04  0.7818609E-02  0.8049798E-01
       -2   -1    0    0    0  501  0.00000000000E+00  0.00000000000E+00  0.14576698300E+04  0.14576698300E+04  0.25500000920E-02 0.  1.
        2   -1    0    0  501    0  0.00000000000E+00  0.00000000000E+00 -0.24545382399E+04  0.24545382399E+04  0.25500000920E-02 0. -1.
    10030    2    1    2    0    0  0.00000000000E+00  0.00000000000E+00 -0.99686840984E+03  0.39122080699E+04  0.37830708896E+04 0.  0.
        4    1    3    3  502    0  0.13039288882E+04  0.41344643911E+03  0.85258234142E+03  0.16118519675E+04  0.12699999809E+01 0.  1.
       -4    1    3    3    0  502 -0.13039288882E+04 -0.41344643911E+03 -0.18494507513E+04  0.23003561024E+04  0.12699999809E+01 0. -1.
</event>
<event>
 5   0  0.2529875E-07  0.2649599E+04  0.7818609E-02  0.8351546E-01
        1   -1    0    0  501    0  0.00000000000E+00  0.00000000000E+00  0.82051424351E+03  0.82051424352E+03  0.50400001928E-02 0. -1.
       -1   -1    0    0    0  501  0.00000000000E+00  0.00000000000E+00 -0.21390167924E+04  0.21390167924E+04  0.50400001928E-02 0.  1.
    10030    2    1    2    0    0  0.00000000000E+00  0.00000000000E+00 -0.13185025489E+04  0.29595310360E+04  0.26495990227E+04 0.  0.
        4    1    3    3  502    0 -0.71586372348E+03 -0.24254355777E+03 -0.18745488293E+04  0.20211935024E+04  0.12699999809E+01 0.  1.
       -4    1    3    3    0  502  0.71586372348E+03  0.24254355777E+03  0.55604628037E+03  0.93833753352E+03  0.12699999809E+01 0. -1.
</event>
<event>
 5   0  0.7638805E-07  0.3767832E+04  0.7818609E-02  0.8053093E-01
       -2   -1    0    0    0  501  0.00000000000E+00  0.00000000000E+00  0.26711124380E+04  0.26711124381E+04  0.25500000920E-02 0. -1.
        2   -1    0    0  501    0  0.00000000000E+00  0.00000000000E+00 -0.13287121086E+04  0.13287121086E+04  0.25500000920E-02 0.  1.
    10030    2    1    2    0    0  0.00000000000E+00  0.00000000000E+00  0.13424003294E+04  0.39998245467E+04  0.37678319708E+04 0.  0.
        5    1    3    3  502    0  0.14574174253E+04 -0.10230864732E+04  0.18229138193E+02  0.17807655306E+04  0.46999998093E+01 0. -1.
       -5    1    3    3    0  502 -0.14574174253E+04  0.10230864732E+04  0.13241711912E+04  0.22190590161E+04  0.46999998093E+01 0.  1.
</event>
<event>
 5   0  0.7551495E-07  0.3632798E+04  0.7818609E-02  0.8083020E-01
       -2   -1    0    0    0  501  0.00000000000E+00  0.00000000000E+00  0.12146902784E+04  0.12146902784E+04  0.25500000920E-02 0. -1.
        2   -1    0    0  501    0  0.00000000000E+00  0.00000000000E+00 -0.27161704087E+04  0.27161704087E+04  0.25500000920E-02 0.  1.
    10030    2    1    2    0    0  0.00000000000E+00  0.00000000000E+00 -0.15014801304E+04  0.39308606871E+04  0.36327982547E+04 0.  0.
        1    1    3    3  502    0  0.62183992869E+03 -0.44880387766E+03  0.10309281300E+04  0.12848823397E+04  0.50400001928E-02 0. -1.
       -1    1    3    3    0  502 -0.62183992869E+03  0.44880387766E+03 -0.25324082604E+04  0.26459783474E+04  0.50400001928E-02 0.  1.
</event>
<event>
 5   0  0.2529875E-07  0.3687942E+04  0.7818609E-02  0.8070639E-01
        1   -1    0    0  501    0  0.00000000000E+00  0.00000000000E+00  0.30892066590E+04  0.30892066590E+04  0.50400001928E-02 0. -1.
       -1   -1    0    0    0  501  0.00000000000E+00  0.00000000000E+00 -0.11006803420E+04  0.11006803420E+04  0.50400001928E-02 0.  1.
    10030    2    1    2    0    0  0.00000000000E+00  0.00000000000E+00  0.19885263170E+04  0.41898870009E+04  0.36879419962E+04 0.  0.
        4    1    3    3  502    0  0.10325538151E+04  0.70921191951E+03 -0.54308315349E+03  0.13653167590E+04  0.12699999809E+01 0.  1.
       -4    1    3    3    0  502 -0.10325538151E+04 -0.70921191951E+03  0.25316094705E+04  0.28245702420E+04  0.12699999809E+01 0. -1.
</event>
<event>
 5   0  0.2529875E-07  0.3849184E+04  0.7818609E-02  0.8035682E-01
       -1   -1    0    0    0  501  0.00000000000E+00  0.00000000000E+00  0.15585634125E+04  0.15585634126E+04  0.50400001928E-02 0.  1.
        1   -1    0    0  501    0  0.00000000000E+00  0.00000000000E+00 -0.23765823355E+04  0.23765823355E+04  0.50400001928E-02 0. -1.
    10030    2    1    2    0    0  0.00000000000E+00  0.00000000000E+00 -0.81801892299E+03  0.39351457481E+04  0.38491839525E+04 0.  0.
        3    1    3    3  502    0  0.10493675052E+04  0.72871360983E+03 -0.18805499286E+04  0.22734695359E+04  0.10100000352E+00 0. -1.
       -3    1    3    3    0  502 -0.10493675052E+04 -0.72871360983E+03  0.10625310057E+04  0.16616762122E+04  0.10100000352E+00 0.  1.
</event>
<event>
 5   0  0.7649458E-07  0.3805406E+04  0.7818609E-02  0.8044996E-01
       -2   -1    0    0    0  501  0.00000000000E+00  0.00000000000E+00  0.15744166124E+04  0.15744166124E+04  0.25500000920E-02 0.  1.
        2   -1    0    0  501    0  0.00000000000E+00  0.00000000000E+00 -0.22994411166E+04  0.22994411166E+04  0.25500000920E-02 0. -1.
    10030    2    1    2    0    0  0.00000000000E+00  0.00000000000E+00 -0.72502450415E+03  0.38738577290E+04  0.38054057830E+04 0.  0.
        4    1    3    3  502    0 -0.17506539752E+04 -0.74531023015E+03 -0.36252707954E+03  0.19369316396E+04  0.12699999809E+01 0.  1.
       -4    1    3    3    0  502  0.17506539752E+04  0.74531023015E+03 -0.36249742461E+03  0.19369260894E+04  0.12699999809E+01 0. -1.
</event>
<event>
 5   0  0.8421677E-07  0.3813496E+04  0.7818609E-02  0.8043265E-01
        2   -1    0    0  501    0  0.00000000000E+00  0.00000000000E+00  0.15901103949E+04  0.15901103949E+04  0.25500000920E-02 0. -1.
       -2   -1    0    0    0  501  0.00000000000E+00  0.00000000000E+00 -0.22864373617E+04  0.22864373617E+04  0.25500000920E-02 0.  1.
    10030    2    1    2    0    0  0.00000000000E+00  0.00000000000E+00 -0.69632696674E+03  0.38765477566E+04  0.38134959374E+04 0.  0.
        3    1    3    3  502    0 -0.87365903582E+03 -0.18706025354E+03 -0.20604773322E+04  0.22458491704E+04  0.10100000352E+00 0.  1.
       -3    1    3    3    0  502  0.87365903582E+03  0.18706025354E+03  0.13641503655E+04  0.16306985862E+04  0.10100000352E+00 0. -1.
</event>
<event>
 5   0  0.8038352E-07  0.3812415E+04  0.7818609E-02  0.8043496E-01
        2   -1    0    0  501    0  0.00000000000E+00  0.00000000000E+00  0.28272843504E+04  0.28272843504E+04  0.25500000920E-02 0.  1.
       -2   -1    0    0    0  501  0.00000000000E+00  0.00000000000E+00 -0.12852004957E+04  0.12852004957E+04  0.25500000920E-02 0. -1.
    10030    2    1    2    0    0  0.00000000000E+00  0.00000000000E+00  0.15420838547E+04  0.41124848460E+04  0.38124151130E+04 0.  0.
        2    1    3    3  502    0 -0.11511715355E+04 -0.89767851378E+03 -0.55124739065E+03  0.15604154267E+04  0.25500000920E-02 0. -1.
       -2    1    3    3    0  502  0.11511715355E+04  0.89767851378E+03  0.20933312453E+04  0.25520694193E+04  0.25500000920E-02 0.  1.
</event>
<event>
 5   0  0.8038352E-07  0.3834984E+04  0.7818609E-02  0.8038689E-01
       -2   -1    0    0    0  501  0.00000000000E+00  0.00000000000E+00  0.14079287130E+04  0.14079287130E+04  0.25500000920E-02 0.  1.
        2   -1    0    0  501    0  0.00000000000E+00  0.00000000000E+00 -0.26114782341E+04  0.26114782341E+04  0.25500000920E-02 0. -1.
    10030    2    1    2    0    0  0.00000000000E+00  0.00000000000E+00 -0.12035495211E+04  0.40194069471E+04  0.38349838013E+04 0.  0.
        2    1    3    3  502    0  0.15409929355E+04  0.44406670505E+03 -0.17034764222E+04  0.23395910726E+04  0.25500000920E-02 0. -1.
       -2    1    3    3    0  502 -0.15409929355E+04 -0.44406670505E+03  0.49992690116E+03  0.16798158745E+04  0.25500000920E-02 0.  1.
</event>
<event>
 5   0  0.7649458E-07  0.3052494E+04  0.7818609E-02  0.8228898E-01
        2   -1    0    0  501    0  0.00000000000E+00  0.00000000000E+00  0.22333512422E+04  0.22333512422E+04  0.25500000920E-02 0. -1.
       -2   -1    0    0    0  501  0.00000000000E+00  0.00000000000E+00 -0.10430198736E+04  0.10430198736E+04  0.25500000920E-02 0.  1.
    10030    2    1    2    0    0  0.00000000000E+00  0.00000000000E+00  0.11903313686E+04  0.32763711158E+04  0.30524938855E+04 0.  0.
        4    1    3    3  502    0 -0.77482612915E+03 -0.41293231297E+03 -0.74481944303E+03  0.11513584329E+04  0.12699999809E+01 0.  1.
       -4    1    3    3    0  502  0.77482612915E+03  0.41293231297E+03  0.19351508116E+04  0.21250126828E+04  0.12699999809E+01 0. -1.
</event>
<event>
 5   0  0.7638805E-07  0.3511806E+04  0.7818609E-02  0.8110998E-01
        2   -1    0    0  501    0  0.00000000000E+00  0.00000000000E+00  0.95442577749E+03  0.95442577750E+03  0.25500000920E-02 0. -1.
       -2   -1    0    0    0  501  0.00000000000E+00  0.00000000000E+00 -0.32304186420E+04  0.32304186420E+04  0.25500000920E-02 0.  1.
    10030    2    1    2    0    0  0.00000000000E+00  0.00000000000E+00 -0.22759928645E+04  0.41848444195E+04  0.35118057031E+04 0.  0.
        5    1    3    3  502    0 -0.26025795815E+03  0.11768173302E+03 -0.32025420747E+04  0.32152575363E+04  0.46999998093E+01 0.  1.
       -5    1    3    3    0  502  0.26025795815E+03 -0.11768173302E+03  0.92654921017E+03  0.96958688313E+03  0.46999998093E+01 0. -1.
</event>
<event>
 5   0  0.7638805E-07  0.3679375E+04  0.7818609E-02  0.8072548E-01
       -2   -1    0    0    0  501  0.00000000000E+00  0.00000000000E+00  0.17346148299E+04  0.17346148299E+04  0.25500000920E-02 0. -1.
        2   -1    0    0  501    0  0.00000000000E+00  0.00000000000E+00 -0.19511251319E+04  0.19511251319E+04  0.25500000920E-02 0.  1.
    10030    2    1    2    0    0  0.00000000000E+00  0.00000000000E+00 -0.21651030201E+03  0.36857399618E+04  0.36793752669E+04 0.  0.
        5    1    3    3  502    0  0.13309098782E+04 -0.72325657769E+03  0.93758500632E+03  0.17814345105E+04  0.46999998093E+01 0. -1.
       -5    1    3    3    0  502 -0.13309098782E+04  0.72325657769E+03 -0.11540953083E+04  0.19043054513E+04  0.46999998093E+01 0.  1.
</event>
<event>
 5   0  0.8421677E-07  0.3461271E+04  0.7818609E-02  0.8123030E-01
       -2   -1    0    0    0  501  0.00000000000E+00  0.00000000000E+00  0.16236864995E+04  0.16236864995E+04  0.25500000920E-02 0. -1.
        2   -1    0    0  501    0  0.00000000000E+00  0.00000000000E+00 -0.18446288642E+04  0.18446288642E+04  0.25500000920E-02 0.  1.
    10030    2    1    2    0    0  0.00000000000E+00  0.00000000000E+00 -0.22094236468E+03  0.34683153637E+04  0.34612708553E+04 0.  0.
        3    1    3    3  502    0  0.66915874512E+03 -0.12943709260E+04  0.82520089259E+03  0.16745524906E+04  0.10100000352E+00 0. -1.
       -3    1    3    3    0  502 -0.66915874512E+03  0.12943709260E+04 -0.10461432573E+04  0.17937628732E+04  0.10100000352E+00 0.  1.
</event>
<event>
 5   0  0.2529875E-07  0.3648587E+04  0.7818609E-02  0.8079452E-01
        1   -1    0    0  501    0  0.00000000000E+00  0.00000000000E+00  0.14188202462E+04  0.14188202462E+04  0.50400001928E-02 0.  1.
       -1   -1    0    0    0  501  0.00000000000E+00  0.00000000000E+00 -0.23456432317E+04  0.23456432317E+04  0.50400001928E-02 0. -1.
    10030    2    1    2    0    0  0.00000000000E+00  0.00000000000E+00 -0.92682298545E+03  0.37644634779E+04  0.36485866346E+04 0.  0.
        1    1    3    3  502    0  0.95684202556E+03  0.14275795754E+04 -0.10948246307E+04  0.20376876792E+04  0.50400001928E-02 0. -1.
       -1    1    3    3    0  502 -0.95684202556E+03 -0.14275795754E+04  0.16800164529E+03  0.17267757987E+04  0.50400001928E-02 0.  1.
</event>
<event>
 5   0  0.2529875E-07  0.3772966E+04  0.7818609E-02  0.8051981E-01
        1   -1    0    0  501    0  0.00000000000E+00  0.00000000000E+00  0.18326682186E+04  0.18326682186E+04  0.50400001928E-02 0.  1.
       -1   -1    0    0    0  501  0.00000000000E+00  0.00000000000E+00 -0.19418775825E+04  0.19418775825E+04  0.50400001928E-02 0. -1.
    10030    2    1    2    0    0  0.00000000000E+00  0.00000000000E+00 -0.10920936388E+03  0.37745458011E+04  0.37729655868E+04 0.  0.
        1    1    3    3  502    0  0.82214033894E+03  0.46021557326E+03 -0.16896405044E+04  0.19345795783E+04  0.50400001928E-02 0. -1.
       -1    1    3    3    0  502 -0.82214033894E+03 -0.46021557326E+03  0.15804311405E+04  0.18399662227E+04  0.50400001928E-02 0.  1.
</event>
<event>
 5   0  0.8038352E-07  0.2375051E+04  0.7818609E-02  0.8448903E-01
       -2   -1    0    0    0  501  0.00000000000E+00  0.00000000000E+00  0.48972016016E+03  0.48972016017E+03  0.25500000920E-02 0.  1.
        2   -1    0    0  501    0  0.00000000000E+00  0.00000000000E+00 -0.28796392285E+04  0.28796392285E+04  0.25500000920E-02 0. -1.
    10030    2    1    2    0    0  0.00000000000E+00  0.00000000000E+00 -0.23899190683E+04  0.33693593887E+04  0.23750514809E+04 0.  0.
        2    1    3    3  502    0  0.55814789480E+02 -0.32653381873E+02  0.48722062518E+03  0.49149310441E+03  0.25500000920E-02 0.  1.
       -2    1    3    3    0  502 -0.55814789480E+02  0.32653381873E+02 -0.28771396935E+04  0.28778662843E+04  0.25500000920E-02 0. -1.
</event>
<event>
 5   0  0.7649458E-07  0.3886702E+04  0.7818609E-02  0.8027801E-01
        2   -1    0    0  501    0  0.00000000000E+00  0.00000000000E+00  0.31315113860E+04  0.31315113860E+04  0.25500000920E-02 0.  1.
       -2   -1    0    0    0  501  0.00000000000E+00  0.00000000000E+00 -0.12060030054E+04  0.12060030054E+04  0.25500000920E-02 0. -1.
    10030    2    1    2    0    0  0.00000000000E+00  0.00000000000E+00  0.19255083806E+04  0.43375143914E+04  0.38867015028E+04 0.  0.
        4    1    3    3  502    0  0.13373466911E+03 -0.74696272741E+03  0.29593360788E+04  0.30550793637E+04  0.12699999809E+01 0.  1.
       -4    1    3    3    0  502 -0.13373466911E+03  0.74696272741E+03 -0.10338276982E+04  0.12824350277E+04  0.12699999809E+01 0. -1.
</event>
<event>
 5   0  0.2529875E-07  0.3013349E+04  0.7818609E-02  0.8239929E-01
       -1   -1    0    0    0  501  0.00000000000E+00  0.00000000000E+00  0.12955562265E+04  0.12955562266E+04  0.50400001928E-02 0.  1.
        1   -1    0    0  501    0  0.00000000000E+00  0.00000000000E+00 -0.17521957914E+04  0.17521957914E+04  0.50400001928E-02 0. -1.
    10030    2    1    2    0    0  0.00000000000E+00  0.00000000000E+00 -0.45663956484E+03  0.30477520180E+04  0.30133490788E+04 0.  0.
        5    1    3    3  502    0 -0.58970380555E+03  0.49287327525E+03  0.10823810137E+04  0.13274959106E+04  0.46999998093E+01 0.  1.
       -5    1    3    3    0  502  0.58970380555E+03 -0.49287327525E+03 -0.15390205786E+04  0.17202561074E+04  0.46999998093E+01 0. -1.
</event>
<event>
 5   0  0.7649458E-07  0.2968727E+04  0.7818609E-02  0.8252718E-01
        2   -1    0    0  501    0  0.00000000000E+00  0.00000000000E+00  0.23143955199E+04  0.23143955199E+04  0.25500000920E-02 0.  1.
       -2   -1    0    0    0  501  0.00000000000E+00  0.00000000000E+00 -0.95201302410E+03  0.95201302411E+03  0.25500000920E-02 0. -1.
    10030    2    1    2    0    0  0.00000000000E+00  0.00000000000E+00  0.13623824958E+04  0.32664085440E+04  0.29687267829E+04 0.  0.
        4    1    3    3  502    0  0.99880802439E+03 -0.61378364546E+02 -0.52507496801E+03  0.11300841155E+04  0.12699999809E+01 0. -1.
       -4    1    3    3    0  502 -0.99880802439E+03  0.61378364546E+02  0.18874574638E+04  0.21363244285E+04  0.12699999809E+01 0.  1.
</event>
<event>
 5   0  0.2529875E-07  0.3386025E+04  0.7818609E-02  0.8141345E-01
       -1   -1    0    0    0  501  0.00000000000E+00  0.00000000000E+00  0.23501112757E+04  0.23501112757E+04  0.50400001928E-02 0.  1.
        1   -1    0    0  501    0  0.00000000000E+00  0.00000000000E+00 -0.12196406091E+04  0.12196406091E+04  0.50400001928E-02 0. -1.
    10030    2    1    2    0    0  0.00000000000E+00  0.00000000000E+00  0.11304706666E+04  0.35697518849E+04  0.33860248953E+04 0.  0.
        5    1    3    3  502    0 -0.13187165848E+04 -0.44409581773E+03 -0.45147543109E+03  0.14629035105E+04  0.46999998093E+01 0.  1.
       -5    1    3    3    0  502  0.13187165848E+04  0.44409581773E+03  0.15819460977E+04  0.21068483743E+04  0.46999998093E+01 0. -1.
</event>
<event>
 5   0  0.2529875E-07  0.3768965E+04  0.7818609E-02  0.8052848E-01
        1   -1    0    0  501    0  0.00000000000E+00  0.00000000000E+00  0.27199160809E+04  0.27199160809E+04  0.50400001928E-02 0.  1.
       -1   -1    0    0    0  501  0.00000000000E+00  0.00000000000E+00 -0.13056559445E+04  0.13056559445E+04  0.50400001928E-02 0. -1.
    10030    2    1    2    0    0  0.00000000000E+00  0.00000000000E+00  0.14142601364E+04  0.40255720254E+04  0.37689651628E+04 0.  0.
        4    1    3    3  502    0  0.59891462156E+02  0.63241002455E+03  0.26021123353E+04  0.26785293810E+04  0.12699999809E+01 0.  1.
       -4    1    3    3    0  502 -0.59891462156E+02 -0.63241002455E+03 -0.11878521989E+04  0.13470426444E+04  0.12699999809E+01 0. -1.
</event>
<event>
 5   0  0.2529875E-07  0.2943858E+04  0.7818609E-02  0.8259947E-01
        1   -1    0    0  501    0  0.00000000000E+00  0.00000000000E+00  0.16780391736E+04  0.16780391736E+04  0.50400001928E-02 0.  1.
       -1   -1    0    0    0  501  0.00000000000E+00  0.00000000000E+00 -0.12911350208E+04  0.12911350208E+04  0.50400001928E-02 0. -1.
    10030    2    1    2    0    0  0.00000000000E+00  0.00000000000E+00  0.38690415276E+03  0.29691741944E+04  0.29438581103E+04 0.  0.
        1    1    3    3  502    0  0.59333240195E+02 -0.14053314979E+04 -0.24398037392E+03  0.14275865912E+04  0.50400001928E-02 0.  1.
       -1    1    3    3    0  502 -0.59333240195E+02  0.14053314979E+04  0.63088452668E+03  0.15415876032E+04  0.50400001928E-02 0. -1.
</event>
<event>
 5   0  0.2529875E-07  0.2455546E+04  0.7818609E-02  0.8418996E-01
        1   -1    0    0  501    0  0.00000000000E+00  0.00000000000E+00  0.72279046384E+03  0.72279046386E+03  0.50400001928E-02 0.  1.
       -1   -1    0    0    0  501  0.00000000000E+00  0.00000000000E+00 -0.20855651188E+04  0.20855651189E+04  0.50400001928E-02 0. -1.
    10030    2    1    2    0    0  0.00000000000E+00  0.00000000000E+00 -0.13627746550E+04  0.28083555827E+04  0.24555460327E+04 0.  0.
        1    1    3    3  502    0  0.78628520607E+03  0.50560538377E+03 -0.15917047809E+04  0.18459158537E+04  0.50400001928E-02 0. -1.
       -1    1    3    3    0  502 -0.78628520607E+03 -0.50560538377E+03  0.22893012592E+03  0.96243972900E+03  0.50400001928E-02 0.  1.
</event>
<event>
 5   0  0.2529875E-07  0.3771702E+04  0.7818609E-02  0.8052255E-01
       -1   -1    0    0    0  501  0.00000000000E+00  0.00000000000E+00  0.24680871582E+04  0.24680871582E+04  0.50400001928E-02 0.  1.
        1   -1    0    0  501    0  0.00000000000E+00  0.00000000000E+00 -0.14409678729E+04  0.14409678730E+04  0.50400001928E-02 0. -1.
    10030    2    1    2    0    0  0.00000000000E+00  0.00000000000E+00  0.10271192852E+04  0.39090550311E+04  0.37717021635E+04 0.  0.
        1    1    3    3  502    0 -0.37524175130E+03 -0.12456978064E+04  0.19285113225E+04  0.23263115264E+04  0.50400001928E-02 0.  1.
       -1    1    3    3    0  502  0.37524175130E+03  0.12456978064E+04 -0.90139203731E+03  0.15827435047E+04  0.50400001928E-02 0. -1.
</event>
<event>
 5   0  0.2907071E-07  0.3811090E+04  0.7818609E-02  0.8043779E-01
        1   -1    0    0  501    0  0.00000000000E+00  0.00000000000E+00  0.26065707589E+04  0.26065707589E+04  0.50400001928E-02 0.  1.
       -1   -1    0    0    0  501  0.00000000000E+00  0.00000000000E+00 -0.13930569081E+04  0.13930569081E+04  0.50400001928E-02 0. -1.
    10030    2    1    2    0    0  0.00000000000E+00  0.00000000000E+00  0.12135138508E+04  0.39996276671E+04  0.38110898191E+04 0.  0.
        2    1    3    3  502    0 -0.15560487260E+03  0.15207250524E+04  0.18007041880E+04  0.23620654382E+04  0.25500000920E-02 0.  1.
       -2    1    3    3    0  502  0.15560487260E+03 -0.15207250524E+04 -0.58719033716E+03  0.16375622289E+04  0.25500000920E-02 0. -1.
</event>
<event>
 5   0  0.2529875E-07  0.3710279E+04  0.7818609E-02  0.8065688E-01
        1   -1    0    0  501    0  0.00000000000E+00  0.00000000000E+00  0.23602029756E+04  0.23602029756E+04  0.50400001928E-02 0. -1.
       -1   -1    0    0    0  501  0.00000000000E+00  0.00000000000E+00 -0.14581553865E+04  0.14581553865E+04  0.50400001928E-02 0.  1.
    10030    2    1    2    0    0  0.00000000000E+00  0.00000000000E+00  0.90204758907E+03  0.38183583621E+04  0.37102790634E+04 0.  0.
        5    1    3    3  502    0 -0.86658969868E+03  0.16402873852E+04  0.45058691846E+03  0.19090759736E+04  0.46999998093E+01 0. -1.
       -5    1    3    3    0  502  0.86658969868E+03 -0.16402873852E+04  0.45146067061E+03  0.19092823885E+04  0.46999998093E+01 0.  1.
</event>
<event>
 5   0  0.8421677E-07  0.2532233E+04  0.7818609E-02  0.8391591E-01
       -2   -1    0    0    0  501  0.00000000000E+00  0.00000000000E+00  0.16736071756E+04  0.16736071756E+04  0.25500000920E-02 0. -1.
        2   -1    0    0  501    0  0.00000000000E+00  0.00000000000E+00 -0.95784206242E+03  0.95784206242E+03  0.25500000920E-02 0.  1.
    10030    2    1    2    0    0  0.00000000000E+00  0.00000000000E+00  0.71576511317E+03  0.26314492380E+04  0.25322332821E+04 0.  0.
        3    1    3    3  502    0  0.77237182798E+03  0.22207417153E+03 -0.65880432719E+03  0.10391815674E+04  0.10100000352E+00 0.  1.
       -3    1    3    3    0  502 -0.77237182798E+03 -0.22207417153E+03  0.13745694404E+04  0.15922676706E+04  0.10100000352E+00 0. -1.
</event>
<event>
 5   0  0.2529875E-07  0.4045457E+04  0.7818609E-02  0.7995439E-01
       -1   -1    0    0    0  501  0.00000000000E+00  0.00000000000E+00  0.15344090918E+04  0.15344090918E+04  0.50400001928E-02 0. -1.
        1   -1    0    0  501    0  0.00000000000E+00  0.00000000000E+00 -0.26664530330E+04  0.26664530330E+04  0.50400001928E-02 0.  1.
    10030    2    1    2    0    0  0.00000000000E+00  0.00000000000E+00 -0.11320439412E+04  0.42008621248E+04  0.40454566005E+04 0.  0.
        3    1    3    3  502    0  0.38773611032E+03 -0.12378623864E+04 -0.21776696149E+04  0.25347361876E+04  0.10100000352E+00 0.  1.
       -3    1    3    3    0  502 -0.38773611032E+03  0.12378623864E+04  0.10456256737E+04  0.16661259372E+04  0.10100000352E+00 0. -1.
</event>
<event>
 5   0  0.2907071E-07  0.3875833E+04  0.7818609E-02  0.8030074E-01
       -1   -1    0    0    0  501  0.00000000000E+00  0.00000000000E+00  0.32393760555E+04  0.32393760555E+04  0.50400001928E-02 0.  1.
        1   -1    0    0  501    0  0.00000000000E+00  0.00000000000E+00 -0.11593342979E+04  0.11593342979E+04  0.50400001928E-02 0. -1.
    10030    2    1    2    0    0  0.00000000000E+00  0.00000000000E+00  0.20800417575E+04  0.43987103534E+04  0.38758326925E+04 0.  0.
        2    1    3    3  502    0 -0.80892008872E+03  0.14102204653E+04 -0.15699488740E+03  0.16333159111E+04  0.25500000920E-02 0. -1.
       -2    1    3    3    0  502  0.80892008872E+03 -0.14102204653E+04  0.22370366449E+04  0.27653944423E+04  0.25500000920E-02 0.  1.
</event>
<event>
 5   0  0.7638805E-07  0.3797944E+04  0.7818609E-02  0.8046596E-01
       -2   -1    0    0    0  501  0.00000000000E+00  0.00000000000E+00  0.29387842959E+04  0.29387842959E+04  0.25500000920E-02 0.  1.
        2   -1    0    0  501    0  0.00000000000E+00  0.00000000000E+00 -0.12270702029E+04  0.12270702029E+04  0.25500000920E-02 0. -1.
    10030    2    1    2    0    0  0.00000000000E+00  0.00000000000E+00  0.17117140930E+04  0.41658544989E+04  0.37979439924E+04 0.  0.
        5    1    3    3  502    0  0.33650708050E+03 -0.17384884290E+03  0.28969249977E+04  0.29215846672E+04  0.46999998093E+01 0.  1.
       -5    1    3    3    0  502 -0.33650708050E+03  0.17384884290E+03 -0.11852109047E+04  0.12442698317E+04  0.46999998093E+01 0. -1.
</event>
<event>
 5   0  0.8421677E-07  0.3500162E+04  0.7818609E-02  0.8113752E-01
        2   -1    0    0  501    0  0.00000000000E+00  0.00000000000E+00  0.22620995642E+04  0.22620995642E+04  0.25500000920E-02 0.  1.
       -2   -1    0    0    0  501  0.00000000000E+00  0.00000000000E+00 -0.13539561945E+04  0.13539561945E+04  0.25500000920E-02 0. -1.
    10030    2    1    2    0    0  0.00000000000E+00  0.00000000000E+00  0.90814336968E+03  0.36160557587E+04  0.35001621206E+04 0.  0.
        3    1    3    3  502    0  0.60334277488E+03 -0.78913316026E+03  0.19426228835E+04  0.21818655610E+04  0.10100000352E+00 0.  1.
       -3    1    3    3    0  502 -0.60334277488E+03  0.78913316026E+03 -0.10344795138E+04  0.14341901977E+04  0.10100000352E+00 0. -1.
</event>
<event>
 5   0  0.2529875E-07  0.3428754E+04  0.7818609E-02  0.8130885E-01
       -1   -1    0    0    0  501  0.00000000000E+00  0.00000000000E+00  0.10094233544E+04  0.10094233544E+04  0.50400001928E-02 0.  1.
        1   -1    0    0  501    0  0.00000000000E+00  0.00000000000E+00 -0.29116509942E+04  0.29116509942E+04  0.50400001928E-02 0. -1.
    10030    2    1    2    0    0  0.00000000000E+00  0.00000000000E+00 -0.19022276398E+04  0.39210743486E+04  0.34287540089E+04 0.  0.
        1    1    3    3  502    0  0.13248492513E+04  0.14760905741E+03 -0.21838942800E+04  0.25585949657E+04  0.50400001928E-02 0. -1.
       -1    1    3    3    0  502 -0.13248492513E+04 -0.14760905741E+03  0.28166664016E+03  0.13624793829E+04  0.50400001928E-02 0.  1.
</event>
<event>
 5   0  0.7649458E-07  0.3813273E+04  0.7818609E-02  0.8043313E-01
       -2   -1    0    0    0  501  0.00000000000E+00  0.00000000000E+00  0.19921118070E+04  0.19921118070E+04  0.25500000920E-02 0.  1.
        2   -1    0    0  501    0  0.00000000000E+00  0.00000000000E+00 -0.18248283170E+04  0.18248283170E+04  0.25500000920E-02 0. -1.
    10030    2    1    2    0    0  0.00000000000E+00  0.00000000000E+00  0.16728348991E+03  0.38169401240E+04  0.38132726291E+04 0.  0.
        4    1    3    3  502    0 -0.14461437983E+04  0.19930239404E+03 -0.11439990373E+04  0.18546667463E+04  0.12699999809E+01 0. -1.
       -4    1    3    3    0  502  0.14461437983E+04 -0.19930239404E+03  0.13112825272E+04  0.19622733777E+04  0.12699999809E+01 0.  1.
</event>
<event>
 5   0  0.7551495E-07  0.3834641E+04  0.7818609E-02  0.8038762E-01
       -2   -1    0    0    0  501  0.00000000000E+00  0.00000000000E+00  0.20646322215E+04  0.20646322215E+04  0.25500000920E-02 0. -1.
        2   -1    0    0  501    0  0.00000000000E+00  0.00000000000E+00 -0.17805198341E+04  0.17805198341E+04  0.25500000920E-02 0.  1.
    10030    2    1    2    0    0  0.00000000000E+00  0.00000000000E+00  0.28411238741E+03  0.38451520555E+04  0.38346413759E+04 0.  0.
        1    1    3    3  502    0  0.85790802157E+03 -0.16071049308E+04  0.74146233434E+03  0.19668652281E+04  0.50400001928E-02 0. -1.
       -1    1    3    3    0  502 -0.85790802157E+03  0.16071049308E+04 -0.45734994693E+03  0.18782868274E+04  0.50400001928E-02 0.  1.
</event>
<event>
 5   0  0.8421677E-07  0.3788725E+04  0.7818609E-02  0.8048579E-01
       -2   -1    0    0    0  501  0.00000000000E+00  0.00000000000E+00  0.31078354802E+04  0.31078354802E+04  0.25500000920E-02 0. -1.
        2   -1    0    0  501    0  0.00000000000E+00  0.00000000000E+00 -0.11546971861E+04  0.11546971862E+04  0.25500000920E-02 0.  1.
    10030    2    1    2    0    0  0.00000000000E+00  0.00000000000E+00  0.19531382940E+04  0.42625326663E+04  0.37887247902E+04 0.  0.
        3    1    3    3  502    0 -0.55617617038E+03  0.12373047326E+04 -0.51104170871E+03  0.14496270458E+04  0.10100000352E+00 0.  1.
       -3    1    3    3    0  502  0.55617617038E+03 -0.12373047326E+04  0.24641800027E+04  0.28129056205E+04  0.10100000352E+00 0. -1.
</event>
<event>
 5   0  0.2529875E-07  0.3779755E+04  0.7818609E-02  0.8050513E-01
        1   -1    0    0  501    0  0.00000000000E+00  0.00000000000E+00  0.24410712347E+04  0.24410712347E+04  0.50400001928E-02 0.  1.
       -1   -1    0    0    0  501  0.00000000000E+00  0.00000000000E+00 -0.14631430393E+04  0.14631430393E+04  0.50400001928E-02 0. -1.
    10030    2    1    2    0    0  0.00000000000E+00  0.00000000000E+00  0.97792819543E+03  0.39042142740E+04  0.37797546934E+04 0.  0.
        5    1    3    3  502    0 -0.11089227556E+04  0.71107601687E+01 -0.10917376848E+04  0.15561727100E+04  0.46999998093E+01 0. -1.
       -5    1    3    3    0  502  0.11089227556E+04 -0.71107601687E+01  0.20696658802E+04  0.23480415641E+04  0.46999998093E+01 0.  1.
</event>
<event>
 5   0  0.2907071E-07  0.3787513E+04  0.7818609E-02  0.8048840E-01
       -1   -1    0    0    0  501  0.00000000000E+00  0.00000000000E+00  0.20604264500E+04  0.20604264500E+04  0.50400001928E-02 0. -1.
        1   -1    0    0  501    0  0.00000000000E+00  0.00000000000E+00 -0.17405688258E+04  0.17405688258E+04  0.50400001928E-02 0.  1.
    10030    2    1    2    0    0  0.00000000000E+00  0.00000000000E+00  0.31985762412E+03  0.38009952758E+04  0.37875131930E+04 0.  0.
        2    1    3    3  502    0  0.35511018368E+03  0.14243953788E+04  0.13605605439E+04  0.20015320211E+04  0.25500000920E-02 0. -1.
       -2    1    3    3    0  502 -0.35511018368E+03 -0.14243953788E+04 -0.10407029198E+04  0.17994632547E+04  0.25500000920E-02 0.  1.
</event>
<event>
 5   0  0.2529875E-07  0.3865504E+04  0.7818609E-02  0.8032242E-01
        1   -1    0    0  501    0  0.00000000000E+00  0.00000000000E+00  0.23453875058E+04  0.23453875058E+04  0.50400001928E-02 0.  1.
       -1   -1    0    0    0  501  0.00000000000E+00  0.00000000000E+00 -0.15927138843E+04  0.15927138843E+04  0.50400001928E-02 0. -1.
    10030    2    1    2    0    0  0.00000000000E+00  0.00000000000E+00  0.75267362155E+03  0.39381013901E+04  0.38655044921E+04 0.  0.
        3    1    3    3  502    0 -0.30076106105E+02  0.99098429179E+03 -0.13139111988E+04  0.16460003303E+04  0.10100000352E+00 0. -1.
       -3    1    3    3    0  502  0.30076106105E+02 -0.99098429179E+03  0.20665848203E+04  0.22921010599E+04  0.10100000352E+00 0.  1.
</event>
<event>
 5   0  0.8038352E-07  0.3730237E+04  0.7818609E-02  0.8061294E-01
        2   -1    0    0  501    0  0.00000000000E+00  0.00000000000E+00  0.29818293438E+04  0.29818293438E+04  0.25500000920E-02 0.  1.
       -2   -1    0    0    0  501  0.00000000000E+00  0.00000000000E+00 -0.11666218892E+04  0.11666218892E+04  0.25500000920E-02 0. -1.
    10030    2    1    2    0    0  0.00000000000E+00  0.00000000000E+00  0.18152074546E+04  0.41484512330E+04  0.37302371947E+04 0.  0.
        2    1    3    3  502    0  0.84221501890E+03 -0.14054972754E+04 -0.83313876526E+02  0.16406370504E+04  0.25500000920E-02 0. -1.
       -2    1    3    3    0  502 -0.84221501890E+03  0.14054972754E+04  0.18985213312E+04  0.25078141825E+04  0.25500000920E-02 0.  1.
</event>
<event>
 5   0  0.7649458E-07  0.3676023E+04  0.7818609E-02  0.8073296E-01
       -2   -1    0    0    0  501  0.00000000000E+00  0.00000000000E+00  0.22801719298E+04  0.22801719298E+04  0.25500000920E-02 0.  1.
        2   -1    0    0  501    0  0.00000000000E+00  0.00000000000E+00 -0.14815927266E+04  0.14815927266E+04  0.25500000920E-02 0. -1.
    10030    2    1    2    0    0  0.00000000000E+00  0.00000000000E+00  0.79857920318E+03  0.37617646564E+04  0.36760229306E+04 0.  0.
        4    1    3    3  502    0  0.15270502014E+04  0.22381987468E+03  0.14207228129E+04  0.20977208055E+04  0.12699999809E+01 0.  1.
       -4    1    3    3    0  502 -0.15270502014E+04 -0.22381987468E+03 -0.62214360974E+03  0.16640438509E+04  0.12699999809E+01 0. -1.
</event>
<event>
 5   0  0.2907071E-07  0.3852505E+04  0.7818609E-02  0.8034980E-01
        1   -1    0    0  501    0  0.00000000000E+00  0.00000000000E+00  0.19332594492E+04  0.19332594493E+04  0.50400001928E-02 0. -1.
       -1   -1    0    0    0  501  0.00000000000E+00  0.00000000000E+00 -0.19192713492E+04  0.19192713492E+04  0.50400001928E-02 0.  1.
    10030    2    1    2    0    0  0.00000000000E+00  0.00000000000E+00  0.13988100015E+02  0.38525307985E+04  0.38525054038E+04 0.  0.
        2    1    3    3  502    0 -0.16918368033E+04 -0.28715029799E+02  0.92749626079E+03  0.19296076378E+04  0.25500000920E-02 0. -1.
       -2    1    3    3    0  502  0.16918368033E+04  0.28715029799E+02 -0.91350816077E+03  0.19229231607E+04  0.25500000920E-02 0.  1.
</event>
<event>
 5   0  0.2529875E-07  0.3706636E+04  0.7818609E-02  0.8066493E-01
       -1   -1    0    0    0  501  0.00000000000E+00  0.00000000000E+00  0.12746670283E+04  0.12746670283E+04  0.50400001928E-02 0. -1.
        1   -1    0    0  501    0  0.00000000000E+00  0.00000000000E+00 -0.26946546285E+04  0.26946546285E+04  0.50400001928E-02 0.  1.
    10030    2    1    2    0    0  0.00000000000E+00  0.00000000000E+00 -0.14199876002E+04  0.39693216568E+04  0.37066358912E+04 0.  0.
        5    1    3    3  502    0 -0.17003791227E+04  0.41840771173E+03 -0.60009680619E+02  0.17521351049E+04  0.46999998093E+01 0. -1.
       -5    1    3    3    0  502  0.17003791227E+04 -0.41840771173E+03 -0.13599779196E+04  0.22171865519E+04  0.46999998093E+01 0.  1.
</event>
<event>
 5   0  0.2907071E-07  0.3833633E+04  0.7818609E-02  0.8038976E-01
       -1   -1    0    0    0  501  0.00000000000E+00  0.00000000000E+00  0.15168192983E+04  0.15168192983E+04  0.50400001928E-02 0.  1.
        1   -1    0    0  501    0  0.00000000000E+00  0.00000000000E+00 -0.24222956647E+04  0.24222956647E+04  0.50400001928E-02 0. -1.
    10030    2    1    2    0    0  0.00000000000E+00  0.00000000000E+00 -0.90547636642E+03  0.39391149631E+04  0.38336326431E+04 0.  0.
        2    1    3    3  502    0  0.11958114786E+04 -0.10189951719E+04 -0.15810734103E+04  0.22289256115E+04  0.25500000920E-02 0. -1.
       -2    1    3    3    0  502 -0.11958114786E+04  0.10189951719E+04  0.67559704389E+03  0.17101893516E+04  0.25500000920E-02 0.  1.
</event>
<event>
 5   0  0.8038352E-07  0.3822198E+04  0.7818609E-02  0.8041408E-01
        2   -1    0    0  501    0  0.00000000000E+00  0.00000000000E+00  0.18103840311E+04  0.18103840311E+04  0.25500000920E-02 0.  1.
       -2   -1    0    0    0  501  0.00000000000E+00  0.00000000000E+00 -0.20174170473E+04  0.20174170473E+04  0.25500000920E-02 0. -1.
    10030    2    1    2    0    0  0.00000000000E+00  0.00000000000E+00 -0.20703301624E+03  0.38278010784E+04  0.38221981145E+04 0.  0.
        2    1    3    3  502    0  0.13790026311E+04 -0.10200784391E+04  0.74038793024E+03  0.18682565578E+04  0.25500000920E-02 0.  1.
       -2    1    3    3    0  502 -0.13790026311E+04  0.10200784391E+04 -0.94742094648E+03  0.19595445206E+04  0.25500000920E-02 0. -1.
</event>
<event>
 5   0  0.8421677E-07  0.3812049E+04  0.7818609E-02  0.8043574E-01
        2   -1    0    0  501    0  0.00000000000E+00  0.00000000000E+00  0.20079099071E+04  0.20079099071E+04  0.25500000920E-02 0.  1.
       -2   -1    0    0    0  501  0.00000000000E+00  0.00000000000E+00 -0.18093090060E+04  0.18093090060E+04  0.25500000920E-02 0. -1.
    10030    2    1    2    0    0  0.00000000000E+00  0.00000000000E+00  0.19860090115E+03  0.38172189131E+04  0.38120490438E+04 0.  0.
        3    1    3    3  502    0 -0.14758686259E+03  0.13571303591E+04  0.14312716101E+04  0.19779087759E+04  0.10100000352E+00 0.  1.
       -3    1    3    3    0  502  0.14758686259E+03 -0.13571303591E+04 -0.12326707090E+04  0.18393101372E+04  0.10100000352E+00 0. -1.
</event>
<event>
 5   0  0.8038352E-07  0.3742505E+04  0.7818609E-02  0.8058607E-01
       -2   -1    0    0    0  501  0.00000000000E+00  0.00000000000E+00  0.26816221459E+04  0.26816221459E+04  0.25500000920E-02 0.  1.
        2   -1    0    0  501    0  0.00000000000E+00  0.00000000000E+00 -0.13057716136E+04  0.13057716136E+04  0.25500000920E-02 0. -1.
    10030    2    1    2    0    0  0.00000000000E+00  0.00000000000E+00  0.13758505323E+04  0.39873937595E+04  0.37425050843E+04 0.  0.
        2    1    3    3  502    0 -0.13089625183E+03 -0.13430409569E+04  0.20691710072E+04  0.24702958320E+04  0.25500000920E-02 0.  1.
       -2    1    3    3    0  502  0.13089625183E+03  0.13430409569E+04 -0.69332047487E+03  0.15170979275E+04  0.25500000920E-02 0. -1.
</event>
<event>
 5   0  0.2529875E-07  0.3704253E+04  0.7818609E-02  0.8067020E-01
       -1   -1    0    0    0  501  0.00000000000E+00  0.00000000000E+00  0.19422696836E+04  0.19422696836E+04  0.50400001928E-02 0. -1.
        1   -1    0    0  501    0  0.00000000000E+00  0.00000000000E+00 -0.17661666246E+04  0.17661666246E+04  0.50400001928E-02 0.  1.
    10030    2    1    2    0    0  0.00000000000E+00  0.00000000000E+00  0.17610305903E+03  0.37084363082E+04  0.37042526324E+04 0.  0.
        3    1    3    3  502    0  0.13157545396E+04  0.88155932356E+01  0.13930129472E+04  0.19161870484E+04  0.10100000352E+00 0. -1.
       -3    1    3    3    0  502 -0.13157545396E+04 -0.88155932356E+01 -0.12169098882E+04  0.17922492598E+04  0.10100000352E+00 0.  1.
</event>
<event>
 5   0  0.2529875E-07  0.3823934E+04  0.7818609E-02  0.8041038E-01
       -1   -1    0    0    0  501  0.00000000000E+00  0.00000000000E+00  0.22102335950E+04  0.22102335950E+04  0.50400001928E-02 0.  1.
        1   -1    0    0  501    0  0.00000000000E+00  0.00000000000E+00 -0.16539512682E+04  0.16539512682E+04  0.50400001928E-02 0. -1.
    10030    2    1    2    0    0  0.00000000000E+00  0.00000000000E+00  0.55628232681E+03  0.38641848632E+04  0.38239344438E+04 0.  0.
        5    1    3    3  502    0  0.84007009183E+03 -0.43619518341E+02 -0.14568986274E+04  0.16823186744E+04  0.46999998093E+01 0. -1.
       -5    1    3    3    0  502 -0.84007009183E+03  0.43619518341E+02  0.20131809542E+04  0.21818661889E+04  0.46999998093E+01 0.  1.
</event>
<event>
 5   0  0.7638805E-07  0.3120236E+04  0.7818609E-02  0.8210206E-01
       -2   -1    0    0    0  501  0.00000000000E+00  0.00000000000E+00  0.12968075891E+04  0.12968075891E+04  0.25500000920E-02 0. -1.
        2   -1    0    0  501    0  0.00000000000E+00  0.00000000000E+00 -0.18768918118E+04  0.18768918119E+04  0.25500000920E-02 0.  1.
    10030    2    1    2    0    0  0.00000000000E+00  0.00000000000E+00 -0.58008422273E+03  0.31736994010E+04  0.31202355972E+04 0.  0.
        5    1    3    3  502    0  0.78485996677E+03 -0.99872758615E+03  0.63128388971E+03  0.14184510560E+04  0.46999998093E+01 0. -1.
       -5    1    3    3    0  502 -0.78485996677E+03  0.99872758615E+03 -0.12113681124E+04  0.17552483450E+04  0.46999998093E+01 0.  1.
</event>
<event>
 5   0  0.2529875E-07  0.3899138E+04  0.7818609E-02  0.8025209E-01
        1   -1    0    0  501    0  0.00000000000E+00  0.00000000000E+00  0.20574222267E+04  0.20574222267E+04  0.50400001928E-02 0.  1.
       -1   -1    0    0    0  501  0.00000000000E+00  0.00000000000E+00 -0.18473693188E+04  0.18473693189E+04  0.50400001928E-02 0. -1.
    10030    2    1    2    0    0  0.00000000000E+00  0.00000000000E+00  0.21005290787E+03  0.39047915456E+04  0.38991376983E+04 0.  0.
        5    1    3    3  502    0 -0.83181317531E+03  0.10876937109E+04 -0.12847198620E+04  0.18776362750E+04  0.46999998093E+01 0. -1.
       -5    1    3    3    0  502  0.83181317531E+03 -0.10876937109E+04  0.14947727699E+04  0.20271552706E+04  0.46999998093E+01 0.  1.
</event>
<event>
 5   0  0.2907071E-07  0.2448224E+04  0.7818609E-02  0.8421667E-01
        1   -1    0    0  501    0  0.00000000000E+00  0.00000000000E+00  0.19642654924E+04  0.19642654924E+04  0.50400001928E-02 0. -1.
       -1   -1    0    0    0  501  0.00000000000E+00  0.00000000000E+00 -0.76285536551E+03  0.76285536553E+03  0.50400001928E-02 0.  1.
    10030    2    1    2    0    0  0.00000000000E+00  0.00000000000E+00  0.12014101268E+04  0.27271208579E+04  0.24482242301E+04 0.  0.
        2    1    3    3  502    0  0.90731396124E+03  0.75500965591E+03  0.96198604249E+03  0.15227197217E+04  0.25500000920E-02 0. -1.
       -2    1    3    3    0  502 -0.90731396124E+03 -0.75500965591E+03  0.23942408435E+03  0.12044011362E+04  0.25500000920E-02 0.  1.
</event>
<event>
 5   0  0.7638805E-07  0.3818049E+04  0.7818609E-02  0.8042293E-01
        2   -1    0    0  501    0  0.00000000000E+00  0.00000000000E+00  0.29578699893E+04  0.29578699893E+04  0.25500000920E-02 0. -1.
       -2   -1    0    0    0  501  0.00000000000E+00  0.00000000000E+00 -0.12320939237E+04  0.12320939237E+04  0.25500000920E-02 0.  1.
    10030    2    1    2    0    0  0.00000000000E+00  0.00000000000E+00  0.17257760656E+04  0.41899639131E+04  0.38180485283E+04 0.  0.
        5    1    3    3  502    0 -0.18567349639E+04 -0.22801488861E+03  0.12806194022E+04  0.22670385217E+04  0.46999998093E+01 0. -1.
       -5    1    3    3    0  502  0.18567349639E+04  0.22801488861E+03  0.44515666334E+03  0.19229253913E+04  0.46999998093E+01 0.  1.
</event>
<event>
 5   0  0.2529875E-07  0.3844981E+04  0.7818609E-02  0.8036570E-01
        1   -1    0    0  501    0  0.00000000000E+00  0.00000000000E+00  0.17169521379E+04  0.17169521379E+04  0.50400001928E-02 0.  1.
       -1   -1    0    0    0  501  0.00000000000E+00  0.00000000000E+00 -0.21526341923E+04  0.21526341923E+04  0.50400001928E-02 0. -1.
    10030    2    1    2    0    0  0.00000000000E+00  0.00000000000E+00 -0.43568205433E+03  0.38695863302E+04  0.38449810811E+04 0.  0.
        1    1    3    3  502    0 -0.11339648263E+04 -0.24479556611E+03 -0.17606773665E+04  0.21085032334E+04  0.50400001928E-02 0.  1.
       -1    1    3    3    0  502  0.11339648263E+04  0.24479556611E+03  0.13249953121E+04  0.17610830968E+04  0.50400001928E-02 0. -1.
</event>
<event>
 5   0  0.8421677E-07  0.3784919E+04  0.7818609E-02  0.8049399E-01
        2   -1    0    0  501    0  0.00000000000E+00  0.00000000000E+00  0.23020096931E+04  0.23020096931E+04  0.25500000920E-02 0.  1.
       -2   -1    0    0    0  501  0.00000000000E+00  0.00000000000E+00 -0.15557720135E+04  0.15557720135E+04  0.25500000920E-02 0. -1.
    10030    2    1    2    0    0  0.00000000000E+00  0.00000000000E+00  0.74623767964E+03  0.38577817066E+04  0.37849186281E+04 0.  0.
        3    1    3    3  502    0 -0.34035725277E+03  0.12569918288E+04  0.17726994254E+04  0.21996215084E+04  0.10100000352E+00 0.  1.
       -3    1    3    3    0  502  0.34035725277E+03 -0.12569918288E+04 -0.10264617458E+04  0.16581601982E+04  0.10100000352E+00 0. -1.
</event>
<event>
 5   0  0.7649458E-07  0.3650052E+04  0.7818609E-02  0.8079122E-01
       -2   -1    0    0    0  501  0.00000000000E+00  0.00000000000E+00  0.17647409368E+04  0.17647409368E+04  0.25500000920E-02 0. -1.
        2   -1    0    0  501    0  0.00000000000E+00  0.00000000000E+00 -0.18873706965E+04  0.18873706965E+04  0.25500000920E-02 0.  1.
    10030    2    1    2    0    0  0.00000000000E+00  0.00000000000E+00 -0.12262975975E+03  0.36521116333E+04  0.36500522358E+04 0.  0.
        4    1    3    3  502    0  0.62562516296E+03  0.10983666402E+04  0.12558254286E+04  0.17818291840E+04  0.12699999809E+01 0. -1.
       -4    1    3    3    0  502 -0.62562516296E+03 -0.10983666402E+04 -0.13784551884E+04  0.18702824493E+04  0.12699999809E+01 0.  1.
</event>
<event>
 5   0  0.8421677E-07  0.3863841E+04  0.7818609E-02  0.8032592E-01
        2   -1    0    0  501    0  0.00000000000E+00  0.00000000000E+00  0.25042756953E+04  0.25042756953E+04  0.25500000920E-02 0.  1.
       -2   -1    0    0    0  501  0.00000000000E+00  0.00000000000E+00 -0.14903779652E+04  0.14903779652E+04  0.25500000920E-02 0. -1.
    10030    2    1    2    0    0  0.00000000000E+00  0.00000000000E+00  0.10138977301E+04  0.39946536605E+04  0.38638412571E+04 0.  0.
        3    1    3    3  502    0 -0.17640551880E+04  0.55693929032E+03 -0.68905163458E+02  0.18511672024E+04  0.10100000352E+00 0. -1.
       -3    1    3    3    0  502  0.17640551880E+04 -0.55693929032E+03  0.10828028935E+04  0.21434864581E+04  0.10100000352E+00 0.  1.
</event>
<event>
 5   0  0.2907071E-07  0.3818328E+04  0.7818609E-02  0.8042233E-01
       -1   -1    0    0    0  501  0.00000000000E+00  0.00000000000E+00  0.18370715547E+04  0.18370715547E+04  0.50400001928E-02 0.  1.
        1   -1    0    0  501    0  0.00000000000E+00  0.00000000000E+00 -0.19840857759E+04  0.19840857759E+04  0.50400001928E-02 0. -1.
    10030    2    1    2    0    0  0.00000000000E+00  0.00000000000E+00 -0.14701422123E+03  0.38211573307E+04  0.38183281897E+04 0.  0.
        2    1    3    3  502    0  0.58718653030E+03  0.14866434865E+04 -0.11183164334E+04  0.19507763896E+04  0.25500000920E-02 0. -1.
       -2    1    3    3    0  502 -0.58718653030E+03 -0.14866434865E+04  0.97130221213E+03  0.18703809410E+04  0.25500000920E-02 0.  1.
</event>
<event>
 5   0  0.7649458E-07  0.3437713E+04  0.7818609E-02  0.8128712E-01
        2   -1    0    0  501    0  0.00000000000E+00  0.00000000000E+00  0.20994818179E+04  0.20994818179E+04  0.25500000920E-02 0.  1.
       -2   -1    0    0    0  501  0.00000000000E+00  0.00000000000E+00 -0.14072367162E+04  0.14072367162E+04  0.25500000920E-02 0. -1.
    10030    2    1    2    0    0  0.00000000000E+00  0.00000000000E+00  0.69224510170E+03  0.35067185341E+04  0.34377131347E+04 0.  0.
        4    1    3    3  502    0  0.85569718221E+03  0.34703150907E+03  0.18249884779E+04  0.20452953560E+04  0.12699999809E+01 0.  1.
       -4    1    3    3    0  502 -0.85569718221E+03 -0.34703150907E+03 -0.11327433762E+04  0.14614231780E+04  0.12699999809E+01 0. -1.
</event>
<event>
 5   0  0.2529875E-07  0.3689935E+04  0.7818609E-02  0.8070196E-01
       -1   -1    0    0    0  501  0.00000000000E+00  0.00000000000E+00  0.16895273355E+04  0.16895273355E+04  0.50400001928E-02 0.  1.
        1   -1    0    0  501    0  0.00000000000E+00  0.00000000000E+00 -0.20147088478E+04  0.20147088478E+04  0.50400001928E-02 0. -1.
    10030    2    1    2    0    0  0.00000000000E+00  0.00000000000E+00 -0.32518151230E+03  0.37042361834E+04  0.36899353228E+04 0.  0.
        5    1    3    3  502    0  0.29930629533E+03 -0.37538329554E+03 -0.19508950309E+04  0.20091068634E+04  0.46999998093E+01 0. -1.
       -5    1    3    3    0  502 -0.29930629533E+03  0.37538329554E+03  0.16257135186E+04  0.16951293200E+04  0.46999998093E+01 0.  1.
</event>
<event>
 5   0  0.2529875E-07  0.3701044E+04  0.7818609E-02  0.8067731E-01
        4   -1    0    0  501    0  0.00000000000E+00  0.00000000000E+00  0.15507850552E+04  0.15507855752E+04  0.12699999809E+01 0. -1.
       -4   -1    0    0    0  501  0.00000000000E+00  0.00000000000E+00 -0.22081911592E+04  0.22081915244E+04  0.12699999809E+01 0.  1.
    10030    2    1    2    0    0  0.00000000000E+00  0.00000000000E+00 -0.65740610396E+03  0.37589770996E+04  0.37010439135E+04 0.  0.
        4    1    3    3  502    0  0.15621690649E+04  0.77554319404E+03 -0.95692414451E+03  0.19893579025E+04  0.12699999809E+01 0.  1.
       -4    1    3    3    0  502 -0.15621690649E+04 -0.77554319404E+03  0.29951804055E+03  0.17696191971E+04  0.12699999809E+01 0. -1.
</event>
<event>
 5   0  0.2907071E-07  0.3818746E+04  0.7818609E-02  0.8042144E-01
        1   -1    0    0  501    0  0.00000000000E+00  0.00000000000E+00  0.17334364056E+04  0.17334364056E+04  0.50400001928E-02 0.  1.
       -1   -1    0    0    0  501  0.00000000000E+00  0.00000000000E+00 -0.21031665296E+04  0.21031665296E+04  0.50400001928E-02 0. -1.
    10030    2    1    2    0    0  0.00000000000E+00  0.00000000000E+00 -0.36973012405E+03  0.38366029352E+04  0.38187460924E+04 0.  0.
        2    1    3    3  502    0 -0.15413645307E+03 -0.37779136212E+03  0.16891241390E+04  0.17377067406E+04  0.25500000920E-02 0.  1.
       -2    1    3    3    0  502  0.15413645307E+03  0.37779136212E+03 -0.20588542630E+04  0.20988961946E+04  0.25500000920E-02 0. -1.
</event>
<event>
 5   0  0.2529875E-07  0.3305223E+04  0.7818609E-02  0.8161568E-01
        1   -1    0    0  501    0  0.00000000000E+00  0.00000000000E+00  0.15785007777E+04  0.15785007777E+04  0.50400001928E-02 0.  1.
       -1   -1    0    0    0  501  0.00000000000E+00  0.00000000000E+00 -0.17302018032E+04  0.17302018032E+04  0.50400001928E-02 0. -1.
    10030    2    1    2    0    0  0.00000000000E+00  0.00000000000E+00 -0.15170102546E+03  0.33087025809E+04  0.33052230738E+04 0.  0.
        3    1    3    3  502    0  0.15830782286E+04 -0.46027352683E+03 -0.19058567353E+03  0.16596117939E+04  0.10100000352E+00 0.  1.
       -3    1    3    3    0  502 -0.15830782286E+04  0.46027352683E+03  0.38884648070E+02  0.16490907869E+04  0.10100000352E+00 0. -1.
</event>
<event>
 5   0  0.2529875E-07  0.3842253E+04  0.7818609E-02  0.8037148E-01
        1   -1    0    0  501    0  0.00000000000E+00  0.00000000000E+00  0.18765039889E+04  0.18765039890E+04  0.50400001928E-02 0.  1.
       -1   -1    0    0    0  501  0.00000000000E+00  0.00000000000E+00 -0.19668101380E+04  0.19668101380E+04  0.50400001928E-02 0. -1.
    10030    2    1    2    0    0  0.00000000000E+00  0.00000000000E+00 -0.90306149045E+02  0.38433141269E+04  0.38422530211E+04 0.  0.
        5    1    3    3  502    0 -0.18200001521E+03 -0.15207902636E+04  0.11148127952E+04  0.18944014067E+04  0.46999998093E+01 0.  1.
       -5    1    3    3    0  502  0.18200001521E+03  0.15207902636E+04 -0.12051189442E+04  0.19489127202E+04  0.46999998093E+01 0. -1.
</event>
<event>
 5   0  0.7638805E-07  0.3583265E+04  0.7818609E-02  0.8094336E-01
       -2   -1    0    0    0  501  0.00000000000E+00  0.00000000000E+00  0.95532783925E+03  0.95532783926E+03  0.25500000920E-02 0. -1.
        2   -1    0    0  501    0  0.00000000000E+00  0.00000000000E+00 -0.33600471015E+04  0.33600471015E+04  0.25500000920E-02 0.  1.
    10030    2    1    2    0    0  0.00000000000E+00  0.00000000000E+00 -0.24047192623E+04  0.43153749408E+04  0.35832647333E+04 0.  0.
        5    1    3    3  502    0  0.79987994384E+02  0.11115950105E+04 -0.28917859909E+04  0.30991111393E+04  0.46999998093E+01 0.  1.
       -5    1    3    3    0  502 -0.79987994384E+02 -0.11115950105E+04  0.48706672860E+03  0.12162638015E+04  0.46999998093E+01 0. -1.
</event>
<event>
 5   0  0.2529875E-07  0.3832699E+04  0.7818609E-02  0.8039174E-01
        1   -1    0    0  501    0  0.00000000000E+00  0.00000000000E+00  0.27988273519E+04  0.27988273519E+04  0.50400001928E-02 0.  1.
       -1   -1    0    0    0  501  0.00000000000E+00  0.00000000000E+00 -0.13121190299E+04  0.13121190299E+04  0.50400001928E-02 0. -1.
    10030    2    1    2    0    0  0.00000000000E+00  0.00000000000E+00  0.14867083220E+04  0.41109463819E+04  0.38326985950E+04 0.  0.
        1    1    3    3  502    0  0.14278724525E+04 -0.69240068458E+03  0.18956644398E+04  0.24722018762E+04  0.50400001928E-02 0.  1.
       -1    1    3    3    0  502 -0.14278724525E+04  0.69240068458E+03 -0.40895611777E+03  0.16387445056E+04  0.50400001928E-02 0. -1.
</event>
<event>
 5   0  0.2529875E-07  0.2623421E+04  0.7818609E-02  0.8360289E-01
       -1   -1    0    0    0  501  0.00000000000E+00  0.00000000000E+00  0.13741430043E+04  0.13741430044E+04  0.50400001928E-02 0.  1.
        1   -1    0    0  501    0  0.00000000000E+00  0.00000000000E+00 -0.12521141796E+04  0.12521141796E+04  0.50400001928E-02 0. -1.
    10030    2    1    2    0    0  0.00000000000E+00  0.00000000000E+00  0.12202882478E+03  0.26262571839E+04  0.26234206224E+04 0.  0.
        5    1    3    3  502    0 -0.77040951785E+02  0.86920519369E+03  0.10414143609E+04  0.13586827952E+04  0.46999998093E+01 0.  1.
       -5    1    3    3    0  502  0.77040951785E+02 -0.86920519369E+03 -0.91938553608E+03  0.12675743887E+04  0.46999998093E+01 0. -1.
</event>
<event>
 5   0  0.2529875E-07  0.3818595E+04  0.7818609E-02  0.8042176E-01
       -1   -1    0    0    0  501  0.00000000000E+00  0.00000000000E+00  0.17153436530E+04  0.17153436530E+04  0.50400001928E-02 0. -1.
        1   -1    0    0  501    0  0.00000000000E+00  0.00000000000E+00 -0.21251815546E+04  0.21251815546E+04  0.50400001928E-02 0.  1.
    10030    2    1    2    0    0  0.00000000000E+00  0.00000000000E+00 -0.40983790162E+03  0.38405252076E+04  0.38185948678E+04 0.  0.
        4    1    3    3  502    0 -0.16642335899E+04 -0.87132312321E+03 -0.54825560152E+03  0.19569014396E+04  0.12699999809E+01 0.  1.
       -4    1    3    3    0  502  0.16642335899E+04  0.87132312321E+03  0.13841769989E+03  0.18836237680E+04  0.12699999809E+01 0. -1.
</event>
<event>
 5   0  0.2907071E-07  0.2461120E+04  0.7818609E-02  0.8416969E-01
       -1   -1    0    0    0  501  0.00000000000E+00  0.00000000000E+00  0.14202651581E+04  0.14202651581E+04  0.50400001928E-02 0. -1.
        1   -1    0    0  501    0  0.00000000000E+00  0.00000000000E+00 -0.10661935345E+04  0.10661935345E+04  0.50400001928E-02 0.  1.
    10030    2    1    2    0    0  0.00000000000E+00  0.00000000000E+00  0.35407162360E+03  0.24864586926E+04  0.24611196873E+04 0.  0.
        2    1    3    3  502    0 -0.22670559883E+03 -0.40785752947E+03 -0.97334207672E+03  0.10794155785E+04  0.25500000920E-02 0.  1.
       -2    1    3    3    0  502  0.22670559883E+03  0.40785752947E+03  0.13274137003E+04  0.14070431140E+04  0.25500000920E-02 0. -1.
</event>
<event>
 5   0  0.8038352E-07  0.3790453E+04  0.7818609E-02  0.8048207E-01
        2   -1    0    0  501    0  0.00000000000E+00  0.00000000000E+00  0.13459542693E+04  0.13459542693E+04  0.25500000920E-02 0. -1.
       -2   -1    0    0    0  501  0.00000000000E+00  0.00000000000E+00 -0.26686516236E+04  0.26686516236E+04  0.25500000920E-02 0.  1.
    10030    2    1    2    0    0  0.00000000000E+00  0.00000000000E+00 -0.13226973544E+04  0.40146058929E+04  0.37904527677E+04 0.  0.
        2    1    3    3  502    0  0.14108882921E+04 -0.15828741694E+03  0.66837245711E+03  0.15691980183E+04  0.25500000920E-02 0. -1.
       -2    1    3    3    0  502 -0.14108882921E+04  0.15828741694E+03 -0.19910698115E+04  0.24454078746E+04  0.25500000920E-02 0.  1.
</event>
<event>
 5   0  0.8421677E-07  0.3761359E+04  0.7818609E-02  0.8054498E-01
        2   -1    0    0  501    0  0.00000000000E+00  0.00000000000E+00  0.14929652413E+04  0.14929652413E+04  0.25500000920E-02 0.  1.
       -2   -1    0    0    0  501  0.00000000000E+00  0.00000000000E+00 -0.23690812189E+04  0.23690812189E+04  0.25500000920E-02 0. -1.
    10030    2    1    2    0    0  0.00000000000E+00  0.00000000000E+00 -0.87611597759E+03  0.38620464602E+04  0.37613592828E+04 0.  0.
        3    1    3    3  502    0 -0.62617861805E+03 -0.16296143302E+04 -0.11562190215E+04  0.20939400571E+04  0.10100000352E+00 0. -1.
       -3    1    3    3    0  502  0.62617861805E+03  0.16296143302E+04  0.28010304390E+03  0.17681064030E+04  0.10100000352E+00 0.  1.
</event>
<event>
 5   0  0.7649458E-07  0.3757971E+04  0.7818609E-02  0.8055235E-01
       -2   -1    0    0    0  501  0.00000000000E+00  0.00000000000E+00  0.17203441077E+04  0.17203441077E+04  0.25500000920E-02 0. -1.
        2   -1    0    0  501    0  0.00000000000E+00  0.00000000000E+00 -0.20522557306E+04  0.20522557306E+04  0.25500000920E-02 0.  1.
    10030    2    1    2    0    0  0.00000000000E+00  0.00000000000E+00 -0.33191162297E+03  0.37725998383E+04  0.37579707575E+04 0.  0.
        4    1    3    3  502    0 -0.16943376596E+04  0.74763311318E+03  0.15284783591E+03  0.18582517188E+04  0.12699999809E+01 0.  1.
       -4    1    3    3    0  502  0.16943376596E+04 -0.74763311318E+03 -0.48475945888E+03  0.19143481195E+04  0.12699999809E+01 0. -1.
</event>
<event>
 5   0  0.2529875E-07  0.3966002E+04  0.7818609E-02  0.8011440E-01
        1   -1    0    0  501    0  0.00000000000E+00  0.00000000000E+00  0.14045616407E+04  0.14045616407E+04  0.50400001928E-02 0.  1.
       -1   -1    0    0    0  501  0.00000000000E+00  0.00000000000E+00 -0.27996586222E+04  0.27996586222E+04  0.50400001928E-02 0. -1.
    10030    2    1    2    0    0  0.00000000000E+00  0.00000000000E+00 -0.13950969815E+04  0.42042202629E+04  0.39660020715E+04 0.  0.
        5    1    3    3  502    0 -0.12975442076E+04  0.90140206714E+03  0.57281659376E+03  0.16805616911E+04  0.46999998093E+01 0.  1.
       -5    1    3    3    0  502  0.12975442076E+04 -0.90140206714E+03 -0.19679135753E+04  0.25236585718E+04  0.46999998093E+01 0. -1.
</event>
<event>
 5   0  0.7551495E-07  0.3755612E+04  0.7818609E-02  0.8055748E-01
        2   -1    0    0  501    0  0.00000000000E+00  0.00000000000E+00  0.20843906354E+04  0.20843906354E+04  0.25500000920E-02 0.  1.
       -2   -1    0    0    0  501  0.00000000000E+00  0.00000000000E+00 -0.16916962787E+04  0.16916962787E+04  0.25500000920E-02 0. -1.
    10030    2    1    2    0    0  0.00000000000E+00  0.00000000000E+00  0.39269435663E+03  0.37760869141E+04  0.37556122703E+04 0.  0.
        1    1    3    3  502    0 -0.11048243732E+04  0.20209770938E+03 -0.13167409492E+04  0.17306897779E+04  0.50400001928E-02 0. -1.
       -1    1    3    3    0  502  0.11048243732E+04 -0.20209770938E+03  0.17094353059E+04  0.20453971362E+04  0.50400001928E-02 0.  1.
</event>
<event>
 5   0  0.7638805E-07  0.3154676E+04  0.7818609E-02  0.8200891E-01
        2   -1    0    0  501    0  0.00000000000E+00  0.00000000000E+00  0.20498206208E+04  0.20498206208E+04  0.25500000920E-02 0. -1.
       -2   -1    0    0    0  501  0.00000000000E+00  0.00000000000E+00 -0.12137623238E+04  0.12137623238E+04  0.25500000920E-02 0.  1.
    10030    2    1    2    0    0  0.00000000000E+00  0.00000000000E+00  0.83605829693E+03  0.32635829446E+04  0.31546759200E+04 0.  0.
        5    1    3    3  502    0 -0.11811487719E+04 -0.10316084685E+04  0.24293948825E+03  0.15869373455E+04  0.46999998093E+01 0.  1.
       -5    1    3    3    0  502  0.11811487719E+04  0.10316084685E+04  0.59311880868E+03  0.16766455991E+04  0.46999998093E+01 0. -1.
</event>
<event>
 5   0  0.2529875E-07  0.3781213E+04  0.7818609E-02  0.8050198E-01
       -1   -1    0    0    0  501  0.00000000000E+00  0.00000000000E+00  0.30719159152E+04  0.30719159152E+04  0.50400001928E-02 0.  1.
        1   -1    0    0  501    0  0.00000000000E+00  0.00000000000E+00 -0.11635714999E+04  0.11635714999E+04  0.50400001928E-02 0. -1.
    10030    2    1    2    0    0  0.00000000000E+00  0.00000000000E+00  0.19083444153E+04  0.42354874151E+04  0.37812134608E+04 0.  0.
        4    1    3    3  502    0  0.24795408118E+03  0.81777320406E+03  0.28432465807E+04  0.29688864868E+04  0.12699999809E+01 0.  1.
       -4    1    3    3    0  502 -0.24795408118E+03 -0.81777320406E+03 -0.93490216546E+03  0.12666009283E+04  0.12699999809E+01 0. -1.
</event>
<event>
 5   0  0.2907071E-07  0.3778412E+04  0.7818609E-02  0.8050804E-01
        1   -1    0    0  501    0  0.00000000000E+00  0.00000000000E+00  0.21609653799E+04  0.21609653799E+04  0.50400001928E-02 0. -1.
       -1   -1    0    0    0  501  0.00000000000E+00  0.00000000000E+00 -0.16516223911E+04  0.16516223911E+04  0.50400001928E-02 0.  1.
    10030    2    1    2    0    0  0.00000000000E+00  0.00000000000E+00  0.50934298874E+03  0.38125877710E+04  0.37784117340E+04 0.  0.
        2    1    3    3  502    0  0.96888823406E+03  0.15972405340E+04  0.53860084810E+03  0.19442254518E+04  0.25500000920E-02 0. -1.
       -2    1    3    3    0  502 -0.96888823406E+03 -0.15972405340E+04 -0.29257859356E+02  0.18683623193E+04  0.25500000920E-02 0.  1.
</event>
<event>
 5   0  0.2907071E-07  0.3777859E+04  0.7818609E-02  0.8050923E-01
       -1   -1    0    0    0  501  0.00000000000E+00  0.00000000000E+00  0.14228748864E+04  0.14228748864E+04  0.50400001928E-02 0. -1.
        1   -1    0    0  501    0  0.00000000000E+00  0.00000000000E+00 -0.25076379873E+04  0.25076379874E+04  0.50400001928E-02 0.  1.
    10030    2    1    2    0    0  0.00000000000E+00  0.00000000000E+00 -0.10847631010E+04  0.39305128737E+04  0.37778592437E+04 0.  0.
        2    1    3    3  502    0  0.95005060913E+03 -0.13622979902E+04  0.39375573430E+03  0.17068964679E+04  0.25500000920E-02 0. -1.
       -2    1    3    3    0  502 -0.95005060913E+03  0.13622979902E+04 -0.14785188353E+04  0.22236164058E+04  0.25500000920E-02 0.  1.
</event>
<event>
 5   0  0.2529875E-07  0.3799198E+04  0.7818609E-02  0.8046327E-01
       -1   -1    0    0    0  501  0.00000000000E+00  0.00000000000E+00  0.16795924117E+04  0.16795924117E+04  0.50400001928E-02 0. -1.
        1   -1    0    0  501    0  0.00000000000E+00  0.00000000000E+00 -0.21484235808E+04  0.21484235808E+04  0.50400001928E-02 0.  1.
    10030    2    1    2    0    0  0.00000000000E+00  0.00000000000E+00 -0.46883116910E+03  0.38280159926E+04  0.37991977804E+04 0.  0.
        5    1    3    3  502    0  0.15116895357E+04  0.25517903631E+03  0.89575757731E+03  0.17755915409E+04  0.46999998093E+01 0. -1.
       -5    1    3    3    0  502 -0.15116895357E+04 -0.25517903631E+03 -0.13645887464E+04  0.20524244517E+04  0.46999998093E+01 0.  1.
</event>
<event>
 5   0  0.2907071E-07  0.3624798E+04  0.7818609E-02  0.8084835E-01
        1   -1    0    0  501    0  0.00000000000E+00  0.00000000000E+00  0.23934802891E+04  0.23934802891E+04  0.50400001928E-02 0. -1.
       -1   -1    0    0    0  501  0.00000000000E+00  0.00000000000E+00 -0.13723909722E+04  0.13723909722E+04  0.50400001928E-02 0.  1.
    10030    2    1    2    0    0  0.00000000000E+00  0.00000000000E+00  0.10210893169E+04  0.37658712614E+04  0.36247983343E+04 0.  0.
        2    1    3    3  502    0  0.62930203979E+03 -0.16467814693E+04  0.94748442160E+03  0.20014087524E+04  0.25500000920E-02 0. -1.
       -2    1    3    3    0  502 -0.62930203979E+03  0.16467814693E+04  0.73604895317E+02  0.17644625090E+04  0.25500000920E-02 0.  1.
</event>
<event>
 5   0  0.8038352E-07  0.3792172E+04  0.7818609E-02  0.8047837E-01
       -2   -1    0    0    0  501  0.00000000000E+00  0.00000000000E+00  0.14310200802E+04  0.14310200802E+04  0.25500000920E-02 0. -1.
        2   -1    0    0  501    0  0.00000000000E+00  0.00000000000E+00 -0.25122935217E+04  0.25122935217E+04  0.25500000920E-02 0.  1.
    10030    2    1    2    0    0  0.00000000000E+00  0.00000000000E+00 -0.10812734415E+04  0.39433136019E+04  0.37921721886E+04 0.  0.
        2    1    3    3  502    0 -0.46212806705E+03 -0.88281056613E+03  0.11367984440E+04  0.15116969102E+04  0.25500000920E-02 0. -1.
       -2    1    3    3    0  502  0.46212806705E+03  0.88281056613E+03 -0.22180718855E+04  0.24316166917E+04  0.25500000920E-02 0.  1.
</event>
<event>
 5   0  0.8038352E-07  0.3758534E+04  0.7818609E-02  0.8055112E-01
       -2   -1    0    0    0  501  0.00000000000E+00  0.00000000000E+00  0.14906400650E+04  0.14906400650E+04  0.25500000920E-02 0.  1.
        2   -1    0    0  501    0  0.00000000000E+00  0.00000000000E+00 -0.23692129635E+04  0.23692129635E+04  0.25500000920E-02 0. -1.
    10030    2    1    2    0    0  0.00000000000E+00  0.00000000000E+00 -0.87857289846E+03  0.38598530286E+04  0.37585336322E+04 0.  0.
        2    1    3    3  502    0  0.10352992722E+04  0.15683744460E+04 -0.44019357498E+03  0.19301329926E+04  0.25500000920E-02 0.  1.
       -2    1    3    3    0  502 -0.10352992722E+04 -0.15683744460E+04 -0.43837932348E+03  0.19297200359E+04  0.25500000920E-02 0. -1.
</event>
<event>
 5   0  0.8421677E-07  0.3760391E+04  0.7818609E-02  0.8054709E-01
       -2   -1    0    0    0  501  0.00000000000E+00  0.00000000000E+00  0.12335908534E+04  0.12335908534E+04  0.25500000920E-02 0. -1.
        2   -1    0    0  501    0  0.00000000000E+00  0.00000000000E+00 -0.28657275899E+04  0.28657275899E+04  0.25500000920E-02 0.  1.
    10030    2    1    2    0    0  0.00000000000E+00  0.00000000000E+00 -0.16321367365E+04  0.40993184434E+04  0.37603911198E+04 0.  0.
        3    1    3    3  502    0 -0.99926602269E+03  0.12341683196E+04  0.28135902487E+03  0.16127203528E+04  0.10100000352E+00 0. -1.
       -3    1    3    3    0  502  0.99926602269E+03 -0.12341683196E+04 -0.19134957613E+04  0.24865980906E+04  0.10100000352E+00 0.  1.
</event>
<event>
 5   0  0.2529875E-07  0.3407614E+04  0.7818609E-02  0.8136040E-01
        1   -1    0    0  501    0  0.00000000000E+00  0.00000000000E+00  0.18581953855E+04  0.18581953855E+04  0.50400001928E-02 0. -1.
       -1   -1    0    0    0  501  0.00000000000E+00  0.00000000000E+00 -0.15622457703E+04  0.15622457703E+04  0.50400001928E-02 0.  1.
    10030    2    1    2    0    0  0.00000000000E+00  0.00000000000E+00  0.29594961522E+03  0.34204411559E+04  0.34076137583E+04 0.  0.
        1    1    3    3  502    0  0.13930444111E+04 -0.16970883436E+03 -0.82188391199E+03  0.16263047022E+04  0.50400001928E-02 0.  1.
       -1    1    3    3    0  502 -0.13930444111E+04  0.16970883436E+03  0.11178335272E+04  0.17941364536E+04  0.50400001928E-02 0. -1.
</event>
<event>
 5   0  0.2907071E-07  0.3887491E+04  0.7818609E-02  0.8027636E-01
       -1   -1    0    0    0  501  0.00000000000E+00  0.00000000000E+00  0.21596510018E+04  0.21596510018E+04  0.50400001928E-02 0. -1.
        1   -1    0    0  501    0  0.00000000000E+00  0.00000000000E+00 -0.17494248762E+04  0.17494248762E+04  0.50400001928E-02 0.  1.
    10030    2    1    2    0    0  0.00000000000E+00  0.00000000000E+00  0.41022612559E+03  0.39090758779E+04  0.38874913177E+04 0.  0.
        2    1    3    3  502    0 -0.15283204410E+04 -0.11089386997E+04 -0.25857498411E+03  0.19058776016E+04  0.25500000920E-02 0.  1.
       -2    1    3    3    0  502  0.15283204410E+04  0.11089386997E+04  0.66880110970E+03  0.20031982763E+04  0.25500000920E-02 0. -1.
</event>
<event>
 5   0  0.2907071E-07  0.3558391E+04  0.7818609E-02  0.8100090E-01
        1   -1    0    0  501    0  0.00000000000E+00  0.00000000000E+00  0.20710570839E+04  0.20710570839E+04  0.50400001928E-02 0. -1.
       -1   -1    0    0    0  501  0.00000000000E+00  0.00000000000E+00 -0.15284639745E+04  0.15284639745E+04  0.50400001928E-02 0.  1.
    10030    2    1    2    0    0  0.00000000000E+00  0.00000000000E+00  0.54259310940E+03  0.35995210584E+04  0.35583907273E+04 0.  0.
        2    1    3    3  502    0  0.14491722054E+04  0.76644612868E+02  0.13125446099E+04  0.19567186386E+04  0.25500000920E-02 0. -1.
       -2    1    3    3    0  502 -0.14491722054E+04 -0.76644612868E+02 -0.76995150049E+03  0.16428024199E+04  0.25500000920E-02 0.  1.
</event>
<event>
 5   0  0.8421677E-07  0.3782519E+04  0.7818609E-02  0.8049917E-01
        2   -1    0    0  501    0  0.00000000000E+00  0.00000000000E+00  0.27127426870E+04  0.27127426870E+04  0.25500000920E-02 0. -1.
       -2   -1    0    0    0  501  0.00000000000E+00  0.00000000000E+00 -0.13185409066E+04  0.13185409066E+04  0.25500000920E-02 0.  1.
    10030    2    1    2    0    0  0.00000000000E+00  0.00000000000E+00  0.13942017805E+04  0.40312835936E+04  0.37825188443E+04 0.  0.
        3    1    3    3  502    0  0.14342391889E+04 -0.44929347415E+03  0.19206252675E+04  0.24387923457E+04  0.10100000352E+00 0. -1.
       -3    1    3    3    0  502 -0.14342391889E+04  0.44929347415E+03 -0.52642348702E+03  0.15924912479E+04  0.10100000352E+00 0.  1.
</event>
<event>
 5   0  0.8038352E-07  0.3800706E+04  0.7818609E-02  0.8046003E-01
        2   -1    0    0  501    0  0.00000000000E+00  0.00000000000E+00  0.14549577313E+04  0.14549577313E+04  0.25500000920E-02 0. -1.
       -2   -1    0    0    0  501  0.00000000000E+00  0.00000000000E+00 -0.24820936361E+04  0.24820936361E+04  0.25500000920E-02 0.  1.
    10030    2    1    2    0    0  0.00000000000E+00  0.00000000000E+00 -0.10271359049E+04  0.39370513674E+04  0.38007058953E+04 0.  0.
        2    1    3    3  502    0 -0.70646374162E+03 -0.62371395605E+03  0.11958532029E+04  0.15225554178E+04  0.25500000920E-02 0. -1.
       -2    1    3    3    0  502  0.70646374162E+03  0.62371395605E+03 -0.22229891078E+04  0.24144959496E+04  0.25500000920E-02 0.  1.
</event>
<event>
 5   0  0.8038352E-07  0.3868924E+04  0.7818609E-02  0.8031524E-01
       -2   -1    0    0    0  501  0.00000000000E+00  0.00000000000E+00  0.28848825018E+04  0.28848825018E+04  0.25500000920E-02 0.  1.
        2   -1    0    0  501    0  0.00000000000E+00  0.00000000000E+00 -0.12971560644E+04  0.12971560644E+04  0.25500000920E-02 0. -1.
    10030    2    1    2    0    0  0.00000000000E+00  0.00000000000E+00  0.15877264373E+04  0.41820385662E+04  0.38689237948E+04 0.  0.
        2    1    3    3  502    0  0.12424133470E+04  0.67266343042E+02  0.23949646888E+04  0.26988833888E+04  0.25500000920E-02 0.  1.
       -2    1    3    3    0  502 -0.12424133470E+04 -0.67266343042E+02 -0.80723825144E+03  0.14831551774E+04  0.25500000920E-02 0. -1.
</event>
<event>
 5   0  0.2529875E-07  0.3724220E+04  0.7818609E-02  0.8062615E-01
       -1   -1    0    0    0  501  0.00000000000E+00  0.00000000000E+00  0.15885014451E+04  0.15885014451E+04  0.50400001928E-02 0.  1.
        1   -1    0    0  501    0  0.00000000000E+00  0.00000000000E+00 -0.21828462424E+04  0.21828462424E+04  0.50400001928E-02 0. -1.
    10030    2    1    2    0    0  0.00000000000E+00  0.00000000000E+00 -0.59434479723E+03  0.37713476875E+04  0.37242204073E+04 0.  0.
        4    1    3    3  502    0  0.77392995236E+03  0.14742374041E+04  0.54711002385E+03  0.17526193214E+04  0.12699999809E+01 0.  1.
       -4    1    3    3    0  502 -0.77392995236E+03 -0.14742374041E+04 -0.11414548211E+04  0.20187283661E+04  0.12699999809E+01 0. -1.
</event>
<event>
 5   0  0.2529875E-07  0.3783239E+04  0.7818609E-02  0.8049761E-01
       -3   -1    0    0    0  501  0.00000000000E+00  0.00000000000E+00  0.23869935600E+04  0.23869935622E+04  0.10100000352E+00 0. -1.
        3   -1    0    0  501    0  0.00000000000E+00  0.00000000000E+00 -0.14990509449E+04  0.14990509483E+04  0.10100000352E+00 0.  1.
    10030    2    1    2    0    0  0.00000000000E+00  0.00000000000E+00  0.88794261513E+03  0.38860445105E+04  0.37832393329E+04 0.  0.
        5    1    3    3  502    0  0.11178402683E+03  0.76896644228E+03  0.22154807890E+04  0.23478037130E+04  0.46999998093E+01 0. -1.
       -5    1    3    3    0  502 -0.11178402683E+03 -0.76896644228E+03 -0.13275381739E+04  0.15382407975E+04  0.46999998093E+01 0.  1.
</event>
<event>
 5   0  0.7551495E-07  0.3753077E+04  0.7818609E-02  0.8056300E-01
        2   -1    0    0  501    0  0.00000000000E+00  0.00000000000E+00  0.28892869250E+04  0.28892869250E+04  0.25500000920E-02 0. -1.
       -2   -1    0    0    0  501  0.00000000000E+00  0.00000000000E+00 -0.12187770269E+04  0.12187770269E+04  0.25500000920E-02 0.  1.
    10030    2    1    2    0    0  0.00000000000E+00  0.00000000000E+00  0.16705098981E+04  0.41080639520E+04  0.37530768862E+04 0.  0.
        1    1    3    3  502    0  0.85407843487E+03 -0.10283715012E+04  0.22767866345E+04  0.26402187971E+04  0.50400001928E-02 0. -1.
       -1    1    3    3    0  502 -0.85407843487E+03  0.10283715012E+04 -0.60627673641E+03  0.14678451548E+04  0.50400001928E-02 0.  1.
</event>
<event>
 5   0  0.8421677E-07  0.3672947E+04  0.7818609E-02  0.8073984E-01
        2   -1    0    0  501    0  0.00000000000E+00  0.00000000000E+00  0.16698509711E+04  0.16698509711E+04  0.25500000920E-02 0.  1.
       -2   -1    0    0    0  501  0.00000000000E+00  0.00000000000E+00 -0.20197220891E+04  0.20197220891E+04  0.25500000920E-02 0. -1.
    10030    2    1    2    0    0  0.00000000000E+00  0.00000000000E+00 -0.34987111799E+03  0.36895730602E+04  0.36729469868E+04 0.  0.
        3    1    3    3  502    0 -0.17799342823E+00  0.10843701911E+04 -0.16637972513E+04  0.19859708071E+04  0.10100000352E+00 0. -1.
       -3    1    3    3    0  502  0.17799342823E+00 -0.10843701911E+04  0.13139261333E+04  0.17036022532E+04  0.10100000352E+00 0.  1.
</event>
<event>
 5   0  0.2907071E-07  0.3792294E+04  0.7818609E-02  0.8047811E-01
       -1   -1    0    0    0  501  0.00000000000E+00  0.00000000000E+00  0.26289741171E+04  0.26289741172E+04  0.50400001928E-02 0.  1.
        1   -1    0    0  501    0  0.00000000000E+00  0.00000000000E+00 -0.13675954087E+04  0.13675954087E+04  0.50400001928E-02 0. -1.
    10030    2    1    2    0    0  0.00000000000E+00  0.00000000000E+00  0.12613787085E+04  0.39965695259E+04  0.37922937293E+04 0.  0.
        2    1    3    3  502    0  0.15051223776E+04 -0.88451351904E+03 -0.14918246818E+03  0.17521452411E+04  0.25500000920E-02 0. -1.
       -2    1    3    3    0  502 -0.15051223776E+04  0.88451351904E+03  0.14105611766E+04  0.22444242848E+04  0.25500000920E-02 0.  1.
</event>
<event>
 5   0  0.8421677E-07  0.3752633E+04  0.7818609E-02  0.8056397E-01
       -2   -1    0    0    0  501  0.00000000000E+00  0.00000000000E+00  0.19373796685E+04  0.19373796685E+04  0.25500000920E-02 0. -1.
        2   -1    0    0  501    0  0.00000000000E+00  0.00000000000E+00 -0.18171780329E+04  0.18171780329E+04  0.25500000920E-02 0.  1.
    10030    2    1    2    0    0  0.00000000000E+00  0.00000000000E+00  0.12020163563E+03  0.37545577014E+04  0.37526330889E+04 0.  0.
        3    1    3    3  502    0 -0.43526641841E+02  0.76172573600E+03  0.17751687320E+04  0.19321865082E+04  0.10100000352E+00 0. -1.
       -3    1    3    3    0  502  0.43526641841E+02 -0.76172573600E+03 -0.16549670963E+04  0.18223711931E+04  0.10100000352E+00 0.  1.
</event>
<event>
 5   0  0.8038352E-07  0.3621003E+04  0.7818609E-02  0.8085698E-01
        2   -1    0    0  501    0  0.00000000000E+00  0.00000000000E+00  0.15866853051E+04  0.15866853051E+04  0.25500000920E-02 0. -1.
       -2   -1    0    0    0  501  0.00000000000E+00  0.00000000000E+00 -0.20658889488E+04  0.20658889488E+04  0.25500000920E-02 0.  1.
    10030    2    1    2    0    0  0.00000000000E+00  0.00000000000E+00 -0.47920364367E+03  0.36525742538E+04  0.36210029754E+04 0.  0.
        2    1    3    3  502    0 -0.82527960747E+03 -0.69501399332E+03 -0.17061642432E+04  0.20186944559E+04  0.25500000920E-02 0.  1.
       -2    1    3    3    0  502  0.82527960747E+03  0.69501399332E+03  0.12269605995E+04  0.16338797980E+04  0.25500000920E-02 0. -1.
</event>
<event>
 5   0  0.8421677E-07  0.3823043E+04  0.7818609E-02  0.8041228E-01
        2   -1    0    0  501    0  0.00000000000E+00  0.00000000000E+00  0.23364312411E+04  0.23364312411E+04  0.25500000920E-02 0.  1.
       -2   -1    0    0    0  501  0.00000000000E+00  0.00000000000E+00 -0.15638866661E+04  0.15638866661E+04  0.25500000920E-02 0. -1.
    10030    2    1    2    0    0  0.00000000000E+00  0.00000000000E+00  0.77254457493E+03  0.39003179072E+04  0.38230425916E+04 0.  0.
        3    1    3    3  502    0 -0.55394287037E+03  0.15095187294E+04 -0.66826195684E+03  0.17412850287E+04  0.10100000352E+00 0. -1.
       -3    1    3    3    0  502  0.55394287037E+03 -0.15095187294E+04  0.14408065318E+04  0.21590328785E+04  0.10100000352E+00 0.  1.
</event>
<event>
 5   0  0.2529875E-07  0.3625095E+04  0.7818609E-02  0.8084767E-01
        1   -1    0    0  501    0  0.00000000000E+00  0.00000000000E+00  0.15183827252E+04  0.15183827252E+04  0.50400001928E-02 0. -1.
       -1   -1    0    0    0  501  0.00000000000E+00  0.00000000000E+00 -0.21637025649E+04  0.21637025649E+04  0.50400001928E-02 0.  1.
    10030    2    1    2    0    0  0.00000000000E+00  0.00000000000E+00 -0.64531983969E+03  0.36820852901E+04  0.36250950867E+04 0.  0.
        5    1    3    3  502    0 -0.62533685987E+03 -0.12948928976E+03 -0.20456452010E+04  0.21430119091E+04  0.46999998093E+01 0.  1.
       -5    1    3    3    0  502  0.62533685987E+03  0.12948928976E+03  0.14003253613E+04  0.15390733809E+04  0.46999998093E+01 0. -1.
</event>
<event>
 5   0  0.2529875E-07  0.3677082E+04  0.7818609E-02  0.8073060E-01
       -1   -1    0    0    0  501  0.00000000000E+00  0.00000000000E+00  0.25163171072E+04  0.25163171072E+04  0.50400001928E-02 0. -1.
        1   -1    0    0  501    0  0.00000000000E+00  0.00000000000E+00 -0.13433258647E+04  0.13433258647E+04  0.50400001928E-02 0.  1.
    10030    2    1    2    0    0  0.00000000000E+00  0.00000000000E+00  0.11729912425E+04  0.38596429719E+04  0.36770824597E+04 0.  0.
        5    1    3    3  502    0 -0.17963440927E+04 -0.37297519172E+03  0.46119923024E+03  0.18917424278E+04  0.46999998093E+01 0. -1.
       -5    1    3    3    0  502  0.17963440927E+04  0.37297519172E+03  0.71179201228E+03  0.19679005442E+04  0.46999998093E+01 0.  1.
</event>
<event>
 5   0  0.7551495E-07  0.3795203E+04  0.7818609E-02  0.8047185E-01
        2   -1    0    0  501    0  0.00000000000E+00  0.00000000000E+00  0.14325842136E+04  0.14325842136E+04  0.25500000920E-02 0.  1.
       -2   -1    0    0    0  501  0.00000000000E+00  0.00000000000E+00 -0.25135631678E+04  0.25135631678E+04  0.25500000920E-02 0. -1.
    10030    2    1    2    0    0  0.00000000000E+00  0.00000000000E+00 -0.10809789542E+04  0.39461473814E+04  0.37952027161E+04 0.  0.
        1    1    3    3  502    0 -0.18323526502E+04 -0.21552330658E+03 -0.10019006117E+04  0.20994693058E+04  0.50400001928E-02 0. -1.
       -1    1    3    3    0  502  0.18323526502E+04  0.21552330658E+03 -0.79078342529E+02  0.18466780756E+04  0.50400001928E-02 0.  1.
</event>
<event>
 5   0  0.2529875E-07  0.3739408E+04  0.7818609E-02  0.8059284E-01
        1   -1    0    0  501    0  0.00000000000E+00  0.00000000000E+00  0.26443230494E+04  0.26443230494E+04  0.50400001928E-02 0.  1.
       -1   -1    0    0    0  501  0.00000000000E+00  0.00000000000E+00 -0.13219993843E+04  0.13219993843E+04  0.50400001928E-02 0. -1.
    10030    2    1    2    0    0  0.00000000000E+00  0.00000000000E+00  0.13223236651E+04  0.39663224338E+04  0.37394082116E+04 0.  0.
        4    1    3    3  502    0  0.15997122848E+04 -0.96624898770E+03  0.60234102078E+03  0.19635510736E+04  0.12699999809E+01 0.  1.
       -4    1    3    3    0  502 -0.15997122848E+04  0.96624898770E+03  0.71998264431E+03  0.20027713602E+04  0.12699999809E+01 0. -1.
</event>
<event>
 5   0  0.8038352E-07  0.3730726E+04  0.7818609E-02  0.8061187E-01
        2   -1    0    0  501    0  0.00000000000E+00  0.00000000000E+00  0.23582991095E+04  0.23582991095E+04  0.25500000920E-02 0.  1.
       -2   -1    0    0    0  501  0.00000000000E+00  0.00000000000E+00 -0.14754610447E+04  0.14754610447E+04  0.25500000920E-02 0. -1.
    10030    2    1    2    0    0  0.00000000000E+00  0.00000000000E+00  0.88283806486E+03  0.38337601542E+04  0.37307256494E+04 0.  0.
        2    1    3    3  502    0 -0.79515305439E+03 -0.16807462057E+04  0.59522661163E+03  0.19522988775E+04  0.25500000920E-02 0. -1.
       -2    1    3    3    0  502  0.79515305439E+03  0.16807462057E+04  0.28761145323E+03  0.18814612767E+04  0.25500000920E-02 0.  1.
</event>
<event>
 5   0  0.2529875E-07  0.3840759E+04  0.7818609E-02  0.8037464E-01
       -1   -1    0    0    0  501  0.00000000000E+00  0.00000000000E+00  0.15444306203E+04  0.15444306203E+04  0.50400001928E-02 0. -1.
        1   -1    0    0  501    0  0.00000000000E+00  0.00000000000E+00 -0.23878428971E+04  0.23878428971E+04  0.50400001928E-02 0.  1.
    10030    2    1    2    0    0  0.00000000000E+00  0.00000000000E+00 -0.84341227679E+03  0.39322735174E+04  0.38407591368E+04 0.  0.
        1    1    3    3  502    0  0.98212791154E+03  0.58464709678E+03  0.11582652558E+04  0.16272571602E+04  0.50400001928E-02 0. -1.
       -1    1    3    3    0  502 -0.98212791154E+03 -0.58464709678E+03 -0.20016775326E+04  0.23050163572E+04  0.50400001928E-02 0.  1.
</event>
<event>
 5   0  0.7649458E-07  0.2922703E+04  0.7818609E-02  0.8266155E-01
        2   -1    0    0  501    0  0.00000000000E+00  0.00000000000E+00  0.17913643367E+04  0.17913643367E+04  0.25500000920E-02 0.  1.
       -2   -1    0    0    0  501  0.00000000000E+00  0.00000000000E+00 -0.11921351240E+04  0.11921351240E+04  0.25500000920E-02 0. -1.
    10030    2    1    2    0    0  0.00000000000E+00  0.00000000000E+00  0.59922921270E+03  0.29834994606E+04  0.29227030951E+04 0.  0.
        4    1    3    3  502    0  0.81064079110E+03  0.11792397276E+04  0.60209221743E+03  0.15525016839E+04  0.12699999809E+01 0.  1.
       -4    1    3    3    0  502 -0.81064079110E+03 -0.11792397276E+04 -0.28630047333E+01  0.14309977767E+04  0.12699999809E+01 0. -1.
</event>
<event>
 5   0  0.2529875E-07  0.3816272E+04  0.7818609E-02  0.8042672E-01
        1   -1    0    0  501    0  0.00000000000E+00  0.00000000000E+00  0.16416402776E+04  0.16416402776E+04  0.50400001928E-02 0.  1.
       -1   -1    0    0    0  501  0.00000000000E+00  0.00000000000E+00 -0.22178928522E+04  0.22178928522E+04  0.50400001928E-02 0. -1.
    10030    2    1    2    0    0  0.00000000000E+00  0.00000000000E+00 -0.57625257465E+03  0.38595331298E+04  0.38162716033E+04 0.  0.
        4    1    3    3  502    0  0.16065605966E+04  0.80196657797E+03 -0.94104009424E+03  0.20272507034E+04  0.12699999809E+01 0. -1.
       -4    1    3    3    0  502 -0.16065605966E+04 -0.80196657797E+03  0.36478751959E+03  0.18322824264E+04  0.12699999809E+01 0.  1.
</event>
<event>
 5   0  0.7638805E-07  0.2383804E+04  0.7818609E-02  0.8445592E-01
        2   -1    0    0  501    0  0.00000000000E+00  0.00000000000E+00  0.12884813847E+04  0.12884813847E+04  0.25500000920E-02 0. -1.
       -2   -1    0    0    0  501  0.00000000000E+00  0.00000000000E+00 -0.11025613823E+04  0.11025613823E+04  0.25500000920E-02 0.  1.
    10030    2    1    2    0    0  0.00000000000E+00  0.00000000000E+00  0.18592000241E+03  0.23910427670E+04  0.23838035293E+04 0.  0.
        5    1    3    3  502    0 -0.31159107468E+03  0.22302438967E+03 -0.10390855505E+04  0.11074970643E+04  0.46999998093E+01 0.  1.
       -5    1    3    3    0  502  0.31159107468E+03 -0.22302438967E+03  0.12250055529E+04  0.12835457027E+04  0.46999998093E+01 0. -1.
</event>
<event>
 5   0  0.2529875E-07  0.3378008E+04  0.7818609E-02  0.8143325E-01
        1   -1    0    0  501    0  0.00000000000E+00  0.00000000000E+00  0.16695017528E+04  0.16695017529E+04  0.50400001928E-02 0.  1.
       -1   -1    0    0    0  501  0.00000000000E+00  0.00000000000E+00 -0.17087344892E+04  0.17087344892E+04  0.50400001928E-02 0. -1.
    10030    2    1    2    0    0  0.00000000000E+00  0.00000000000E+00 -0.39232736306E+02  0.33782362420E+04  0.33780084220E+04 0.  0.
        4    1    3    3  502    0  0.10684372691E+01 -0.16396901529E+04 -0.42479634611E+03  0.16938236295E+04  0.12699999809E+01 0.  1.
       -4    1    3    3    0  502 -0.10684372691E+01  0.16396901529E+04  0.38556360981E+03  0.16844126125E+04  0.12699999809E+01 0. -1.
</event>
<event>
 5   0  0.2529875E-07  0.3502053E+04  0.7818609E-02  0.8113304E-01
        1   -1    0    0  501    0  0.00000000000E+00  0.00000000000E+00  0.10772608353E+04  0.10772608353E+04  0.50400001928E-02 0. -1.
       -1   -1    0    0    0  501  0.00000000000E+00  0.00000000000E+00 -0.28461944220E+04  0.28461944220E+04  0.50400001928E-02 0.  1.
    10030    2    1    2    0    0  0.00000000000E+00  0.00000000000E+00 -0.17689335867E+04  0.39234552573E+04  0.35020529867E+04 0.  0.
        5    1    3    3  502    0 -0.14981234130E+04  0.57679135725E+03 -0.16679049338E+04  0.23149494571E+04  0.46999998093E+01 0.  1.
       -5    1    3    3    0  502  0.14981234130E+04 -0.57679135725E+03 -0.10102865285E+03  0.16085058002E+04  0.46999998093E+01 0. -1.
</event>
<event>
 5   0  0.7551495E-07  0.3725295E+04  0.7818609E-02  0.8062379E-01
       -2   -1    0    0    0  501  0.00000000000E+00  0.00000000000E+00  0.13142273723E+04  0.13142273723E+04  0.25500000920E-02 0. -1.
        2   -1    0    0  501    0  0.00000000000E+00  0.00000000000E+00 -0.26399209958E+04  0.26399209958E+04  0.25500000920E-02 0.  1.
    10030    2    1    2    0    0  0.00000000000E+00  0.00000000000E+00 -0.13256936234E+04  0.39541483681E+04  0.37252953888E+04 0.  0.
        1    1    3    3  502    0  0.14859052755E+04  0.64769789518E+03  0.31114626364E+03  0.16505269003E+04  0.50400001928E-02 0. -1.
       -1    1    3    3    0  502 -0.14859052755E+04 -0.64769789518E+03 -0.16368398871E+04  0.23036214678E+04  0.50400001928E-02 0.  1.
</event>
<event>
 5   0  0.2529875E-07  0.3743574E+04  0.7818609E-02  0.8058373E-01
        1   -1    0    0  501    0  0.00000000000E+00  0.00000000000E+00  0.10615103409E+04  0.10615103409E+04  0.50400001928E-02 0.  1.
       -1   -1    0    0    0  501  0.00000000000E+00  0.00000000000E+00 -0.33005667758E+04  0.33005667758E+04  0.50400001928E-02 0. -1.
    10030    2    1    2    0    0  0.00000000000E+00  0.00000000000E+00 -0.22390564349E+04  0.43620771166E+04  0.37435735672E+04 0.  0.
        5    1    3    3  502    0 -0.17106703804E+04  0.12913840107E+03 -0.19918814446E+04  0.26288179200E+04  0.46999998093E+01 0. -1.
       -5    1    3    3    0  502  0.17106703804E+04 -0.12913840107E+03 -0.24717499030E+03  0.17332591967E+04  0.46999998093E+01 0.  1.
</event>
<event>
 5   0  0.7551495E-07  0.4145051E+04  0.7818609E-02  0.7975908E-01
       -2   -1    0    0    0  501  0.00000000000E+00  0.00000000000E+00  0.16946347230E+04  0.16946347230E+04  0.25500000920E-02 0. -1.
        2   -1    0    0  501    0  0.00000000000E+00  0.00000000000E+00 -0.25346829926E+04  0.25346829926E+04  0.25500000920E-02 0.  1.
    10030    2    1    2    0    0  0.00000000000E+00  0.00000000000E+00 -0.84004826955E+03  0.42293177156E+04  0.41450509339E+04 0.  0.
        1    1    3    3  502    0 -0.54501438784E+03  0.74439233316E+03 -0.23136086601E+04  0.24907721013E+04  0.50400001928E-02 0.  1.
       -1    1    3    3    0  502  0.54501438784E+03 -0.74439233316E+03  0.14735603905E+04  0.17385456143E+04  0.50400001928E-02 0. -1.
</event>
<event>
 5   0  0.2529875E-07  0.3560136E+04  0.7818609E-02  0.8099685E-01
       -1   -1    0    0    0  501  0.00000000000E+00  0.00000000000E+00  0.15978558953E+04  0.15978558953E+04  0.50400001928E-02 0.  1.
        1   -1    0    0  501    0  0.00000000000E+00  0.00000000000E+00 -0.19830585854E+04  0.19830585854E+04  0.50400001928E-02 0. -1.
    10030    2    1    2    0    0  0.00000000000E+00  0.00000000000E+00 -0.38520269013E+03  0.35809144807E+04  0.35601358690E+04 0.  0.
        3    1    3    3  502    0 -0.92334227185E+03  0.61406760967E+03 -0.15932089805E+04  0.19411220585E+04  0.10100000352E+00 0. -1.
       -3    1    3    3    0  502  0.92334227185E+03 -0.61406760967E+03  0.12080062904E+04  0.16397924222E+04  0.10100000352E+00 0.  1.
</event>
<event>
 5   0  0.2529875E-07  0.3787972E+04  0.7818609E-02  0.8048741E-01
       -1   -1    0    0    0  501  0.00000000000E+00  0.00000000000E+00  0.17232001665E+04  0.17232001665E+04  0.50400001928E-02 0.  1.
        1   -1    0    0  501    0  0.00000000000E+00  0.00000000000E+00 -0.20816979215E+04  0.20816979216E+04  0.50400001928E-02 0. -1.
    10030    2    1    2    0    0  0.00000000000E+00  0.00000000000E+00 -0.35849775505E+03  0.38048980880E+04  0.37879715970E+04 0.  0.
        5    1    3    3  502    0 -0.22551683423E+03 -0.17800180430E+03  0.17011788038E+04  0.17252750208E+04  0.46999998093E+01 0.  1.
       -5    1    3    3    0  502  0.22551683423E+03  0.17800180430E+03 -0.20596765588E+04  0.20796230673E+04  0.46999998093E+01 0. -1.
</event>
<event>
 5   0  0.7649458E-07  0.2673782E+04  0.7818609E-02  0.8343562E-01
       -2   -1    0    0    0  501  0.00000000000E+00  0.00000000000E+00  0.78262681193E+03  0.78262681193E+03  0.25500000920E-02 0. -1.
        2   -1    0    0  501    0  0.00000000000E+00  0.00000000000E+00 -0.22836907189E+04  0.22836907189E+04  0.25500000920E-02 0.  1.
    10030    2    1    2    0    0  0.00000000000E+00  0.00000000000E+00 -0.15010639070E+04  0.30663175309E+04  0.26737820306E+04 0.  0.
        4    1    3    3  502    0 -0.67221749729E+03  0.11554590274E+04 -0.77085496067E+03  0.15431075500E+04  0.12699999809E+01 0. -1.
       -4    1    3    3    0  502  0.67221749729E+03 -0.11554590274E+04 -0.73020894631E+03  0.15232099808E+04  0.12699999809E+01 0.  1.
</event>
<event>
 5   0  0.8038352E-07  0.3419876E+04  0.7818609E-02  0.8133045E-01
       -2   -1    0    0    0  501  0.00000000000E+00  0.00000000000E+00  0.17518371182E+04  0.17518371182E+04  0.25500000920E-02 0. -1.
        2   -1    0    0  501    0  0.00000000000E+00  0.00000000000E+00 -0.16690413089E+04  0.16690413089E+04  0.25500000920E-02 0.  1.
    10030    2    1    2    0    0  0.00000000000E+00  0.00000000000E+00  0.82795809306E+02  0.34208784271E+04  0.34198763233E+04 0.  0.
        2    1    3    3  502    0 -0.14521679725E+04 -0.33173588337E+02  0.94387966022E+03  0.17322820556E+04  0.25500000920E-02 0. -1.
       -2    1    3    3    0  502  0.14521679725E+04  0.33173588337E+02 -0.86108385092E+03  0.16885963714E+04  0.25500000920E-02 0.  1.
</event>
<event>
 5   0  0.2529875E-07  0.3392202E+04  0.7818609E-02  0.8139823E-01
        1   -1    0    0  501    0  0.00000000000E+00  0.00000000000E+00  0.18377680557E+04  0.18377680557E+04  0.50400001928E-02 0. -1.
       -1   -1    0    0    0  501  0.00000000000E+00  0.00000000000E+00 -0.15653542499E+04  0.15653542500E+04  0.50400001928E-02 0.  1.
    10030    2    1    2    0    0  0.00000000000E+00  0.00000000000E+00  0.27241380578E+03  0.34031223057E+04  0.33922016665E+04 0.  0.
        4    1    3    3  502    0  0.41054140797E+03  0.61879230288E+03 -0.13935983991E+04  0.15791029962E+04  0.12699999809E+01 0.  1.
       -4    1    3    3    0  502 -0.41054140797E+03 -0.61879230288E+03  0.16660122049E+04  0.18240193095E+04  0.12699999809E+01 0. -1.
</event>
<event>
 5   0  0.7638805E-07  0.4096169E+04  0.7818609E-02  0.7985422E-01
       -2   -1    0    0    0  501  0.00000000000E+00  0.00000000000E+00  0.15741996833E+04  0.15741996833E+04  0.25500000920E-02 0.  1.
        2   -1    0    0  501    0  0.00000000000E+00  0.00000000000E+00 -0.26646234987E+04  0.26646234987E+04  0.25500000920E-02 0. -1.
    10030    2    1    2    0    0  0.00000000000E+00  0.00000000000E+00 -0.10904238154E+04  0.42388231819E+04  0.40961686819E+04 0.  0.
        5    1    3    3  502    0  0.63376509671E+03  0.18255139555E+04  0.15699837534E+03  0.19387702235E+04  0.46999998093E+01 0. -1.
       -5    1    3    3    0  502 -0.63376509671E+03 -0.18255139555E+04 -0.12474221908E+04  0.23000529584E+04  0.46999998093E+01 0.  1.
</event>
<event>
 5   0  0.2529875E-07  0.3732503E+04  0.7818609E-02  0.8060797E-01
       -1   -1    0    0    0  501  0.00000000000E+00  0.00000000000E+00  0.21315621585E+04  0.21315621585E+04  0.50400001928E-02 0.  1.
        1   -1    0    0  501    0  0.00000000000E+00  0.00000000000E+00 -0.16339634954E+04  0.16339634954E+04  0.50400001928E-02 0. -1.
    10030    2    1    2    0    0  0.00000000000E+00  0.00000000000E+00  0.49759866317E+03  0.37655256539E+04  0.37325030503E+04 0.  0.
        1    1    3    3  502    0  0.15689332772E+04 -0.53781792996E+03  0.11119948166E+04  0.19968305452E+04  0.50400001928E-02 0.  1.
       -1    1    3    3    0  502 -0.15689332772E+04  0.53781792996E+03 -0.61439615338E+03  0.17686951087E+04  0.50400001928E-02 0. -1.
</event>
<event>
 5   0  0.7649458E-07  0.3795378E+04  0.7818609E-02  0.8047147E-01
       -2   -1    0    0    0  501  0.00000000000E+00  0.00000000000E+00  0.13430077876E+04  0.13430077876E+04  0.25500000920E-02 0.  1.
        2   -1    0    0  501    0  0.00000000000E+00  0.00000000000E+00 -0.26814613967E+04  0.26814613967E+04  0.25500000920E-02 0. -1.
    10030    2    1    2    0    0  0.00000000000E+00  0.00000000000E+00 -0.13384536091E+04  0.40244691843E+04  0.37953779985E+04 0.  0.
        4    1    3    3  502    0 -0.34115502838E+03  0.99065648643E+03  0.10085018481E+04  0.14542574112E+04  0.12699999809E+01 0.  1.
       -4    1    3    3    0  502  0.34115502838E+03 -0.99065648643E+03 -0.23469554572E+04  0.25702117731E+04  0.12699999809E+01 0. -1.
</event>
<event>
 5   0  0.2907071E-07  0.3858629E+04  0.7818609E-02  0.8033689E-01
       -1   -1    0    0    0  501  0.00000000000E+00  0.00000000000E+00  0.18861045328E+04  0.18861045328E+04  0.50400001928E-02 0. -1.
        1   -1    0    0  501    0  0.00000000000E+00  0.00000000000E+00 -0.19735148257E+04  0.19735148257E+04  0.50400001928E-02 0.  1.
    10030    2    1    2    0    0  0.00000000000E+00  0.00000000000E+00 -0.87410292899E+02  0.38596193586E+04  0.38586294242E+04 0.  0.
        2    1    3    3  502    0 -0.15768365786E+04  0.11115526228E+04 -0.26600187076E+02  0.19294222966E+04  0.25500000920E-02 0.  1.
       -2    1    3    3    0  502  0.15768365786E+04 -0.11115526228E+04 -0.60810105823E+02  0.19301970619E+04  0.25500000920E-02 0. -1.
</event>
<event>
 5   0  0.2907071E-07  0.3834181E+04  0.7818609E-02  0.8038859E-01
        1   -1    0    0  501    0  0.00000000000E+00  0.00000000000E+00  0.20522558827E+04  0.20522558827E+04  0.50400001928E-02 0.  1.
       -1   -1    0    0    0  501  0.00000000000E+00  0.00000000000E+00 -0.17908278171E+04  0.17908278171E+04  0.50400001928E-02 0. -1.
    10030    2    1    2    0    0  0.00000000000E+00  0.00000000000E+00  0.26142806558E+03  0.38430836999E+04  0.38341814890E+04 0.  0.
        2    1    3    3  502    0 -0.77446721005E+03 -0.72996730074E+03  0.17289648483E+04  0.20302638169E+04  0.25500000920E-02 0.  1.
       -2    1    3    3    0  502  0.77446721005E+03  0.72996730074E+03 -0.14675367827E+04  0.18128198830E+04  0.25500000920E-02 0. -1.
</event>
<event>
 5   0  0.8038352E-07  0.3773637E+04  0.7818609E-02  0.8051836E-01
        2   -1    0    0  501    0  0.00000000000E+00  0.00000000000E+00  0.31422867294E+04  0.31422867294E+04  0.25500000920E-02 0.  1.
       -2   -1    0    0    0  501  0.00000000000E+00  0.00000000000E+00 -0.11329593941E+04  0.11329593941E+04  0.25500000920E-02 0. -1.
    10030    2    1    2    0    0  0.00000000000E+00  0.00000000000E+00  0.20093273353E+04  0.42752461235E+04  0.37736365851E+04 0.  0.
        2    1    3    3  502    0  0.13169150065E+03  0.65216596069E+03  0.30049801762E+04  0.30777538808E+04  0.25500000920E-02 0.  1.
       -2    1    3    3    0  502 -0.13169150065E+03 -0.65216596069E+03 -0.99565284090E+03  0.11974922427E+04  0.25500000920E-02 0. -1.
</event>
<event>
 5   0  0.2529875E-07  0.3348869E+04  0.7818609E-02  0.8150571E-01
       -1   -1    0    0    0  501  0.00000000000E+00  0.00000000000E+00  0.17907757335E+04  0.17907757335E+04  0.50400001928E-02 0. -1.
        1   -1    0    0  501    0  0.00000000000E+00  0.00000000000E+00 -0.15656512566E+04  0.15656512566E+04  0.50400001928E-02 0.  1.
    10030    2    1    2    0    0  0.00000000000E+00  0.00000000000E+00  0.22512447687E+03  0.33564269901E+04  0.33488686313E+04 0.  0.
        5    1    3    3  502    0  0.14432213440E+04 -0.84140904084E+03  0.22618107872E+03  0.16858342126E+04  0.46999998093E+01 0.  1.
       -5    1    3    3    0  502 -0.14432213440E+04  0.84140904084E+03 -0.10566018495E+01  0.16705927775E+04  0.46999998093E+01 0. -1.
</event>
<event>
 5   0  0.2529875E-07  0.3596376E+04  0.7818609E-02  0.8091322E-01
       -1   -1    0    0    0  501  0.00000000000E+00  0.00000000000E+00  0.17275786205E+04  0.17275786205E+04  0.50400001928E-02 0.  1.
        1   -1    0    0  501    0  0.00000000000E+00  0.00000000000E+00 -0.18716829352E+04  0.18716829352E+04  0.50400001928E-02 0. -1.
    10030    2    1    2    0    0  0.00000000000E+00  0.00000000000E+00 -0.14410431474E+03  0.35992615557E+04  0.35963756329E+04 0.  0.
        1    1    3    3  502    0  0.16956440574E+04 -0.45991850366E+03 -0.45543347068E+03  0.18149802879E+04  0.50400001928E-02 0. -1.
       -1    1    3    3    0  502 -0.16956440574E+04  0.45991850366E+03  0.31132915594E+03  0.17842812678E+04  0.50400001928E-02 0.  1.
</event>
<event>
 5   0  0.2529875E-07  0.3925171E+04  0.7818609E-02  0.8019814E-01
        1   -1    0    0  501    0  0.00000000000E+00  0.00000000000E+00  0.14773984175E+04  0.14773984175E+04  0.50400001928E-02 0.  1.
       -1   -1    0    0    0  501  0.00000000000E+00  0.00000000000E+00 -0.26071113625E+04  0.26071113625E+04  0.50400001928E-02 0. -1.
    10030    2    1    2    0    0  0.00000000000E+00  0.00000000000E+00 -0.11297129450E+04  0.40845097801E+04  0.39251711817E+04 0.  0.
        5    1    3    3  502    0  0.51092432757E+03  0.18900232546E+04 -0.42336422532E+03  0.20031202982E+04  0.46999998093E+01 0. -1.
       -5    1    3    3    0  502 -0.51092432757E+03 -0.18900232546E+04 -0.70634871967E+03  0.20813894819E+04  0.46999998093E+01 0.  1.
</event>
<event>
 5   0  0.8038352E-07  0.3689878E+04  0.7818609E-02  0.8070209E-01
       -2   -1    0    0    0  501  0.00000000000E+00  0.00000000000E+00  0.17520751904E+04  0.17520751904E+04  0.25500000920E-02 0.  1.
        2   -1    0    0  501    0  0.00000000000E+00  0.00000000000E+00 -0.19427246483E+04  0.19427246483E+04  0.25500000920E-02 0. -1.
    10030    2    1    2    0    0  0.00000000000E+00  0.00000000000E+00 -0.19064945788E+03  0.36947998387E+04  0.36898778615E+04 0.  0.
        2    1    3    3  502    0  0.49062634145E+03 -0.93613300312E+03 -0.16095390954E+04  0.19255324734E+04  0.25500000920E-02 0. -1.
       -2    1    3    3    0  502 -0.49062634145E+03  0.93613300312E+03  0.14188896376E+04  0.17692673653E+04  0.25500000920E-02 0.  1.
</event>
<event>
 5   0  0.8038352E-07  0.3744995E+04  0.7818609E-02  0.8058063E-01
        2   -1    0    0  501    0  0.00000000000E+00  0.00000000000E+00  0.26577259034E+04  0.26577259034E+04  0.25500000920E-02 0.  1.
       -2   -1    0    0    0  501  0.00000000000E+00  0.00000000000E+00 -0.13192658601E+04  0.13192658601E+04  0.25500000920E-02 0. -1.
    10030    2    1    2    0    0  0.00000000000E+00  0.00000000000E+00  0.13384600433E+04  0.39769917635E+04  0.37449950867E+04 0.  0.
        2    1    3    3  502    0 -0.61199570821E+03  0.13987228307E+04  0.18204932131E+04  0.23759545120E+04  0.25500000920E-02 0.  1.
       -2    1    3    3    0  502  0.61199570821E+03 -0.13987228307E+04 -0.48203316978E+03  0.16010372515E+04  0.25500000920E-02 0. -1.
</event>
<event>
 5   0  0.2529875E-07  0.3586378E+04  0.7818609E-02  0.8093619E-01
       -1   -1    0    0    0  501  0.00000000000E+00  0.00000000000E+00  0.14118081011E+04  0.14118081011E+04  0.50400001928E-02 0.  1.
        1   -1    0    0  501    0  0.00000000000E+00  0.00000000000E+00 -0.22775948151E+04  0.22775948151E+04  0.50400001928E-02 0. -1.
    10030    2    1    2    0    0  0.00000000000E+00  0.00000000000E+00 -0.86578671406E+03  0.36894029162E+04  0.35863780118E+04 0.  0.
        1    1    3    3  502    0 -0.31254630993E+03  0.38116040735E+03 -0.22065323104E+04  0.22609186825E+04  0.50400001928E-02 0. -1.
       -1    1    3    3    0  502  0.31254630993E+03 -0.38116040735E+03  0.13407455963E+04  0.14284842337E+04  0.50400001928E-02 0.  1.
</event>
<event>
 5   0  0.8421677E-07  0.4064263E+04  0.7818609E-02  0.7991707E-01
       -2   -1    0    0    0  501  0.00000000000E+00  0.00000000000E+00  0.14453355985E+04  0.14453355985E+04  0.25500000920E-02 0.  1.
        2   -1    0    0  501    0  0.00000000000E+00  0.00000000000E+00 -0.28571617558E+04  0.28571617558E+04  0.25500000920E-02 0. -1.
    10030    2    1    2    0    0  0.00000000000E+00  0.00000000000E+00 -0.14118261573E+04  0.43024973543E+04  0.40642625881E+04 0.  0.
        3    1    3    3  502    0 -0.14410651494E+04 -0.39411276574E+03  0.75235397110E+03  0.16727313427E+04  0.10100000352E+00 0.  1.
       -3    1    3    3    0  502  0.14410651494E+04  0.39411276574E+03 -0.21641801285E+04  0.26297660116E+04  0.10100000352E+00 0. -1.
</event>
<event>
 5   0  0.8421677E-07  0.3887261E+04  0.7818609E-02  0.8027684E-01
       -2   -1    0    0    0  501  0.00000000000E+00  0.00000000000E+00  0.29678194219E+04  0.29678194219E+04  0.25500000920E-02 0. -1.
        2   -1    0    0  501    0  0.00000000000E+00  0.00000000000E+00 -0.12728875748E+04  0.12728875748E+04  0.25500000920E-02 0.  1.
    10030    2    1    2    0    0  0.00000000000E+00  0.00000000000E+00  0.16949318471E+04  0.42407069968E+04  0.38872614867E+04 0.  0.
        3    1    3    3  502    0  0.80967722895E+03 -0.66522942760E+03  0.26332499443E+04  0.28340982139E+04  0.10100000352E+00 0. -1.
       -3    1    3    3    0  502 -0.80967722895E+03  0.66522942760E+03 -0.93831809718E+03  0.14066087829E+04  0.10100000352E+00 0.  1.
</event>
<event>
 5   0  0.7649458E-07  0.2888933E+04  0.7818609E-02  0.8276178E-01
        2   -1    0    0  501    0  0.00000000000E+00  0.00000000000E+00  0.84753813357E+03  0.84753813358E+03  0.25500000920E-02 0.  1.
       -2   -1    0    0    0  501  0.00000000000E+00  0.00000000000E+00 -0.24618171994E+04  0.24618171994E+04  0.25500000920E-02 0. -1.
    10030    2    1    2    0    0  0.00000000000E+00  0.00000000000E+00 -0.16142790658E+04  0.33093553329E+04  0.28889333356E+04 0.  0.
        4    1    3    3  502    0 -0.47330512818E+03 -0.13893793267E+03  0.74806494803E+03  0.89606041809E+03  0.12699999809E+01 0.  1.
       -4    1    3    3    0  502  0.47330512818E+03  0.13893793267E+03 -0.23623440138E+04  0.24132949149E+04  0.12699999809E+01 0. -1.
</event>
<event>
 5   0  0.2529875E-07  0.3732050E+04  0.7818609E-02  0.8060896E-01
       -1   -1    0    0    0  501  0.00000000000E+00  0.00000000000E+00  0.12710899057E+04  0.12710899057E+04  0.50400001928E-02 0. -1.
        1   -1    0    0  501    0  0.00000000000E+00  0.00000000000E+00 -0.27394203883E+04  0.27394203883E+04  0.50400001928E-02 0.  1.
    10030    2    1    2    0    0  0.00000000000E+00  0.00000000000E+00 -0.14683304826E+04  0.40105102940E+04  0.37320501620E+04 0.  0.
        4    1    3    3  502    0  0.13960283459E+04 -0.39201653110E+02 -0.20640901535E+04  0.24921680695E+04  0.12699999809E+01 0.  1.
       -4    1    3    3    0  502 -0.13960283459E+04  0.39201653110E+02  0.59575967091E+03  0.15183422244E+04  0.12699999809E+01 0. -1.
</event>
<event>
 5   0  0.2529875E-07  0.3746520E+04  0.7818609E-02  0.8057730E-01
       -1   -1    0    0    0  501  0.00000000000E+00  0.00000000000E+00  0.29790605001E+04  0.29790605001E+04  0.50400001928E-02 0.  1.
        1   -1    0    0  501    0  0.00000000000E+00  0.00000000000E+00 -0.11779227877E+04  0.11779227877E+04  0.50400001928E-02 0. -1.
    10030    2    1    2    0    0  0.00000000000E+00  0.00000000000E+00  0.18011377125E+04  0.41569832878E+04  0.37465201182E+04 0.  0.
        4    1    3    3  502    0 -0.67034829275E+02  0.18530704276E+04  0.60546392347E+03  0.19506285791E+04  0.12699999809E+01 0. -1.
       -4    1    3    3    0  502  0.67034829275E+02 -0.18530704276E+04  0.11956737890E+04  0.22063547087E+04  0.12699999809E+01 0.  1.
</event>
<event>
 5   0  0.7638805E-07  0.3781797E+04  0.7818609E-02  0.8050073E-01
        2   -1    0    0  501    0  0.00000000000E+00  0.00000000000E+00  0.19578328429E+04  0.19578328429E+04  0.25500000920E-02 0. -1.
       -2   -1    0    0    0  501  0.00000000000E+00  0.00000000000E+00 -0.18262522357E+04  0.18262522358E+04  0.25500000920E-02 0.  1.
    10030    2    1    2    0    0  0.00000000000E+00  0.00000000000E+00  0.13158060719E+03  0.37840850787E+04  0.37817967194E+04 0.  0.
        5    1    3    3  502    0 -0.75442302415E+02 -0.88177096759E+03  0.17378079909E+04  0.19501821155E+04  0.46999998093E+01 0. -1.
       -5    1    3    3    0  502  0.75442302415E+02  0.88177096759E+03 -0.16062273837E+04  0.18339029632E+04  0.46999998093E+01 0.  1.
</event>
<event>
 5   0  0.2529875E-07  0.3661499E+04  0.7818609E-02  0.8076548E-01
        1   -1    0    0  501    0  0.00000000000E+00  0.00000000000E+00  0.24912725111E+04  0.24912725111E+04  0.50400001928E-02 0.  1.
       -1   -1    0    0    0  501  0.00000000000E+00  0.00000000000E+00 -0.13453538962E+04  0.13453538962E+04  0.50400001928E-02 0. -1.
    10030    2    1    2    0    0  0.00000000000E+00  0.00000000000E+00  0.11459186149E+04  0.38366264073E+04  0.36614986982E+04 0.  0.
        4    1    3    3  502    0 -0.39011840399E+03 -0.17492842744E+04  0.96425555813E+03  0.20351850619E+04  0.12699999809E+01 0.  1.
       -4    1    3    3    0  502  0.39011840399E+03  0.17492842744E+04  0.18166305675E+03  0.18014413454E+04  0.12699999809E+01 0. -1.
</event>
<event>
 5   0  0.8421677E-07  0.3770196E+04  0.7818609E-02  0.8052581E-01
        2   -1    0    0  501    0  0.00000000000E+00  0.00000000000E+00  0.13344663695E+04  0.13344663695E+04  0.25500000920E-02 0.  1.
       -2   -1    0    0    0  501  0.00000000000E+00  0.00000000000E+00 -0.26629328638E+04  0.26629328638E+04  0.25500000920E-02 0. -1.
    10030    2    1    2    0    0  0.00000000000E+00  0.00000000000E+00 -0.13284664943E+04  0.39973992334E+04  0.37701959372E+04 0.  0.
        3    1    3    3  502    0  0.16207775985E+03  0.17475224238E+04 -0.13938070772E+04  0.22411608601E+04  0.10100000352E+00 0. -1.
       -3    1    3    3    0  502 -0.16207775985E+03 -0.17475224238E+04  0.65340582901E+02  0.17562383733E+04  0.10100000352E+00 0.  1.
</event>
<event>
 5   0  0.8421677E-07  0.3420095E+04  0.7818609E-02  0.8132992E-01
        2   -1    0    0  501    0  0.00000000000E+00  0.00000000000E+00  0.19740923157E+04  0.19740923157E+04  0.25500000920E-02 0. -1.
       -2   -1    0    0    0  501  0.00000000000E+00  0.00000000000E+00 -0.14813196879E+04  0.14813196879E+04  0.25500000920E-02 0.  1.
    10030    2    1    2    0    0  0.00000000000E+00  0.00000000000E+00  0.49277262778E+03  0.34554120036E+04  0.34200946261E+04 0.  0.
        3    1    3    3  502    0  0.12186770474E+03 -0.93654795667E+03  0.16866908909E+04  0.19331063044E+04  0.10100000352E+00 0. -1.
       -3    1    3    3    0  502 -0.12186770474E+03  0.93654795667E+03 -0.11939182631E+04  0.15223056992E+04  0.10100000352E+00 0.  1.
</event>
<event>
 5   0  0.2529875E-07  0.3825209E+04  0.7818609E-02  0.8040767E-01
       -1   -1    0    0    0  501  0.00000000000E+00  0.00000000000E+00  0.16504744072E+04  0.16504744072E+04  0.50400001928E-02 0.  1.
        1   -1    0    0  501    0  0.00000000000E+00  0.00000000000E+00 -0.22163661558E+04  0.22163661559E+04  0.50400001928E-02 0. -1.
    10030    2    1    2    0    0  0.00000000000E+00  0.00000000000E+00 -0.56589174869E+03  0.38668405630E+04  0.38252088137E+04 0.  0.
        4    1    3    3  502    0  0.52782435065E+03  0.12705358504E+04  0.10601201194E+04  0.17368696476E+04  0.12699999809E+01 0.  1.
       -4    1    3    3    0  502 -0.52782435065E+03 -0.12705358504E+04 -0.16260118681E+04  0.21299709154E+04  0.12699999809E+01 0. -1.
</event>
<event>
 5   0  0.2529875E-07  0.3824526E+04  0.7818609E-02  0.8040912E-01
        1   -1    0    0  501    0  0.00000000000E+00  0.00000000000E+00  0.19238191809E+04  0.19238191809E+04  0.50400001928E-02 0.  1.
       -1   -1    0    0    0  501  0.00000000000E+00  0.00000000000E+00 -0.19007766749E+04  0.19007766749E+04  0.50400001928E-02 0. -1.
    10030    2    1    2    0    0  0.00000000000E+00  0.00000000000E+00  0.23042505987E+02  0.38245958559E+04  0.38245264418E+04 0.  0.
        3    1    3    3  502    0  0.17872296976E+02  0.18923114666E+04 -0.26341738355E+03  0.19106414718E+04  0.10100000352E+00 0. -1.
       -3    1    3    3    0  502 -0.17872296976E+02 -0.18923114666E+04  0.28645988954E+03  0.19139543840E+04  0.10100000352E+00 0.  1.
</event>
<event>
 5   0  0.2529875E-07  0.3737145E+04  0.7818609E-02  0.8059780E-01
       -1   -1    0    0    0  501  0.00000000000E+00  0.00000000000E+00  0.19917791878E+04  0.19917791878E+04  0.50400001928E-02 0. -1.
        1   -1    0    0  501    0  0.00000000000E+00  0.00000000000E+00 -0.17529871526E+04  0.17529871526E+04  0.50400001928E-02 0.  1.
    10030    2    1    2    0    0  0.00000000000E+00  0.00000000000E+00  0.23879203525E+03  0.37447663404E+04  0.37371450745E+04 0.  0.
        4    1    3    3  502    0  0.10282566509E+04  0.24177036868E+03  0.16639014414E+04  0.19708714496E+04  0.12699999809E+01 0. -1.
       -4    1    3    3    0  502 -0.10282566509E+04 -0.24177036868E+03 -0.14251094061E+04  0.17738948908E+04  0.12699999809E+01 0.  1.
</event>
<event>
 5   0  0.7638805E-07  0.3860900E+04  0.7818609E-02  0.8033211E-01
        2   -1    0    0  501    0  0.00000000000E+00  0.00000000000E+00  0.25827284908E+04  0.25827284908E+04  0.25500000920E-02 0. -1.
       -2   -1    0    0    0  501  0.00000000000E+00  0.00000000000E+00 -0.14429073371E+04  0.14429073371E+04  0.25500000920E-02 0.  1.
    10030    2    1    2    0    0  0.00000000000E+00  0.00000000000E+00  0.11398211538E+04  0.40256358279E+04  0.38609003557E+04 0.  0.
        5    1    3    3  502    0 -0.13161953586E+04 -0.86690488354E+03 -0.59242838952E+03  0.16837125010E+04  0.46999998093E+01 0.  1.
       -5    1    3    3    0  502  0.13161953586E+04  0.86690488354E+03  0.17322495433E+04  0.23419233270E+04  0.46999998093E+01 0. -1.
</event>
<event>
 5   0  0.2529875E-07  0.3815593E+04  0.7818609E-02  0.8042817E-01
       -1   -1    0    0    0  501  0.00000000000E+00  0.00000000000E+00  0.13119330166E+04  0.13119330166E+04  0.50400001928E-02 0. -1.
        1   -1    0    0  501    0  0.00000000000E+00  0.00000000000E+00 -0.27742938003E+04  0.27742938003E+04  0.50400001928E-02 0.  1.
    10030    2    1    2    0    0  0.00000000000E+00  0.00000000000E+00 -0.14623607837E+04  0.40862268169E+04  0.38155930781E+04 0.  0.
        4    1    3    3  502    0 -0.19790110855E+03 -0.12177579636E+04 -0.22895878545E+04  0.26008293798E+04  0.12699999809E+01 0.  1.
       -4    1    3    3    0  502  0.19790110855E+03  0.12177579636E+04  0.82722707076E+03  0.14853974371E+04  0.12699999809E+01 0. -1.
</event>
<event>
 5   0  0.2907071E-07  0.3801516E+04  0.7818609E-02  0.8045830E-01
        1   -1    0    0  501    0  0.00000000000E+00  0.00000000000E+00  0.21165783604E+04  0.21165783604E+04  0.50400001928E-02 0. -1.
       -1   -1    0    0    0  501  0.00000000000E+00  0.00000000000E+00 -0.17069438948E+04  0.17069438948E+04  0.50400001928E-02 0.  1.
    10030    2    1    2    0    0  0.00000000000E+00  0.00000000000E+00  0.40963446556E+03  0.38235222552E+04  0.38015157557E+04 0.  0.
        2    1    3    3  502    0 -0.18147960829E+04  0.48751206348E+03 -0.82718220515E+02  0.18809559109E+04  0.25500000920E-02 0.  1.
       -2    1    3    3    0  502  0.18147960829E+04 -0.48751206348E+03  0.49235268607E+03  0.19425663443E+04  0.25500000920E-02 0. -1.
</event>
<event>
 5   0  0.2529875E-07  0.3890203E+04  0.7818609E-02  0.8027070E-01
        1   -1    0    0  501    0  0.00000000000E+00  0.00000000000E+00  0.16892534225E+04  0.16892534225E+04  0.50400001928E-02 0.  1.
       -1   -1    0    0    0  501  0.00000000000E+00  0.00000000000E+00 -0.22396994129E+04  0.22396994129E+04  0.50400001928E-02 0. -1.
    10030    2    1    2    0    0  0.00000000000E+00  0.00000000000E+00 -0.55044599040E+03  0.39289528355E+04  0.38902030275E+04 0.  0.
        5    1    3    3  502    0 -0.84441821834E+03 -0.17482457254E+03 -0.20360897148E+04  0.22111737099E+04  0.46999998093E+01 0. -1.
       -5    1    3    3    0  502  0.84441821834E+03  0.17482457254E+03  0.14856437244E+04  0.17177791256E+04  0.46999998093E+01 0.  1.
</event>
<event>
 5   0  0.8038352E-07  0.3575496E+04  0.7818609E-02  0.8096128E-01
        2   -1    0    0  501    0  0.00000000000E+00  0.00000000000E+00  0.24169688211E+04  0.24169688211E+04  0.25500000920E-02 0. -1.
       -2   -1    0    0    0  501  0.00000000000E+00  0.00000000000E+00 -0.13223354531E+04  0.13223354531E+04  0.25500000920E-02 0.  1.
    10030    2    1    2    0    0  0.00000000000E+00  0.00000000000E+00  0.10946333680E+04  0.37393042743E+04  0.35754963635E+04 0.  0.
        2    1    3    3  502    0  0.36751771568E+03 -0.86076689282E+02 -0.12801861389E+04  0.13346741243E+04  0.25500000920E-02 0.  1.
       -2    1    3    3    0  502 -0.36751771568E+03  0.86076689282E+02  0.23748195069E+04  0.24046301500E+04  0.25500000920E-02 0. -1.
</event>
<event>
 5   0  0.7649458E-07  0.2511027E+04  0.7818609E-02  0.8399068E-01
        2   -1    0    0  501    0  0.00000000000E+00  0.00000000000E+00  0.11236462154E+04  0.11236462154E+04  0.25500000920E-02 0. -1.
       -2   -1    0    0    0  501  0.00000000000E+00  0.00000000000E+00 -0.14028562590E+04  0.14028562590E+04  0.25500000920E-02 0.  1.
    10030    2    1    2    0    0  0.00000000000E+00  0.00000000000E+00 -0.27921004362E+03  0.25265024744E+04  0.25110269821E+04 0.  0.
        4    1    3    3  502    0  0.99283654602E+03 -0.29191201246E+03  0.57567390995E+03  0.11842039916E+04  0.12699999809E+01 0. -1.
       -4    1    3    3    0  502 -0.99283654602E+03  0.29191201246E+03 -0.85488395357E+03  0.13422984829E+04  0.12699999809E+01 0.  1.
</event>
<event>
 5   0  0.8421677E-07  0.3980883E+04  0.7818609E-02  0.8008414E-01
        2   -1    0    0  501    0  0.00000000000E+00  0.00000000000E+00  0.23135838079E+04  0.23135838079E+04  0.25500000920E-02 0.  1.
       -2   -1    0    0    0  501  0.00000000000E+00  0.00000000000E+00 -0.17124333336E+04  0.17124333336E+04  0.25500000920E-02 0. -1.
    10030    2    1    2    0    0  0.00000000000E+00  0.00000000000E+00  0.60115047427E+03  0.40260171415E+04  0.39808833355E+04 0.  0.
        3    1    3    3  502    0  0.74178678544E+03 -0.10263009570E+04  0.18536674266E+04  0.22449107395E+04  0.10100000352E+00 0.  1.
       -3    1    3    3    0  502 -0.74178678544E+03  0.10263009570E+04 -0.12525169523E+04  0.17811064021E+04  0.10100000352E+00 0. -1.
</event>
<event>
 5   0  0.2529875E-07  0.3725203E+04  0.7818609E-02  0.8062399E-01
       -1   -1    0    0    0  501  0.00000000000E+00  0.00000000000E+00  0.13505051686E+04  0.13505051686E+04  0.50400001928E-02 0.  1.
        1   -1    0    0  501    0  0.00000000000E+00  0.00000000000E+00 -0.25688794160E+04  0.25688794160E+04  0.50400001928E-02 0. -1.
    10030    2    1    2    0    0  0.00000000000E+00  0.00000000000E+00 -0.12183742474E+04  0.39193845846E+04  0.37252033119E+04 0.  0.
        1    1    3    3  502    0 -0.98886798208E+02 -0.25400228161E+03 -0.25477821601E+04  0.25623211534E+04  0.50400001928E-02 0. -1.
       -1    1    3    3    0  502  0.98886798208E+02  0.25400228161E+03  0.13294079127E+04  0.13570634312E+04  0.50400001928E-02 0.  1.
</event>
<event>
 5   0  0.2529875E-07  0.3823988E+04  0.7818609E-02  0.8041027E-01
       -1   -1    0    0    0  501  0.00000000000E+00  0.00000000000E+00  0.14901482851E+04  0.14901482851E+04  0.50400001928E-02 0. -1.
        1   -1    0    0  501    0  0.00000000000E+00  0.00000000000E+00 -0.24532603699E+04  0.24532603699E+04  0.50400001928E-02 0.  1.
    10030    2    1    2    0    0  0.00000000000E+00  0.00000000000E+00 -0.96311208480E+03  0.39434086550E+04  0.38239883541E+04 0.  0.
        3    1    3    3  502    0  0.23197638929E+03 -0.45145716326E+03 -0.23825160895E+04  0.24359822541E+04  0.10100000352E+00 0.  1.
       -3    1    3    3    0  502 -0.23197638929E+03  0.45145716326E+03  0.14194040047E+04  0.15074264009E+04  0.10100000352E+00 0. -1.
</event>
<event>
 5   0  0.2529875E-07  0.3968369E+04  0.7818609E-02  0.8010958E-01
       -1   -1    0    0    0  501  0.00000000000E+00  0.00000000000E+00  0.18834627788E+04  0.18834627789E+04  0.50400001928E-02 0. -1.
        1   -1    0    0  501    0  0.00000000000E+00  0.00000000000E+00 -0.20902925641E+04  0.20902925641E+04  0.50400001928E-02 0.  1.
    10030    2    1    2    0    0  0.00000000000E+00  0.00000000000E+00 -0.20682978526E+03  0.39737553430E+04  0.39683690561E+04 0.  0.
        5    1    3    3  502    0  0.11956840159E+04 -0.10292234507E+04  0.11015491775E+04  0.19241605592E+04  0.46999998093E+01 0.  1.
       -5    1    3    3    0  502 -0.11956840159E+04  0.10292234507E+04 -0.13083789627E+04  0.20495947837E+04  0.46999998093E+01 0. -1.
</event>
<event>
 5   0  0.2529875E-07  0.2726246E+04  0.7818609E-02  0.8326539E-01
       -1   -1    0    0    0  501  0.00000000000E+00  0.00000000000E+00  0.32055337490E+04  0.32055337490E+04  0.50400001928E-02 0.  1.
        1   -1    0    0  501    0  0.00000000000E+00  0.00000000000E+00 -0.57965512844E+03  0.57965512846E+03  0.50400001928E-02 0. -1.
    10030    2    1    2    0    0  0.00000000000E+00  0.00000000000E+00  0.26258786205E+04  0.37851888774E+04  0.27262458268E+04 0.  0.
        5    1    3    3  502    0 -0.64595216842E+03 -0.54094420444E+03 -0.17481996021E+03  0.86049924154E+03  0.46999998093E+01 0. -1.
       -5    1    3    3    0  502  0.64595216842E+03  0.54094420444E+03  0.28006985807E+04  0.29246896359E+04  0.46999998093E+01 0.  1.
</event>
<event>
 5   0  0.8038352E-07  0.3623461E+04  0.7818609E-02  0.8085139E-01
        2   -1    0    0  501    0  0.00000000000E+00  0.00000000000E+00  0.23517349141E+04  0.23517349141E+04  0.25500000920E-02 0.  1.
       -2   -1    0    0    0  501  0.00000000000E+00  0.00000000000E+00 -0.13957213942E+04  0.13957213942E+04  0.25500000920E-02 0. -1.
    10030    2    1    2    0    0  0.00000000000E+00  0.00000000000E+00  0.95601351984E+03  0.37474563083E+04  0.36234606294E+04 0.  0.
        2    1    3    3  502    0 -0.39644581273E+02  0.75278995658E+03 -0.12258227643E+04  0.14390642310E+04  0.25500000920E-02 0. -1.
       -2    1    3    3    0  502  0.39644581273E+02 -0.75278995658E+03  0.21818362841E+04  0.23083920773E+04  0.25500000920E-02 0.  1.
</event>
<event>
 5   0  0.8038352E-07  0.3241330E+04  0.7818609E-02  0.8177987E-01
       -2   -1    0    0    0  501  0.00000000000E+00  0.00000000000E+00  0.16011266742E+04  0.16011266742E+04  0.25500000920E-02 0. -1.
        2   -1    0    0  501    0  0.00000000000E+00  0.00000000000E+00 -0.16404416961E+04  0.16404416961E+04  0.25500000920E-02 0.  1.
    10030    2    1    2    0    0  0.00000000000E+00  0.00000000000E+00 -0.39315021892E+02  0.32415683703E+04  0.32413299475E+04 0.  0.
        2    1    3    3  502    0  0.23857138655E+03 -0.35203642760E+03 -0.15836488204E+04  0.16397528897E+04  0.25500000920E-02 0.  1.
       -2    1    3    3    0  502 -0.23857138655E+03  0.35203642760E+03  0.15443337985E+04  0.16018154806E+04  0.25500000920E-02 0. -1.
</event>
<event>
 5   0  0.2529875E-07  0.3736588E+04  0.7818609E-02  0.8059901E-01
       -1   -1    0    0    0  501  0.00000000000E+00  0.00000000000E+00  0.18132967263E+04  0.18132967263E+04  0.50400001928E-02 0. -1.
        1   -1    0    0  501    0  0.00000000000E+00  0.00000000000E+00 -0.19249594915E+04  0.19249594915E+04  0.50400001928E-02 0.  1.
    10030    2    1    2    0    0  0.00000000000E+00  0.00000000000E+00 -0.11166276524E+03  0.37382562178E+04  0.37365881466E+04 0.  0.
        3    1    3    3  502    0 -0.30802743424E+03  0.18206273617E+04 -0.34048932050E+03  0.18776309216E+04  0.10100000352E+00 0.  1.
       -3    1    3    3    0  502  0.30802743424E+03 -0.18206273617E+04  0.22882655527E+03  0.18606252962E+04  0.10100000352E+00 0. -1.
</event>
<event>
 5   0  0.2529875E-07  0.3729965E+04  0.7818609E-02  0.8061353E-01
        1   -1    0    0  501    0  0.00000000000E+00  0.00000000000E+00  0.18108807375E+04  0.18108807375E+04  0.50400001928E-02 0.  1.
       -1   -1    0    0    0  501  0.00000000000E+00  0.00000000000E+00 -0.19207007263E+04  0.19207007263E+04  0.50400001928E-02 0. -1.
    10030    2    1    2    0    0  0.00000000000E+00  0.00000000000E+00 -0.10981998884E+03  0.37315814638E+04  0.37299651193E+04 0.  0.
        1    1    3    3  502    0  0.10156109534E+04 -0.27572898635E+03  0.14854545477E+04  0.18204579907E+04  0.50400001928E-02 0.  1.
       -1    1    3    3    0  502 -0.10156109534E+04  0.27572898635E+03 -0.15952745365E+04  0.19111234731E+04  0.50400001928E-02 0. -1.
</event>
<event>
 5   0  0.7551495E-07  0.3263900E+04  0.7818609E-02  0.8172142E-01
        2   -1    0    0  501    0  0.00000000000E+00  0.00000000000E+00  0.17354226040E+04  0.17354226040E+04  0.25500000920E-02 0.  1.
       -2   -1    0    0    0  501  0.00000000000E+00  0.00000000000E+00 -0.15346467097E+04  0.15346467097E+04  0.25500000920E-02 0. -1.
    10030    2    1    2    0    0  0.00000000000E+00  0.00000000000E+00  0.20077589434E+03  0.32700693137E+04  0.32638998693E+04 0.  0.
        1    1    3    3  502    0 -0.26569353384E+03  0.31915142839E+03 -0.14808252232E+04  0.15379512443E+04  0.50400001928E-02 0. -1.
       -1    1    3    3    0  502  0.26569353384E+03 -0.31915142839E+03  0.16816011175E+04  0.17321180695E+04  0.50400001928E-02 0.  1.
</event>
<event>
 5   0  0.7638805E-07  0.3751070E+04  0.7818609E-02  0.8056738E-01
        2   -1    0    0  501    0  0.00000000000E+00  0.00000000000E+00  0.27181414799E+04  0.27181414799E+04  0.25500000920E-02 0.  1.
       -2   -1    0    0    0  501  0.00000000000E+00  0.00000000000E+00 -0.12941308202E+04  0.12941308202E+04  0.25500000920E-02 0. -1.
    10030    2    1    2    0    0  0.00000000000E+00  0.00000000000E+00  0.14240106598E+04  0.40122723001E+04  0.37510695343E+04 0.  0.
        5    1    3    3  502    0  0.14306176125E+03  0.30316258982E+03  0.26858309759E+04  0.27066740374E+04  0.46999998093E+01 0.  1.
       -5    1    3    3    0  502 -0.14306176125E+03 -0.30316258982E+03 -0.12618203162E+04  0.13055982627E+04  0.46999998093E+01 0. -1.
</event>
<event>
 5   0  0.2907071E-07  0.3523919E+04  0.7818609E-02  0.8108145E-01
       -1   -1    0    0    0  501  0.00000000000E+00  0.00000000000E+00  0.18221327816E+04  0.18221327816E+04  0.50400001928E-02 0.  1.
        1   -1    0    0  501    0  0.00000000000E+00  0.00000000000E+00 -0.17037730827E+04  0.17037730827E+04  0.50400001928E-02 0. -1.
    10030    2    1    2    0    0  0.00000000000E+00  0.00000000000E+00  0.11835969896E+03  0.35259058643E+04  0.35239187200E+04 0.  0.
        2    1    3    3  502    0 -0.64782357956E+03 -0.53157196741E+03 -0.14916156488E+04  0.17108949092E+04  0.25500000920E-02 0. -1.
       -2    1    3    3    0  502  0.64782357956E+03  0.53157196741E+03  0.16099753477E+04  0.18150109551E+04  0.25500000920E-02 0.  1.
</event>
<event>
 5   0  0.2907071E-07  0.3764454E+04  0.7818609E-02  0.8053826E-01
       -1   -1    0    0    0  501  0.00000000000E+00  0.00000000000E+00  0.20737310249E+04  0.20737310249E+04  0.50400001928E-02 0. -1.
        1   -1    0    0  501    0  0.00000000000E+00  0.00000000000E+00 -0.17084083513E+04  0.17084083513E+04  0.50400001928E-02 0.  1.
    10030    2    1    2    0    0  0.00000000000E+00  0.00000000000E+00  0.36532267359E+03  0.37821393761E+04  0.37644544897E+04 0.  0.
        2    1    3    3  502    0  0.18256550060E+04 -0.45733155986E+03  0.15782588931E+03  0.18886707939E+04  0.25500000920E-02 0. -1.
       -2    1    3    3    0  502 -0.18256550060E+04  0.45733155986E+03  0.20749678427E+03  0.18934685822E+04  0.25500000920E-02 0.  1.
</event>
<event>
 5   0  0.2529875E-07  0.2536840E+04  0.7818609E-02  0.8389977E-01
       -1   -1    0    0    0  501  0.00000000000E+00  0.00000000000E+00  0.10751388714E+04  0.10751388715E+04  0.50400001928E-02 0.  1.
        1   -1    0    0  501    0  0.00000000000E+00  0.00000000000E+00 -0.14964478526E+04  0.14964478526E+04  0.50400001928E-02 0. -1.
    10030    2    1    2    0    0  0.00000000000E+00  0.00000000000E+00 -0.42130898115E+03  0.25715867241E+04  0.25368399677E+04 0.  0.
        3    1    3    3  502    0  0.32223703812E+03  0.32088312810E+03  0.98966129051E+03  0.10891428606E+04  0.10100000352E+00 0.  1.
       -3    1    3    3    0  502 -0.32223703812E+03 -0.32088312810E+03 -0.14109702717E+04  0.14824438635E+04  0.10100000352E+00 0. -1.
</event>
<event>
 5   0  0.8421677E-07  0.3798539E+04  0.7818609E-02  0.8046468E-01
        2   -1    0    0  501    0  0.00000000000E+00  0.00000000000E+00  0.20355468336E+04  0.20355468336E+04  0.25500000920E-02 0. -1.
       -2   -1    0    0    0  501  0.00000000000E+00  0.00000000000E+00 -0.17721156773E+04  0.17721156773E+04  0.25500000920E-02 0.  1.
    10030    2    1    2    0    0  0.00000000000E+00  0.00000000000E+00  0.26343115629E+03  0.38076625109E+04  0.37985389063E+04 0.  0.
        3    1    3    3  502    0  0.97300239726E+03 -0.11933844824E+04 -0.98285625692E+03  0.18267201810E+04  0.10100000352E+00 0. -1.
       -3    1    3    3    0  502 -0.97300239726E+03  0.11933844824E+04  0.12462874132E+04  0.19809423299E+04  0.10100000352E+00 0.  1.
</event>
<event>
 5   0  0.2529875E-07  0.3794551E+04  0.7818609E-02  0.8047325E-01
       -1   -1    0    0    0  501  0.00000000000E+00  0.00000000000E+00  0.26550355173E+04  0.26550355173E+04  0.50400001928E-02 0.  1.
        1   -1    0    0  501    0  0.00000000000E+00  0.00000000000E+00 -0.13557841645E+04  0.13557841645E+04  0.50400001928E-02 0. -1.
    10030    2    1    2    0    0  0.00000000000E+00  0.00000000000E+00  0.12992513528E+04  0.40108196818E+04  0.37945514152E+04 0.  0.
        5    1    3    3  502    0 -0.18817758246E+04 -0.26083886598E+02  0.90390346910E+03  0.20877797285E+04  0.46999998093E+01 0. -1.
       -5    1    3    3    0  502  0.18817758246E+04  0.26083886598E+02  0.39534788367E+03  0.19230399534E+04  0.46999998093E+01 0.  1.
</event>
<event>
 5   0  0.2529875E-07  0.3839122E+04  0.7818609E-02  0.8037811E-01
        1   -1    0    0  501    0  0.00000000000E+00  0.00000000000E+00  0.25441791960E+04  0.25441791960E+04  0.50400001928E-02 0. -1.
       -1   -1    0    0    0  501  0.00000000000E+00  0.00000000000E+00 -0.14482919359E+04  0.14482919359E+04  0.50400001928E-02 0.  1.
    10030    2    1    2    0    0  0.00000000000E+00  0.00000000000E+00  0.10958872601E+04  0.39924711319E+04  0.38391218855E+04 0.  0.
        4    1    3    3  502    0 -0.34064267556E+03 -0.18634454018E+04  0.22531557037E+03  0.19076778861E+04  0.12699999809E+01 0.  1.
       -4    1    3    3    0  502  0.34064267556E+03  0.18634454018E+04  0.87057168975E+03  0.20847932458E+04  0.12699999809E+01 0. -1.
</event>
<event>
 5   0  0.7551495E-07  0.3760077E+04  0.7818609E-02  0.8054777E-01
        2   -1    0    0  501    0  0.00000000000E+00  0.00000000000E+00  0.18214508941E+04  0.18214508941E+04  0.25500000920E-02 0. -1.
       -2   -1    0    0    0  501  0.00000000000E+00  0.00000000000E+00 -0.19405108872E+04  0.19405108872E+04  0.25500000920E-02 0.  1.
    10030    2    1    2    0    0  0.00000000000E+00  0.00000000000E+00 -0.11905999309E+03  0.37619617814E+04  0.37600772815E+04 0.  0.
        1    1    3    3  502    0  0.29007213549E+03  0.10723127879E+04  0.14579861706E+04  0.18329539635E+04  0.50400001928E-02 0. -1.
       -1    1    3    3    0  502 -0.29007213549E+03 -0.10723127879E+04 -0.15770461637E+04  0.19290078178E+04  0.50400001928E-02 0.  1.
</event>
<event>
 5   0  0.7638805E-07  0.3562150E+04  0.7818609E-02  0.8099217E-01
       -2   -1    0    0    0  501  0.00000000000E+00  0.00000000000E+00  0.15431863410E+04  0.15431863410E+04  0.25500000920E-02 0.  1.
        2   -1    0    0  501    0  0.00000000000E+00  0.00000000000E+00 -0.20556354176E+04  0.20556354176E+04  0.25500000920E-02 0. -1.
    10030    2    1    2    0    0  0.00000000000E+00  0.00000000000E+00 -0.51244907660E+03  0.35988217585E+04  0.35621501925E+04 0.  0.
        5    1    3    3  502    0  0.11559544311E+04  0.69112860908E+03 -0.14336913638E+04  0.19670745837E+04  0.46999998093E+01 0. -1.
       -5    1    3    3    0  502 -0.11559544311E+04 -0.69112860908E+03  0.92124228721E+03  0.16317471749E+04  0.46999998093E+01 0.  1.
</event>
<event>
 5   0  0.7638805E-07  0.3817714E+04  0.7818609E-02  0.8042364E-01
        2   -1    0    0  501    0  0.00000000000E+00  0.00000000000E+00  0.14380087574E+04  0.14380087574E+04  0.25500000920E-02 0.  1.
       -2   -1    0    0    0  501  0.00000000000E+00  0.00000000000E+00 -0.25338748768E+04  0.25338748768E+04  0.25500000920E-02 0. -1.
    10030    2    1    2    0    0  0.00000000000E+00  0.00000000000E+00 -0.10958661194E+04  0.39718836342E+04  0.38177135896E+04 0.  0.
        5    1    3    3  502    0 -0.21831204156E+03  0.10773902031E+04  0.10756250425E+04  0.15379925615E+04  0.46999998093E+01 0.  1.
       -5    1    3    3    0  502  0.21831204156E+03 -0.10773902031E+04 -0.21714911619E+04  0.24338910726E+04  0.46999998093E+01 0. -1.
</event>
<event>
 5   0  0.7638805E-07  0.3813978E+04  0.7818609E-02  0.8043162E-01
       -2   -1    0    0    0  501  0.00000000000E+00  0.00000000000E+00  0.18151544124E+04  0.18151544124E+04  0.25500000920E-02 0.  1.
        2   -1    0    0  501    0  0.00000000000E+00  0.00000000000E+00 -0.20034693874E+04  0.20034693874E+04  0.25500000920E-02 0. -1.
    10030    2    1    2    0    0  0.00000000000E+00  0.00000000000E+00 -0.18831497499E+03  0.38186237999E+04  0.38139776081E+04 0.  0.
        5    1    3    3  502    0  0.63521253325E+03  0.40710638573E+02 -0.18939657422E+04  0.19980692283E+04  0.46999998093E+01 0. -1.
       -5    1    3    3    0  502 -0.63521253325E+03 -0.40710638573E+02  0.17056507672E+04  0.18205545716E+04  0.46999998093E+01 0.  1.
</event>
<event>
 5   0  0.8038352E-07  0.3820599E+04  0.7818609E-02  0.8041749E-01
        2   -1    0    0  501    0  0.00000000000E+00  0.00000000000E+00  0.18136123617E+04  0.18136123617E+04  0.25500000920E-02 0.  1.
       -2   -1    0    0    0  501  0.00000000000E+00  0.00000000000E+00 -0.20121408054E+04  0.20121408054E+04  0.25500000920E-02 0. -1.
    10030    2    1    2    0    0  0.00000000000E+00  0.00000000000E+00 -0.19852844370E+03  0.38257531672E+04  0.38205986119E+04 0.  0.
        2    1    3    3  502    0  0.39314767617E+03  0.16752019777E+04 -0.93006827509E+03  0.19559892018E+04  0.25500000920E-02 0. -1.
       -2    1    3    3    0  502 -0.39314767617E+03 -0.16752019777E+04  0.73153983138E+03  0.18697639654E+04  0.25500000920E-02 0.  1.
</event>
<event>
 5   0  0.7649458E-07  0.3216743E+04  0.7818609E-02  0.8184409E-01
        2   -1    0    0  501    0  0.00000000000E+00  0.00000000000E+00  0.13488527232E+04  0.13488527232E+04  0.25500000920E-02 0.  1.
       -2   -1    0    0    0  501  0.00000000000E+00  0.00000000000E+00 -0.19178216230E+04  0.19178216230E+04  0.25500000920E-02 0. -1.
    10030    2    1    2    0    0  0.00000000000E+00  0.00000000000E+00 -0.56896889983E+03  0.32666743461E+04  0.32167430228E+04 0.  0.
        4    1    3    3  502    0 -0.10328537409E+04 -0.71612698482E+02 -0.15344196205E+04  0.18510430609E+04  0.12699999809E+01 0. -1.
       -4    1    3    3    0  502  0.10328537409E+04  0.71612698482E+02  0.96545072068E+03  0.14156312852E+04  0.12699999809E+01 0.  1.
</event>
<event>
 5   0  0.8421677E-07  0.3806950E+04  0.7818609E-02  0.8044665E-01
        2   -1    0    0  501    0  0.00000000000E+00  0.00000000000E+00  0.12998999064E+04  0.12998999064E+04  0.25500000920E-02 0. -1.
       -2   -1    0    0    0  501  0.00000000000E+00  0.00000000000E+00 -0.27873043614E+04  0.27873043614E+04  0.25500000920E-02 0.  1.
    10030    2    1    2    0    0  0.00000000000E+00  0.00000000000E+00 -0.14874044550E+04  0.40872042678E+04  0.38069497914E+04 0.  0.
        3    1    3    3  502    0 -0.48154528062E+03  0.33849882654E+03  0.11997362880E+04  0.13363511828E+04  0.10100000352E+00 0. -1.
       -3    1    3    3    0  502  0.48154528062E+03 -0.33849882654E+03 -0.26871407430E+04  0.27508530851E+04  0.10100000352E+00 0.  1.
</event>
<event>
 5   0  0.7638805E-07  0.3243628E+04  0.7818609E-02  0.8177389E-01
        2   -1    0    0  501    0  0.00000000000E+00  0.00000000000E+00  0.16378850557E+04  0.16378850557E+04  0.25500000920E-02 0.  1.
       -2   -1    0    0    0  501  0.00000000000E+00  0.00000000000E+00 -0.16059008368E+04  0.16059008368E+04  0.25500000920E-02 0. -1.
    10030    2    1    2    0    0  0.00000000000E+00  0.00000000000E+00  0.31984218941E+02  0.32437858925E+04  0.32436282041E+04 0.  0.
        5    1    3    3  502    0 -0.14637974651E+04  0.60949830176E+03 -0.32471154245E+03  0.16185335568E+04  0.46999998093E+01 0.  1.
       -5    1    3    3    0  502  0.14637974651E+04 -0.60949830176E+03  0.35669576139E+03  0.16252523357E+04  0.46999998093E+01 0. -1.
</event>
<event>
 5   0  0.7649458E-07  0.3757943E+04  0.7818609E-02  0.8055241E-01
       -2   -1    0    0    0  501  0.00000000000E+00  0.00000000000E+00  0.18694392086E+04  0.18694392086E+04  0.25500000920E-02 0. -1.
        2   -1    0    0  501    0  0.00000000000E+00  0.00000000000E+00 -0.18885520536E+04  0.18885520536E+04  0.25500000920E-02 0.  1.
    10030    2    1    2    0    0  0.00000000000E+00  0.00000000000E+00 -0.19112844971E+02  0.37579912623E+04  0.37579426587E+04 0.  0.
        4    1    3    3  502    0 -0.53601425234E+03  0.11040986687E+04 -0.14323139053E+04  0.18862316626E+04  0.12699999809E+01 0.  1.
       -4    1    3    3    0  502  0.53601425234E+03 -0.11040986687E+04  0.14132010603E+04  0.18717595996E+04  0.12699999809E+01 0. -1.
</event>
<event>
 5   0  0.7551495E-07  0.3885794E+04  0.7818609E-02  0.8027990E-01
       -2   -1    0    0    0  501  0.00000000000E+00  0.00000000000E+00  0.15133242071E+04  0.15133242071E+04  0.25500000920E-02 0. -1.
        2   -1    0    0  501    0  0.00000000000E+00  0.00000000000E+00 -0.24944080547E+04  0.24944080547E+04  0.25500000920E-02 0.  1.
    10030    2    1    2    0    0  0.00000000000E+00  0.00000000000E+00 -0.98108384757E+03  0.40077322618E+04  0.38857936597E+04 0.  0.
        1    1    3    3  502    0 -0.14687033956E+04 -0.61597086597E+03 -0.16382689842E+04  0.22848271350E+04  0.50400001928E-02 0.  1.
       -1    1    3    3    0  502  0.14687033956E+04  0.61597086597E+03  0.65718513667E+03  0.17229051268E+04  0.50400001928E-02 0. -1.
</event>
<event>
 5   0  0.2907071E-07  0.3777325E+04  0.7818609E-02  0.8051038E-01
       -1   -1    0    0    0  501  0.00000000000E+00  0.00000000000E+00  0.14704458062E+04  0.14704458062E+04  0.50400001928E-02 0.  1.
        1   -1    0    0  501    0  0.00000000000E+00  0.00000000000E+00 -0.24258264603E+04  0.24258264603E+04  0.50400001928E-02 0. -1.
    10030    2    1    2    0    0  0.00000000000E+00  0.00000000000E+00 -0.95538065406E+03  0.38962722665E+04  0.37773251622E+04 0.  0.
        2    1    3    3  502    0  0.84633162976E+03  0.57542994287E+03 -0.21150156975E+04  0.23496144891E+04  0.25500000920E-02 0. -1.
       -2    1    3    3    0  502 -0.84633162976E+03 -0.57542994287E+03  0.11596350434E+04  0.15466577775E+04  0.25500000920E-02 0.  1.
</event>
<event>
 5   0  0.8421677E-07  0.3790590E+04  0.7818609E-02  0.8048177E-01
       -2   -1    0    0    0  501  0.00000000000E+00  0.00000000000E+00  0.17627768264E+04  0.17627768264E+04  0.25500000920E-02 0.  1.
        2   -1    0    0  501    0  0.00000000000E+00  0.00000000000E+00 -0.20377754583E+04  0.20377754583E+04  0.25500000920E-02 0. -1.
    10030    2    1    2    0    0  0.00000000000E+00  0.00000000000E+00 -0.27499863191E+03  0.38005522848E+04  0.37905901152E+04 0.  0.
        3    1    3    3  502    0 -0.16560137094E+04 -0.48177018498E+03 -0.92547791657E+03  0.19572923392E+04  0.10100000352E+00 0. -1.
       -3    1    3    3    0  502  0.16560137094E+04  0.48177018498E+03  0.65047928466E+03  0.18432599456E+04  0.10100000352E+00 0.  1.
</event>
<event>
 5   0  0.2529875E-07  0.2922182E+04  0.7818609E-02  0.8266308E-01
       -1   -1    0    0    0  501  0.00000000000E+00  0.00000000000E+00  0.14633551304E+04  0.14633551304E+04  0.50400001928E-02 0. -1.
        1   -1    0    0  501    0  0.00000000000E+00  0.00000000000E+00 -0.14588306337E+04  0.14588306337E+04  0.50400001928E-02 0.  1.
    10030    2    1    2    0    0  0.00000000000E+00  0.00000000000E+00  0.45244967126E+01  0.29221857641E+04  0.29221822614E+04 0.  0.
        4    1    3    3  502    0 -0.10386409417E+04  0.19340276213E+03 -0.10069991088E+04  0.14595302163E+04  0.12699999809E+01 0.  1.
       -4    1    3    3    0  502  0.10386409417E+04 -0.19340276213E+03  0.10115236055E+04  0.14626555478E+04  0.12699999809E+01 0. -1.
</event>
<event>
 5   0  0.2529875E-07  0.3792376E+04  0.7818609E-02  0.8047793E-01
        1   -1    0    0  501    0  0.00000000000E+00  0.00000000000E+00  0.22608338866E+04  0.22608338866E+04  0.50400001928E-02 0. -1.
       -1   -1    0    0    0  501  0.00000000000E+00  0.00000000000E+00 -0.15903556001E+04  0.15903556001E+04  0.50400001928E-02 0.  1.
    10030    2    1    2    0    0  0.00000000000E+00  0.00000000000E+00  0.67047828654E+03  0.38511894867E+04  0.37923764752E+04 0.  0.
        1    1    3    3  502    0 -0.13519472356E+04 -0.63225952111E+03  0.15230002379E+04  0.21323796928E+04  0.50400001928E-02 0. -1.
       -1    1    3    3    0  502  0.13519472356E+04  0.63225952111E+03 -0.85252195131E+03  0.17188097938E+04  0.50400001928E-02 0.  1.
</event>
<event>
 5   0  0.2529875E-07  0.3609443E+04  0.7818609E-02  0.8088332E-01
       -1   -1    0    0    0  501  0.00000000000E+00  0.00000000000E+00  0.23110391256E+04  0.23110391256E+04  0.50400001928E-02 0. -1.
        1   -1    0    0  501    0  0.00000000000E+00  0.00000000000E+00 -0.14093314802E+04  0.14093314802E+04  0.50400001928E-02 0.  1.
    10030    2    1    2    0    0  0.00000000000E+00  0.00000000000E+00  0.90170764541E+03  0.37203706059E+04  0.36094432766E+04 0.  0.
        5    1    3    3  502    0 -0.13298923187E+04 -0.53733512478E+03 -0.67809500118E+03  0.15865615451E+04  0.46999998093E+01 0.  1.
       -5    1    3    3    0  502  0.13298923187E+04  0.53733512478E+03  0.15798026466E+04  0.21338090608E+04  0.46999998093E+01 0. -1.
</event>
<event>
 5   0  0.7649458E-07  0.3755800E+04  0.7818609E-02  0.8055707E-01
        2   -1    0    0  501    0  0.00000000000E+00  0.00000000000E+00  0.31774942412E+04  0.31774942412E+04  0.25500000920E-02 0.  1.
       -2   -1    0    0    0  501  0.00000000000E+00  0.00000000000E+00 -0.11098391913E+04  0.11098391913E+04  0.25500000920E-02 0. -1.
    10030    2    1    2    0    0  0.00000000000E+00  0.00000000000E+00  0.20676550499E+04  0.42873334324E+04  0.37557995894E+04 0.  0.
        4    1    3    3  502    0 -0.31439933673E+03 -0.42277837403E+03  0.30913955113E+04  0.31359713514E+04  0.12699999809E+01 0.  1.
       -4    1    3    3    0  502  0.31439933673E+03  0.42277837403E+03 -0.10237404614E+04  0.11513620810E+04  0.12699999809E+01 0. -1.
</event>
<event>
 5   0  0.2529875E-07  0.3819232E+04  0.7818609E-02  0.8042040E-01
       -1   -1    0    0    0  501  0.00000000000E+00  0.00000000000E+00  0.18148460521E+04  0.18148460521E+04  0.50400001928E-02 0. -1.
        1   -1    0    0  501    0  0.00000000000E+00  0.00000000000E+00 -0.20093350611E+04  0.20093350611E+04  0.50400001928E-02 0.  1.
    10030    2    1    2    0    0  0.00000000000E+00  0.00000000000E+00 -0.19448900904E+03  0.38241811132E+04  0.38192322805E+04 0.  0.
        4    1    3    3  502    0  0.21824483140E+03  0.18283418813E+04  0.40954109595E+03  0.18863166128E+04  0.12699999809E+01 0. -1.
       -4    1    3    3    0  502 -0.21824483140E+03 -0.18283418813E+04 -0.60403010499E+03  0.19378645005E+04  0.12699999809E+01 0.  1.
</event>
<event>
 5   0  0.8038352E-07  0.3774959E+04  0.7818609E-02  0.8051550E-01
        2   -1    0    0  501    0  0.00000000000E+00  0.00000000000E+00  0.17606709660E+04  0.17606709660E+04  0.25500000920E-02 0.  1.
       -2   -1    0    0    0  501  0.00000000000E+00  0.00000000000E+00 -0.20234207988E+04  0.20234207988E+04  0.25500000920E-02 0. -1.
    10030    2    1    2    0    0  0.00000000000E+00  0.00000000000E+00 -0.26274983284E+03  0.37840917648E+04  0.37749586766E+04 0.  0.
        2    1    3    3  502    0 -0.18319020305E+04 -0.35370949988E+03  0.15497823621E+03  0.18721628437E+04  0.25500000920E-02 0.  1.
       -2    1    3    3    0  502  0.18319020305E+04  0.35370949988E+03 -0.41772806905E+03  0.19119289211E+04  0.25500000920E-02 0. -1.
</event>
<event>
 5   0  0.7551495E-07  0.3876661E+04  0.7818609E-02  0.8029901E-01
       -2   -1    0    0    0  501  0.00000000000E+00  0.00000000000E+00  0.21710612996E+04  0.21710612996E+04  0.25500000920E-02 0.  1.
        2   -1    0    0  501    0  0.00000000000E+00  0.00000000000E+00 -0.17305479145E+04  0.17305479145E+04  0.25500000920E-02 0. -1.
    10030    2    1    2    0    0  0.00000000000E+00  0.00000000000E+00  0.44051338513E+03  0.39016092141E+04  0.38766612461E+04 0.  0.
        1    1    3    3  502    0  0.31128788179E+03  0.12485876043E+04  0.16791557339E+04  0.21155224248E+04  0.50400001928E-02 0.  1.
       -1    1    3    3    0  502 -0.31128788179E+03 -0.12485876043E+04 -0.12386423487E+04  0.17860867894E+04  0.50400001928E-02 0. -1.
</event>
<event>
 5   0  0.7638805E-07  0.3764080E+04  0.7818609E-02  0.8053907E-01
       -2   -1    0    0    0  501  0.00000000000E+00  0.00000000000E+00  0.15180456227E+04  0.15180456227E+04  0.25500000920E-02 0.  1.
        2   -1    0    0  501    0  0.00000000000E+00  0.00000000000E+00 -0.23333121040E+04  0.23333121040E+04  0.25500000920E-02 0. -1.
    10030    2    1    2    0    0  0.00000000000E+00  0.00000000000E+00 -0.81526648129E+03  0.38513577267E+04  0.37640798216E+04 0.  0.
        5    1    3    3  502    0  0.69591784502E+03  0.74213465642E+03  0.12124265550E+04  0.15827399460E+04  0.46999998093E+01 0.  1.
       -5    1    3    3    0  502 -0.69591784502E+03 -0.74213465642E+03 -0.20276930363E+04  0.22686177807E+04  0.46999998093E+01 0. -1.
</event>
<event>
 5   0  0.2907071E-07  0.3790394E+04  0.7818609E-02  0.8048219E-01
        1   -1    0    0  501    0  0.00000000000E+00  0.00000000000E+00  0.22496095119E+04  0.22496095119E+04  0.50400001928E-02 0. -1.
       -1   -1    0    0    0  501  0.00000000000E+00  0.00000000000E+00 -0.15966204063E+04  0.15966204063E+04  0.50400001928E-02 0.  1.
    10030    2    1    2    0    0  0.00000000000E+00  0.00000000000E+00  0.65298910567E+03  0.38462299182E+04  0.37903944137E+04 0.  0.
        2    1    3    3  502    0 -0.45113007258E+03  0.10780735554E+04  0.18404550453E+04  0.21801457994E+04  0.25500000920E-02 0. -1.
       -2    1    3    3    0  502  0.45113007258E+03 -0.10780735554E+04 -0.11874659396E+04  0.16660841188E+04  0.25500000920E-02 0.  1.
</event>
<event>
 5   0  0.2529875E-07  0.3645904E+04  0.7818609E-02  0.8080057E-01
        1   -1    0    0  501    0  0.00000000000E+00  0.00000000000E+00  0.31113006206E+04  0.31113006206E+04  0.50400001928E-02 0. -1.
       -1   -1    0    0    0  501  0.00000000000E+00  0.00000000000E+00 -0.10680916541E+04  0.10680916541E+04  0.50400001928E-02 0.  1.
    10030    2    1    2    0    0  0.00000000000E+00  0.00000000000E+00  0.20432089665E+04  0.41793922748E+04  0.36459041273E+04 0.  0.
        4    1    3    3  502    0  0.17479693703E+04  0.49227699712E+03  0.83884178237E+03  0.20003476473E+04  0.12699999809E+01 0. -1.
       -4    1    3    3    0  502 -0.17479693703E+04 -0.49227699712E+03  0.12043671842E+04  0.21790446275E+04  0.12699999809E+01 0.  1.
</event>
<event>
 5   0  0.7649458E-07  0.2960475E+04  0.7818609E-02  0.8255108E-01
       -2   -1    0    0    0  501  0.00000000000E+00  0.00000000000E+00  0.11922651902E+04  0.11922651902E+04  0.25500000920E-02 0.  1.
        2   -1    0    0  501    0  0.00000000000E+00  0.00000000000E+00 -0.18377646785E+04  0.18377646785E+04  0.25500000920E-02 0. -1.
    10030    2    1    2    0    0  0.00000000000E+00  0.00000000000E+00 -0.64549948830E+03  0.30300298687E+04  0.29604748632E+04 0.  0.
        4    1    3    3  502    0 -0.10117065621E+04 -0.86306099798E+03  0.34266087966E+03  0.13732598244E+04  0.12699999809E+01 0.  1.
       -4    1    3    3    0  502  0.10117065621E+04  0.86306099798E+03 -0.98816036795E+03  0.16567700443E+04  0.12699999809E+01 0. -1.
</event>
<event>
 5   0  0.8421677E-07  0.3789314E+04  0.7818609E-02  0.8048452E-01
        2   -1    0    0  501    0  0.00000000000E+00  0.00000000000E+00  0.28023359621E+04  0.28023359621E+04  0.25500000920E-02 0. -1.
       -2   -1    0    0    0  501  0.00000000000E+00  0.00000000000E+00 -0.12809763026E+04  0.12809763026E+04  0.25500000920E-02 0.  1.
    10030    2    1    2    0    0  0.00000000000E+00  0.00000000000E+00  0.15213596595E+04  0.40833122648E+04  0.37893144285E+04 0.  0.
        3    1    3    3  502    0  0.16904361800E+04  0.19510022562E+03 -0.13707762763E+03  0.17071698401E+04  0.10100000352E+00 0. -1.
       -3    1    3    3    0  502 -0.16904361800E+04 -0.19510022562E+03  0.16584372871E+04  0.23761424247E+04  0.10100000352E+00 0.  1.
</event>
<event>
 5   0  0.2529875E-07  0.4001327E+04  0.7818609E-02  0.8004279E-01
        1   -1    0    0  501    0  0.00000000000E+00  0.00000000000E+00  0.16999286664E+04  0.16999286664E+04  0.50400001928E-02 0. -1.
       -1   -1    0    0    0  501  0.00000000000E+00  0.00000000000E+00 -0.23546017154E+04  0.23546017154E+04  0.50400001928E-02 0.  1.
    10030    2    1    2    0    0  0.00000000000E+00  0.00000000000E+00 -0.65467304897E+03  0.40545303818E+04  0.40013272568E+04 0.  0.
        1    1    3    3  502    0  0.19174090168E+04  0.57073932862E+03 -0.30574035725E+03  0.20237781215E+04  0.50400001928E-02 0. -1.
       -1    1    3    3    0  502 -0.19174090168E+04 -0.57073932862E+03 -0.34893269172E+03  0.20307522602E+04  0.50400001928E-02 0.  1.
</event>
<event>
 5   0  0.2529875E-07  0.3683006E+04  0.7818609E-02  0.8071738E-01
        1   -1    0    0  501    0  0.00000000000E+00  0.00000000000E+00  0.24047640672E+04  0.24047640672E+04  0.50400001928E-02 0. -1.
       -1   -1    0    0    0  501  0.00000000000E+00  0.00000000000E+00 -0.14101726041E+04  0.14101726041E+04  0.50400001928E-02 0.  1.
    10030    2    1    2    0    0  0.00000000000E+00  0.00000000000E+00  0.99459146317E+03  0.38149366713E+04  0.36830055155E+04 0.  0.
        3    1    3    3  502    0 -0.14757871263E+04  0.91241744001E+03 -0.14179794479E+03  0.17408503366E+04  0.10100000352E+00 0.  1.
       -3    1    3    3    0  502  0.14757871263E+04 -0.91241744001E+03  0.11363894080E+04  0.20740863347E+04  0.10100000352E+00 0. -1.
</event>
<event>
 5   0  0.2907071E-07  0.3380204E+04  0.7818609E-02  0.8142782E-01
        1   -1    0    0  501    0  0.00000000000E+00  0.00000000000E+00  0.18196161214E+04  0.18196161214E+04  0.50400001928E-02 0.  1.
       -1   -1    0    0    0  501  0.00000000000E+00  0.00000000000E+00 -0.15698066126E+04  0.15698066127E+04  0.50400001928E-02 0. -1.
    10030    2    1    2    0    0  0.00000000000E+00  0.00000000000E+00  0.24980950871E+03  0.33894227340E+04  0.33802043842E+04 0.  0.
        2    1    3    3  502    0  0.85316860642E+03  0.14486260695E+04 -0.48863145074E+02  0.16819042087E+04  0.25500000920E-02 0.  1.
       -2    1    3    3    0  502 -0.85316860642E+03 -0.14486260695E+04  0.29867265379E+03  0.17075185253E+04  0.25500000920E-02 0. -1.
</event>
<event>
 5   0  0.2907071E-07  0.2837016E+04  0.7818609E-02  0.8291868E-01
        1   -1    0    0  501    0  0.00000000000E+00  0.00000000000E+00  0.13542683952E+04  0.13542683952E+04  0.50400001928E-02 0. -1.
       -1   -1    0    0    0  501  0.00000000000E+00  0.00000000000E+00 -0.14857949932E+04  0.14857949932E+04  0.50400001928E-02 0.  1.
    10030    2    1    2    0    0  0.00000000000E+00  0.00000000000E+00 -0.13152659800E+03  0.28400633884E+04  0.28370161797E+04 0.  0.
        2    1    3    3  502    0 -0.50711759402E+03 -0.43625899245E+03 -0.13179765575E+04  0.14780231287E+04  0.25500000920E-02 0.  1.
       -2    1    3    3    0  502  0.50711759402E+03  0.43625899245E+03  0.11864499595E+04  0.13620402597E+04  0.25500000920E-02 0. -1.
</event>
<event>
 5   0  0.7638805E-07  0.3789725E+04  0.7818609E-02  0.8048363E-01
        2   -1    0    0  501    0  0.00000000000E+00  0.00000000000E+00  0.17026124427E+04  0.17026124427E+04  0.25500000920E-02 0.  1.
       -2   -1    0    0    0  501  0.00000000000E+00  0.00000000000E+00 -0.21088206618E+04  0.21088206618E+04  0.25500000920E-02 0. -1.
    10030    2    1    2    0    0  0.00000000000E+00  0.00000000000E+00 -0.40620821906E+03  0.38114331045E+04  0.37897252134E+04 0.  0.
        5    1    3    3  502    0  0.13714546249E+04  0.91504871828E+03  0.73620515001E+03  0.18056085008E+04  0.46999998093E+01 0.  1.
       -5    1    3    3    0  502 -0.13714546249E+04 -0.91504871828E+03 -0.11424133691E+04  0.20058246037E+04  0.46999998093E+01 0. -1.
</event>
<event>
 5   0  0.2529875E-07  0.3750445E+04  0.7818609E-02  0.8056874E-01
       -1   -1    0    0    0  501  0.00000000000E+00  0.00000000000E+00  0.16124374585E+04  0.16124374585E+04  0.50400001928E-02 0. -1.
        1   -1    0    0  501    0  0.00000000000E+00  0.00000000000E+00 -0.21808340481E+04  0.21808340481E+04  0.50400001928E-02 0.  1.
    10030    2    1    2    0    0  0.00000000000E+00  0.00000000000E+00 -0.56839658962E+03  0.37932715066E+04  0.37504445123E+04 0.  0.
        5    1    3    3  502    0 -0.15397207499E+03  0.10467369635E+04 -0.18501256487E+04  0.21312795867E+04  0.46999998093E+01 0.  1.
       -5    1    3    3    0  502  0.15397207499E+03 -0.10467369635E+04  0.12817290591E+04  0.16619919199E+04  0.46999998093E+01 0. -1.
</event>
<event>
 5   0  0.2529875E-07  0.3742298E+04  0.7818609E-02  0.8058652E-01
       -1   -1    0    0    0  501  0.00000000000E+00  0.00000000000E+00  0.20069447387E+04  0.20069447387E+04  0.50400001928E-02 0.  1.
        1   -1    0    0  501    0  0.00000000000E+00  0.00000000000E+00 -0.17445420028E+04  0.17445420028E+04  0.50400001928E-02 0. -1.
    10030    2    1    2    0    0  0.00000000000E+00  0.00000000000E+00  0.26240273588E+03  0.37514867415E+04  0.37422984349E+04 0.  0.
        3    1    3    3  502    0  0.68229675279E+03  0.14871797719E+04 -0.77875353188E+03  0.18120953635E+04  0.10100000352E+00 0. -1.
       -3    1    3    3    0  502 -0.68229675279E+03 -0.14871797719E+04  0.10411562678E+04  0.19393913780E+04  0.10100000352E+00 0.  1.
</event>
<event>
 5   0  0.2529875E-07  0.3654674E+04  0.7818609E-02  0.8078082E-01
       -1   -1    0    0    0  501  0.00000000000E+00  0.00000000000E+00  0.15606111030E+04  0.15606111030E+04  0.50400001928E-02 0.  1.
        1   -1    0    0  501    0  0.00000000000E+00  0.00000000000E+00 -0.21396490228E+04  0.21396490228E+04  0.50400001928E-02 0. -1.
    10030    2    1    2    0    0  0.00000000000E+00  0.00000000000E+00 -0.57903791976E+03  0.37002601258E+04  0.36546737319E+04 0.  0.
        5    1    3    3  502    0  0.16636721715E+04 -0.15050318979E+03 -0.10394888939E+04  0.19674896581E+04  0.46999998093E+01 0.  1.
       -5    1    3    3    0  502 -0.16636721715E+04  0.15050318979E+03  0.46045097409E+03  0.17327704677E+04  0.46999998093E+01 0. -1.
</event>
<event>
 5   0  0.2529875E-07  0.3772536E+04  0.7818609E-02  0.8052074E-01
        1   -1    0    0  501    0  0.00000000000E+00  0.00000000000E+00  0.20273834117E+04  0.20273834118E+04  0.50400001928E-02 0.  1.
       -1   -1    0    0    0  501  0.00000000000E+00  0.00000000000E+00 -0.17549750524E+04  0.17549750524E+04  0.50400001928E-02 0. -1.
    10030    2    1    2    0    0  0.00000000000E+00  0.00000000000E+00  0.27240835933E+03  0.37823584642E+04  0.37725361810E+04 0.  0.
        1    1    3    3  502    0 -0.31318631568E+03 -0.11765681514E+04  0.15806526303E+04  0.19952095180E+04  0.50400001928E-02 0.  1.
       -1    1    3    3    0  502  0.31318631568E+03  0.11765681514E+04 -0.13082442710E+04  0.17871489461E+04  0.50400001928E-02 0. -1.
</event>
<event>
 5   0  0.8038352E-07  0.3889295E+04  0.7818609E-02  0.8027259E-01
        2   -1    0    0  501    0  0.00000000000E+00  0.00000000000E+00  0.26585285628E+04  0.26585285628E+04  0.25500000920E-02 0.  1.
       -2   -1    0    0    0  501  0.00000000000E+00  0.00000000000E+00 -0.14224613517E+04  0.14224613517E+04  0.25500000920E-02 0. -1.
    10030    2    1    2    0    0  0.00000000000E+00  0.00000000000E+00  0.12360672110E+04  0.40809899145E+04  0.38892951202E+04 0.  0.
        2    1    3    3  502    0 -0.14501577518E+04  0.52905587339E+03 -0.62296671285E+03  0.16646156156E+04  0.25500000920E-02 0. -1.
       -2    1    3    3    0  502  0.14501577518E+04 -0.52905587339E+03  0.18590339239E+04  0.24163742989E+04  0.25500000920E-02 0.  1.
</event>
<event>
 5   0  0.7551495E-07  0.3737550E+04  0.7818609E-02  0.8059691E-01
        2   -1    0    0  501    0  0.00000000000E+00  0.00000000000E+00  0.18333257136E+04  0.18333257136E+04  0.25500000920E-02 0.  1.
       -2   -1    0    0    0  501  0.00000000000E+00  0.00000000000E+00 -0.19049094695E+04  0.19049094695E+04  0.25500000920E-02 0. -1.
    10030    2    1    2    0    0  0.00000000000E+00  0.00000000000E+00 -0.71583755899E+02  0.37382351832E+04  0.37375497389E+04 0.  0.
        1    1    3    3  502    0 -0.17311242649E+04 -0.12643029325E+03  0.65682603982E+03  0.18558545973E+04  0.50400001928E-02 0.  1.
       -1    1    3    3    0  502  0.17311242649E+04  0.12643029325E+03 -0.72840979572E+03  0.18823805859E+04  0.50400001928E-02 0. -1.
</event>
<event>
 5   0  0.2529875E-07  0.2455472E+04  0.7818609E-02  0.8419023E-01
        3   -1    0    0  501    0  0.00000000000E+00  0.00000000000E+00  0.13940940635E+04  0.13940940672E+04  0.10100000352E+00 0.  1.
       -3   -1    0    0    0  501  0.00000000000E+00  0.00000000000E+00 -0.10812293197E+04  0.10812293244E+04  0.10100000352E+00 0. -1.
    10030    2    1    2    0    0  0.00000000000E+00  0.00000000000E+00  0.31286474389E+03  0.24753233916E+04  0.24554717561E+04 0.  0.
        4    1    3    3  502    0 -0.11907719327E+04  0.26965679696E+03  0.28663223010E+03  0.12541181093E+04  0.12699999809E+01 0. -1.
       -4    1    3    3    0  502  0.11907719327E+04 -0.26965679696E+03  0.26232513788E+02  0.12212052823E+04  0.12699999809E+01 0.  1.
</event>
<event>
 5   0  0.2907071E-07  0.3856446E+04  0.7818609E-02  0.8034149E-01
       -1   -1    0    0    0  501  0.00000000000E+00  0.00000000000E+00  0.20469210589E+04  0.20469210589E+04  0.50400001928E-02 0.  1.
        1   -1    0    0  501    0  0.00000000000E+00  0.00000000000E+00 -0.18164080465E+04  0.18164080465E+04  0.50400001928E-02 0. -1.
    10030    2    1    2    0    0  0.00000000000E+00  0.00000000000E+00  0.23051301235E+03  0.38633291054E+04  0.38564459711E+04 0.  0.
        2    1    3    3  502    0  0.89849845776E+03  0.13416735290E+04  0.11710144183E+04  0.19946583930E+04  0.25500000920E-02 0.  1.
       -2    1    3    3    0  502 -0.89849845776E+03 -0.13416735290E+04 -0.94050140590E+03  0.18686707124E+04  0.25500000920E-02 0. -1.
</event>
<event>
 5   0  0.2529875E-07  0.3625333E+04  0.7818609E-02  0.8084713E-01
       -1   -1    0    0    0  501  0.00000000000E+00  0.00000000000E+00  0.12379629882E+04  0.12379629882E+04  0.50400001928E-02 0.  1.
        1   -1    0    0  501    0  0.00000000000E+00  0.00000000000E+00 -0.26541658419E+04  0.26541658419E+04  0.50400001928E-02 0. -1.
    10030    2    1    2    0    0  0.00000000000E+00  0.00000000000E+00 -0.14162028537E+04  0.38921288301E+04  0.36253325789E+04 0.  0.
        3    1    3    3  502    0 -0.13957915006E+04  0.84588332537E+03 -0.15548156076E+04  0.22541526340E+04  0.10100000352E+00 0.  1.
       -3    1    3    3    0  502  0.13957915006E+04 -0.84588332537E+03  0.13861275391E+03  0.16379761961E+04  0.10100000352E+00 0. -1.
</event>
<event>
 5   0  0.8038352E-07  0.2565950E+04  0.7818609E-02  0.8379860E-01
        2   -1    0    0  501    0  0.00000000000E+00  0.00000000000E+00  0.17603310104E+04  0.17603310104E+04  0.25500000920E-02 0. -1.
       -2   -1    0    0    0  501  0.00000000000E+00  0.00000000000E+00 -0.93506540710E+03  0.93506540710E+03  0.25500000920E-02 0.  1.
    10030    2    1    2    0    0  0.00000000000E+00  0.00000000000E+00  0.82526560332E+03  0.26953964175E+04  0.25659498303E+04 0.  0.
        2    1    3    3  502    0  0.30412934847E+02  0.12189946883E+04  0.83169649870E+03  0.14760054412E+04  0.25500000920E-02 0. -1.
       -2    1    3    3    0  502 -0.30412934847E+02 -0.12189946883E+04 -0.64308953769E+01  0.12193909763E+04  0.25500000920E-02 0.  1.
</event>
<event>
 5   0  0.7551495E-07  0.2733137E+04  0.7818609E-02  0.8324332E-01
        2   -1    0    0  501    0  0.00000000000E+00  0.00000000000E+00  0.98352811962E+03  0.98352811963E+03  0.25500000920E-02 0. -1.
       -2   -1    0    0    0  501  0.00000000000E+00  0.00000000000E+00 -0.18987866893E+04  0.18987866893E+04  0.25500000920E-02 0.  1.
    10030    2    1    2    0    0  0.00000000000E+00  0.00000000000E+00 -0.91525856971E+03  0.28823148090E+04  0.27331374661E+04 0.  0.
        1    1    3    3  502    0  0.48978966009E+03 -0.11019008502E+04 -0.11357098591E+04  0.16564770686E+04  0.50400001928E-02 0. -1.
       -1    1    3    3    0  502 -0.48978966009E+03  0.11019008502E+04  0.22045128937E+03  0.12258377404E+04  0.50400001928E-02 0.  1.
</event>
<event>
 5   0  0.2529875E-07  0.3630665E+04  0.7818609E-02  0.8083503E-01
       -1   -1    0    0    0  501  0.00000000000E+00  0.00000000000E+00  0.23102713623E+04  0.23102713623E+04  0.50400001928E-02 0.  1.
        1   -1    0    0  501    0  0.00000000000E+00  0.00000000000E+00 -0.14264263143E+04  0.14264263144E+04  0.50400001928E-02 0. -1.
    10030    2    1    2    0    0  0.00000000000E+00  0.00000000000E+00  0.88384504799E+03  0.37366976767E+04  0.36306648783E+04 0.  0.
        1    1    3    3  502    0 -0.15486201274E+04  0.48302029614E+03 -0.39667348628E+03  0.16699948384E+04  0.50400001928E-02 0. -1.
       -1    1    3    3    0  502  0.15486201274E+04 -0.48302029614E+03  0.12805185343E+04  0.20667028383E+04  0.50400001928E-02 0.  1.
</event>
<event>
 5   0  0.8038352E-07  0.3814209E+04  0.7818609E-02  0.8043113E-01
        2   -1    0    0  501    0  0.00000000000E+00  0.00000000000E+00  0.19117586641E+04  0.19117586641E+04  0.25500000920E-02 0.  1.
       -2   -1    0    0    0  501  0.00000000000E+00  0.00000000000E+00 -0.19024616608E+04  0.19024616608E+04  0.25500000920E-02 0. -1.
    10030    2    1    2    0    0  0.00000000000E+00  0.00000000000E+00  0.92970032930E+01  0.38142203250E+04  0.38142089944E+04 0.  0.
        2    1    3    3  502    0  0.25515217782E+03 -0.12035918328E+01 -0.18853157051E+04  0.19025034534E+04  0.25500000920E-02 0. -1.
       -2    1    3    3    0  502 -0.25515217782E+03  0.12035918328E+01  0.18946127083E+04  0.19117168716E+04  0.25500000920E-02 0.  1.
</event>
<event>
 5   0  0.2529875E-07  0.3820621E+04  0.7818609E-02  0.8041744E-01
       -1   -1    0    0    0  501  0.00000000000E+00  0.00000000000E+00  0.16302655157E+04  0.16302655157E+04  0.50400001928E-02 0.  1.
        1   -1    0    0  501    0  0.00000000000E+00  0.00000000000E+00 -0.22384609239E+04  0.22384609239E+04  0.50400001928E-02 0. -1.
    10030    2    1    2    0    0  0.00000000000E+00  0.00000000000E+00 -0.60819540823E+03  0.38687264396E+04  0.38206207100E+04 0.  0.
        4    1    3    3  502    0 -0.13598936106E+04  0.50034000232E+03  0.95641888244E+03  0.17361997125E+04  0.12699999809E+01 0.  1.
       -4    1    3    3    0  502  0.13598936106E+04 -0.50034000232E+03 -0.15646142907E+04  0.21325267271E+04  0.12699999809E+01 0. -1.
</event>
<event>
 5   0  0.2529875E-07  0.3576352E+04  0.7818609E-02  0.8095930E-01
       -1   -1    0    0    0  501  0.00000000000E+00  0.00000000000E+00  0.17302539604E+04  0.17302539605E+04  0.50400001928E-02 0.  1.
        1   -1    0    0  501    0  0.00000000000E+00  0.00000000000E+00 -0.18480368917E+04  0.18480368917E+04  0.50400001928E-02 0. -1.
    10030    2    1    2    0    0  0.00000000000E+00  0.00000000000E+00 -0.11778293126E+03  0.35782908522E+04  0.35763518568E+04 0.  0.
        3    1    3    3  502    0 -0.10079553014E+04 -0.14692730948E+04 -0.21008866355E+03  0.17941222292E+04  0.10100000352E+00 0.  1.
       -3    1    3    3    0  502  0.10079553014E+04  0.14692730948E+04  0.92305732287E+02  0.17841686229E+04  0.10100000352E+00 0. -1.
</event>
<event>
 5   0  0.7638805E-07  0.3457279E+04  0.7818609E-02  0.8123990E-01
       -2   -1    0    0    0  501  0.00000000000E+00  0.00000000000E+00  0.19821867785E+04  0.19821867785E+04  0.25500000920E-02 0.  1.
        2   -1    0    0  501    0  0.00000000000E+00  0.00000000000E+00 -0.15075243290E+04  0.15075243290E+04  0.25500000920E-02 0. -1.
    10030    2    1    2    0    0  0.00000000000E+00  0.00000000000E+00  0.47466244952E+03  0.34897111076E+04  0.34572791576E+04 0.  0.
        5    1    3    3  502    0  0.54010236170E+03  0.66521773405E+03  0.17527299815E+04  0.19509765947E+04  0.46999998093E+01 0.  1.
       -5    1    3    3    0  502 -0.54010236170E+03 -0.66521773405E+03 -0.12780675320E+04  0.15387345129E+04  0.46999998093E+01 0. -1.
</event>
<event>
 5   0  0.8038352E-07  0.3860262E+04  0.7818609E-02  0.8033345E-01
        2   -1    0    0  501    0  0.00000000000E+00  0.00000000000E+00  0.20342900750E+04  0.20342900750E+04  0.25500000920E-02 0. -1.
       -2   -1    0    0    0  501  0.00000000000E+00  0.00000000000E+00 -0.18313048704E+04  0.18313048704E+04  0.25500000920E-02 0.  1.
    10030    2    1    2    0    0  0.00000000000E+00  0.00000000000E+00  0.20298520465E+03  0.38655949454E+04  0.38602618161E+04 0.  0.
        2    1    3    3  502    0 -0.82164540225E+03 -0.16545215555E+04 -0.45862135286E+03  0.19033854812E+04  0.25500000920E-02 0.  1.
       -2    1    3    3    0  502  0.82164540225E+03  0.16545215555E+04  0.66160655750E+03  0.19622094642E+04  0.25500000920E-02 0. -1.
</event>
<event>
 5   0  0.2529875E-07  0.3898734E+04  0.7818609E-02  0.8025293E-01
       -3   -1    0    0    0  501  0.00000000000E+00  0.00000000000E+00  0.24899165280E+04  0.24899165300E+04  0.10100000352E+00 0. -1.
        3   -1    0    0  501    0  0.00000000000E+00  0.00000000000E+00 -0.15261684936E+04  0.15261684970E+04  0.10100000352E+00 0.  1.
    10030    2    1    2    0    0  0.00000000000E+00  0.00000000000E+00  0.96374803433E+03  0.40160850270E+04  0.38987342395E+04 0.  0.
        2    1    3    3  502    0  0.18835702657E+04 -0.50000587904E+03  0.53007280892E+03  0.20196088749E+04  0.25500000920E-02 0. -1.
       -2    1    3    3    0  502 -0.18835702657E+04  0.50000587904E+03  0.43367522541E+03  0.19964761521E+04  0.25500000920E-02 0.  1.
</event>
<event>
 5   0  0.2907071E-07  0.3164388E+04  0.7818609E-02  0.8198286E-01
        1   -1    0    0  501    0  0.00000000000E+00  0.00000000000E+00  0.19165258966E+04  0.19165258966E+04  0.50400001928E-02 0. -1.
       -1   -1    0    0    0  501  0.00000000000E+00  0.00000000000E+00 -0.13061855235E+04  0.13061855235E+04  0.50400001928E-02 0.  1.
    10030    2    1    2    0    0  0.00000000000E+00  0.00000000000E+00  0.61034037308E+03  0.32227114202E+04  0.31643883337E+04 0.  0.
        2    1    3    3  502    0 -0.92351033315E+03 -0.12813945125E+04  0.39903809836E+03  0.16291330934E+04  0.25500000920E-02 0.  1.
       -2    1    3    3    0  502  0.92351033315E+03  0.12813945125E+04  0.21130227472E+03  0.15935783267E+04  0.25500000920E-02 0. -1.
</event>
<event>
 5   0  0.2529875E-07  0.3809776E+04  0.7818609E-02  0.8044060E-01
        1   -1    0    0  501    0  0.00000000000E+00  0.00000000000E+00  0.14196165537E+04  0.14196165537E+04  0.50400001928E-02 0.  1.
       -1   -1    0    0    0  501  0.00000000000E+00  0.00000000000E+00 -0.25560405020E+04  0.25560405020E+04  0.50400001928E-02 0. -1.
    10030    2    1    2    0    0  0.00000000000E+00  0.00000000000E+00 -0.11364239483E+04  0.39756570557E+04  0.38097755360E+04 0.  0.
        1    1    3    3  502    0  0.16228884694E+03 -0.57021473465E+03 -0.24573137658E+04  0.25278199021E+04  0.50400001928E-02 0. -1.
       -1    1    3    3    0  502 -0.16228884694E+03  0.57021473465E+03  0.13208898175E+04  0.14478371537E+04  0.50400001928E-02 0.  1.
</event>
<event>
 5   0  0.8038352E-07  0.3767165E+04  0.7818609E-02  0.8053238E-01
        2   -1    0    0  501    0  0.00000000000E+00  0.00000000000E+00  0.17367266577E+04  0.17367266577E+04  0.25500000920E-02 0.  1.
       -2   -1    0    0    0  501  0.00000000000E+00  0.00000000000E+00 -0.20428559392E+04  0.20428559392E+04  0.25500000920E-02 0. -1.
    10030    2    1    2    0    0  0.00000000000E+00  0.00000000000E+00 -0.30612928147E+03  0.37795825969E+04  0.37671646460E+04 0.  0.
        2    1    3    3  502    0 -0.36207169354E+03 -0.18437583369E+04 -0.20942846857E+02  0.18790900242E+04  0.25500000920E-02 0.  1.
       -2    1    3    3    0  502  0.36207169354E+03  0.18437583369E+04 -0.28518643462E+03  0.19004925727E+04  0.25500000920E-02 0. -1.
</event>
<event>
 5   0  0.2529875E-07  0.3771546E+04  0.7818609E-02  0.8052289E-01
       -1   -1    0    0    0  501  0.00000000000E+00  0.00000000000E+00  0.24768279175E+04  0.24768279175E+04  0.50400001928E-02 0. -1.
        1   -1    0    0  501    0  0.00000000000E+00  0.00000000000E+00 -0.14357639822E+04  0.14357639823E+04  0.50400001928E-02 0.  1.
    10030    2    1    2    0    0  0.00000000000E+00  0.00000000000E+00  0.10410639353E+04  0.39125918998E+04  0.37715462687E+04 0.  0.
        1    1    3    3  502    0  0.36539284672E+03  0.53577687303E+03 -0.13164439693E+04  0.14675126965E+04  0.50400001928E-02 0.  1.
       -1    1    3    3    0  502 -0.36539284672E+03 -0.53577687303E+03  0.23575079046E+04  0.24450792033E+04  0.50400001928E-02 0. -1.
</event>
<event>
 5   0  0.7638805E-07  0.3669420E+04  0.7818609E-02  0.8074773E-01
        2   -1    0    0  501    0  0.00000000000E+00  0.00000000000E+00  0.21267101077E+04  0.21267101077E+04  0.25500000920E-02 0. -1.
       -2   -1    0    0    0  501  0.00000000000E+00  0.00000000000E+00 -0.15828020609E+04  0.15828020609E+04  0.25500000920E-02 0.  1.
    10030    2    1    2    0    0  0.00000000000E+00  0.00000000000E+00  0.54390804678E+03  0.37095121687E+04  0.36694201948E+04 0.  0.
        5    1    3    3  502    0  0.17110380545E+04  0.49460807209E+03 -0.17314128909E+03  0.17894938851E+04  0.46999998093E+01 0. -1.
       -5    1    3    3    0  502 -0.17110380545E+04 -0.49460807209E+03  0.71704933587E+03  0.19200182835E+04  0.46999998093E+01 0.  1.
</event>
<event>
 5   0  0.2529875E-07  0.3692309E+04  0.7818609E-02  0.8069668E-01
        1   -1    0    0  501    0  0.00000000000E+00  0.00000000000E+00  0.20160236999E+04  0.20160236999E+04  0.50400001928E-02 0. -1.
       -1   -1    0    0    0  501  0.00000000000E+00  0.00000000000E+00 -0.16905984915E+04  0.16905984915E+04  0.50400001928E-02 0.  1.
    10030    2    1    2    0    0  0.00000000000E+00  0.00000000000E+00  0.32542520831E+03  0.37066221914E+04  0.36923091019E+04 0.  0.
        3    1    3    3  502    0  0.15198751635E+04  0.67274374985E+03 -0.64394567136E+03  0.17824900290E+04  0.10100000352E+00 0.  1.
       -3    1    3    3    0  502 -0.15198751635E+04 -0.67274374985E+03  0.96937087968E+03  0.19241321624E+04  0.10100000352E+00 0. -1.
</event>
<event>
 5   0  0.2529875E-07  0.3834312E+04  0.7818609E-02  0.8038831E-01
       -3   -1    0    0    0  501  0.00000000000E+00  0.00000000000E+00  0.20841433123E+04  0.20841433148E+04  0.10100000352E+00 0. -1.
        3   -1    0    0  501    0  0.00000000000E+00  0.00000000000E+00 -0.17635484674E+04  0.17635484703E+04  0.10100000352E+00 0.  1.
    10030    2    1    2    0    0  0.00000000000E+00  0.00000000000E+00  0.32059484498E+03  0.38476917851E+04  0.38343123266E+04 0.  0.
        5    1    3    3  502    0 -0.60401709001E+03  0.39971953323E+03  0.19415556488E+04  0.20722627192E+04  0.46999998093E+01 0. -1.
       -5    1    3    3    0  502  0.60401709001E+03 -0.39971953323E+03 -0.16209608038E+04  0.17754290658E+04  0.46999998093E+01 0.  1.
</event>
<event>
 5   0  0.2529875E-07  0.3789937E+04  0.7818609E-02  0.8048318E-01
        1   -1    0    0  501    0  0.00000000000E+00  0.00000000000E+00  0.26202572337E+04  0.26202572337E+04  0.50400001928E-02 0. -1.
       -1   -1    0    0    0  501  0.00000000000E+00  0.00000000000E+00 -0.13704398126E+04  0.13704398126E+04  0.50400001928E-02 0.  1.
    10030    2    1    2    0    0  0.00000000000E+00  0.00000000000E+00  0.12498174211E+04  0.39906970463E+04  0.37899365865E+04 0.  0.
        5    1    3    3  502    0 -0.12608760586E+04 -0.19687805694E+03 -0.85012176748E+03  0.15333944418E+04  0.46999998093E+01 0.  1.
       -5    1    3    3    0  502  0.12608760586E+04  0.19687805694E+03  0.20999391886E+04  0.24573026046E+04  0.46999998093E+01 0. -1.
</event>
<event>
 5   0  0.8038352E-07  0.3764471E+04  0.7818609E-02  0.8053823E-01
        2   -1    0    0  501    0  0.00000000000E+00  0.00000000000E+00  0.28728171124E+04  0.28728171124E+04  0.25500000920E-02 0. -1.
       -2   -1    0    0    0  501  0.00000000000E+00  0.00000000000E+00 -0.12332179450E+04  0.12332179450E+04  0.25500000920E-02 0.  1.
    10030    2    1    2    0    0  0.00000000000E+00  0.00000000000E+00  0.16395991674E+04  0.41060350574E+04  0.37644705422E+04 0.  0.
        2    1    3    3  502    0 -0.10235133904E+04  0.63250206185E+03  0.23986045985E+04  0.26834571990E+04  0.25500000920E-02 0. -1.
       -2    1    3    3    0  502  0.10235133904E+04 -0.63250206185E+03 -0.75900543118E+03  0.14225778584E+04  0.25500000920E-02 0.  1.
</event>
<event>
 5   0  0.2529875E-07  0.3799114E+04  0.7818609E-02  0.8046345E-01
        1   -1    0    0  501    0  0.00000000000E+00  0.00000000000E+00  0.19582745368E+04  0.19582745368E+04  0.50400001928E-02 0. -1.
       -1   -1    0    0    0  501  0.00000000000E+00  0.00000000000E+00 -0.18426000945E+04  0.18426000945E+04  0.50400001928E-02 0.  1.
    10030    2    1    2    0    0  0.00000000000E+00  0.00000000000E+00  0.11567444228E+03  0.38008746314E+04  0.37991140266E+04 0.  0.
        1    1    3    3  502    0 -0.15965034164E+04  0.31319766778E+03  0.10388021492E+04  0.19302916471E+04  0.50400001928E-02 0.  1.
       -1    1    3    3    0  502  0.15965034164E+04 -0.31319766778E+03 -0.92312770687E+03  0.18705829843E+04  0.50400001928E-02 0. -1.
</event>
<event>
 5   0  0.8038352E-07  0.3231613E+04  0.7818609E-02  0.8180518E-01
        2   -1    0    0  501    0  0.00000000000E+00  0.00000000000E+00  0.21105939385E+04  0.21105939385E+04  0.25500000920E-02 0.  1.
       -2   -1    0    0    0  501  0.00000000000E+00  0.00000000000E+00 -0.12370126636E+04  0.12370126636E+04  0.25500000920E-02 0. -1.
    10030    2    1    2    0    0  0.00000000000E+00  0.00000000000E+00  0.87358127490E+03  0.33476066022E+04  0.32316134854E+04 0.  0.
        2    1    3    3  502    0 -0.28610686623E+03 -0.13543132925E+04 -0.42668078881E+03  0.14484744142E+04  0.25500000920E-02 0. -1.
       -2    1    3    3    0  502  0.28610686623E+03  0.13543132925E+04  0.13002620637E+04  0.18991321880E+04  0.25500000920E-02 0.  1.
</event>
<event>
 5   0  0.2907071E-07  0.3684654E+04  0.7818609E-02  0.8071371E-01
        1   -1    0    0  501    0  0.00000000000E+00  0.00000000000E+00  0.22399902730E+04  0.22399902730E+04  0.50400001928E-02 0.  1.
       -1   -1    0    0    0  501  0.00000000000E+00  0.00000000000E+00 -0.15152607936E+04  0.15152607936E+04  0.50400001928E-02 0. -1.
    10030    2    1    2    0    0  0.00000000000E+00  0.00000000000E+00  0.72472947946E+03  0.37552510666E+04  0.36846543603E+04 0.  0.
        2    1    3    3  502    0  0.16891512526E+04 -0.27732142122E+03 -0.33188447886E+03  0.17436417155E+04  0.25500000920E-02 0. -1.
       -2    1    3    3    0  502 -0.16891512526E+04  0.27732142122E+03  0.10566139583E+04  0.20116093511E+04  0.25500000920E-02 0.  1.
</event>
<event>
 5   0  0.2907071E-07  0.3725353E+04  0.7818609E-02  0.8062366E-01
       -1   -1    0    0    0  501  0.00000000000E+00  0.00000000000E+00  0.29200253963E+04  0.29200253964E+04  0.50400001928E-02 0.  1.
        1   -1    0    0  501    0  0.00000000000E+00  0.00000000000E+00 -0.11881967389E+04  0.11881967390E+04  0.50400001928E-02 0. -1.
    10030    2    1    2    0    0  0.00000000000E+00  0.00000000000E+00  0.17318286574E+04  0.41082221353E+04  0.37253534885E+04 0.  0.
        2    1    3    3  502    0  0.16642661070E+04  0.78536889435E+03  0.11835795627E+04  0.21880234360E+04  0.25500000920E-02 0.  1.
       -2    1    3    3    0  502 -0.16642661070E+04 -0.78536889435E+03  0.54824909469E+03  0.19201986993E+04  0.25500000920E-02 0. -1.
</event>
<event>
 5   0  0.2529875E-07  0.3814419E+04  0.7818609E-02  0.8043068E-01
       -1   -1    0    0    0  501  0.00000000000E+00  0.00000000000E+00  0.22732868097E+04  0.22732868097E+04  0.50400001928E-02 0. -1.
        1   -1    0    0  501    0  0.00000000000E+00  0.00000000000E+00 -0.16000834117E+04  0.16000834117E+04  0.50400001928E-02 0.  1.
    10030    2    1    2    0    0  0.00000000000E+00  0.00000000000E+00  0.67320339801E+03  0.38733702215E+04  0.38144192294E+04 0.  0.
        4    1    3    3  502    0 -0.16816896499E+04  0.65978128337E+02  0.12476936807E+04  0.20950356383E+04  0.12699999809E+01 0. -1.
       -4    1    3    3    0  502  0.16816896499E+04 -0.65978128337E+02 -0.57449028267E+03  0.17783345832E+04  0.12699999809E+01 0.  1.
</event>
<event>
 5   0  0.2529875E-07  0.3014361E+04  0.7818609E-02  0.8239642E-01
       -1   -1    0    0    0  501  0.00000000000E+00  0.00000000000E+00  0.15799579468E+04  0.15799579468E+04  0.50400001928E-02 0. -1.
        1   -1    0    0  501    0  0.00000000000E+00  0.00000000000E+00 -0.14377555971E+04  0.14377555971E+04  0.50400001928E-02 0.  1.
    10030    2    1    2    0    0  0.00000000000E+00  0.00000000000E+00  0.14220234969E+03  0.30177135439E+04  0.30143612134E+04 0.  0.
        4    1    3    3  502    0  0.93279580544E+03  0.43303387421E+03  0.11741274976E+04  0.15608341822E+04  0.12699999809E+01 0. -1.
       -4    1    3    3    0  502 -0.93279580544E+03 -0.43303387421E+03 -0.10319251479E+04  0.14568793617E+04  0.12699999809E+01 0.  1.
</event>
<event>
 5   0  0.2529875E-07  0.3735667E+04  0.7818609E-02  0.8060103E-01
       -1   -1    0    0    0  501  0.00000000000E+00  0.00000000000E+00  0.21042290671E+04  0.21042290671E+04  0.50400001928E-02 0. -1.
        1   -1    0    0  501    0  0.00000000000E+00  0.00000000000E+00 -0.16579956912E+04  0.16579956912E+04  0.50400001928E-02 0.  1.
    10030    2    1    2    0    0  0.00000000000E+00  0.00000000000E+00  0.44623337593E+03  0.37622247583E+04  0.37356673977E+04 0.  0.
        5    1    3    3  502    0 -0.18178979409E+04  0.35242169148E+03  0.46945044457E+03  0.19103297574E+04  0.46999998093E+01 0.  1.
       -5    1    3    3    0  502  0.18178979409E+04 -0.35242169148E+03 -0.23217068643E+02  0.18518950009E+04  0.46999998093E+01 0. -1.
</event>
<event>
 5   0  0.2529875E-07  0.2617063E+04  0.7818609E-02  0.8362428E-01
        1   -1    0    0  501    0  0.00000000000E+00  0.00000000000E+00  0.15932668972E+04  0.15932668972E+04  0.50400001928E-02 0. -1.
       -1   -1    0    0    0  501  0.00000000000E+00  0.00000000000E+00 -0.10746820220E+04  0.10746820221E+04  0.50400001928E-02 0.  1.
    10030    2    1    2    0    0  0.00000000000E+00  0.00000000000E+00  0.51858487516E+03  0.26679489193E+04  0.26170634618E+04 0.  0.
        3    1    3    3  502    0 -0.37291621255E+03  0.88200374304E+03 -0.64981943118E+03  0.11572650551E+04  0.10100000352E+00 0.  1.
       -3    1    3    3    0  502  0.37291621255E+03 -0.88200374304E+03  0.11684043063E+04  0.15106838642E+04  0.10100000352E+00 0. -1.
</event>
<event>
 5   0  0.7638805E-07  0.3689894E+04  0.7818609E-02  0.8070205E-01
       -2   -1    0    0    0  501  0.00000000000E+00  0.00000000000E+00  0.14779333487E+04  0.14779333487E+04  0.25500000920E-02 0. -1.
        2   -1    0    0  501    0  0.00000000000E+00  0.00000000000E+00 -0.23031009368E+04  0.23031009368E+04  0.25500000920E-02 0.  1.
    10030    2    1    2    0    0  0.00000000000E+00  0.00000000000E+00 -0.82516758815E+03  0.37810342855E+04  0.36898941339E+04 0.  0.
        5    1    3    3  502    0 -0.14350029870E+04  0.86060826933E+03  0.38373888573E+03  0.17167288045E+04  0.46999998093E+01 0. -1.
       -5    1    3    3    0  502  0.14350029870E+04 -0.86060826933E+03 -0.12089064739E+04  0.20643054809E+04  0.46999998093E+01 0.  1.
</event>
<event>
 5   0  0.2529875E-07  0.2853570E+04  0.7818609E-02  0.8286827E-01
        1   -1    0    0  501    0  0.00000000000E+00  0.00000000000E+00  0.10566103268E+04  0.10566103268E+04  0.50400001928E-02 0.  1.
       -1   -1    0    0    0  501  0.00000000000E+00  0.00000000000E+00 -0.19266476992E+04  0.19266476993E+04  0.50400001928E-02 0. -1.
    10030    2    1    2    0    0  0.00000000000E+00  0.00000000000E+00 -0.87003737243E+03  0.29832580261E+04  0.28535702936E+04 0.  0.
        5    1    3    3  502    0  0.28734390576E+03  0.92229118865E+02 -0.18928918178E+04  0.19168031340E+04  0.46999998093E+01 0. -1.
       -5    1    3    3    0  502 -0.28734390576E+03 -0.92229118865E+02  0.10228544454E+04  0.10664548921E+04  0.46999998093E+01 0.  1.
</event>
<event>
 5   0  0.7551495E-07  0.3620170E+04  0.7818609E-02  0.8085887E-01
       -2   -1    0    0    0  501  0.00000000000E+00  0.00000000000E+00  0.22845561595E+04  0.22845561595E+04  0.25500000920E-02 0. -1.
        2   -1    0    0  501    0  0.00000000000E+00  0.00000000000E+00 -0.14341549892E+04  0.14341549892E+04  0.25500000920E-02 0.  1.
    10030    2    1    2    0    0  0.00000000000E+00  0.00000000000E+00  0.85040117030E+03  0.37187111488E+04  0.36201699487E+04 0.  0.
        1    1    3    3  502    0  0.40935883138E+03  0.10141258178E+04  0.19068143645E+04  0.21981735254E+04  0.50400001928E-02 0. -1.
       -1    1    3    3    0  502 -0.40935883138E+03 -0.10141258178E+04 -0.10564131942E+04  0.15205376233E+04  0.50400001928E-02 0.  1.
</event>
<event>
 5   0  0.2529875E-07  0.3717487E+04  0.7818609E-02  0.8064098E-01
       -1   -1    0    0    0  501  0.00000000000E+00  0.00000000000E+00  0.13959160457E+04  0.13959160457E+04  0.50400001928E-02 0.  1.
        1   -1    0    0  501    0  0.00000000000E+00  0.00000000000E+00 -0.24750245802E+04  0.24750245802E+04  0.50400001928E-02 0. -1.
    10030    2    1    2    0    0  0.00000000000E+00  0.00000000000E+00 -0.10791085345E+04  0.38709406259E+04  0.37174865299E+04 0.  0.
        3    1    3    3  502    0 -0.14737937809E+04  0.67671172993E+03  0.40618828168E+03  0.16718240950E+04  0.10100000352E+00 0.  1.
       -3    1    3    3    0  502  0.14737937809E+04 -0.67671172993E+03 -0.14852968162E+04  0.21991165309E+04  0.10100000352E+00 0. -1.
</event>
<event>
 5   0  0.2529875E-07  0.3636677E+04  0.7818609E-02  0.8082142E-01
        1   -1    0    0  501    0  0.00000000000E+00  0.00000000000E+00  0.25304097523E+04  0.25304097523E+04  0.50400001928E-02 0. -1.
       -1   -1    0    0    0  501  0.00000000000E+00  0.00000000000E+00 -0.13066477510E+04  0.13066477510E+04  0.50400001928E-02 0.  1.
    10030    2    1    2    0    0  0.00000000000E+00  0.00000000000E+00  0.12237620013E+04  0.38370575034E+04  0.36366766214E+04 0.  0.
        4    1    3    3  502    0 -0.13633745828E+04  0.10984046266E+03 -0.65225800242E+03  0.15153538514E+04  0.12699999809E+01 0.  1.
       -4    1    3    3    0  502  0.13633745828E+04 -0.10984046266E+03  0.18760200037E+04  0.23217036520E+04  0.12699999809E+01 0. -1.
</event>
<event>
 5   0  0.7551495E-07  0.3754055E+04  0.7818609E-02  0.8056087E-01
        2   -1    0    0  501    0  0.00000000000E+00  0.00000000000E+00  0.26778025657E+04  0.26778025657E+04  0.25500000920E-02 0. -1.
       -2   -1    0    0    0  501  0.00000000000E+00  0.00000000000E+00 -0.13157174397E+04  0.13157174397E+04  0.25500000920E-02 0.  1.
    10030    2    1    2    0    0  0.00000000000E+00  0.00000000000E+00  0.13620851260E+04  0.39935200053E+04  0.37540546270E+04 0.  0.
        1    1    3    3  502    0  0.13930932763E+04  0.12575490117E+04  0.64587084147E+03  0.19847638492E+04  0.50400001928E-02 0. -1.
       -1    1    3    3    0  502 -0.13930932763E+04 -0.12575490117E+04  0.71621428452E+03  0.20087561561E+04  0.50400001928E-02 0.  1.
</event>
<event>
 5   0  0.8421677E-07  0.3782010E+04  0.7818609E-02  0.8050027E-01
        2   -1    0    0  501    0  0.00000000000E+00  0.00000000000E+00  0.17200978916E+04  0.17200978916E+04  0.25500000920E-02 0. -1.
       -2   -1    0    0    0  501  0.00000000000E+00  0.00000000000E+00 -0.20788929167E+04  0.20788929167E+04  0.25500000920E-02 0.  1.
    10030    2    1    2    0    0  0.00000000000E+00  0.00000000000E+00 -0.35879502510E+03  0.37989908083E+04  0.37820096896E+04 0.  0.
        3    1    3    3  502    0 -0.18012750729E+04  0.56825418874E+03 -0.87364073712E+02  0.18908033221E+04  0.10100000352E+00 0. -1.
       -3    1    3    3    0  502  0.18012750729E+04 -0.56825418874E+03 -0.27143095139E+03  0.19081874863E+04  0.10100000352E+00 0.  1.
</event>
<event>
 5   0  0.7551495E-07  0.3732733E+04  0.7818609E-02  0.8060746E-01
       -2   -1    0    0    0  501  0.00000000000E+00  0.00000000000E+00  0.14319739644E+04  0.14319739644E+04  0.25500000920E-02 0. -1.
        2   -1    0    0  501    0  0.00000000000E+00  0.00000000000E+00 -0.24325330497E+04  0.24325330497E+04  0.25500000920E-02 0.  1.
    10030    2    1    2    0    0  0.00000000000E+00  0.00000000000E+00 -0.10005590853E+04  0.38645070141E+04  0.37327330441E+04 0.  0.
        1    1    3    3  502    0  0.14191740271E+04 -0.12110356315E+04 -0.44686582499E+03  0.19184241673E+04  0.50400001928E-02 0. -1.
       -1    1    3    3    0  502 -0.14191740271E+04  0.12110356315E+04 -0.55369326036E+03  0.19460828468E+04  0.50400001928E-02 0.  1.
</event>
<event>
 5   0  0.8421677E-07  0.3861124E+04  0.7818609E-02  0.8033163E-01
        2   -1    0    0  501    0  0.00000000000E+00  0.00000000000E+00  0.17868593580E+04  0.17868593580E+04  0.25500000920E-02 0.  1.
       -2   -1    0    0    0  501  0.00000000000E+00  0.00000000000E+00 -0.20858219752E+04  0.20858219752E+04  0.25500000920E-02 0. -1.
    10030    2    1    2    0    0  0.00000000000E+00  0.00000000000E+00 -0.29896261720E+03  0.38726813332E+04  0.38611244556E+04 0.  0.
        3    1    3    3  502    0 -0.88911434457E+03  0.11380039402E+04 -0.14345238590E+04  0.20355431702E+04  0.10100000352E+00 0. -1.
       -3    1    3    3    0  502  0.88911434457E+03 -0.11380039402E+04  0.11355612418E+04  0.18371381629E+04  0.10100000352E+00 0.  1.
</event>
<event>
 5   0  0.8038352E-07  0.3638623E+04  0.7818609E-02  0.8081701E-01
        2   -1    0    0  501    0  0.00000000000E+00  0.00000000000E+00  0.15715093327E+04  0.15715093327E+04  0.25500000920E-02 0. -1.
       -2   -1    0    0    0  501  0.00000000000E+00  0.00000000000E+00 -0.21061883746E+04  0.21061883746E+04  0.25500000920E-02 0.  1.
    10030    2    1    2    0    0  0.00000000000E+00  0.00000000000E+00 -0.53467904183E+03  0.36776977073E+04  0.36386231941E+04 0.  0.
        2    1    3    3  502    0 -0.45275275250E+03  0.12125134572E+04 -0.15596317503E+04  0.20267276914E+04  0.25500000920E-02 0.  1.
       -2    1    3    3    0  502  0.45275275250E+03 -0.12125134572E+04  0.10249527085E+04  0.16509700159E+04  0.25500000920E-02 0. -1.
</event>
<event>
 5   0  0.7551495E-07  0.3786489E+04  0.7818609E-02  0.8049060E-01
       -2   -1    0    0    0  501  0.00000000000E+00  0.00000000000E+00  0.13925147216E+04  0.13925147216E+04  0.25500000920E-02 0.  1.
        2   -1    0    0  501    0  0.00000000000E+00  0.00000000000E+00 -0.25740306093E+04  0.25740306093E+04  0.25500000920E-02 0. -1.
    10030    2    1    2    0    0  0.00000000000E+00  0.00000000000E+00 -0.11815158877E+04  0.39665453309E+04  0.37864894123E+04 0.  0.
        1    1    3    3  502    0  0.82238153182E+03  0.10040635166E+04 -0.20346788337E+04  0.24133737559E+04  0.50400001928E-02 0. -1.
       -1    1    3    3    0  502 -0.82238153182E+03 -0.10040635166E+04  0.85316294601E+03  0.15531715751E+04  0.50400001928E-02 0.  1.
</event>
<event>
 5   0  0.2529875E-07  0.3816593E+04  0.7818609E-02  0.8042604E-01
       -1   -1    0    0    0  501  0.00000000000E+00  0.00000000000E+00  0.13364194145E+04  0.13364194145E+04  0.50400001928E-02 0.  1.
        1   -1    0    0  501    0  0.00000000000E+00  0.00000000000E+00 -0.27248891009E+04  0.27248891009E+04  0.50400001928E-02 0. -1.
    10030    2    1    2    0    0  0.00000000000E+00  0.00000000000E+00 -0.13884696864E+04  0.40613085154E+04  0.38165925624E+04 0.  0.
        5    1    3    3  502    0  0.85444541340E+03 -0.83310779282E+03  0.89034764634E+03  0.14889212808E+04  0.46999998093E+01 0.  1.
       -5    1    3    3    0  502 -0.85444541340E+03  0.83310779282E+03 -0.22788173328E+04  0.25723872347E+04  0.46999998093E+01 0. -1.
</event>
<event>
 5   0  0.2529875E-07  0.3774295E+04  0.7818609E-02  0.8051694E-01
       -1   -1    0    0    0  501  0.00000000000E+00  0.00000000000E+00  0.22888582995E+04  0.22888582995E+04  0.50400001928E-02 0. -1.
        1   -1    0    0  501    0  0.00000000000E+00  0.00000000000E+00 -0.15559397732E+04  0.15559397733E+04  0.50400001928E-02 0.  1.
    10030    2    1    2    0    0  0.00000000000E+00  0.00000000000E+00  0.73291852622E+03  0.38447980727E+04  0.37742949877E+04 0.  0.
        5    1    3    3  502    0 -0.94894216506E+03  0.28825189520E+03 -0.12690606432E+04  0.16106263979E+04  0.46999998093E+01 0.  1.
       -5    1    3    3    0  502  0.94894216506E+03 -0.28825189520E+03  0.20019791694E+04  0.22341716748E+04  0.46999998093E+01 0. -1.
</event>
<event>
 5   0  0.8038352E-07  0.3735289E+04  0.7818609E-02  0.8060186E-01
        2   -1    0    0  501    0  0.00000000000E+00  0.00000000000E+00  0.18417154729E+04  0.18417154729E+04  0.25500000920E-02 0. -1.
       -2   -1    0    0    0  501  0.00000000000E+00  0.00000000000E+00 -0.18939381320E+04  0.18939381320E+04  0.25500000920E-02 0.  1.
    10030    2    1    2    0    0  0.00000000000E+00  0.00000000000E+00 -0.52222659096E+02  0.37356536049E+04  0.37352885631E+04 0.  0.
        2    1    3    3  502    0 -0.15248232420E+03  0.69699093121E+03 -0.17522718799E+04  0.18919577052E+04  0.25500000920E-02 0.  1.
       -2    1    3    3    0  502  0.15248232420E+03 -0.69699093121E+03  0.17000492208E+04  0.18436958997E+04  0.25500000920E-02 0. -1.
</event>
<event>
 5   0  0.2529875E-07  0.3760940E+04  0.7818609E-02  0.8054589E-01
       -1   -1    0    0    0  501  0.00000000000E+00  0.00000000000E+00  0.18248086450E+04  0.18248086450E+04  0.50400001928E-02 0.  1.
        1   -1    0    0  501    0  0.00000000000E+00  0.00000000000E+00 -0.19378288662E+04  0.19378288662E+04  0.50400001928E-02 0. -1.
    10030    2    1    2    0    0  0.00000000000E+00  0.00000000000E+00 -0.11302022123E+03  0.37626375112E+04  0.37609397058E+04 0.  0.
        3    1    3    3  502    0  0.40928332493E+03 -0.18335338237E+04 -0.13905635658E+03  0.18837982384E+04  0.10100000352E+00 0.  1.
       -3    1    3    3    0  502 -0.40928332493E+03  0.18335338237E+04  0.26036135345E+02  0.18788392728E+04  0.10100000352E+00 0. -1.
</event>
<event>
 5   0  0.2529875E-07  0.3771606E+04  0.7818609E-02  0.8052276E-01
        1   -1    0    0  501    0  0.00000000000E+00  0.00000000000E+00  0.29206277713E+04  0.29206277713E+04  0.50400001928E-02 0.  1.
       -1   -1    0    0    0  501  0.00000000000E+00  0.00000000000E+00 -0.12176331426E+04  0.12176331426E+04  0.50400001928E-02 0. -1.
    10030    2    1    2    0    0  0.00000000000E+00  0.00000000000E+00  0.17029946287E+04  0.41382609139E+04  0.37716061149E+04 0.  0.
        5    1    3    3  502    0  0.10291547849E+04  0.50601039197E+03 -0.79103865183E+03  0.13931871112E+04  0.46999998093E+01 0. -1.
       -5    1    3    3    0  502 -0.10291547849E+04 -0.50601039197E+03  0.24940332805E+04  0.27450738027E+04  0.46999998093E+01 0.  1.
</event>
<event>
 5   0  0.7638805E-07  0.3791695E+04  0.7818609E-02  0.8047940E-01
       -2   -1    0    0    0  501  0.00000000000E+00  0.00000000000E+00  0.12021526968E+04  0.12021526968E+04  0.25500000920E-02 0.  1.
        2   -1    0    0  501    0  0.00000000000E+00  0.00000000000E+00 -0.29898340823E+04  0.29898340823E+04  0.25500000920E-02 0. -1.
    10030    2    1    2    0    0  0.00000000000E+00  0.00000000000E+00 -0.17876813855E+04  0.41919867791E+04  0.37916946634E+04 0.  0.
        5    1    3    3  502    0 -0.10422363007E+04  0.31763876236E+03 -0.26091023402E+04  0.28274702476E+04  0.46999998093E+01 0. -1.
       -5    1    3    3    0  502  0.10422363007E+04 -0.31763876236E+03  0.82142095467E+03  0.13645165315E+04  0.46999998093E+01 0.  1.
</event>
<event>
 5   0  0.8421677E-07  0.3181483E+04  0.7818609E-02  0.8193725E-01
       -2   -1    0    0    0  501  0.00000000000E+00  0.00000000000E+00  0.15594294675E+04  0.15594294675E+04  0.25500000920E-02 0. -1.
        2   -1    0    0  501    0  0.00000000000E+00  0.00000000000E+00 -0.16226818017E+04  0.16226818017E+04  0.25500000920E-02 0.  1.
    10030    2    1    2    0    0  0.00000000000E+00  0.00000000000E+00 -0.63252334216E+02  0.31821112692E+04  0.31814825588E+04 0.  0.
        3    1    3    3  502    0  0.76709215553E+03  0.13552615424E+04 -0.35618002068E+03  0.15975069454E+04  0.10100000352E+00 0.  1.
       -3    1    3    3    0  502 -0.76709215553E+03 -0.13552615424E+04  0.29292768646E+03  0.15846043238E+04  0.10100000352E+00 0. -1.
</event>
<event>
 5   0  0.2529875E-07  0.3554389E+04  0.7818609E-02  0.8101020E-01
       -3   -1    0    0    0  501  0.00000000000E+00  0.00000000000E+00  0.16287204406E+04  0.16287204438E+04  0.10100000352E+00 0. -1.
        3   -1    0    0  501    0  0.00000000000E+00  0.00000000000E+00 -0.19392038299E+04  0.19392038325E+04  0.10100000352E+00 0.  1.
    10030    2    1    2    0    0  0.00000000000E+00  0.00000000000E+00 -0.31048338929E+03  0.35679242763E+04  0.35543893577E+04 0.  0.
        2    1    3    3  502    0  0.44789781752E+03  0.17185234237E+04 -0.22247220559E+03  0.17898125866E+04  0.25500000920E-02 0. -1.
       -2    1    3    3    0  502 -0.44789781752E+03 -0.17185234237E+04 -0.88011183698E+02  0.17781116897E+04  0.25500000920E-02 0.  1.
</event>
<event>
 5   0  0.8038352E-07  0.3746556E+04  0.7818609E-02  0.8057722E-01
       -2   -1    0    0    0  501  0.00000000000E+00  0.00000000000E+00  0.18326749386E+04  0.18326749386E+04  0.25500000920E-02 0. -1.
        2   -1    0    0  501    0  0.00000000000E+00  0.00000000000E+00 -0.19147804265E+04  0.19147804265E+04  0.25500000920E-02 0.  1.
    10030    2    1    2    0    0  0.00000000000E+00  0.00000000000E+00 -0.82105487836E+02  0.37474553651E+04  0.37465558053E+04 0.  0.
        2    1    3    3  502    0  0.11117794677E+04 -0.67299353103E+03 -0.13905231576E+04  0.19032941259E+04  0.25500000920E-02 0.  1.
       -2    1    3    3    0  502 -0.11117794677E+04  0.67299353103E+03  0.13084176698E+04  0.18441612392E+04  0.25500000920E-02 0. -1.
</event>
<event>
 5   0  0.2529875E-07  0.3813344E+04  0.7818609E-02  0.8043297E-01
       -1   -1    0    0    0  501  0.00000000000E+00  0.00000000000E+00  0.23528609068E+04  0.23528609068E+04  0.50400001928E-02 0.  1.
        1   -1    0    0  501    0  0.00000000000E+00  0.00000000000E+00 -0.15450966574E+04  0.15450966574E+04  0.50400001928E-02 0. -1.
    10030    2    1    2    0    0  0.00000000000E+00  0.00000000000E+00  0.80776424943E+03  0.38979575643E+04  0.38133436889E+04 0.  0.
        1    1    3    3  502    0  0.18342909528E+04 -0.46948610713E+03  0.63326508855E+03  0.19965132549E+04  0.50400001928E-02 0.  1.
       -1    1    3    3    0  502 -0.18342909528E+04  0.46948610713E+03  0.17449916089E+03  0.19014443094E+04  0.50400001928E-02 0. -1.
</event>
<event>
 5   0  0.7551495E-07  0.3866220E+04  0.7818609E-02  0.8032092E-01
        2   -1    0    0  501    0  0.00000000000E+00  0.00000000000E+00  0.19182527931E+04  0.19182527931E+04  0.25500000920E-02 0.  1.
       -2   -1    0    0    0  501  0.00000000000E+00  0.00000000000E+00 -0.19480822038E+04  0.19480822038E+04  0.25500000920E-02 0. -1.
    10030    2    1    2    0    0  0.00000000000E+00  0.00000000000E+00 -0.29829410768E+02  0.38663349969E+04  0.38662199258E+04 0.  0.
        1    1    3    3  502    0 -0.42810983970E+03  0.75234542723E+03  0.17136078708E+04  0.19198316623E+04  0.50400001928E-02 0.  1.
       -1    1    3    3    0  502  0.42810983970E+03 -0.75234542723E+03 -0.17434372816E+04  0.19465033346E+04  0.50400001928E-02 0. -1.
</event>
<event>
 5   0  0.2907071E-07  0.3799430E+04  0.7818609E-02  0.8046277E-01
        1   -1    0    0  501    0  0.00000000000E+00  0.00000000000E+00  0.30703203037E+04  0.30703203037E+04  0.50400001928E-02 0.  1.
       -1   -1    0    0    0  501  0.00000000000E+00  0.00000000000E+00 -0.11754202048E+04  0.11754202048E+04  0.50400001928E-02 0. -1.
    10030    2    1    2    0    0  0.00000000000E+00  0.00000000000E+00  0.18949000989E+04  0.42457405085E+04  0.37994297047E+04 0.  0.
        2    1    3    3  502    0  0.96090446897E+03  0.38331430033E+03  0.27279271229E+04  0.29175081215E+04  0.25500000920E-02 0.  1.
       -2    1    3    3    0  502 -0.96090446897E+03 -0.38331430033E+03 -0.83302702392E+03  0.13282323870E+04  0.25500000920E-02 0. -1.
</event>
<event>
 5   0  0.2529875E-07  0.3079028E+04  0.7818609E-02  0.8221517E-01
        1   -1    0    0  501    0  0.00000000000E+00  0.00000000000E+00  0.20897472500E+04  0.20897472500E+04  0.50400001928E-02 0. -1.
       -1   -1    0    0    0  501  0.00000000000E+00  0.00000000000E+00 -0.11341578789E+04  0.11341578789E+04  0.50400001928E-02 0.  1.
    10030    2    1    2    0    0  0.00000000000E+00  0.00000000000E+00  0.95558937104E+03  0.32239051289E+04  0.30790279691E+04 0.  0.
        3    1    3    3  502    0  0.14310079178E+04 -0.28144294413E+03  0.99405600875E+03  0.17649762464E+04  0.10100000352E+00 0. -1.
       -3    1    3    3    0  502 -0.14310079178E+04  0.28144294413E+03 -0.38466637718E+02  0.14589288825E+04  0.10100000352E+00 0.  1.
</event>
<event>
 5   0  0.2529875E-07  0.2653284E+04  0.7818609E-02  0.8350324E-01
        1   -1    0    0  501    0  0.00000000000E+00  0.00000000000E+00  0.14081968682E+04  0.14081968682E+04  0.50400001928E-02 0.  1.
       -1   -1    0    0    0  501  0.00000000000E+00  0.00000000000E+00 -0.12498099741E+04  0.12498099741E+04  0.50400001928E-02 0. -1.
    10030    2    1    2    0    0  0.00000000000E+00  0.00000000000E+00  0.15838689412E+03  0.26580068423E+04  0.26532836195E+04 0.  0.
        5    1    3    3  502    0  0.83252170723E+03 -0.64482857993E+03 -0.72912587937E+03  0.12808368079E+04  0.46999998093E+01 0. -1.
       -5    1    3    3    0  502 -0.83252170723E+03  0.64482857993E+03  0.88751277350E+03  0.13771700344E+04  0.46999998093E+01 0.  1.
</event>
<event>
 5   0  0.2907071E-07  0.3779112E+04  0.7818609E-02  0.8050652E-01
        1   -1    0    0  501    0  0.00000000000E+00  0.00000000000E+00  0.13690608711E+04  0.13690608711E+04  0.50400001928E-02 0. -1.
       -1   -1    0    0    0  501  0.00000000000E+00  0.00000000000E+00 -0.26079344692E+04  0.26079344692E+04  0.50400001928E-02 0.  1.
    10030    2    1    2    0    0  0.00000000000E+00  0.00000000000E+00 -0.12388735981E+04  0.39769953404E+04  0.37791115550E+04 0.  0.
        2    1    3    3  502    0 -0.62307489262E+03 -0.13233931878E+04  0.63937053682E+03  0.15963666667E+04  0.25500000920E-02 0.  1.
       -2    1    3    3    0  502  0.62307489262E+03  0.13233931878E+04 -0.18782441349E+04  0.23806286736E+04  0.25500000920E-02 0. -1.
</event>
<event>
 5   0  0.7649458E-07  0.3694662E+04  0.7818609E-02  0.8069146E-01
       -2   -1    0    0    0  501  0.00000000000E+00  0.00000000000E+00  0.14091094379E+04  0.14091094379E+04  0.25500000920E-02 0.  1.
        2   -1    0    0  501    0  0.00000000000E+00  0.00000000000E+00 -0.24218363594E+04  0.24218363594E+04  0.25500000920E-02 0. -1.
    10030    2    1    2    0    0  0.00000000000E+00  0.00000000000E+00 -0.10127269215E+04  0.38309457973E+04  0.36946623505E+04 0.  0.
        4    1    3    3  502    0  0.12532259836E+04 -0.78614016013E+03 -0.16535364295E+04  0.22187329839E+04  0.12699999809E+01 0. -1.
       -4    1    3    3    0  502 -0.12532259836E+04  0.78614016013E+03  0.64080950796E+03  0.16122128134E+04  0.12699999809E+01 0.  1.
</event>
<event>
 5   0  0.2529875E-07  0.3715243E+04  0.7818609E-02  0.8064592E-01
        1   -1    0    0  501    0  0.00000000000E+00  0.00000000000E+00  0.20848937492E+04  0.20848937492E+04  0.50400001928E-02 0. -1.
       -1   -1    0    0    0  501  0.00000000000E+00  0.00000000000E+00 -0.16551243986E+04  0.16551243986E+04  0.50400001928E-02 0.  1.
    10030    2    1    2    0    0  0.00000000000E+00  0.00000000000E+00  0.42976935057E+03  0.37400181478E+04  0.37152434713E+04 0.  0.
        4    1    3    3  502    0 -0.41380680025E+03 -0.14649295529E+04  0.12866448636E+04  0.19931661448E+04  0.12699999809E+01 0. -1.
       -4    1    3    3    0  502  0.41380680025E+03  0.14649295529E+04 -0.85687551300E+03  0.17468520030E+04  0.12699999809E+01 0.  1.
</event>
<event>
 5   0  0.2529875E-07  0.3864535E+04  0.7818609E-02  0.8032446E-01
        1   -1    0    0  501    0  0.00000000000E+00  0.00000000000E+00  0.18327636782E+04  0.18327636782E+04  0.50400001928E-02 0. -1.
       -1   -1    0    0    0  501  0.00000000000E+00  0.00000000000E+00 -0.20371733998E+04  0.20371733999E+04  0.50400001928E-02 0.  1.
    10030    2    1    2    0    0  0.00000000000E+00  0.00000000000E+00 -0.20440972164E+03  0.38699370781E+04  0.38645348561E+04 0.  0.
        5    1    3    3  502    0  0.81047739270E+02 -0.16765933423E+04  0.85626494725E+03  0.18843422516E+04  0.46999998093E+01 0. -1.
       -5    1    3    3    0  502 -0.81047739270E+02  0.16765933423E+04 -0.10606746689E+04  0.19855948264E+04  0.46999998093E+01 0.  1.
</event>
<event>
 5   0  0.2529875E-07  0.3093251E+04  0.7818609E-02  0.8217592E-01
        4   -1    0    0  501    0  0.00000000000E+00  0.00000000000E+00  0.16628077491E+04  0.16628082341E+04  0.12699999809E+01 0.  1.
       -4   -1    0    0    0  501  0.00000000000E+00  0.00000000000E+00 -0.14385603828E+04  0.14385609434E+04  0.12699999809E+01 0. -1.
    10030    2    1    2    0    0  0.00000000000E+00  0.00000000000E+00  0.22424736626E+03  0.31013691775E+04  0.30932513467E+04 0.  0.
        4    1    3    3  502    0 -0.15997791425E+03  0.53454709015E+03 -0.13341305462E+04  0.14461118393E+04  0.12699999809E+01 0. -1.
       -4    1    3    3    0  502  0.15997791425E+03 -0.53454709015E+03  0.15583779124E+04  0.16552573382E+04  0.12699999809E+01 0.  1.
</event>
<event>
 5   0  0.7551495E-07  0.2600937E+04  0.7818609E-02  0.8367883E-01
        2   -1    0    0  501    0  0.00000000000E+00  0.00000000000E+00  0.96890923564E+03  0.96890923565E+03  0.25500000920E-02 0. -1.
       -2   -1    0    0    0  501  0.00000000000E+00  0.00000000000E+00 -0.17454865974E+04  0.17454865974E+04  0.25500000920E-02 0.  1.
    10030    2    1    2    0    0  0.00000000000E+00  0.00000000000E+00 -0.77657736178E+03  0.27143958331E+04  0.26009368196E+04 0.  0.
        1    1    3    3  502    0  0.52060041262E+03 -0.11697749755E+04 -0.15071887035E+03  0.12892301815E+04  0.50400001928E-02 0. -1.
       -1    1    3    3    0  502 -0.52060041262E+03  0.11697749755E+04 -0.62585849144E+03  0.14251656516E+04  0.50400001928E-02 0.  1.
</event>
<event>
 5   0  0.8421677E-07  0.3853917E+04  0.7818609E-02  0.8034682E-01
        2   -1    0    0  501    0  0.00000000000E+00  0.00000000000E+00  0.24564181132E+04  0.24564181132E+04  0.25500000920E-02 0. -1.
       -2   -1    0    0    0  501  0.00000000000E+00  0.00000000000E+00 -0.15116193538E+04  0.15116193538E+04  0.25500000920E-02 0.  1.
    10030    2    1    2    0    0  0.00000000000E+00  0.00000000000E+00  0.94479875936E+03  0.39680374670E+04  0.38539170521E+04 0.  0.
        3    1    3    3  502    0 -0.11743763636E+04  0.56049875362E+03 -0.99089939629E+03  0.16356039618E+04  0.10100000352E+00 0.  1.
       -3    1    3    3    0  502  0.11743763636E+04 -0.56049875362E+03  0.19356981557E+04  0.23324335052E+04  0.10100000352E+00 0. -1.
</event>
<event>
 5   0  0.8421677E-07  0.3597858E+04  0.7818609E-02  0.8090983E-01
       -2   -1    0    0    0  501  0.00000000000E+00  0.00000000000E+00  0.11367511281E+04  0.11367511281E+04  0.25500000920E-02 0.  1.
        2   -1    0    0  501    0  0.00000000000E+00  0.00000000000E+00 -0.28468372108E+04  0.28468372108E+04  0.25500000920E-02 0. -1.
    10030    2    1    2    0    0  0.00000000000E+00  0.00000000000E+00 -0.17100860827E+04  0.39835883389E+04  0.35978579243E+04 0.  0.
        3    1    3    3  502    0 -0.15612481720E+04 -0.33586622292E+03  0.61901212181E+02  0.15981657437E+04  0.10100000352E+00 0.  1.
       -3    1    3    3    0  502  0.15612481720E+04  0.33586622292E+03 -0.17719872949E+04  0.23854225952E+04  0.10100000352E+00 0. -1.
</event>
<event>
 5   0  0.2529875E-07  0.3859815E+04  0.7818609E-02  0.8033439E-01
        1   -1    0    0  501    0  0.00000000000E+00  0.00000000000E+00  0.28632269571E+04  0.28632269571E+04  0.50400001928E-02 0.  1.
       -1   -1    0    0    0  501  0.00000000000E+00  0.00000000000E+00 -0.13008199739E+04  0.13008199740E+04  0.50400001928E-02 0. -1.
    10030    2    1    2    0    0  0.00000000000E+00  0.00000000000E+00  0.15624069831E+04  0.41640469310E+04  0.38598149260E+04 0.  0.
        4    1    3    3  502    0 -0.17421157292E+04  0.52464404357E+03  0.86789512815E+02  0.18214699061E+04  0.12699999809E+01 0. -1.
       -4    1    3    3    0  502  0.17421157292E+04 -0.52464404357E+03  0.14756174703E+04  0.23425770249E+04  0.12699999809E+01 0.  1.
</event>
<event>
 5   0  0.7551495E-07  0.3819652E+04  0.7818609E-02  0.8041951E-01
        2   -1    0    0  501    0  0.00000000000E+00  0.00000000000E+00  0.28846878548E+04  0.28846878548E+04  0.25500000920E-02 0. -1.
       -2   -1    0    0    0  501  0.00000000000E+00  0.00000000000E+00 -0.12644126478E+04  0.12644126478E+04  0.25500000920E-02 0.  1.
    10030    2    1    2    0    0  0.00000000000E+00  0.00000000000E+00  0.16202752071E+04  0.41491005026E+04  0.38196522399E+04 0.  0.
        1    1    3    3  502    0 -0.18234616889E+04 -0.51786867179E+02  0.19590966717E+03  0.18346866239E+04  0.50400001928E-02 0.  1.
       -1    1    3    3    0  502  0.18234616889E+04  0.51786867179E+02  0.14243655399E+04  0.23144138786E+04  0.50400001928E-02 0. -1.
</event>
<event>
 5   0  0.2907071E-07  0.3796981E+04  0.7818609E-02  0.8046803E-01
        1   -1    0    0  501    0  0.00000000000E+00  0.00000000000E+00  0.19575433772E+04  0.19575433772E+04  0.50400001928E-02 0.  1.
       -1   -1    0    0    0  501  0.00000000000E+00  0.00000000000E+00 -0.18412193728E+04  0.18412193728E+04  0.50400001928E-02 0. -1.
    10030    2    1    2    0    0  0.00000000000E+00  0.00000000000E+00  0.11632400434E+03  0.37987627500E+04  0.37969813216E+04 0.  0.
        2    1    3    3  502    0  0.67959838404E+03 -0.28846098154E+03 -0.16917163740E+04  0.18457973864E+04  0.25500000920E-02 0. -1.
       -2    1    3    3    0  502 -0.67959838404E+03  0.28846098154E+03  0.18080403784E+04  0.19529653636E+04  0.25500000920E-02 0.  1.
</event>
<event>
 5   0  0.2529875E-07  0.2913055E+04  0.7818609E-02  0.8269004E-01
       -1   -1    0    0    0  501  0.00000000000E+00  0.00000000000E+00  0.91094025107E+03  0.91094025108E+03  0.50400001928E-02 0. -1.
        1   -1    0    0  501    0  0.00000000000E+00  0.00000000000E+00 -0.23288822731E+04  0.23288822731E+04  0.50400001928E-02 0.  1.
    10030    2    1    2    0    0  0.00000000000E+00  0.00000000000E+00 -0.14179420221E+04  0.32398225242E+04  0.29130551678E+04 0.  0.
        3    1    3    3  502    0 -0.38897226573E+03 -0.20926947226E+03 -0.22526017921E+04  0.22954973273E+04  0.10100000352E+00 0.  1.
       -3    1    3    3    0  502  0.38897226573E+03  0.20926947226E+03  0.83465977008E+03  0.94432519691E+03  0.10100000352E+00 0. -1.
</event>
<event>
 5   0  0.2529875E-07  0.2632469E+04  0.7818609E-02  0.8357255E-01
       -1   -1    0    0    0  501  0.00000000000E+00  0.00000000000E+00  0.11845680881E+04  0.11845680881E+04  0.50400001928E-02 0. -1.
        1   -1    0    0  501    0  0.00000000000E+00  0.00000000000E+00 -0.14625355444E+04  0.14625355444E+04  0.50400001928E-02 0.  1.
    10030    2    1    2    0    0  0.00000000000E+00  0.00000000000E+00 -0.27796745632E+03  0.26471036325E+04  0.26324687528E+04 0.  0.
        5    1    3    3  502    0 -0.97882467374E+02 -0.12043881939E+04 -0.66372671954E+03  0.13786541072E+04  0.46999998093E+01 0.  1.
       -5    1    3    3    0  502  0.97882467374E+02  0.12043881939E+04  0.38575926322E+03  0.12684495253E+04  0.46999998093E+01 0. -1.
</event>
<event>
 5   0  0.8038352E-07  0.2590095E+04  0.7818609E-02  0.8371574E-01
       -2   -1    0    0    0  501  0.00000000000E+00  0.00000000000E+00  0.12257619527E+04  0.12257619527E+04  0.25500000920E-02 0. -1.
        2   -1    0    0  501    0  0.00000000000E+00  0.00000000000E+00 -0.13682492773E+04  0.13682492773E+04  0.25500000920E-02 0.  1.
    10030    2    1    2    0    0  0.00000000000E+00  0.00000000000E+00 -0.14248732459E+03  0.25940112300E+04  0.25900949063E+04 0.  0.
        2    1    3    3  502    0  0.11903096981E+04  0.50575765101E+03 -0.13857572006E+03  0.13007041205E+04  0.25500000920E-02 0.  1.
       -2    1    3    3    0  502 -0.11903096981E+04 -0.50575765101E+03 -0.39116045348E+01  0.12933071095E+04  0.25500000920E-02 0. -1.
</event>
<event>
 5   0  0.7551495E-07  0.3199372E+04  0.7818609E-02  0.8188983E-01
       -2   -1    0    0    0  501  0.00000000000E+00  0.00000000000E+00  0.10869201486E+04  0.10869201486E+04  0.25500000920E-02 0. -1.
        2   -1    0    0  501    0  0.00000000000E+00  0.00000000000E+00 -0.23543547068E+04  0.23543547068E+04  0.25500000920E-02 0.  1.
    10030    2    1    2    0    0  0.00000000000E+00  0.00000000000E+00 -0.12674345582E+04  0.34412748554E+04  0.31993721682E+04 0.  0.
        1    1    3    3  502    0 -0.14752786699E+04 -0.58789020129E+03 -0.42700561684E+03  0.16445047398E+04  0.50400001928E-02 0. -1.
       -1    1    3    3    0  502  0.14752786699E+04  0.58789020129E+03 -0.84042894134E+03  0.17967701155E+04  0.50400001928E-02 0.  1.
</event>
<event>
 5   0  0.8421677E-07  0.3795083E+04  0.7818609E-02  0.8047211E-01
       -2   -1    0    0    0  501  0.00000000000E+00  0.00000000000E+00  0.21769586524E+04  0.21769586524E+04  0.25500000920E-02 0.  1.
        2   -1    0    0  501    0  0.00000000000E+00  0.00000000000E+00 -0.16539882924E+04  0.16539882924E+04  0.25500000920E-02 0. -1.
    10030    2    1    2    0    0  0.00000000000E+00  0.00000000000E+00  0.52297035994E+03  0.38309469448E+04  0.37950832002E+04 0.  0.
        3    1    3    3  502    0  0.68790660914E+03 -0.14656025694E+04 -0.73754287122E+03  0.17790941210E+04  0.10100000352E+00 0. -1.
       -3    1    3    3    0  502 -0.68790660914E+03  0.14656025694E+04  0.12605132312E+04  0.20518528238E+04  0.10100000352E+00 0.  1.
</event>
<event>
 5   0  0.7638805E-07  0.3544690E+04  0.7818609E-02  0.8103280E-01
       -2   -1    0    0    0  501  0.00000000000E+00  0.00000000000E+00  0.14790395963E+04  0.14790395963E+04  0.25500000920E-02 0. -1.
        2   -1    0    0  501    0  0.00000000000E+00  0.00000000000E+00 -0.21238154296E+04  0.21238154296E+04  0.25500000920E-02 0.  1.
    10030    2    1    2    0    0  0.00000000000E+00  0.00000000000E+00 -0.64477583333E+03  0.36028550259E+04  0.35446901787E+04 0.  0.
        5    1    3    3  502    0  0.55499379077E+02  0.12058442726E+04  0.99661354966E+03  0.15653757530E+04  0.46999998093E+01 0. -1.
       -5    1    3    3    0  502 -0.55499379077E+02 -0.12058442726E+04 -0.16413893830E+04  0.20374792729E+04  0.46999998093E+01 0.  1.
</event>
<event>
 5   0  0.7649458E-07  0.3779301E+04  0.7818609E-02  0.8050612E-01
       -2   -1    0    0    0  501  0.00000000000E+00  0.00000000000E+00  0.22068392210E+04  0.22068392210E+04  0.25500000920E-02 0.  1.
        2   -1    0    0  501    0  0.00000000000E+00  0.00000000000E+00 -0.16180510760E+04  0.16180510760E+04  0.25500000920E-02 0. -1.
    10030    2    1    2    0    0  0.00000000000E+00  0.00000000000E+00  0.58878814508E+03  0.38248902970E+04  0.37793007692E+04 0.  0.
        4    1    3    3  502    0 -0.12484641419E+04  0.12060719213E+04  0.10500634468E+04  0.20287698362E+04  0.12699999809E+01 0. -1.
       -4    1    3    3    0  502  0.12484641419E+04 -0.12060719213E+04 -0.46127530168E+03  0.17961204608E+04  0.12699999809E+01 0.  1.
</event>
<event>
 5   0  0.7551495E-07  0.3845850E+04  0.7818609E-02  0.8036387E-01
       -2   -1    0    0    0  501  0.00000000000E+00  0.00000000000E+00  0.34282746653E+04  0.34282746653E+04  0.25500000920E-02 0. -1.
        2   -1    0    0  501    0  0.00000000000E+00  0.00000000000E+00 -0.10785718736E+04  0.10785718736E+04  0.25500000920E-02 0.  1.
    10030    2    1    2    0    0  0.00000000000E+00  0.00000000000E+00  0.23497027916E+04  0.45068465389E+04  0.38458500382E+04 0.  0.
        1    1    3    3  502    0 -0.47384233835E+03 -0.18357807581E+04  0.15509898018E+04  0.24495278971E+04  0.50400001928E-02 0.  1.
       -1    1    3    3    0  502  0.47384233835E+03  0.18357807581E+04  0.79871298986E+03  0.20573186418E+04  0.50400001928E-02 0. -1.
</event>
<event>
 5   0  0.2529875E-07  0.3295547E+04  0.7818609E-02  0.8164029E-01
        1   -1    0    0  501    0  0.00000000000E+00  0.00000000000E+00  0.14812146253E+04  0.14812146253E+04  0.50400001928E-02 0.  1.
       -1   -1    0    0    0  501  0.00000000000E+00  0.00000000000E+00 -0.18330616754E+04  0.18330616754E+04  0.50400001928E-02 0. -1.
    10030    2    1    2    0    0  0.00000000000E+00  0.00000000000E+00 -0.35184705008E+03  0.33142763006E+04  0.32955471549E+04 0.  0.
        1    1    3    3  502    0  0.29436761100E+03 -0.16194286979E+04 -0.25353832211E+03  0.16653778186E+04  0.50400001928E-02 0.  1.
       -1    1    3    3    0  502 -0.29436761100E+03  0.16194286979E+04 -0.98308727968E+02  0.16488984820E+04  0.50400001928E-02 0. -1.
</event>
<event>
 5   0  0.2529875E-07  0.3787555E+04  0.7818609E-02  0.8048831E-01
        1   -1    0    0  501    0  0.00000000000E+00  0.00000000000E+00  0.22469797666E+04  0.22469797666E+04  0.50400001928E-02 0. -1.
       -1   -1    0    0    0  501  0.00000000000E+00  0.00000000000E+00 -0.15960948845E+04  0.15960948845E+04  0.50400001928E-02 0.  1.
    10030    2    1    2    0    0  0.00000000000E+00  0.00000000000E+00  0.65088488210E+03  0.38430746511E+04  0.37875548371E+04 0.  0.
        5    1    3    3  502    0 -0.65626371282E+03  0.12119050848E+04 -0.99243247590E+03  0.16983345679E+04  0.46999998093E+01 0.  1.
       -5    1    3    3    0  502  0.65626371282E+03 -0.12119050848E+04  0.16433173580E+04  0.21447400832E+04  0.46999998093E+01 0. -1.
</event>
<event>
 5   0  0.7638805E-07  0.2668140E+04  0.7818609E-02  0.8345417E-01
       -2   -1    0    0    0  501  0.00000000000E+00  0.00000000000E+00  0.85165584618E+03  0.85165584618E+03  0.25500000920E-02 0. -1.
        2   -1    0    0  501    0  0.00000000000E+00  0.00000000000E+00 -0.20897435492E+04  0.20897435492E+04  0.25500000920E-02 0.  1.
    10030    2    1    2    0    0  0.00000000000E+00  0.00000000000E+00 -0.12380877030E+04  0.29413993954E+04  0.26681396595E+04 0.  0.
        5    1    3    3  502    0 -0.40706880772E+03  0.30246610061E+03  0.74123608827E+03  0.89813350054E+03  0.46999998093E+01 0. -1.
       -5    1    3    3    0  502  0.40706880772E+03 -0.30246610061E+03 -0.19793237913E+04  0.20432658949E+04  0.46999998093E+01 0.  1.
</event>
<event>
 5   0  0.7638805E-07  0.3375351E+04  0.7818609E-02  0.8143983E-01
       -2   -1    0    0    0  501  0.00000000000E+00  0.00000000000E+00  0.10108270543E+04  0.10108270543E+04  0.25500000920E-02 0. -1.
        2   -1    0    0  501    0  0.00000000000E+00  0.00000000000E+00 -0.28177406314E+04  0.28177406314E+04  0.25500000920E-02 0.  1.
    10030    2    1    2    0    0  0.00000000000E+00  0.00000000000E+00 -0.18069135771E+04  0.38285676856E+04  0.33753509223E+04 0.  0.
        5    1    3    3  502    0  0.43707719089E+03 -0.13661481656E+04  0.10523553636E+03  0.14382259521E+04  0.46999998093E+01 0. -1.
       -5    1    3    3    0  502 -0.43707719089E+03  0.13661481656E+04 -0.19121491134E+04  0.23903417335E+04  0.46999998093E+01 0.  1.
</event>
<event>
 5   0  0.7638805E-07  0.3781865E+04  0.7818609E-02  0.8050058E-01
       -2   -1    0    0    0  501  0.00000000000E+00  0.00000000000E+00  0.13317097931E+04  0.13317097931E+04  0.25500000920E-02 0.  1.
        2   -1    0    0  501    0  0.00000000000E+00  0.00000000000E+00 -0.26849890951E+04  0.26849890951E+04  0.25500000920E-02 0. -1.
    10030    2    1    2    0    0  0.00000000000E+00  0.00000000000E+00 -0.13532793020E+04  0.40166988882E+04  0.37818652923E+04 0.  0.
        5    1    3    3  502    0  0.16772605339E+04 -0.57029366001E+03  0.25602058224E+02  0.17717548681E+04  0.46999998093E+01 0.  1.
       -5    1    3    3    0  502 -0.16772605339E+04  0.57029366001E+03 -0.13788813603E+04  0.22449440200E+04  0.46999998093E+01 0. -1.
</event>
<event>
 5   0  0.7649458E-07  0.3813853E+04  0.7818609E-02  0.8043189E-01
        2   -1    0    0  501    0  0.00000000000E+00  0.00000000000E+00  0.20152970321E+04  0.20152970321E+04  0.25500000920E-02 0.  1.
       -2   -1    0    0    0  501  0.00000000000E+00  0.00000000000E+00 -0.18043834415E+04  0.18043834415E+04  0.25500000920E-02 0. -1.
    10030    2    1    2    0    0  0.00000000000E+00  0.00000000000E+00  0.21091359059E+03  0.38196804737E+04  0.38138529571E+04 0.  0.
        4    1    3    3  502    0  0.74862157554E+03 -0.16807783080E+04 -0.39622475613E+03  0.18821385853E+04  0.12699999809E+01 0. -1.
       -4    1    3    3    0  502 -0.74862157554E+03  0.16807783080E+04  0.60713834672E+03  0.19375418883E+04  0.12699999809E+01 0.  1.
</event>
<event>
 5   0  0.7649458E-07  0.3798821E+04  0.7818609E-02  0.8046408E-01
       -2   -1    0    0    0  501  0.00000000000E+00  0.00000000000E+00  0.11851258875E+04  0.11851258875E+04  0.25500000920E-02 0. -1.
        2   -1    0    0  501    0  0.00000000000E+00  0.00000000000E+00 -0.30442000835E+04  0.30442000835E+04  0.25500000920E-02 0.  1.
    10030    2    1    2    0    0  0.00000000000E+00  0.00000000000E+00 -0.18590741960E+04  0.42293259711E+04  0.37988210412E+04 0.  0.
        4    1    3    3  502    0  0.67169475751E+03 -0.13718713136E+04 -0.21864391594E+04  0.26671562682E+04  0.12699999809E+01 0.  1.
       -4    1    3    3    0  502 -0.67169475751E+03  0.13718713136E+04  0.32736496337E+03  0.15621697029E+04  0.12699999809E+01 0. -1.
</event>
<event>
 5   0  0.2529875E-07  0.2643722E+04  0.7818609E-02  0.8353500E-01
        1   -1    0    0  501    0  0.00000000000E+00  0.00000000000E+00  0.19531899235E+04  0.19531899235E+04  0.50400001928E-02 0. -1.
       -1   -1    0    0    0  501  0.00000000000E+00  0.00000000000E+00 -0.89459604903E+03  0.89459604904E+03  0.50400001928E-02 0.  1.
    10030    2    1    2    0    0  0.00000000000E+00  0.00000000000E+00  0.10585938745E+04  0.28477859725E+04  0.26437216106E+04 0.  0.
        5    1    3    3  502    0 -0.91974761969E+03  0.51180208351E+03 -0.33206100192E+03  0.11037045146E+04  0.46999998093E+01 0.  1.
       -5    1    3    3    0  502  0.91974761969E+03 -0.51180208351E+03  0.13906548764E+04  0.17440814579E+04  0.46999998093E+01 0. -1.
</event>
<event>
 5   0  0.7551495E-07  0.3152870E+04  0.7818609E-02  0.8201376E-01
        2   -1    0    0  501    0  0.00000000000E+00  0.00000000000E+00  0.24986384076E+04  0.24986384076E+04  0.25500000920E-02 0. -1.
       -2   -1    0    0    0  501  0.00000000000E+00  0.00000000000E+00 -0.99460062196E+03  0.99460062197E+03  0.25500000920E-02 0.  1.
    10030    2    1    2    0    0  0.00000000000E+00  0.00000000000E+00  0.15040377857E+04  0.34932390296E+04  0.31528700032E+04 0.  0.
        1    1    3    3  502    0  0.57767738774E+03 -0.35969312290E+03  0.23275208134E+04  0.24249625654E+04  0.50400001928E-02 0. -1.
       -1    1    3    3    0  502 -0.57767738774E+03  0.35969312290E+03 -0.82348302771E+03  0.10682764642E+04  0.50400001928E-02 0.  1.
</event>
<event>
 5   0  0.8038352E-07  0.3743099E+04  0.7818609E-02  0.8058477E-01
       -2   -1    0    0    0  501  0.00000000000E+00  0.00000000000E+00  0.19625200755E+04  0.19625200755E+04  0.25500000920E-02 0. -1.
        2   -1    0    0  501    0  0.00000000000E+00  0.00000000000E+00 -0.17847954652E+04  0.17847954652E+04  0.25500000920E-02 0.  1.
    10030    2    1    2    0    0  0.00000000000E+00  0.00000000000E+00  0.17772461031E+03  0.37473155408E+04  0.37430986796E+04 0.  0.
        2    1    3    3  502    0 -0.24558771372E+03  0.33078306129E+03  0.19165603216E+04  0.19603403340E+04  0.25500000920E-02 0. -1.
       -2    1    3    3    0  502  0.24558771372E+03 -0.33078306129E+03 -0.17388357113E+04  0.17869752068E+04  0.25500000920E-02 0.  1.
</event>
<event>
 5   0  0.2529875E-07  0.2455043E+04  0.7818609E-02  0.8419179E-01
       -1   -1    0    0    0  501  0.00000000000E+00  0.00000000000E+00  0.13253799485E+04  0.13253799485E+04  0.50400001928E-02 0.  1.
        1   -1    0    0  501    0  0.00000000000E+00  0.00000000000E+00 -0.11368886672E+04  0.11368886672E+04  0.50400001928E-02 0. -1.
    10030    2    1    2    0    0  0.00000000000E+00  0.00000000000E+00  0.18849128131E+03  0.24622686157E+04  0.24550433342E+04 0.  0.
        3    1    3    3  502    0 -0.51997285802E+02  0.49292979776E+03 -0.10320580180E+04  0.11449136500E+04  0.10100000352E+00 0. -1.
       -3    1    3    3    0  502  0.51997285802E+02 -0.49292979776E+03  0.12205492993E+04  0.13173549657E+04  0.10100000352E+00 0.  1.
</event>
<event>
 5   0  0.7638805E-07  0.3850885E+04  0.7818609E-02  0.8035322E-01
        2   -1    0    0  501    0  0.00000000000E+00  0.00000000000E+00  0.12916060264E+04  0.12916060264E+04  0.25500000920E-02 0.  1.
       -2   -1    0    0    0  501  0.00000000000E+00  0.00000000000E+00 -0.28703251725E+04  0.28703251725E+04  0.25500000920E-02 0. -1.
    10030    2    1    2    0    0  0.00000000000E+00  0.00000000000E+00 -0.15787191461E+04  0.41619311989E+04  0.38508852439E+04 0.  0.
        5    1    3    3  502    0  0.36689283647E+03  0.11455353666E+04 -0.24142771884E+04  0.26973353633E+04  0.46999998093E+01 0. -1.
       -5    1    3    3    0  502 -0.36689283647E+03 -0.11455353666E+04  0.83555804233E+03  0.14645958356E+04  0.46999998093E+01 0.  1.
</event>
<event>
 5   0  0.8038352E-07  0.3786311E+04  0.7818609E-02  0.8049099E-01
        2   -1    0    0  501    0  0.00000000000E+00  0.00000000000E+00  0.21359491006E+04  0.21359491006E+04  0.25500000920E-02 0.  1.
       -2   -1    0    0    0  501  0.00000000000E+00  0.00000000000E+00 -0.16779600465E+04  0.16779600465E+04  0.25500000920E-02 0. -1.
    10030    2    1    2    0    0  0.00000000000E+00  0.00000000000E+00  0.45798905403E+03  0.38139091471E+04  0.37863107386E+04 0.  0.
        2    1    3    3  502    0  0.84913935008E+03 -0.15722273658E+04  0.85893338909E+03  0.19826000838E+04  0.25500000920E-02 0.  1.
       -2    1    3    3    0  502 -0.84913935008E+03  0.15722273658E+04 -0.40094433506E+03  0.18313090633E+04  0.25500000920E-02 0. -1.
</event>
<event>
 5   0  0.2529875E-07  0.2443647E+04  0.7818609E-02  0.8423341E-01
        1   -1    0    0  501    0  0.00000000000E+00  0.00000000000E+00  0.16192214116E+04  0.16192214116E+04  0.50400001928E-02 0. -1.
       -1   -1    0    0    0  501  0.00000000000E+00  0.00000000000E+00 -0.92195705492E+03  0.92195705494E+03  0.50400001928E-02 0.  1.
    10030    2    1    2    0    0  0.00000000000E+00  0.00000000000E+00  0.69726435670E+03  0.25411784666E+04  0.24436469499E+04 0.  0.
        1    1    3    3  502    0 -0.40817984008E+03  0.27678964095E+03  0.15111170468E+04  0.15895590635E+04  0.50400001928E-02 0. -1.
       -1    1    3    3    0  502  0.40817984008E+03 -0.27678964095E+03 -0.81385269008E+03  0.95161940310E+03  0.50400001928E-02 0.  1.
</event>
<event>
 5   0  0.7638805E-07  0.3825931E+04  0.7818609E-02  0.8040613E-01
       -2   -1    0    0    0  501  0.00000000000E+00  0.00000000000E+00  0.18612851211E+04  0.18612851211E+04  0.25500000920E-02 0. -1.
        2   -1    0    0  501    0  0.00000000000E+00  0.00000000000E+00 -0.19660812386E+04  0.19660812386E+04  0.25500000920E-02 0.  1.
    10030    2    1    2    0    0  0.00000000000E+00  0.00000000000E+00 -0.10479611745E+03  0.38273663597E+04  0.38259313932E+04 0.  0.
        5    1    3    3  502    0  0.96838447600E+03  0.61241641624E+03 -0.15848320307E+04  0.19556423537E+04  0.46999998093E+01 0.  1.
       -5    1    3    3    0  502 -0.96838447600E+03 -0.61241641624E+03  0.14800359132E+04  0.18717240060E+04  0.46999998093E+01 0. -1.
</event>
<event>
 5   0  0.7638805E-07  0.3805552E+04  0.7818609E-02  0.8044964E-01
        2   -1    0    0  501    0  0.00000000000E+00  0.00000000000E+00  0.16331925875E+04  0.16331925875E+04  0.25500000920E-02 0.  1.
       -2   -1    0    0    0  501  0.00000000000E+00  0.00000000000E+00 -0.22168587809E+04  0.22168587810E+04  0.25500000920E-02 0. -1.
    10030    2    1    2    0    0  0.00000000000E+00  0.00000000000E+00 -0.58366619340E+03  0.38500513685E+04  0.38055524323E+04 0.  0.
        5    1    3    3  502    0  0.84425819673E+03  0.13251126832E+04 -0.13776205978E+04  0.20896306199E+04  0.46999998093E+01 0.  1.
       -5    1    3    3    0  502 -0.84425819673E+03 -0.13251126832E+04  0.79395440442E+03  0.17604207486E+04  0.46999998093E+01 0. -1.
</event>
<event>
 5   0  0.8421677E-07  0.3811412E+04  0.7818609E-02  0.8043710E-01
        2   -1    0    0  501    0  0.00000000000E+00  0.00000000000E+00  0.27503692880E+04  0.27503692880E+04  0.25500000920E-02 0. -1.
       -2   -1    0    0    0  501  0.00000000000E+00  0.00000000000E+00 -0.13204464009E+04  0.13204464009E+04  0.25500000920E-02 0.  1.
    10030    2    1    2    0    0  0.00000000000E+00  0.00000000000E+00  0.14299228871E+04  0.40708156890E+04  0.38114119314E+04 0.  0.
        3    1    3    3  502    0  0.16843178092E+04  0.79819066590E+03  0.11390771938E+04  0.21843835939E+04  0.10100000352E+00 0. -1.
       -3    1    3    3    0  502 -0.16843178092E+04 -0.79819066590E+03  0.29084569322E+03  0.18864320950E+04  0.10100000352E+00 0.  1.
</event>
<event>
 5   0  0.2907071E-07  0.2811531E+04  0.7818609E-02  0.8299697E-01
        1   -1    0    0  501    0  0.00000000000E+00  0.00000000000E+00  0.12521486218E+04  0.12521486219E+04  0.50400001928E-02 0.  1.
       -1   -1    0    0    0  501  0.00000000000E+00  0.00000000000E+00 -0.15782281530E+04  0.15782281530E+04  0.50400001928E-02 0. -1.
    10030    2    1    2    0    0  0.00000000000E+00  0.00000000000E+00 -0.32607953119E+03  0.28303767749E+04  0.28115306911E+04 0.  0.
        2    1    3    3  502    0 -0.11156696782E+04 -0.58984099237E+03 -0.78650117143E+03  0.14870155748E+04  0.25500000920E-02 0. -1.
       -2    1    3    3    0  502  0.11156696782E+04  0.58984099237E+03  0.46042164023E+03  0.13433612001E+04  0.25500000920E-02 0.  1.
</event>
<event>
 5   0  0.2529875E-07  0.2563455E+04  0.7818609E-02  0.8380722E-01
        1   -1    0    0  501    0  0.00000000000E+00  0.00000000000E+00  0.12050835369E+04  0.12050835369E+04  0.50400001928E-02 0. -1.
       -1   -1    0    0    0  501  0.00000000000E+00  0.00000000000E+00 -0.13632456436E+04  0.13632456436E+04  0.50400001928E-02 0.  1.
    10030    2    1    2    0    0  0.00000000000E+00  0.00000000000E+00 -0.15816210666E+03  0.25683291805E+04  0.25634546081E+04 0.  0.
        5    1    3    3  502    0 -0.48741583376E+03  0.70376638705E+03  0.87664138711E+03  0.12253095667E+04  0.46999998093E+01 0. -1.
       -5    1    3    3    0  502  0.48741583376E+03 -0.70376638705E+03 -0.10348034938E+04  0.13430196139E+04  0.46999998093E+01 0.  1.
</event>
<event>
 5   0  0.8038352E-07  0.3715722E+04  0.7818609E-02  0.8064487E-01
        2   -1    0    0  501    0  0.00000000000E+00  0.00000000000E+00  0.21791641110E+04  0.21791641110E+04  0.25500000920E-02 0.  1.
       -2   -1    0    0    0  501  0.00000000000E+00  0.00000000000E+00 -0.15839316221E+04  0.15839316221E+04  0.25500000920E-02 0. -1.
    10030    2    1    2    0    0  0.00000000000E+00  0.00000000000E+00  0.59523248891E+03  0.37630957332E+04  0.37157217039E+04 0.  0.
        2    1    3    3  502    0 -0.12243130426E+04 -0.10867377413E+04  0.11872841295E+04  0.20222722241E+04  0.25500000920E-02 0.  1.
       -2    1    3    3    0  502  0.12243130426E+04  0.10867377413E+04 -0.59205164058E+03  0.17408235090E+04  0.25500000920E-02 0. -1.
</event>
<event>
 5   0  0.7551495E-07  0.3332699E+04  0.7818609E-02  0.8154625E-01
        2   -1    0    0  501    0  0.00000000000E+00  0.00000000000E+00  0.22229579932E+04  0.22229579932E+04  0.25500000920E-02 0. -1.
       -2   -1    0    0    0  501  0.00000000000E+00  0.00000000000E+00 -0.12491104941E+04  0.12491104941E+04  0.25500000920E-02 0.  1.
    10030    2    1    2    0    0  0.00000000000E+00  0.00000000000E+00  0.97384749906E+03  0.34720684873E+04  0.33326987006E+04 0.  0.
        1    1    3    3  502    0  0.11431352531E+03  0.15625180488E+04 -0.10443116034E+03  0.15701707239E+04  0.50400001928E-02 0.  1.
       -1    1    3    3    0  502 -0.11431352531E+03 -0.15625180488E+04  0.10782786594E+04  0.19018977634E+04  0.50400001928E-02 0. -1.
</event>
<event>
 5   0  0.2529875E-07  0.3749865E+04  0.7818609E-02  0.8057000E-01
        1   -1    0    0  501    0  0.00000000000E+00  0.00000000000E+00  0.11144768831E+04  0.11144768831E+04  0.50400001928E-02 0. -1.
       -1   -1    0    0    0  501  0.00000000000E+00  0.00000000000E+00 -0.31542799530E+04  0.31542799530E+04  0.50400001928E-02 0.  1.
    10030    2    1    2    0    0  0.00000000000E+00  0.00000000000E+00 -0.20398030699E+04  0.42687568362E+04  0.37498651125E+04 0.  0.
        4    1    3    3  502    0  0.18702514397E+03 -0.18215267549E+04 -0.14787000886E+04  0.23536129011E+04  0.12699999809E+01 0. -1.
       -4    1    3    3    0  502 -0.18702514397E+03  0.18215267549E+04 -0.56110298129E+03  0.19151439350E+04  0.12699999809E+01 0.  1.
</event>
<event>
 5   0  0.2529875E-07  0.3710875E+04  0.7818609E-02  0.8065556E-01
        1   -1    0    0  501    0  0.00000000000E+00  0.00000000000E+00  0.19288912747E+04  0.19288912747E+04  0.50400001928E-02 0. -1.
       -1   -1    0    0    0  501  0.00000000000E+00  0.00000000000E+00 -0.17847810234E+04  0.17847810234E+04  0.50400001928E-02 0.  1.
    10030    2    1    2    0    0  0.00000000000E+00  0.00000000000E+00  0.14411025132E+03  0.37136722981E+04  0.37108751223E+04 0.  0.
        3    1    3    3  502    0 -0.67756793540E+03  0.14396721021E+04  0.10271824504E+04  0.18939001729E+04  0.10100000352E+00 0. -1.
       -3    1    3    3    0  502  0.67756793540E+03 -0.14396721021E+04 -0.88307219904E+03  0.18197721252E+04  0.10100000352E+00 0.  1.
</event>
<event>
 5   0  0.8038352E-07  0.3776009E+04  0.7818609E-02  0.8051323E-01
        2   -1    0    0  501    0  0.00000000000E+00  0.00000000000E+00  0.17048235481E+04  0.17048235481E+04  0.25500000920E-02 0. -1.
       -2   -1    0    0    0  501  0.00000000000E+00  0.00000000000E+00 -0.20908684199E+04  0.20908684199E+04  0.25500000920E-02 0.  1.
    10030    2    1    2    0    0  0.00000000000E+00  0.00000000000E+00 -0.38604487180E+03  0.37956919679E+04  0.37760093846E+04 0.  0.
        2    1    3    3  502    0  0.11720689447E+04 -0.13081695056E+04 -0.88909756958E+03  0.19686410427E+04  0.25500000920E-02 0.  1.
       -2    1    3    3    0  502 -0.11720689447E+04  0.13081695056E+04  0.50305269778E+03  0.18270509252E+04  0.25500000920E-02 0. -1.
</event>
<event>
 5   0  0.2529875E-07  0.3485581E+04  0.7818609E-02  0.8117216E-01
        1   -1    0    0  501    0  0.00000000000E+00  0.00000000000E+00  0.25201118488E+04  0.25201118488E+04  0.50400001928E-02 0.  1.
       -1   -1    0    0    0  501  0.00000000000E+00  0.00000000000E+00 -0.12052314431E+04  0.12052314431E+04  0.50400001928E-02 0. -1.
    10030    2    1    2    0    0  0.00000000000E+00  0.00000000000E+00  0.13148804057E+04  0.37253432919E+04  0.34855806061E+04 0.  0.
        1    1    3    3  502    0 -0.13280383353E+04 -0.88492146705E+03  0.14060079903E+04  0.21268827640E+04  0.50400001928E-02 0.  1.
       -1    1    3    3    0  502  0.13280383353E+04  0.88492146705E+03 -0.91127584629E+02  0.15984605280E+04  0.50400001928E-02 0. -1.
</event>
<event>
 5   0  0.2529875E-07  0.3808509E+04  0.7818609E-02  0.8044331E-01
        1   -1    0    0  501    0  0.00000000000E+00  0.00000000000E+00  0.24154506728E+04  0.24154506728E+04  0.50400001928E-02 0. -1.
       -1   -1    0    0    0  501  0.00000000000E+00  0.00000000000E+00 -0.15012458507E+04  0.15012458507E+04  0.50400001928E-02 0.  1.
    10030    2    1    2    0    0  0.00000000000E+00  0.00000000000E+00  0.91420482208E+03  0.39166965235E+04  0.38085090521E+04 0.  0.
        1    1    3    3  502    0 -0.16736544678E+03 -0.18909344587E+04  0.61150384475E+03  0.19943874428E+04  0.50400001928E-02 0. -1.
       -1    1    3    3    0  502  0.16736544678E+03  0.18909344587E+04  0.30270097733E+03  0.19223090807E+04  0.50400001928E-02 0.  1.
</event>
<event>
 5   0  0.2907071E-07  0.3829934E+04  0.7818609E-02  0.8039762E-01
        1   -1    0    0  501    0  0.00000000000E+00  0.00000000000E+00  0.18705418800E+04  0.18705418800E+04  0.50400001928E-02 0.  1.
       -1   -1    0    0    0  501  0.00000000000E+00  0.00000000000E+00 -0.19604468137E+04  0.19604468138E+04  0.50400001928E-02 0. -1.
    10030    2    1    2    0    0  0.00000000000E+00  0.00000000000E+00 -0.89904933785E+02  0.38309886937E+04  0.38299336123E+04 0.  0.
        2    1    3    3  502    0 -0.84289663100E+03  0.65073154310E+03  0.15470800329E+04  0.18781328227E+04  0.25500000920E-02 0.  1.
       -2    1    3    3    0  502  0.84289663100E+03 -0.65073154310E+03 -0.16369849667E+04  0.19528558710E+04  0.25500000920E-02 0. -1.
</event>
<event>
 5   0  0.7649458E-07  0.3792184E+04  0.7818609E-02  0.8047834E-01
       -2   -1    0    0    0  501  0.00000000000E+00  0.00000000000E+00  0.16734823369E+04  0.16734823369E+04  0.25500000920E-02 0.  1.
        2   -1    0    0  501    0  0.00000000000E+00  0.00000000000E+00 -0.21483135881E+04  0.21483135881E+04  0.25500000920E-02 0. -1.
    10030    2    1    2    0    0  0.00000000000E+00  0.00000000000E+00 -0.47483125123E+03  0.38217959250E+04  0.37921839849E+04 0.  0.
        4    1    3    3  502    0 -0.12991400774E+04  0.11557197597E+04  0.52460378830E+03  0.18162224123E+04  0.12699999809E+01 0. -1.
       -4    1    3    3    0  502  0.12991400774E+04 -0.11557197597E+04 -0.99943503952E+03  0.20055735127E+04  0.12699999809E+01 0.  1.
</event>
<event>
 5   0  0.7638805E-07  0.3729543E+04  0.7818609E-02  0.8061446E-01
        2   -1    0    0  501    0  0.00000000000E+00  0.00000000000E+00  0.10508722242E+04  0.10508722242E+04  0.25500000920E-02 0.  1.
       -2   -1    0    0    0  501  0.00000000000E+00  0.00000000000E+00 -0.33090341291E+04  0.33090341291E+04  0.25500000920E-02 0. -1.
    10030    2    1    2    0    0  0.00000000000E+00  0.00000000000E+00 -0.22581619049E+04  0.43599063533E+04  0.37295426289E+04 0.  0.
        5    1    3    3  502    0 -0.49649429732E+03 -0.11790955518E+04  0.45690226642E+03  0.13585119354E+04  0.46999998093E+01 0.  1.
       -5    1    3    3    0  502  0.49649429732E+03  0.11790955518E+04 -0.27150641713E+04  0.30013944179E+04  0.46999998093E+01 0. -1.
</event>
<event>
 5   0  0.7649458E-07  0.2666057E+04  0.7818609E-02  0.8346103E-01
        2   -1    0    0  501    0  0.00000000000E+00  0.00000000000E+00  0.19004346639E+04  0.19004346639E+04  0.25500000920E-02 0. -1.
       -2   -1    0    0    0  501  0.00000000000E+00  0.00000000000E+00 -0.93503052006E+03  0.93503052006E+03  0.25500000920E-02 0.  1.
    10030    2    1    2    0    0  0.00000000000E+00  0.00000000000E+00  0.96540414382E+03  0.28354651839E+04  0.26660565726E+04 0.  0.
        4    1    3    3  502    0  0.75699092239E+02  0.64825964433E+02  0.18964660920E+04  0.18990834656E+04  0.12699999809E+01 0. -1.
       -4    1    3    3    0  502 -0.75699092239E+02 -0.64825964433E+02 -0.93106194818E+03  0.93638171836E+03  0.12699999809E+01 0.  1.
</event>
<event>
 5   0  0.7551495E-07  0.3833110E+04  0.7818609E-02  0.8039087E-01
       -2   -1    0    0    0  501  0.00000000000E+00  0.00000000000E+00  0.13059981841E+04  0.13059981841E+04  0.25500000920E-02 0.  1.
        2   -1    0    0  501    0  0.00000000000E+00  0.00000000000E+00 -0.28125479830E+04  0.28125479830E+04  0.25500000920E-02 0. -1.
    10030    2    1    2    0    0  0.00000000000E+00  0.00000000000E+00 -0.15065497989E+04  0.41185461671E+04  0.38331097342E+04 0.  0.
        1    1    3    3  502    0  0.47146352377E+03  0.16552375512E+04 -0.16593328922E+04  0.23907059318E+04  0.50400001928E-02 0. -1.
       -1    1    3    3    0  502 -0.47146352377E+03 -0.16552375512E+04  0.15278309330E+03  0.17278402353E+04  0.50400001928E-02 0.  1.
</event>
<event>
 5   0  0.7638805E-07  0.3898219E+04  0.7818609E-02  0.8025400E-01
       -2   -1    0    0    0  501  0.00000000000E+00  0.00000000000E+00  0.15735124704E+04  0.15735124704E+04  0.25500000920E-02 0.  1.
        2   -1    0    0  501    0  0.00000000000E+00  0.00000000000E+00 -0.24143609532E+04  0.24143609532E+04  0.25500000920E-02 0. -1.
    10030    2    1    2    0    0  0.00000000000E+00  0.00000000000E+00 -0.84084848281E+03  0.39878734237E+04  0.38982186024E+04 0.  0.
        5    1    3    3  502    0 -0.68546490107E+03 -0.68824110495E+02  0.14448049779E+04  0.16006506186E+04  0.46999998093E+01 0.  1.
       -5    1    3    3    0  502  0.68546490107E+03  0.68824110495E+02 -0.22856534607E+04  0.23872228051E+04  0.46999998093E+01 0. -1.
</event>
<event>
 5   0  0.8421677E-07  0.3316016E+04  0.7818609E-02  0.8158832E-01
       -2   -1    0    0    0  501  0.00000000000E+00  0.00000000000E+00  0.11666050697E+04  0.11666050697E+04  0.25500000920E-02 0.  1.
        2   -1    0    0  501    0  0.00000000000E+00  0.00000000000E+00 -0.23564013867E+04  0.23564013867E+04  0.25500000920E-02 0. -1.
    10030    2    1    2    0    0  0.00000000000E+00  0.00000000000E+00 -0.11897963170E+04  0.35230064564E+04  0.33160155633E+04 0.  0.
        3    1    3    3  502    0 -0.75718562731E+03  0.31354059076E+03 -0.21261686975E+04  0.22786467731E+04  0.10100000352E+00 0. -1.
       -3    1    3    3    0  502  0.75718562731E+03 -0.31354059076E+03  0.93637238049E+03  0.12443596833E+04  0.10100000352E+00 0.  1.
</event>
<event>
 5   0  0.7649458E-07  0.3759719E+04  0.7818609E-02  0.8054855E-01
        2   -1    0    0  501    0  0.00000000000E+00  0.00000000000E+00  0.21526750605E+04  0.21526750605E+04  0.25500000920E-02 0.  1.
       -2   -1    0    0    0  501  0.00000000000E+00  0.00000000000E+00 -0.16416191364E+04  0.16416191364E+04  0.25500000920E-02 0. -1.
    10030    2    1    2    0    0  0.00000000000E+00  0.00000000000E+00  0.51105592409E+03  0.37942941970E+04  0.37597194438E+04 0.  0.
        4    1    3    3  502    0  0.14591446865E+04 -0.82848084875E+03  0.11108996365E+04  0.20123576591E+04  0.12699999809E+01 0.  1.
       -4    1    3    3    0  502 -0.14591446865E+04  0.82848084875E+03 -0.59984371239E+03  0.17819365379E+04  0.12699999809E+01 0. -1.
</event>
<event>
 5   0  0.2529875E-07  0.3539090E+04  0.7818609E-02  0.8104588E-01
       -1   -1    0    0    0  501  0.00000000000E+00  0.00000000000E+00  0.14504334418E+04  0.14504334418E+04  0.50400001928E-02 0. -1.
        1   -1    0    0  501    0  0.00000000000E+00  0.00000000000E+00 -0.21588643359E+04  0.21588643359E+04  0.50400001928E-02 0.  1.
    10030    2    1    2    0    0  0.00000000000E+00  0.00000000000E+00 -0.70843089413E+03  0.36092977776E+04  0.35390897299E+04 0.  0.
        3    1    3    3  502    0 -0.59346936217E+03  0.16545573705E+04 -0.14640100537E+03  0.17638591896E+04  0.10100000352E+00 0.  1.
       -3    1    3    3    0  502  0.59346936217E+03 -0.16545573705E+04 -0.56202988876E+03  0.18454385880E+04  0.10100000352E+00 0. -1.
</event>
<event>
 5   0  0.2907071E-07  0.3272709E+04  0.7818609E-02  0.8169874E-01
        1   -1    0    0  501    0  0.00000000000E+00  0.00000000000E+00  0.21126403141E+04  0.21126403141E+04  0.50400001928E-02 0. -1.
       -1   -1    0    0    0  501  0.00000000000E+00  0.00000000000E+00 -0.12674456741E+04  0.12674456741E+04  0.50400001928E-02 0.  1.
    10030    2    1    2    0    0  0.00000000000E+00  0.00000000000E+00  0.84519464007E+03  0.33800859882E+04  0.32727094750E+04 0.  0.
        2    1    3    3  502    0 -0.11795405086E+02 -0.97613892526E+03 -0.93375764535E+03  0.13508847742E+04  0.25500000920E-02 0.  1.
       -2    1    3    3    0  502  0.11795405086E+02  0.97613892526E+03  0.17789522854E+04  0.20292012140E+04  0.25500000920E-02 0. -1.
</event>
<event>
 5   0  0.2529875E-07  0.3806309E+04  0.7818609E-02  0.8044802E-01
        1   -1    0    0  501    0  0.00000000000E+00  0.00000000000E+00  0.16159531766E+04  0.16159531766E+04  0.50400001928E-02 0. -1.
       -1   -1    0    0    0  501  0.00000000000E+00  0.00000000000E+00 -0.22413999169E+04  0.22413999169E+04  0.50400001928E-02 0.  1.
    10030    2    1    2    0    0  0.00000000000E+00  0.00000000000E+00 -0.62544674028E+03  0.38573530934E+04  0.38063091391E+04 0.  0.
        5    1    3    3  502    0 -0.79320904026E+03  0.52537565771E+03  0.13576446951E+04  0.16578363524E+04  0.46999998093E+01 0. -1.
       -5    1    3    3    0  502  0.79320904026E+03 -0.52537565771E+03 -0.19830914353E+04  0.21995167411E+04  0.46999998093E+01 0.  1.
</event>
<event>
 5   0  0.7649458E-07  0.3585255E+04  0.7818609E-02  0.8093878E-01
       -2   -1    0    0    0  501  0.00000000000E+00  0.00000000000E+00  0.14468541723E+04  0.14468541723E+04  0.25500000920E-02 0.  1.
        2   -1    0    0  501    0  0.00000000000E+00  0.00000000000E+00 -0.22210349471E+04  0.22210349471E+04  0.25500000920E-02 0. -1.
    10030    2    1    2    0    0  0.00000000000E+00  0.00000000000E+00 -0.77418077482E+03  0.36678891193E+04  0.35852551819E+04 0.  0.
        4    1    3    3  502    0 -0.11131398073E+04 -0.17089311057E+03  0.10397694483E+04  0.15327774804E+04  0.12699999809E+01 0.  1.
       -4    1    3    3    0  502  0.11131398073E+04  0.17089311057E+03 -0.18139502231E+04  0.21351116389E+04  0.12699999809E+01 0. -1.
</event>
<event>
 5   0  0.2529875E-07  0.3670709E+04  0.7818609E-02  0.8074484E-01
       -1   -1    0    0    0  501  0.00000000000E+00  0.00000000000E+00  0.15864129910E+04  0.15864129910E+04  0.50400001928E-02 0.  1.
        1   -1    0    0  501    0  0.00000000000E+00  0.00000000000E+00 -0.21233602582E+04  0.21233602582E+04  0.50400001928E-02 0. -1.
    10030    2    1    2    0    0  0.00000000000E+00  0.00000000000E+00 -0.53694726724E+03  0.37097732492E+04  0.36707090858E+04 0.  0.
        1    1    3    3  502    0  0.11170898886E+04 -0.14506531279E+04 -0.13967332424E+03  0.18362442523E+04  0.50400001928E-02 0.  1.
       -1    1    3    3    0  502 -0.11170898886E+04  0.14506531279E+04 -0.39727394300E+03  0.18735289969E+04  0.50400001928E-02 0. -1.
</event>
<event>
 5   0  0.2529875E-07  0.3821271E+04  0.7818609E-02  0.8041605E-01
       -1   -1    0    0    0  501  0.00000000000E+00  0.00000000000E+00  0.15079107673E+04  0.15079107673E+04  0.50400001928E-02 0.  1.
        1   -1    0    0  501    0  0.00000000000E+00  0.00000000000E+00 -0.24209182022E+04  0.24209182022E+04  0.50400001928E-02 0. -1.
    10030    2    1    2    0    0  0.00000000000E+00  0.00000000000E+00 -0.91300743484E+03  0.39288289695E+04  0.38212713193E+04 0.  0.
        5    1    3    3  502    0  0.12273781747E+04 -0.40239717018E+03 -0.19040113532E+04  0.23007959469E+04  0.46999998093E+01 0. -1.
       -5    1    3    3    0  502 -0.12273781747E+04  0.40239717018E+03  0.99100391833E+03  0.16280330226E+04  0.46999998093E+01 0.  1.
</event>
<event>
 5   0  0.2529875E-07  0.3643535E+04  0.7818609E-02  0.8080592E-01
       -1   -1    0    0    0  501  0.00000000000E+00  0.00000000000E+00  0.17079544498E+04  0.17079544498E+04  0.50400001928E-02 0.  1.
        1   -1    0    0  501    0  0.00000000000E+00  0.00000000000E+00 -0.19431651084E+04  0.19431651084E+04  0.50400001928E-02 0. -1.
    10030    2    1    2    0    0  0.00000000000E+00  0.00000000000E+00 -0.23521065854E+03  0.36511195582E+04  0.36435353675E+04 0.  0.
        1    1    3    3  502    0 -0.10258161907E+04  0.56021705537E+01 -0.16262314447E+04  0.19227477612E+04  0.50400001928E-02 0. -1.
       -1    1    3    3    0  502  0.10258161907E+04 -0.56021705537E+01  0.13910207861E+04  0.17283717971E+04  0.50400001928E-02 0.  1.
</event>
<event>
 5   0  0.2907071E-07  0.3933387E+04  0.7818609E-02  0.8018121E-01
       -1   -1    0    0    0  501  0.00000000000E+00  0.00000000000E+00  0.20456438590E+04  0.20456438590E+04  0.50400001928E-02 0. -1.
        1   -1    0    0  501    0  0.00000000000E+00  0.00000000000E+00 -0.18907898942E+04  0.18907898942E+04  0.50400001928E-02 0.  1.
    10030    2    1    2    0    0  0.00000000000E+00  0.00000000000E+00  0.15485396476E+03  0.39364337532E+04  0.39333867015E+04 0.  0.
        2    1    3    3  502    0  0.64629696812E+03 -0.48733524051E+03  0.18712125773E+04  0.20387819690E+04  0.25500000920E-02 0. -1.
       -2    1    3    3    0  502 -0.64629696812E+03  0.48733524051E+03 -0.17163586125E+04  0.18976517843E+04  0.25500000920E-02 0.  1.
</event>
<event>
 5   0  0.7638805E-07  0.3012398E+04  0.7818609E-02  0.8240199E-01
        2   -1    0    0  501    0  0.00000000000E+00  0.00000000000E+00  0.11711941555E+04  0.11711941555E+04  0.25500000920E-02 0. -1.
       -2   -1    0    0    0  501  0.00000000000E+00  0.00000000000E+00 -0.19370277966E+04  0.19370277966E+04  0.25500000920E-02 0.  1.
    10030    2    1    2    0    0  0.00000000000E+00  0.00000000000E+00 -0.76583364107E+03  0.31082219522E+04  0.30123981374E+04 0.  0.
        5    1    3    3  502    0  0.15059678230E+04 -0.18253553523E+02 -0.36385573235E+03  0.15494145217E+04  0.46999998093E+01 0. -1.
       -5    1    3    3    0  502 -0.15059678230E+04  0.18253553523E+02 -0.40197790873E+03  0.15588074305E+04  0.46999998093E+01 0.  1.
</event>
<event>
 5   0  0.7649458E-07  0.3795502E+04  0.7818609E-02  0.8047121E-01
       -2   -1    0    0    0  501  0.00000000000E+00  0.00000000000E+00  0.16040146207E+04  0.16040146207E+04  0.25500000920E-02 0.  1.
        2   -1    0    0  501    0  0.00000000000E+00  0.00000000000E+00 -0.22452778356E+04  0.22452778356E+04  0.25500000920E-02 0. -1.
    10030    2    1    2    0    0  0.00000000000E+00  0.00000000000E+00 -0.64126321491E+03  0.38492924563E+04  0.37955017986E+04 0.  0.
        4    1    3    3  502    0 -0.14449664549E+04 -0.11944931249E+04 -0.21984181963E+02  0.18748938099E+04  0.12699999809E+01 0.  1.
       -4    1    3    3    0  502  0.14449664549E+04  0.11944931249E+04 -0.61927903295E+03  0.19743986464E+04  0.12699999809E+01 0. -1.
</event>
<event>
 5   0  0.2529875E-07  0.3549438E+04  0.7818609E-02  0.8102173E-01
        1   -1    0    0  501    0  0.00000000000E+00  0.00000000000E+00  0.19054540633E+04  0.19054540633E+04  0.50400001928E-02 0. -1.
       -1   -1    0    0    0  501  0.00000000000E+00  0.00000000000E+00 -0.16529534229E+04  0.16529534229E+04  0.50400001928E-02 0.  1.
    10030    2    1    2    0    0  0.00000000000E+00  0.00000000000E+00  0.25250064039E+03  0.35584074862E+04  0.35494375983E+04 0.  0.
        3    1    3    3  502    0  0.11635084708E+03  0.15181091385E+04 -0.78788398173E+03  0.17143377890E+04  0.10100000352E+00 0.  1.
       -3    1    3    3    0  502 -0.11635084708E+03 -0.15181091385E+04  0.10403846221E+04  0.18440696972E+04  0.10100000352E+00 0. -1.
</event>
<event>
 5   0  0.2907071E-07  0.2673737E+04  0.7818609E-02  0.8343577E-01
        1   -1    0    0  501    0  0.00000000000E+00  0.00000000000E+00  0.11256453159E+04  0.11256453159E+04  0.50400001928E-02 0. -1.
       -1   -1    0    0    0  501  0.00000000000E+00  0.00000000000E+00 -0.15877263825E+04  0.15877263826E+04  0.50400001928E-02 0.  1.
    10030    2    1    2    0    0  0.00000000000E+00  0.00000000000E+00 -0.46208106662E+03  0.27133716985E+04  0.26737365356E+04 0.  0.
        2    1    3    3  502    0  0.27877527613E+02  0.85940325338E+03 -0.12698681431E+04  0.15335958429E+04  0.25500000920E-02 0.  1.
       -2    1    3    3    0  502 -0.27877527613E+02 -0.85940325338E+03  0.80778707650E+03  0.11797758556E+04  0.25500000920E-02 0. -1.
</event>
<event>
 5   0  0.7649458E-07  0.3808671E+04  0.7818609E-02  0.8044297E-01
       -2   -1    0    0    0  501  0.00000000000E+00  0.00000000000E+00  0.18484066926E+04  0.18484066926E+04  0.25500000920E-02 0. -1.
        2   -1    0    0  501    0  0.00000000000E+00  0.00000000000E+00 -0.19619562383E+04  0.19619562383E+04  0.25500000920E-02 0.  1.
    10030    2    1    2    0    0  0.00000000000E+00  0.00000000000E+00 -0.11354954569E+03  0.38103629310E+04  0.38086706561E+04 0.  0.
        4    1    3    3  502    0  0.11193132576E+04 -0.42841780348E+03 -0.15373267256E+04  0.19493021975E+04  0.12699999809E+01 0.  1.
       -4    1    3    3    0  502 -0.11193132576E+04  0.42841780348E+03  0.14237771799E+04  0.18610607335E+04  0.12699999809E+01 0. -1.
</event>
<event>
 5   0  0.2529875E-07  0.3830416E+04  0.7818609E-02  0.8039659E-01
        1   -1    0    0  501    0  0.00000000000E+00  0.00000000000E+00  0.15351388356E+04  0.15351388356E+04  0.50400001928E-02 0. -1.
       -1   -1    0    0    0  501  0.00000000000E+00  0.00000000000E+00 -0.23893748200E+04  0.23893748200E+04  0.50400001928E-02 0.  1.
    10030    2    1    2    0    0  0.00000000000E+00  0.00000000000E+00 -0.85423598439E+03  0.39245136556E+04  0.38304162067E+04 0.  0.
        1    1    3    3  502    0  0.35857116447E+02  0.14389594369E+04 -0.17215352432E+04  0.22440083751E+04  0.50400001928E-02 0.  1.
       -1    1    3    3    0  502 -0.35857116447E+02 -0.14389594369E+04  0.86729925880E+03  0.16805052806E+04  0.50400001928E-02 0. -1.
</event>
<event>
 5   0  0.7649458E-07  0.3736331E+04  0.7818609E-02  0.8059958E-01
       -2   -1    0    0    0  501  0.00000000000E+00  0.00000000000E+00  0.22654752924E+04  0.22654752924E+04  0.25500000920E-02 0. -1.
        2   -1    0    0  501    0  0.00000000000E+00  0.00000000000E+00 -0.15405346271E+04  0.15405346271E+04  0.25500000920E-02 0.  1.
    10030    2    1    2    0    0  0.00000000000E+00  0.00000000000E+00  0.72494066531E+03  0.38060099195E+04  0.37363314279E+04 0.  0.
        4    1    3    3  502    0  0.18625317208E+04 -0.40631784102E+02  0.50422794264E+03  0.19300059025E+04  0.12699999809E+01 0. -1.
       -4    1    3    3    0  502 -0.18625317208E+04  0.40631784102E+02  0.22071272267E+03  0.18760040169E+04  0.12699999809E+01 0.  1.
</event>
<event>
 5   0  0.2529875E-07  0.3697103E+04  0.7818609E-02  0.8068604E-01
       -1   -1    0    0    0  501  0.00000000000E+00  0.00000000000E+00  0.12799979153E+04  0.12799979154E+04  0.50400001928E-02 0. -1.
        1   -1    0    0  501    0  0.00000000000E+00  0.00000000000E+00 -0.26696464206E+04  0.26696464206E+04  0.50400001928E-02 0.  1.
    10030    2    1    2    0    0  0.00000000000E+00  0.00000000000E+00 -0.13896485053E+04  0.39496443360E+04  0.36971025699E+04 0.  0.
        1    1    3    3  502    0 -0.22572431075E+03 -0.16046042838E+04  0.25557097750E+03  0.16404337526E+04  0.50400001928E-02 0. -1.
       -1    1    3    3    0  502  0.22572431075E+03  0.16046042838E+04 -0.16452194828E+04  0.23092105834E+04  0.50400001928E-02 0.  1.
</event>
<event>
 5   0  0.2723571E-07  0.2333871E+04  0.7818609E-02  0.8464685E-01
        1   -1    0    0  501    0  0.00000000000E+00  0.00000000000E+00  0.14245937933E+04  0.14245937933E+04  0.50400001928E-02 0.  1.
       -1   -1    0    0    0  501  0.00000000000E+00  0.00000000000E+00 -0.95587867937E+03  0.95587867939E+03  0.50400001928E-02 0. -1.
    10030    2    1    2    0    0  0.00000000000E+00  0.00000000000E+00  0.46871511395E+03  0.23804724727E+04  0.23338713194E+04 0.  0.
        1    1    3    3  502    0  0.85767650459E+03  0.92288805678E-01 -0.57272592164E+03  0.10313214709E+04  0.50400001928E-02 0. -1.
       -1    1    3    3    0  502 -0.85767650459E+03 -0.92288805678E-01  0.10414410356E+04  0.13491510018E+04  0.50400001928E-02 0.  1.
</event>
<event>
 5   0  0.8421677E-07  0.3780854E+04  0.7818609E-02  0.8050276E-01
        2   -1    0    0  501    0  0.00000000000E+00  0.00000000000E+00  0.23846616830E+04  0.23846616830E+04  0.25500000920E-02 0. -1.
       -2   -1    0    0    0  501  0.00000000000E+00  0.00000000000E+00 -0.14986253289E+04  0.14986253289E+04  0.25500000920E-02 0.  1.
    10030    2    1    2    0    0  0.00000000000E+00  0.00000000000E+00  0.88603635411E+03  0.38832870119E+04  0.37808540828E+04 0.  0.
        3    1    3    3  502    0  0.14056597329E+04  0.71769877543E+03 -0.62572260171E+03  0.16977925672E+04  0.10100000352E+00 0.  1.
       -3    1    3    3    0  502 -0.14056597329E+04 -0.71769877543E+03  0.15117589558E+04  0.21854944446E+04  0.10100000352E+00 0. -1.
</event>
<event>
 5   0  0.2529875E-07  0.3787226E+04  0.7818609E-02  0.8048902E-01
        3   -1    0    0  501    0  0.00000000000E+00  0.00000000000E+00  0.15667485703E+04  0.15667485736E+04  0.10100000352E+00 0.  1.
       -3   -1    0    0    0  501  0.00000000000E+00  0.00000000000E+00 -0.22886695113E+04  0.22886695136E+04  0.10100000352E+00 0. -1.
    10030    2    1    2    0    0  0.00000000000E+00  0.00000000000E+00 -0.72192094103E+03  0.38554180872E+04  0.37872257368E+04 0.  0.
        4    1    3    3  502    0 -0.59325992555E+03  0.90558369168E+03 -0.19425527473E+04  0.22238596968E+04  0.12699999809E+01 0. -1.
       -4    1    3    3    0  502  0.59325992555E+03 -0.90558369168E+03  0.12206318063E+04  0.16315583904E+04  0.12699999809E+01 0.  1.
</event>
<event>
 5   0  0.8421677E-07  0.3842118E+04  0.7818609E-02  0.8037176E-01
        2   -1    0    0  501    0  0.00000000000E+00  0.00000000000E+00  0.25296758291E+04  0.25296758291E+04  0.25500000920E-02 0. -1.
       -2   -1    0    0    0  501  0.00000000000E+00  0.00000000000E+00 -0.14588699496E+04  0.14588699496E+04  0.25500000920E-02 0.  1.
    10030    2    1    2    0    0  0.00000000000E+00  0.00000000000E+00  0.10708058795E+04  0.39885457786E+04  0.38421181914E+04 0.  0.
        3    1    3    3  502    0  0.60178430542E+03  0.11325849048E+04  0.20201469336E+04  0.23928824795E+04  0.10100000352E+00 0. -1.
       -3    1    3    3    0  502 -0.60178430542E+03 -0.11325849048E+04 -0.94934105416E+03  0.15956632991E+04  0.10100000352E+00 0.  1.
</event>
<event>
 5   0  0.7649458E-07  0.3739919E+04  0.7818609E-02  0.8059172E-01
        2   -1    0    0  501    0  0.00000000000E+00  0.00000000000E+00  0.11911548477E+04  0.11911548477E+04  0.25500000920E-02 0. -1.
       -2   -1    0    0    0  501  0.00000000000E+00  0.00000000000E+00 -0.29355954236E+04  0.29355954236E+04  0.25500000920E-02 0.  1.
    10030    2    1    2    0    0  0.00000000000E+00  0.00000000000E+00 -0.17444405759E+04  0.41267502713E+04  0.37399191006E+04 0.  0.
        4    1    3    3  502    0  0.55219653945E+03  0.91300298664E+03  0.82227768124E+03  0.13470848785E+04  0.12699999809E+01 0. -1.
       -4    1    3    3    0  502 -0.55219653945E+03 -0.91300298664E+03 -0.25667182571E+04  0.27796653928E+04  0.12699999809E+01 0.  1.
</event>
<event>
 5   0  0.7551495E-07  0.3586893E+04  0.7818609E-02  0.8093501E-01
       -2   -1    0    0    0  501  0.00000000000E+00  0.00000000000E+00  0.17951484032E+04  0.17951484032E+04  0.25500000920E-02 0. -1.
        2   -1    0    0  501    0  0.00000000000E+00  0.00000000000E+00 -0.17917464971E+04  0.17917464971E+04  0.25500000920E-02 0.  1.
    10030    2    1    2    0    0  0.00000000000E+00  0.00000000000E+00  0.34019060685E+01  0.35868949003E+04  0.35868932871E+04 0.  0.
        1    1    3    3  502    0  0.83965432565E+02  0.37503820789E+03  0.17534856922E+04  0.17951088892E+04  0.50400001928E-02 0. -1.
       -1    1    3    3    0  502 -0.83965432565E+02 -0.37503820789E+03 -0.17500837861E+04  0.17917860112E+04  0.50400001928E-02 0.  1.
</event>
<event>
 5   0  0.7551495E-07  0.2898474E+04  0.7818609E-02  0.8273332E-01
       -2   -1    0    0    0  501  0.00000000000E+00  0.00000000000E+00  0.14872614350E+04  0.14872614350E+04  0.25500000920E-02 0.  1.
        2   -1    0    0  501    0  0.00000000000E+00  0.00000000000E+00 -0.14121851062E+04  0.14121851062E+04  0.25500000920E-02 0. -1.
    10030    2    1    2    0    0  0.00000000000E+00  0.00000000000E+00  0.75076328799E+02  0.28994465411E+04  0.28984743900E+04 0.  0.
        1    1    3    3  502    0 -0.10555016054E+04 -0.74512279387E+03  0.69426184479E+03  0.14667280341E+04  0.50400001928E-02 0.  1.
       -1    1    3    3    0  502  0.10555016054E+04  0.74512279387E+03 -0.61918551600E+03  0.14327185070E+04  0.50400001928E-02 0. -1.
</event>
<event>
 5   0  0.2907071E-07  0.3241506E+04  0.7818609E-02  0.8177941E-01
       -1   -1    0    0    0  501  0.00000000000E+00  0.00000000000E+00  0.88543136002E+03  0.88543136003E+03  0.50400001928E-02 0.  1.
        1   -1    0    0  501    0  0.00000000000E+00  0.00000000000E+00 -0.29667352334E+04  0.29667352334E+04  0.50400001928E-02 0. -1.
    10030    2    1    2    0    0  0.00000000000E+00  0.00000000000E+00 -0.20813038734E+04  0.38521665934E+04  0.32415060775E+04 0.  0.
        2    1    3    3  502    0 -0.14397573531E+03 -0.15395527154E+04 -0.46347108484E+03  0.16142357394E+04  0.25500000920E-02 0. -1.
       -2    1    3    3    0  502  0.14397573531E+03  0.15395527154E+04 -0.16178327885E+04  0.22379308540E+04  0.25500000920E-02 0.  1.
</event>
<event>
 5   0  0.2529875E-07  0.3140926E+04  0.7818609E-02  0.8204595E-01
        1   -1    0    0  501    0  0.00000000000E+00  0.00000000000E+00  0.28681263948E+04  0.28681263948E+04  0.50400001928E-02 0. -1.
       -1   -1    0    0    0  501  0.00000000000E+00  0.00000000000E+00 -0.85991802773E+03  0.85991802774E+03  0.50400001928E-02 0.  1.
    10030    2    1    2    0    0  0.00000000000E+00  0.00000000000E+00  0.20082083671E+04  0.37280444225E+04  0.31409257188E+04 0.  0.
        4    1    3    3  502    0  0.69408464575E+03  0.13624290058E+04  0.57881756284E+03  0.16349304802E+04  0.12699999809E+01 0. -1.
       -4    1    3    3    0  502 -0.69408464575E+03 -0.13624290058E+04  0.14293908042E+04  0.20931139423E+04  0.12699999809E+01 0.  1.
</event>
<event>
 5   0  0.7638805E-07  0.3822880E+04  0.7818609E-02  0.8041263E-01
        2   -1    0    0  501    0  0.00000000000E+00  0.00000000000E+00  0.24685848638E+04  0.24685848638E+04  0.25500000920E-02 0.  1.
       -2   -1    0    0    0  501  0.00000000000E+00  0.00000000000E+00 -0.14800394988E+04  0.14800394988E+04  0.25500000920E-02 0. -1.
    10030    2    1    2    0    0  0.00000000000E+00  0.00000000000E+00  0.98854536500E+03  0.39486243627E+04  0.38228801209E+04 0.  0.
        5    1    3    3  502    0 -0.16538619800E+04 -0.32906196645E+03 -0.43535343581E+03  0.17415785744E+04  0.46999998093E+01 0. -1.
       -5    1    3    3    0  502  0.16538619800E+04  0.32906196645E+03  0.14238988008E+04  0.22070457883E+04  0.46999998093E+01 0.  1.
</event>
<event>
 5   0  0.2529875E-07  0.3744606E+04  0.7818609E-02  0.8058148E-01
       -1   -1    0    0    0  501  0.00000000000E+00  0.00000000000E+00  0.17167570191E+04  0.17167570191E+04  0.50400001928E-02 0.  1.
        1   -1    0    0  501    0  0.00000000000E+00  0.00000000000E+00 -0.20419424107E+04  0.20419424107E+04  0.50400001928E-02 0. -1.
    10030    2    1    2    0    0  0.00000000000E+00  0.00000000000E+00 -0.32518539156E+03  0.37586994298E+04  0.37446062362E+04 0.  0.
        1    1    3    3  502    0  0.17978654766E+04  0.44955634668E+03  0.10505251567E+03  0.18561942819E+04  0.50400001928E-02 0.  1.
       -1    1    3    3    0  502 -0.17978654766E+04 -0.44955634668E+03 -0.43023790722E+03  0.19025051479E+04  0.50400001928E-02 0. -1.
</event>
<event>
 5   0  0.2529875E-07  0.2830882E+04  0.7818609E-02  0.8293744E-01
       -1   -1    0    0    0  501  0.00000000000E+00  0.00000000000E+00  0.15677678290E+04  0.15677678290E+04  0.50400001928E-02 0.  1.
        1   -1    0    0  501    0  0.00000000000E+00  0.00000000000E+00 -0.12779144510E+04  0.12779144510E+04  0.50400001928E-02 0. -1.
    10030    2    1    2    0    0  0.00000000000E+00  0.00000000000E+00  0.28985337799E+03  0.28456822800E+04  0.28308819576E+04 0.  0.
        4    1    3    3  502    0 -0.13919443083E+04  0.92721910868E+02 -0.95835931966E+02  0.13983177210E+04  0.12699999809E+01 0. -1.
       -4    1    3    3    0  502  0.13919443083E+04 -0.92721910868E+02  0.38568930995E+03  0.14473645590E+04  0.12699999809E+01 0.  1.
</event>
<event>
 5   0  0.2529875E-07  0.3762873E+04  0.7818609E-02  0.8054170E-01
        1   -1    0    0  501    0  0.00000000000E+00  0.00000000000E+00  0.23121235439E+04  0.23121235439E+04  0.50400001928E-02 0.  1.
       -1   -1    0    0    0  501  0.00000000000E+00  0.00000000000E+00 -0.15309748669E+04  0.15309748670E+04  0.50400001928E-02 0. -1.
    10030    2    1    2    0    0  0.00000000000E+00  0.00000000000E+00  0.78114867697E+03  0.38430984109E+04  0.37628728573E+04 0.  0.
        5    1    3    3  502    0  0.14506628021E+04 -0.88284842549E+03 -0.43659235384E+03  0.17534191972E+04  0.46999998093E+01 0. -1.
       -5    1    3    3    0  502 -0.14506628021E+04  0.88284842549E+03  0.12177410308E+04  0.20896792136E+04  0.46999998093E+01 0.  1.
</event>
<event>
 5   0  0.7649458E-07  0.3683621E+04  0.7818609E-02  0.8071601E-01
       -2   -1    0    0    0  501  0.00000000000E+00  0.00000000000E+00  0.23478380670E+04  0.23478380670E+04  0.25500000920E-02 0.  1.
        2   -1    0    0  501    0  0.00000000000E+00  0.00000000000E+00 -0.14448468106E+04  0.14448468106E+04  0.25500000920E-02 0. -1.
    10030    2    1    2    0    0  0.00000000000E+00  0.00000000000E+00  0.90299125637E+03  0.37926848775E+04  0.36836212307E+04 0.  0.
        4    1    3    3  502    0 -0.15680505928E+02  0.13606248119E+04  0.17295034386E+04  0.22006202566E+04  0.12699999809E+01 0.  1.
       -4    1    3    3    0  502  0.15680505928E+02 -0.13606248119E+04 -0.82651218221E+03  0.15920646209E+04  0.12699999809E+01 0. -1.
</event>
<event>
 5   0  0.2529875E-07  0.3826431E+04  0.7818609E-02  0.8040507E-01
        1   -1    0    0  501    0  0.00000000000E+00  0.00000000000E+00  0.14089920113E+04  0.14089920113E+04  0.50400001928E-02 0.  1.
       -1   -1    0    0    0  501  0.00000000000E+00  0.00000000000E+00 -0.25978806280E+04  0.25978806280E+04  0.50400001928E-02 0. -1.
    10030    2    1    2    0    0  0.00000000000E+00  0.00000000000E+00 -0.11888886167E+04  0.40068726393E+04  0.38264307396E+04 0.  0.
        1    1    3    3  502    0 -0.10240920266E+04  0.86674580762E+03  0.83383302793E+03  0.15796487877E+04  0.50400001928E-02 0.  1.
       -1    1    3    3    0  502  0.10240920266E+04 -0.86674580762E+03 -0.20227216446E+04  0.24272238516E+04  0.50400001928E-02 0. -1.
</event>
<event>
 5   0  0.8038352E-07  0.3591939E+04  0.7818609E-02  0.8092341E-01
        2   -1    0    0  501    0  0.00000000000E+00  0.00000000000E+00  0.23421076334E+04  0.23421076334E+04  0.25500000920E-02 0. -1.
       -2   -1    0    0    0  501  0.00000000000E+00  0.00000000000E+00 -0.13771812753E+04  0.13771812753E+04  0.25500000920E-02 0.  1.
    10030    2    1    2    0    0  0.00000000000E+00  0.00000000000E+00  0.96492635813E+03  0.37192889088E+04  0.35919391852E+04 0.  0.
        2    1    3    3  502    0  0.59402450907E+03  0.15900682608E+04 -0.12513289218E+03  0.17020107027E+04  0.25500000920E-02 0.  1.
       -2    1    3    3    0  502 -0.59402450907E+03 -0.15900682608E+04  0.10900592503E+04  0.20172782061E+04  0.25500000920E-02 0. -1.
</event>
<event>
 5   0  0.7638805E-07  0.3760814E+04  0.7818609E-02  0.8054617E-01
       -2   -1    0    0    0  501  0.00000000000E+00  0.00000000000E+00  0.27991721058E+04  0.27991721058E+04  0.25500000920E-02 0.  1.
        2   -1    0    0  501    0  0.00000000000E+00  0.00000000000E+00 -0.12632060225E+04  0.12632060225E+04  0.25500000920E-02 0. -1.
    10030    2    1    2    0    0  0.00000000000E+00  0.00000000000E+00  0.15359660833E+04  0.40623781283E+04  0.37608143065E+04 0.  0.
        5    1    3    3  502    0 -0.13645579697E+04  0.48984182977E+03 -0.52551202869E+03  0.15421246555E+04  0.46999998093E+01 0. -1.
       -5    1    3    3    0  502  0.13645579697E+04 -0.48984182977E+03  0.20614781120E+04  0.25202534728E+04  0.46999998093E+01 0.  1.
</event>
<event>
 5   0  0.2529875E-07  0.3796701E+04  0.7818609E-02  0.8046863E-01
        1   -1    0    0  501    0  0.00000000000E+00  0.00000000000E+00  0.16444216268E+04  0.16444216268E+04  0.50400001928E-02 0. -1.
       -1   -1    0    0    0  501  0.00000000000E+00  0.00000000000E+00 -0.21914910959E+04  0.21914910959E+04  0.50400001928E-02 0.  1.
    10030    2    1    2    0    0  0.00000000000E+00  0.00000000000E+00 -0.54706946911E+03  0.38359127227E+04  0.37967013857E+04 0.  0.
        3    1    3    3  502    0 -0.72719315245E+03 -0.16753703496E+04  0.24955717426E+03  0.18433541393E+04  0.10100000352E+00 0. -1.
       -3    1    3    3    0  502  0.72719315245E+03  0.16753703496E+04 -0.79662664337E+03  0.19925585834E+04  0.10100000352E+00 0.  1.
</event>
<event>
 5   0  0.2529875E-07  0.2520492E+04  0.7818609E-02  0.8395722E-01
       -1   -1    0    0    0  501  0.00000000000E+00  0.00000000000E+00  0.66374554868E+03  0.66374554869E+03  0.50400001928E-02 0.  1.
        1   -1    0    0  501    0  0.00000000000E+00  0.00000000000E+00 -0.23928136033E+04  0.23928136033E+04  0.50400001928E-02 0. -1.
    10030    2    1    2    0    0  0.00000000000E+00  0.00000000000E+00 -0.17290680547E+04  0.30565591520E+04  0.25204915220E+04 0.  0.
        5    1    3    3  502    0 -0.10813398784E+04  0.39461241499E+03 -0.14866566344E+04  0.18802087462E+04  0.46999998093E+01 0. -1.
       -5    1    3    3    0  502  0.10813398784E+04 -0.39461241499E+03 -0.24241142028E+03  0.11763504059E+04  0.46999998093E+01 0.  1.
</event>
<event>
 5   0  0.8038352E-07  0.3803009E+04  0.7818609E-02  0.8045509E-01
       -2   -1    0    0    0  501  0.00000000000E+00  0.00000000000E+00  0.27121977558E+04  0.27121977558E+04  0.25500000920E-02 0.  1.
        2   -1    0    0  501    0  0.00000000000E+00  0.00000000000E+00 -0.13331328566E+04  0.13331328566E+04  0.25500000920E-02 0. -1.
    10030    2    1    2    0    0  0.00000000000E+00  0.00000000000E+00  0.13790648993E+04  0.40453306124E+04  0.38030093041E+04 0.  0.
        2    1    3    3  502    0 -0.17090422886E+04  0.74780518470E+03  0.10813532041E+04  0.21562381340E+04  0.25500000920E-02 0. -1.
       -2    1    3    3    0  502  0.17090422886E+04 -0.74780518470E+03  0.29771169518E+03  0.18890924784E+04  0.25500000920E-02 0.  1.
</event>
<event>
 5   0  0.2529875E-07  0.2839725E+04  0.7818609E-02  0.8291040E-01
        1   -1    0    0  501    0  0.00000000000E+00  0.00000000000E+00  0.14009394275E+04  0.14009394275E+04  0.50400001928E-02 0. -1.
       -1   -1    0    0    0  501  0.00000000000E+00  0.00000000000E+00 -0.14390411855E+04  0.14390411855E+04  0.50400001928E-02 0.  1.
    10030    2    1    2    0    0  0.00000000000E+00  0.00000000000E+00 -0.38101757954E+02  0.28399806130E+04  0.28397250111E+04 0.  0.
        4    1    3    3  502    0 -0.49243635079E+03  0.88178660722E+03 -0.10171220399E+04  0.14333806324E+04  0.12699999809E+01 0.  1.
       -4    1    3    3    0  502  0.49243635079E+03 -0.88178660722E+03  0.97902028196E+03  0.14065999807E+04  0.12699999809E+01 0. -1.
</event>
<event>
 5   0  0.8421677E-07  0.3776645E+04  0.7818609E-02  0.8051185E-01
       -2   -1    0    0    0  501  0.00000000000E+00  0.00000000000E+00  0.22600050042E+04  0.22600050042E+04  0.25500000920E-02 0. -1.
        2   -1    0    0  501    0  0.00000000000E+00  0.00000000000E+00 -0.15777670825E+04  0.15777670825E+04  0.25500000920E-02 0.  1.
    10030    2    1    2    0    0  0.00000000000E+00  0.00000000000E+00  0.68223792167E+03  0.38377720867E+04  0.37766448082E+04 0.  0.
        3    1    3    3  502    0  0.85422400513E+03 -0.13687110867E+04  0.13381688752E+04  0.20961308734E+04  0.10100000352E+00 0.  1.
       -3    1    3    3    0  502 -0.85422400513E+03  0.13687110867E+04 -0.65593095357E+03  0.17416412133E+04  0.10100000352E+00 0. -1.
</event>
<event>
 5   0  0.7638805E-07  0.2813359E+04  0.7818609E-02  0.8299133E-01
        2   -1    0    0  501    0  0.00000000000E+00  0.00000000000E+00  0.22915637002E+04  0.22915637002E+04  0.25500000920E-02 0.  1.
       -2   -1    0    0    0  501  0.00000000000E+00  0.00000000000E+00 -0.86349214506E+03  0.86349214507E+03  0.25500000920E-02 0. -1.
    10030    2    1    2    0    0  0.00000000000E+00  0.00000000000E+00  0.14280715552E+04  0.31550558453E+04  0.28133590280E+04 0.  0.
        5    1    3    3  502    0  0.43187057854E+03 -0.11289549459E+04  0.15209176203E+04  0.19427465002E+04  0.46999998093E+01 0.  1.
       -5    1    3    3    0  502 -0.43187057854E+03  0.11289549459E+04 -0.92846065111E+02  0.12123093451E+04  0.46999998093E+01 0. -1.
</event>
<event>
 5   0  0.7649458E-07  0.2904804E+04  0.7818609E-02  0.8271449E-01
        2   -1    0    0  501    0  0.00000000000E+00  0.00000000000E+00  0.16709210358E+04  0.16709210358E+04  0.25500000920E-02 0. -1.
       -2   -1    0    0    0  501  0.00000000000E+00  0.00000000000E+00 -0.12624606554E+04  0.12624606554E+04  0.25500000920E-02 0.  1.
    10030    2    1    2    0    0  0.00000000000E+00  0.00000000000E+00  0.40846038036E+03  0.29333816912E+04  0.29048043417E+04 0.  0.
        4    1    3    3  502    0 -0.34822870755E+03 -0.72495317224E+03 -0.10170685730E+04  0.12966304137E+04  0.12699999809E+01 0.  1.
       -4    1    3    3    0  502  0.34822870755E+03  0.72495317224E+03  0.14255289533E+04  0.16367512775E+04  0.12699999809E+01 0. -1.
</event>
<event>
 5   0  0.2529875E-07  0.3813714E+04  0.7818609E-02  0.8043218E-01
       -1   -1    0    0    0  501  0.00000000000E+00  0.00000000000E+00  0.17877427516E+04  0.17877427516E+04  0.50400001928E-02 0. -1.
        1   -1    0    0  501    0  0.00000000000E+00  0.00000000000E+00 -0.20339079124E+04  0.20339079124E+04  0.50400001928E-02 0.  1.
    10030    2    1    2    0    0  0.00000000000E+00  0.00000000000E+00 -0.24616516073E+03  0.38216506640E+04  0.38137142671E+04 0.  0.
        1    1    3    3  502    0  0.95175704012E+03  0.12023935833E+04  0.10126392504E+04  0.18376697321E+04  0.50400001928E-02 0. -1.
       -1    1    3    3    0  502 -0.95175704012E+03 -0.12023935833E+04 -0.12588044112E+04  0.19839809319E+04  0.50400001928E-02 0.  1.
</event>
<event>
 5   0  0.7551495E-07  0.3283373E+04  0.7818609E-02  0.8167139E-01
       -2   -1    0    0    0  501  0.00000000000E+00  0.00000000000E+00  0.19407941719E+04  0.19407941719E+04  0.25500000920E-02 0.  1.
        2   -1    0    0  501    0  0.00000000000E+00  0.00000000000E+00 -0.13886760270E+04  0.13886760270E+04  0.25500000920E-02 0. -1.
    10030    2    1    2    0    0  0.00000000000E+00  0.00000000000E+00  0.55211814485E+03  0.33294701989E+04  0.32833728633E+04 0.  0.
        1    1    3    3  502    0  0.11828224426E+04  0.11360934014E+04  0.35027951704E+03  0.16770428997E+04  0.50400001928E-02 0.  1.
       -1    1    3    3    0  502 -0.11828224426E+04 -0.11360934014E+04  0.20183862781E+03  0.16524272992E+04  0.50400001928E-02 0. -1.
</event>
<event>
 5   0  0.2529875E-07  0.3653839E+04  0.7818609E-02  0.8078269E-01
        1   -1    0    0  501    0  0.00000000000E+00  0.00000000000E+00  0.28344693843E+04  0.28344693843E+04  0.50400001928E-02 0. -1.
       -1   -1    0    0    0  501  0.00000000000E+00  0.00000000000E+00 -0.11775163574E+04  0.11775163574E+04  0.50400001928E-02 0.  1.
    10030    2    1    2    0    0  0.00000000000E+00  0.00000000000E+00  0.16569530269E+04  0.40119857416E+04  0.36538385648E+04 0.  0.
        1    1    3    3  502    0 -0.70897519871E+03  0.71408778758E+03 -0.84580217400E+03  0.13145145561E+04  0.50400001928E-02 0.  1.
       -1    1    3    3    0  502  0.70897519871E+03 -0.71408778758E+03  0.25027552009E+04  0.26974711855E+04  0.50400001928E-02 0. -1.
</event>
<event>
 5   0  0.7649458E-07  0.3767194E+04  0.7818609E-02  0.8053232E-01
       -2   -1    0    0    0  501  0.00000000000E+00  0.00000000000E+00  0.19590128473E+04  0.19590128473E+04  0.25500000920E-02 0.  1.
        2   -1    0    0  501    0  0.00000000000E+00  0.00000000000E+00 -0.18110843156E+04  0.18110843156E+04  0.25500000920E-02 0. -1.
    10030    2    1    2    0    0  0.00000000000E+00  0.00000000000E+00  0.14792853168E+03  0.37700971628E+04  0.37671938849E+04 0.  0.
        4    1    3    3  502    0 -0.10115965500E+04 -0.15887768589E+04  0.93887931385E+02  0.18858303328E+04  0.12699999809E+01 0.  1.
       -4    1    3    3    0  502  0.10115965500E+04  0.15887768589E+04  0.54040600299E+02  0.18842668301E+04  0.12699999809E+01 0. -1.
</event>
<event>
 5   0  0.2529875E-07  0.2414373E+04  0.7818609E-02  0.8434142E-01
       -1   -1    0    0    0  501  0.00000000000E+00  0.00000000000E+00  0.62950584350E+03  0.62950584352E+03  0.50400001928E-02 0. -1.
        1   -1    0    0  501    0  0.00000000000E+00  0.00000000000E+00 -0.23149898400E+04  0.23149898400E+04  0.50400001928E-02 0.  1.
    10030    2    1    2    0    0  0.00000000000E+00  0.00000000000E+00 -0.16854839965E+04  0.29444956836E+04  0.24143733199E+04 0.  0.
        1    1    3    3  502    0  0.66181506014E+03  0.47474259428E+03  0.24392092719E+03  0.85022180836E+03  0.50400001928E-02 0. -1.
       -1    1    3    3    0  502 -0.66181506014E+03 -0.47474259428E+03 -0.19294049237E+04  0.20942738752E+04  0.50400001928E-02 0.  1.
</event>
<event>
 5   0  0.7638805E-07  0.3318156E+04  0.7818609E-02  0.8158291E-01
        2   -1    0    0  501    0  0.00000000000E+00  0.00000000000E+00  0.20622629317E+04  0.20622629317E+04  0.25500000920E-02 0. -1.
       -2   -1    0    0    0  501  0.00000000000E+00  0.00000000000E+00 -0.13347182613E+04  0.13347182613E+04  0.25500000920E-02 0.  1.
    10030    2    1    2    0    0  0.00000000000E+00  0.00000000000E+00  0.72754467044E+03  0.33969811930E+04  0.33181561111E+04 0.  0.
        5    1    3    3  502    0  0.12427304297E+04  0.35393871971E+03 -0.70155669125E+03  0.14703249366E+04  0.46999998093E+01 0.  1.
       -5    1    3    3    0  502 -0.12427304297E+04 -0.35393871971E+03  0.14291013617E+04  0.19266562564E+04  0.46999998093E+01 0. -1.
</event>
<event>
 5   0  0.7638805E-07  0.3741101E+04  0.7818609E-02  0.8058914E-01
        2   -1    0    0  501    0  0.00000000000E+00  0.00000000000E+00  0.20289886231E+04  0.20289886231E+04  0.25500000920E-02 0. -1.
       -2   -1    0    0    0  501  0.00000000000E+00  0.00000000000E+00 -0.17244840716E+04  0.17244840717E+04  0.25500000920E-02 0.  1.
    10030    2    1    2    0    0  0.00000000000E+00  0.00000000000E+00  0.30450455146E+03  0.37534726948E+04  0.37411006734E+04 0.  0.
        5    1    3    3  502    0  0.13132890634E+04 -0.39964133433E+03  0.14270821521E+04  0.19801583065E+04  0.46999998093E+01 0. -1.
       -5    1    3    3    0  502 -0.13132890634E+04  0.39964133433E+03 -0.11225776006E+04  0.17733143882E+04  0.46999998093E+01 0.  1.
</event>
<event>
 5   0  0.8038352E-07  0.3430309E+04  0.7818609E-02  0.8130507E-01
        2   -1    0    0  501    0  0.00000000000E+00  0.00000000000E+00  0.20808595032E+04  0.20808595032E+04  0.25500000920E-02 0. -1.
       -2   -1    0    0    0  501  0.00000000000E+00  0.00000000000E+00 -0.14137211724E+04  0.14137211724E+04  0.25500000920E-02 0.  1.
    10030    2    1    2    0    0  0.00000000000E+00  0.00000000000E+00  0.66713833085E+03  0.34945806756E+04  0.34303091035E+04 0.  0.
        2    1    3    3  502    0 -0.29217136914E+03 -0.16591545111E+04  0.56731733948E+01  0.16846928461E+04  0.25500000920E-02 0. -1.
       -2    1    3    3    0  502  0.29217136914E+03  0.16591545111E+04  0.66146515746E+03  0.18098878295E+04  0.25500000920E-02 0.  1.
</event>
<event>
 5   0  0.8038352E-07  0.3726260E+04  0.7818609E-02  0.8062167E-01
       -2   -1    0    0    0  501  0.00000000000E+00  0.00000000000E+00  0.15721249069E+04  0.15721249069E+04  0.25500000920E-02 0.  1.
        2   -1    0    0  501    0  0.00000000000E+00  0.00000000000E+00 -0.22080007176E+04  0.22080007176E+04  0.25500000920E-02 0. -1.
    10030    2    1    2    0    0  0.00000000000E+00  0.00000000000E+00 -0.63587581076E+03  0.37801256245E+04  0.37262597454E+04 0.  0.
        2    1    3    3  502    0 -0.94543672620E+03 -0.86835582779E+03  0.10519006205E+04  0.16596347075E+04  0.25500000920E-02 0.  1.
       -2    1    3    3    0  502  0.94543672620E+03  0.86835582779E+03 -0.16877764313E+04  0.21204909170E+04  0.25500000920E-02 0. -1.
</event>
<event>
 5   0  0.7551495E-07  0.3089001E+04  0.7818609E-02  0.8218763E-01
        2   -1    0    0  501    0  0.00000000000E+00  0.00000000000E+00  0.20190286277E+04  0.20190286277E+04  0.25500000920E-02 0.  1.
       -2   -1    0    0    0  501  0.00000000000E+00  0.00000000000E+00 -0.11815000955E+04  0.11815000955E+04  0.25500000920E-02 0. -1.
    10030    2    1    2    0    0  0.00000000000E+00  0.00000000000E+00  0.83752853217E+03  0.32005287232E+04  0.30890014674E+04 0.  0.
        1    1    3    3  502    0  0.12385762872E+04 -0.61876767574E+03 -0.29044754502E+03  0.14146746736E+04  0.50400001928E-02 0. -1.
       -1    1    3    3    0  502 -0.12385762872E+04  0.61876767574E+03  0.11279760772E+04  0.17858540496E+04  0.50400001928E-02 0.  1.
</event>
<event>
 5   0  0.2529875E-07  0.3759728E+04  0.7818609E-02  0.8054853E-01
        1   -1    0    0  501    0  0.00000000000E+00  0.00000000000E+00  0.15500302371E+04  0.15500302371E+04  0.50400001928E-02 0. -1.
       -1   -1    0    0    0  501  0.00000000000E+00  0.00000000000E+00 -0.22798837279E+04  0.22798837279E+04  0.50400001928E-02 0.  1.
    10030    2    1    2    0    0  0.00000000000E+00  0.00000000000E+00 -0.72985349073E+03  0.38299139650E+04  0.37597280303E+04 0.  0.
        5    1    3    3  502    0 -0.73370441321E+03 -0.13429073321E+04  0.74730941764E+03  0.17030019742E+04  0.46999998093E+01 0. -1.
       -5    1    3    3    0  502  0.73370441321E+03  0.13429073321E+04 -0.14771629084E+04  0.21269119908E+04  0.46999998093E+01 0.  1.
</event>
<event>
 5   0  0.2529875E-07  0.3802390E+04  0.7818609E-02  0.8045642E-01
        1   -1    0    0  501    0  0.00000000000E+00  0.00000000000E+00  0.24680193376E+04  0.24680193376E+04  0.50400001928E-02 0. -1.
       -1   -1    0    0    0  501  0.00000000000E+00  0.00000000000E+00 -0.14645517814E+04  0.14645517814E+04  0.50400001928E-02 0.  1.
    10030    2    1    2    0    0  0.00000000000E+00  0.00000000000E+00  0.10034675561E+04  0.39325711190E+04  0.38023898367E+04 0.  0.
        3    1    3    3  502    0  0.13082743347E+03 -0.10585302175E+04  0.21294462616E+04  0.23816262154E+04  0.10100000352E+00 0. -1.
       -3    1    3    3    0  502 -0.13082743347E+03  0.10585302175E+04 -0.11259787055E+04  0.15509449036E+04  0.10100000352E+00 0.  1.
</event>
<event>
 5   0  0.8421677E-07  0.3622305E+04  0.7818609E-02  0.8085402E-01
       -2   -1    0    0    0  501  0.00000000000E+00  0.00000000000E+00  0.15714329603E+04  0.15714329603E+04  0.25500000920E-02 0.  1.
        2   -1    0    0  501    0  0.00000000000E+00  0.00000000000E+00 -0.20874404957E+04  0.20874404958E+04  0.25500000920E-02 0. -1.
    10030    2    1    2    0    0  0.00000000000E+00  0.00000000000E+00 -0.51600753548E+03  0.36588734560E+04  0.36223046794E+04 0.  0.
        3    1    3    3  502    0 -0.95387114798E+02 -0.12905554400E+04  0.10219273634E+04  0.16489292258E+04  0.10100000352E+00 0. -1.
       -3    1    3    3    0  502  0.95387114798E+02  0.12905554400E+04 -0.15379348988E+04  0.20099442302E+04  0.10100000352E+00 0.  1.
</event>
<event>
 5   0  0.2529875E-07  0.2683420E+04  0.7818609E-02  0.8340405E-01
       -1   -1    0    0    0  501  0.00000000000E+00  0.00000000000E+00  0.10844783546E+04  0.10844783546E+04  0.50400001928E-02 0. -1.
        1   -1    0    0  501    0  0.00000000000E+00  0.00000000000E+00 -0.16599558041E+04  0.16599558041E+04  0.50400001928E-02 0.  1.
    10030    2    1    2    0    0  0.00000000000E+00  0.00000000000E+00 -0.57547744957E+03  0.27444341587E+04  0.26834203094E+04 0.  0.
        1    1    3    3  502    0  0.74656266274E+03 -0.10989114633E+03  0.84687958744E+03  0.11343001847E+04  0.50400001928E-02 0. -1.
       -1    1    3    3    0  502 -0.74656266274E+03  0.10989114633E+03 -0.14223570370E+04  0.16101339740E+04  0.50400001928E-02 0.  1.
</event>
<event>
 5   0  0.8038352E-07  0.3550653E+04  0.7818609E-02  0.8101890E-01
       -2   -1    0    0    0  501  0.00000000000E+00  0.00000000000E+00  0.13516236712E+04  0.13516236712E+04  0.25500000920E-02 0. -1.
        2   -1    0    0  501    0  0.00000000000E+00  0.00000000000E+00 -0.23318506321E+04  0.23318506321E+04  0.25500000920E-02 0.  1.
    10030    2    1    2    0    0  0.00000000000E+00  0.00000000000E+00 -0.98022696092E+03  0.36834743033E+04  0.35506531861E+04 0.  0.
        2    1    3    3  502    0 -0.48075078534E+03  0.16968448146E+04 -0.70114590922E+03  0.18978960004E+04  0.25500000920E-02 0.  1.
       -2    1    3    3    0  502  0.48075078534E+03 -0.16968448146E+04 -0.27908105170E+03  0.17855783029E+04  0.25500000920E-02 0. -1.
</event>
<event>
 5   0  0.2529875E-07  0.3815599E+04  0.7818609E-02  0.8042816E-01
       -1   -1    0    0    0  501  0.00000000000E+00  0.00000000000E+00  0.18098396227E+04  0.18098396227E+04  0.50400001928E-02 0.  1.
        1   -1    0    0  501    0  0.00000000000E+00  0.00000000000E+00 -0.20110613060E+04  0.20110613060E+04  0.50400001928E-02 0. -1.
    10030    2    1    2    0    0  0.00000000000E+00  0.00000000000E+00 -0.20122168330E+03  0.38209009288E+04  0.38155987396E+04 0.  0.
        4    1    3    3  502    0 -0.79764171924E+03 -0.11077296867E+04 -0.14352792956E+04  0.19807386603E+04  0.12699999809E+01 0. -1.
       -4    1    3    3    0  502  0.79764171924E+03  0.11077296867E+04  0.12340576123E+04  0.18401622685E+04  0.12699999809E+01 0.  1.
</event>
<event>
 5   0  0.2529875E-07  0.3787821E+04  0.7818609E-02  0.8048774E-01
        1   -1    0    0  501    0  0.00000000000E+00  0.00000000000E+00  0.19423766370E+04  0.19423766370E+04  0.50400001928E-02 0.  1.
       -1   -1    0    0    0  501  0.00000000000E+00  0.00000000000E+00 -0.18466532847E+04  0.18466532847E+04  0.50400001928E-02 0. -1.
    10030    2    1    2    0    0  0.00000000000E+00  0.00000000000E+00  0.95723352302E+02  0.37890299217E+04  0.37878205854E+04 0.  0.
        1    1    3    3  502    0 -0.88942893053E+03 -0.14618286340E+04  0.85982854763E+03  0.19150279134E+04  0.50400001928E-02 0.  1.
       -1    1    3    3    0  502  0.88942893053E+03  0.14618286340E+04 -0.76410519532E+03  0.18740020083E+04  0.50400001928E-02 0. -1.
</event>
<event>
 5   0  0.2907071E-07  0.3839413E+04  0.7818609E-02  0.8037750E-01
        1   -1    0    0  501    0  0.00000000000E+00  0.00000000000E+00  0.22187198590E+04  0.22187198590E+04  0.50400001928E-02 0.  1.
       -1   -1    0    0    0  501  0.00000000000E+00  0.00000000000E+00 -0.16609903281E+04  0.16609903281E+04  0.50400001928E-02 0. -1.
    10030    2    1    2    0    0  0.00000000000E+00  0.00000000000E+00  0.55772953092E+03  0.38797101871E+04  0.38394125731E+04 0.  0.
        2    1    3    3  502    0 -0.62342645750E+02 -0.52836696877E+03  0.21427334600E+04  0.22077963991E+04  0.25500000920E-02 0.  1.
       -2    1    3    3    0  502  0.62342645750E+02  0.52836696877E+03 -0.15850039291E+04  0.16719137880E+04  0.25500000920E-02 0. -1.
</event>
<event>
 5   0  0.2529875E-07  0.3758353E+04  0.7818609E-02  0.8055152E-01
        1   -1    0    0  501    0  0.00000000000E+00  0.00000000000E+00  0.20531871204E+04  0.20531871204E+04  0.50400001928E-02 0. -1.
       -1   -1    0    0    0  501  0.00000000000E+00  0.00000000000E+00 -0.17199139348E+04  0.17199139349E+04  0.50400001928E-02 0.  1.
    10030    2    1    2    0    0  0.00000000000E+00  0.00000000000E+00  0.33327318555E+03  0.37731010553E+04  0.37583534369E+04 0.  0.
        5    1    3    3  502    0  0.12349423037E+04  0.13154938966E+04  0.69374577784E+03  0.19331094071E+04  0.46999998093E+01 0. -1.
       -5    1    3    3    0  502 -0.12349423037E+04 -0.13154938966E+04 -0.36047259229E+03  0.18399916482E+04  0.46999998093E+01 0.  1.
</event>
<event>
 5   0  0.7649458E-07  0.3935314E+04  0.7818609E-02  0.8017724E-01
        2   -1    0    0  501    0  0.00000000000E+00  0.00000000000E+00  0.21512042901E+04  0.21512042901E+04  0.25500000920E-02 0.  1.
       -2   -1    0    0    0  501  0.00000000000E+00  0.00000000000E+00 -0.17997702513E+04  0.17997702513E+04  0.25500000920E-02 0. -1.
    10030    2    1    2    0    0  0.00000000000E+00  0.00000000000E+00  0.35143403876E+03  0.39509745414E+04  0.39353137033E+04 0.  0.
        4    1    3    3  502    0  0.93172300681E+03 -0.12205135731E+04  0.14110243166E+04  0.20853662456E+04  0.12699999809E+01 0.  1.
       -4    1    3    3    0  502 -0.93172300681E+03  0.12205135731E+04 -0.10595902778E+04  0.18656082958E+04  0.12699999809E+01 0. -1.
</event>
<event>
 5   0  0.7649458E-07  0.3794071E+04  0.7818609E-02  0.8047428E-01
       -2   -1    0    0    0  501  0.00000000000E+00  0.00000000000E+00  0.19386682303E+04  0.19386682303E+04  0.25500000920E-02 0. -1.
        2   -1    0    0  501    0  0.00000000000E+00  0.00000000000E+00 -0.18562965852E+04  0.18562965852E+04  0.25500000920E-02 0.  1.
    10030    2    1    2    0    0  0.00000000000E+00  0.00000000000E+00  0.82371645083E+02  0.37949648155E+04  0.37940707509E+04 0.  0.
        4    1    3    3  502    0  0.55450492481E+03 -0.81740663622E+03 -0.15787983408E+04  0.18623198260E+04  0.12699999809E+01 0.  1.
       -4    1    3    3    0  502 -0.55450492481E+03  0.81740663622E+03  0.16611699859E+04  0.19326449895E+04  0.12699999809E+01 0. -1.
</event>
<event>
 5   0  0.2907071E-07  0.3166080E+04  0.7818609E-02  0.8197833E-01
       -1   -1    0    0    0  501  0.00000000000E+00  0.00000000000E+00  0.19263138926E+04  0.19263138926E+04  0.50400001928E-02 0.  1.
        1   -1    0    0  501    0  0.00000000000E+00  0.00000000000E+00 -0.13009382369E+04  0.13009382369E+04  0.50400001928E-02 0. -1.
    10030    2    1    2    0    0  0.00000000000E+00  0.00000000000E+00  0.62537565565E+03  0.32272521295E+04  0.31660798469E+04 0.  0.
        2    1    3    3  502    0  0.57152627145E+02 -0.12929772487E+04  0.12418698131E+04  0.17936825865E+04  0.25500000920E-02 0.  1.
       -2    1    3    3    0  502 -0.57152627145E+02  0.12929772487E+04 -0.61649415747E+03  0.14335695430E+04  0.25500000920E-02 0. -1.
</event>
<event>
 5   0  0.7649458E-07  0.3859656E+04  0.7818609E-02  0.8033473E-01
       -2   -1    0    0    0  501  0.00000000000E+00  0.00000000000E+00  0.13401552478E+04  0.13401552478E+04  0.25500000920E-02 0. -1.
        2   -1    0    0  501    0  0.00000000000E+00  0.00000000000E+00 -0.27789589863E+04  0.27789589863E+04  0.25500000920E-02 0.  1.
    10030    2    1    2    0    0  0.00000000000E+00  0.00000000000E+00 -0.14388037385E+04  0.41191142341E+04  0.38596561862E+04 0.  0.
        4    1    3    3  502    0  0.19981337046E+03  0.15840904083E+03  0.13220974637E+04  0.13464628192E+04  0.12699999809E+01 0. -1.
       -4    1    3    3    0  502 -0.19981337046E+03 -0.15840904083E+03 -0.27609012022E+04  0.27726514149E+04  0.12699999809E+01 0.  1.
</event>
<event>
 5   0  0.7551495E-07  0.3869688E+04  0.7818609E-02  0.8031363E-01
       -2   -1    0    0    0  501  0.00000000000E+00  0.00000000000E+00  0.19256602609E+04  0.19256602609E+04  0.25500000920E-02 0. -1.
        2   -1    0    0  501    0  0.00000000000E+00  0.00000000000E+00 -0.19440719647E+04  0.19440719647E+04  0.25500000920E-02 0.  1.
    10030    2    1    2    0    0  0.00000000000E+00  0.00000000000E+00 -0.18411703748E+02  0.38697322256E+04  0.38696884251E+04 0.  0.
        1    1    3    3  502    0  0.85222742457E+03 -0.17138320741E+04  0.27383474402E+03  0.19335194409E+04  0.50400001928E-02 0. -1.
       -1    1    3    3    0  502 -0.85222742457E+03  0.17138320741E+04 -0.29224644777E+03  0.19362127847E+04  0.50400001928E-02 0.  1.
</event>
<event>
 5   0  0.7649458E-07  0.3770513E+04  0.7818609E-02  0.8052513E-01
       -2   -1    0    0    0  501  0.00000000000E+00  0.00000000000E+00  0.22211299954E+04  0.22211299954E+04  0.25500000920E-02 0.  1.
        2   -1    0    0  501    0  0.00000000000E+00  0.00000000000E+00 -0.16001727584E+04  0.16001727584E+04  0.25500000920E-02 0. -1.
    10030    2    1    2    0    0  0.00000000000E+00  0.00000000000E+00  0.62095723703E+03  0.38213027538E+04  0.37705128094E+04 0.  0.
        4    1    3    3  502    0 -0.18319426186E+04  0.35101914253E+03  0.58795838891E+03  0.19557415157E+04  0.12699999809E+01 0.  1.
       -4    1    3    3    0  502  0.18319426186E+04 -0.35101914253E+03  0.32998848111E+02  0.18655612381E+04  0.12699999809E+01 0. -1.
</event>
<event>
 5   0  0.2529875E-07  0.3781072E+04  0.7818609E-02  0.8050229E-01
       -1   -1    0    0    0  501  0.00000000000E+00  0.00000000000E+00  0.32223670854E+04  0.32223670854E+04  0.50400001928E-02 0.  1.
        1   -1    0    0  501    0  0.00000000000E+00  0.00000000000E+00 -0.11091616330E+04  0.11091616330E+04  0.50400001928E-02 0. -1.
    10030    2    1    2    0    0  0.00000000000E+00  0.00000000000E+00  0.21132054524E+04  0.43315287184E+04  0.37810717732E+04 0.  0.
        5    1    3    3  502    0  0.38915452073E+03 -0.47872328347E+03  0.31037959136E+04  0.31645202458E+04  0.46999998093E+01 0.  1.
       -5    1    3    3    0  502 -0.38915452073E+03  0.47872328347E+03 -0.99059046122E+03  0.11670084725E+04  0.46999998093E+01 0. -1.
</event>
<event>
 5   0  0.7638805E-07  0.3714233E+04  0.7818609E-02  0.8064815E-01
       -2   -1    0    0    0  501  0.00000000000E+00  0.00000000000E+00  0.14960152944E+04  0.14960152944E+04  0.25500000920E-02 0. -1.
        2   -1    0    0  501    0  0.00000000000E+00  0.00000000000E+00 -0.23053787536E+04  0.23053787536E+04  0.25500000920E-02 0.  1.
    10030    2    1    2    0    0  0.00000000000E+00  0.00000000000E+00 -0.80936345913E+03  0.38013940480E+04  0.37142330970E+04 0.  0.
        5    1    3    3  502    0  0.38899933719E+03 -0.12653825224E+03 -0.22586903550E+04  0.22954382204E+04  0.46999998093E+01 0.  1.
       -5    1    3    3    0  502 -0.38899933719E+03  0.12653825224E+03  0.14493268959E+04  0.15059558276E+04  0.46999998093E+01 0. -1.
</event>
<event>
 5   0  0.2529875E-07  0.2955406E+04  0.7818609E-02  0.8256581E-01
       -1   -1    0    0    0  501  0.00000000000E+00  0.00000000000E+00  0.21053216854E+04  0.21053216854E+04  0.50400001928E-02 0.  1.
        1   -1    0    0  501    0  0.00000000000E+00  0.00000000000E+00 -0.10371839345E+04  0.10371839345E+04  0.50400001928E-02 0. -1.
    10030    2    1    2    0    0  0.00000000000E+00  0.00000000000E+00  0.10681377509E+04  0.31425056199E+04  0.29554057786E+04 0.  0.
        5    1    3    3  502    0  0.52643007257E+03  0.20228677712E+03 -0.91824560063E+03  0.10776110776E+04  0.46999998093E+01 0. -1.
       -5    1    3    3    0  502 -0.52643007257E+03 -0.20228677712E+03  0.19863833516E+04  0.20648945423E+04  0.46999998093E+01 0.  1.
</event>
<event>
 5   0  0.2529875E-07  0.3815727E+04  0.7818609E-02  0.8042788E-01
       -1   -1    0    0    0  501  0.00000000000E+00  0.00000000000E+00  0.16531076876E+04  0.16531076876E+04  0.50400001928E-02 0. -1.
        1   -1    0    0  501    0  0.00000000000E+00  0.00000000000E+00 -0.22018784607E+04  0.22018784607E+04  0.50400001928E-02 0.  1.
    10030    2    1    2    0    0  0.00000000000E+00  0.00000000000E+00 -0.54877077314E+03  0.38549861483E+04  0.38157265156E+04 0.  0.
        3    1    3    3  502    0 -0.14566099471E+03 -0.10372538823E+04 -0.18854175054E+04  0.21568291359E+04  0.10100000352E+00 0.  1.
       -3    1    3    3    0  502  0.14566099471E+03  0.10372538823E+04  0.13366467323E+04  0.16981570124E+04  0.10100000352E+00 0. -1.
</event>
<event>
 5   0  0.8421677E-07  0.3750344E+04  0.7818609E-02  0.8056896E-01
        2   -1    0    0  501    0  0.00000000000E+00  0.00000000000E+00  0.20827546298E+04  0.20827546298E+04  0.25500000920E-02 0.  1.
       -2   -1    0    0    0  501  0.00000000000E+00  0.00000000000E+00 -0.16882783478E+04  0.16882783478E+04  0.25500000920E-02 0. -1.
    10030    2    1    2    0    0  0.00000000000E+00  0.00000000000E+00  0.39447628200E+03  0.37710329775E+04  0.37503437417E+04 0.  0.
        3    1    3    3  502    0 -0.15670469872E+04  0.95679112963E+03 -0.18589405374E+03  0.18454381960E+04  0.10100000352E+00 0.  1.
       -3    1    3    3    0  502  0.15670469872E+04 -0.95679112963E+03  0.58037033574E+03  0.19255947815E+04  0.10100000352E+00 0. -1.
</event>
<event>
 5   0  0.2529875E-07  0.3826894E+04  0.7818609E-02  0.8040408E-01
        1   -1    0    0  501    0  0.00000000000E+00  0.00000000000E+00  0.13604049549E+04  0.13604049549E+04  0.50400001928E-02 0. -1.
       -1   -1    0    0    0  501  0.00000000000E+00  0.00000000000E+00 -0.26913156306E+04  0.26913156306E+04  0.50400001928E-02 0.  1.
    10030    2    1    2    0    0  0.00000000000E+00  0.00000000000E+00 -0.13309106758E+04  0.40517205855E+04  0.38268938418E+04 0.  0.
        1    1    3    3  502    0  0.16058008636E+04 -0.56025263019E+03 -0.15937795428E+04  0.23307965708E+04  0.50400001928E-02 0.  1.
       -1    1    3    3    0  502 -0.16058008636E+04  0.56025263019E+03  0.26286886702E+03  0.17209240147E+04  0.50400001928E-02 0. -1.
</event>
<event>
 5   0  0.2529875E-07  0.3625046E+04  0.7818609E-02  0.8084779E-01
        1   -1    0    0  501    0  0.00000000000E+00  0.00000000000E+00  0.23273697657E+04  0.23273697657E+04  0.50400001928E-02 0.  1.
       -1   -1    0    0    0  501  0.00000000000E+00  0.00000000000E+00 -0.14115675564E+04  0.14115675565E+04  0.50400001928E-02 0. -1.
    10030    2    1    2    0    0  0.00000000000E+00  0.00000000000E+00  0.91580220923E+03  0.37389373221E+04  0.36250460152E+04 0.  0.
        4    1    3    3  502    0 -0.33199809756E+03  0.15066617539E+04 -0.52329431156E+03  0.16291380932E+04  0.12699999809E+01 0. -1.
       -4    1    3    3    0  502  0.33199809756E+03 -0.15066617539E+04  0.14390965208E+04  0.21097992289E+04  0.12699999809E+01 0.  1.
</event>
<event>
 5   0  0.2529875E-07  0.3856005E+04  0.7818609E-02  0.8034242E-01
        1   -1    0    0  501    0  0.00000000000E+00  0.00000000000E+00  0.19433826985E+04  0.19433826985E+04  0.50400001928E-02 0. -1.
       -1   -1    0    0    0  501  0.00000000000E+00  0.00000000000E+00 -0.19127436643E+04  0.19127436643E+04  0.50400001928E-02 0.  1.
    10030    2    1    2    0    0  0.00000000000E+00  0.00000000000E+00  0.30639034201E+02  0.38561263627E+04  0.38560046389E+04 0.  0.
        5    1    3    3  502    0 -0.14547511770E+04  0.68830526731E+03  0.10770053871E+04  0.19364988566E+04  0.46999998093E+01 0. -1.
       -5    1    3    3    0  502  0.14547511770E+04 -0.68830526731E+03 -0.10463663529E+04  0.19196275061E+04  0.46999998093E+01 0.  1.
</event>
<event>
 5   0  0.2529875E-07  0.3777869E+04  0.7818609E-02  0.8050921E-01
        1   -1    0    0  501    0  0.00000000000E+00  0.00000000000E+00  0.22267764088E+04  0.22267764088E+04  0.50400001928E-02 0. -1.
       -1   -1    0    0    0  501  0.00000000000E+00  0.00000000000E+00 -0.16023494355E+04  0.16023494355E+04  0.50400001928E-02 0.  1.
    10030    2    1    2    0    0  0.00000000000E+00  0.00000000000E+00  0.62442697332E+03  0.38291258443E+04  0.37778691992E+04 0.  0.
        1    1    3    3  502    0  0.50156480384E+02  0.27856320869E+03  0.22051607693E+04  0.22232514820E+04  0.50400001928E-02 0. -1.
       -1    1    3    3    0  502 -0.50156480384E+02 -0.27856320869E+03 -0.15807337959E+04  0.16058743623E+04  0.50400001928E-02 0.  1.
</event>
<event>
 5   0  0.2529875E-07  0.3598090E+04  0.7818609E-02  0.8090929E-01
        1   -1    0    0  501    0  0.00000000000E+00  0.00000000000E+00  0.16608328989E+04  0.16608328989E+04  0.50400001928E-02 0.  1.
       -1   -1    0    0    0  501  0.00000000000E+00  0.00000000000E+00 -0.19487591362E+04  0.19487591362E+04  0.50400001928E-02 0. -1.
    10030    2    1    2    0    0  0.00000000000E+00  0.00000000000E+00 -0.28792623722E+03  0.36095920351E+04  0.35980902076E+04 0.  0.
        1    1    3    3  502    0 -0.10382673824E+04  0.66647483259E+03  0.11695639855E+04  0.17000199340E+04  0.50400001928E-02 0.  1.
       -1    1    3    3    0  502  0.10382673824E+04 -0.66647483259E+03 -0.14574902228E+04  0.19095721011E+04  0.50400001928E-02 0. -1.
</event>
<event>
 5   0  0.7649458E-07  0.3874350E+04  0.7818609E-02  0.8030385E-01
       -2   -1    0    0    0  501  0.00000000000E+00  0.00000000000E+00  0.16584968104E+04  0.16584968104E+04  0.25500000920E-02 0. -1.
        2   -1    0    0  501    0  0.00000000000E+00  0.00000000000E+00 -0.22626795568E+04  0.22626795568E+04  0.25500000920E-02 0.  1.
    10030    2    1    2    0    0  0.00000000000E+00  0.00000000000E+00 -0.60418274639E+03  0.39211763671E+04  0.38743499211E+04 0.  0.
        4    1    3    3  502    0 -0.12593133157E+04  0.18084252007E+02  0.11875841553E+04  0.17310559800E+04  0.12699999809E+01 0. -1.
       -4    1    3    3    0  502  0.12593133157E+04 -0.18084252007E+02 -0.17917669017E+04  0.21901203871E+04  0.12699999809E+01 0.  1.
</event>
<event>
 5   0  0.2529875E-07  0.2523019E+04  0.7818609E-02  0.8394831E-01
        1   -1    0    0  501    0  0.00000000000E+00  0.00000000000E+00  0.11817850731E+04  0.11817850731E+04  0.50400001928E-02 0. -1.
       -1   -1    0    0    0  501  0.00000000000E+00  0.00000000000E+00 -0.13466117381E+04  0.13466117381E+04  0.50400001928E-02 0.  1.
    10030    2    1    2    0    0  0.00000000000E+00  0.00000000000E+00 -0.16482666506E+03  0.25283968112E+04  0.25230185503E+04 0.  0.
        4    1    3    3  502    0  0.65773623969E+03  0.68357741178E+03 -0.91575617289E+03  0.13185241826E+04  0.12699999809E+01 0.  1.
       -4    1    3    3    0  502 -0.65773623969E+03 -0.68357741178E+03  0.75092950783E+03  0.12098726286E+04  0.12699999809E+01 0. -1.
</event>
<event>
 5   0  0.2529875E-07  0.3785248E+04  0.7818609E-02  0.8049328E-01
        1   -1    0    0  501    0  0.00000000000E+00  0.00000000000E+00  0.24968457951E+04  0.24968457951E+04  0.50400001928E-02 0.  1.
       -1   -1    0    0    0  501  0.00000000000E+00  0.00000000000E+00 -0.14346205081E+04  0.14346205082E+04  0.50400001928E-02 0. -1.
    10030    2    1    2    0    0  0.00000000000E+00  0.00000000000E+00  0.10622252869E+04  0.39314663033E+04  0.37852483054E+04 0.  0.
        1    1    3    3  502    0  0.74733561621E+03  0.17385572392E+04  0.56286115558E+03  0.19743111400E+04  0.50400001928E-02 0.  1.
       -1    1    3    3    0  502 -0.74733561621E+03 -0.17385572392E+04  0.49936413137E+03  0.19571551632E+04  0.50400001928E-02 0. -1.
</event>
<event>
 5   0  0.2529875E-07  0.3785485E+04  0.7818609E-02  0.8049277E-01
        1   -1    0    0  501    0  0.00000000000E+00  0.00000000000E+00  0.25339578331E+04  0.25339578332E+04  0.50400001928E-02 0. -1.
       -1   -1    0    0    0  501  0.00000000000E+00  0.00000000000E+00 -0.14137858346E+04  0.14137858346E+04  0.50400001928E-02 0.  1.
    10030    2    1    2    0    0  0.00000000000E+00  0.00000000000E+00  0.11201719986E+04  0.39477436677E+04  0.37854847457E+04 0.  0.
        3    1    3    3  502    0  0.59145649924E+03  0.17668317456E+04  0.21270370516E+03  0.18753021314E+04  0.10100000352E+00 0.  1.
       -3    1    3    3    0  502 -0.59145649924E+03 -0.17668317456E+04  0.90746829342E+03  0.20724415363E+04  0.10100000352E+00 0. -1.
</event>
<event>
 5   0  0.2529875E-07  0.3793476E+04  0.7818609E-02  0.8047556E-01
        1   -1    0    0  501    0  0.00000000000E+00  0.00000000000E+00  0.16677708933E+04  0.16677708934E+04  0.50400001928E-02 0. -1.
       -1   -1    0    0    0  501  0.00000000000E+00  0.00000000000E+00 -0.21571403484E+04  0.21571403484E+04  0.50400001928E-02 0.  1.
    10030    2    1    2    0    0  0.00000000000E+00  0.00000000000E+00 -0.48936945505E+03  0.38249112418E+04  0.37934764457E+04 0.  0.
        5    1    3    3  502    0  0.81894847928E+03  0.67856148386E+02  0.14789582513E+04  0.16919280918E+04  0.46999998093E+01 0. -1.
       -5    1    3    3    0  502 -0.81894847928E+03 -0.67856148386E+02 -0.19683277064E+04  0.21329831500E+04  0.46999998093E+01 0.  1.
</event>
<event>
 5   0  0.7649458E-07  0.4277387E+04  0.7818609E-02  0.7950813E-01
        2   -1    0    0  501    0  0.00000000000E+00  0.00000000000E+00  0.21216692828E+04  0.21216692828E+04  0.25500000920E-02 0.  1.
       -2   -1    0    0    0  501  0.00000000000E+00  0.00000000000E+00 -0.21558544943E+04  0.21558544943E+04  0.25500000920E-02 0. -1.
    10030    2    1    2    0    0  0.00000000000E+00  0.00000000000E+00 -0.34185211551E+02  0.42775237771E+04  0.42773871739E+04 0.  0.
        4    1    3    3  502    0  0.53903717219E+03 -0.18504527928E+04  0.90990627182E+03  0.21313534779E+04  0.12699999809E+01 0.  1.
       -4    1    3    3    0  502 -0.53903717219E+03  0.18504527928E+04 -0.94409148337E+03  0.21461702992E+04  0.12699999809E+01 0. -1.
</event>
<event>
 5   0  0.2907071E-07  0.3763731E+04  0.7818609E-02  0.8053983E-01
       -1   -1    0    0    0  501  0.00000000000E+00  0.00000000000E+00  0.19478840174E+04  0.19478840174E+04  0.50400001928E-02 0.  1.
        1   -1    0    0  501    0  0.00000000000E+00  0.00000000000E+00 -0.18180845063E+04  0.18180845064E+04  0.50400001928E-02 0. -1.
    10030    2    1    2    0    0  0.00000000000E+00  0.00000000000E+00  0.12979951108E+03  0.37659685238E+04  0.37637309958E+04 0.  0.
        2    1    3    3  502    0 -0.16881436497E+03  0.11855844479E+04 -0.13876205724E+04  0.18329210638E+04  0.25500000920E-02 0. -1.
       -2    1    3    3    0  502  0.16881436497E+03 -0.11855844479E+04  0.15174200835E+04  0.19330474600E+04  0.25500000920E-02 0.  1.
</event>
<event>
 5   0  0.2529875E-07  0.3684087E+04  0.7818609E-02  0.8071497E-01
        1   -1    0    0  501    0  0.00000000000E+00  0.00000000000E+00  0.26476025600E+04  0.26476025600E+04  0.50400001928E-02 0.  1.
       -1   -1    0    0    0  501  0.00000000000E+00  0.00000000000E+00 -0.12815838260E+04  0.12815838261E+04  0.50400001928E-02 0. -1.
    10030    2    1    2    0    0  0.00000000000E+00  0.00000000000E+00  0.13660187340E+04  0.39291863861E+04  0.36840871970E+04 0.  0.
        4    1    3    3  502    0  0.10584467894E+04  0.99789031700E+03  0.18882478587E+04  0.23836057307E+04  0.12699999809E+01 0.  1.
       -4    1    3    3    0  502 -0.10584467894E+04 -0.99789031700E+03 -0.52222912471E+03  0.15455806554E+04  0.12699999809E+01 0. -1.
</event>
<event>
 5   0  0.7649458E-07  0.3725022E+04  0.7818609E-02  0.8062439E-01
       -2   -1    0    0    0  501  0.00000000000E+00  0.00000000000E+00  0.16962626598E+04  0.16962626598E+04  0.25500000920E-02 0. -1.
        2   -1    0    0  501    0  0.00000000000E+00  0.00000000000E+00 -0.20450527998E+04  0.20450527998E+04  0.25500000920E-02 0.  1.
    10030    2    1    2    0    0  0.00000000000E+00  0.00000000000E+00 -0.34879013998E+03  0.37413154596E+04  0.37250217189E+04 0.  0.
        4    1    3    3  502    0  0.83696897682E+02 -0.81212228724E+03 -0.18557537600E+04  0.20274050929E+04  0.12699999809E+01 0.  1.
       -4    1    3    3    0  502 -0.83696897682E+02  0.81212228724E+03  0.15069636200E+04  0.17139103667E+04  0.12699999809E+01 0. -1.
</event>
<event>
 5   0  0.7638805E-07  0.3323320E+04  0.7818609E-02  0.8156987E-01
       -2   -1    0    0    0  501  0.00000000000E+00  0.00000000000E+00  0.23438621461E+04  0.23438621461E+04  0.25500000920E-02 0. -1.
        2   -1    0    0  501    0  0.00000000000E+00  0.00000000000E+00 -0.11780186604E+04  0.11780186604E+04  0.25500000920E-02 0.  1.
    10030    2    1    2    0    0  0.00000000000E+00  0.00000000000E+00  0.11658434857E+04  0.35218808065E+04  0.33233196329E+04 0.  0.
        5    1    3    3  502    0 -0.14143636610E+04  0.34647280789E+02 -0.34062053579E+03  0.14552214399E+04  0.46999998093E+01 0.  1.
       -5    1    3    3    0  502  0.14143636610E+04 -0.34647280789E+02  0.15064640215E+04  0.20666593666E+04  0.46999998093E+01 0. -1.
</event>
<event>
 5   0  0.2529875E-07  0.2609656E+04  0.7818609E-02  0.8364929E-01
        1   -1    0    0  501    0  0.00000000000E+00  0.00000000000E+00  0.14854816869E+04  0.14854816869E+04  0.50400001928E-02 0.  1.
       -1   -1    0    0    0  501  0.00000000000E+00  0.00000000000E+00 -0.11461441026E+04  0.11461441026E+04  0.50400001928E-02 0. -1.
    10030    2    1    2    0    0  0.00000000000E+00  0.00000000000E+00  0.33933758427E+03  0.26316257895E+04  0.26096559735E+04 0.  0.
        4    1    3    3  502    0  0.83350709037E+03  0.29042552598E+03  0.11387446502E+04  0.14407713375E+04  0.12699999809E+01 0.  1.
       -4    1    3    3    0  502 -0.83350709037E+03 -0.29042552598E+03 -0.79940706594E+03  0.11908544520E+04  0.12699999809E+01 0. -1.
</event>
<event>
 5   0  0.7649458E-07  0.3832630E+04  0.7818609E-02  0.8039189E-01
        2   -1    0    0  501    0  0.00000000000E+00  0.00000000000E+00  0.13064798133E+04  0.13064798133E+04  0.25500000920E-02 0. -1.
       -2   -1    0    0    0  501  0.00000000000E+00  0.00000000000E+00 -0.28108077733E+04  0.28108077733E+04  0.25500000920E-02 0.  1.
    10030    2    1    2    0    0  0.00000000000E+00  0.00000000000E+00 -0.15043279600E+04  0.41172875866E+04  0.38326302273E+04 0.  0.
        4    1    3    3  502    0  0.78845458369E+03  0.13097629198E+04 -0.19934584888E+04  0.25121739383E+04  0.12699999809E+01 0.  1.
       -4    1    3    3    0  502 -0.78845458369E+03 -0.13097629198E+04  0.48913052886E+03  0.16051136483E+04  0.12699999809E+01 0. -1.
</event>
<event>
 5   0  0.8421677E-07  0.3880259E+04  0.7818609E-02  0.8029147E-01
        2   -1    0    0  501    0  0.00000000000E+00  0.00000000000E+00  0.16691630292E+04  0.16691630292E+04  0.25500000920E-02 0. -1.
       -2   -1    0    0    0  501  0.00000000000E+00  0.00000000000E+00 -0.22550842737E+04  0.22550842737E+04  0.25500000920E-02 0.  1.
    10030    2    1    2    0    0  0.00000000000E+00  0.00000000000E+00 -0.58592124451E+03  0.39242473029E+04  0.38802594229E+04 0.  0.
        3    1    3    3  502    0  0.44850047307E+03 -0.76616325332E+03  0.14516881883E+04  0.17016337477E+04  0.10100000352E+00 0. -1.
       -3    1    3    3    0  502 -0.44850047307E+03  0.76616325332E+03 -0.20376094328E+04  0.22226135552E+04  0.10100000352E+00 0.  1.
</event>
<event>
 5   0  0.2529875E-07  0.3622528E+04  0.7818609E-02  0.8085351E-01
        1   -1    0    0  501    0  0.00000000000E+00  0.00000000000E+00  0.24498350673E+04  0.24498350673E+04  0.50400001928E-02 0.  1.
       -1   -1    0    0    0  501  0.00000000000E+00  0.00000000000E+00 -0.13391418776E+04  0.13391418776E+04  0.50400001928E-02 0. -1.
    10030    2    1    2    0    0  0.00000000000E+00  0.00000000000E+00  0.11106931897E+04  0.37889769449E+04  0.36225276987E+04 0.  0.
        5    1    3    3  502    0 -0.14370383846E+03  0.12711442545E+04 -0.78583337589E+03  0.15013376348E+04  0.46999998093E+01 0. -1.
       -5    1    3    3    0  502  0.14370383846E+03 -0.12711442545E+04  0.18965265656E+04  0.22876393101E+04  0.46999998093E+01 0.  1.
</event>
<event>
 5   0  0.8038352E-07  0.3800759E+04  0.7818609E-02  0.8045992E-01
       -2   -1    0    0    0  501  0.00000000000E+00  0.00000000000E+00  0.24154783654E+04  0.24154783654E+04  0.25500000920E-02 0.  1.
        2   -1    0    0  501    0  0.00000000000E+00  0.00000000000E+00 -0.14951249767E+04  0.14951249767E+04  0.25500000920E-02 0. -1.
    10030    2    1    2    0    0  0.00000000000E+00  0.00000000000E+00  0.92035338869E+03  0.39106033422E+04  0.38007588900E+04 0.  0.
        2    1    3    3  502    0 -0.16203311765E+04  0.70794253087E+03  0.11765652018E+04  0.21239024042E+04  0.25500000920E-02 0. -1.
       -2    1    3    3    0  502  0.16203311765E+04 -0.70794253087E+03 -0.25621181310E+03  0.17867009380E+04  0.25500000920E-02 0.  1.
</event>
<event>
 5   0  0.2529875E-07  0.3758616E+04  0.7818609E-02  0.8055095E-01
       -3   -1    0    0    0  501  0.00000000000E+00  0.00000000000E+00  0.30794051376E+04  0.30794051392E+04  0.10100000352E+00 0.  1.
        3   -1    0    0  501    0  0.00000000000E+00  0.00000000000E+00 -0.11469091898E+04  0.11469091943E+04  0.10100000352E+00 0. -1.
    10030    2    1    2    0    0  0.00000000000E+00  0.00000000000E+00  0.19324959477E+04  0.42263143335E+04  0.37586157369E+04 0.  0.
        1    1    3    3  502    0  0.10517189349E+04 -0.15346707031E+04  0.66775120346E+03  0.19766685495E+04  0.50400001928E-02 0.  1.
       -1    1    3    3    0  502 -0.10517189349E+04  0.15346707031E+04  0.12647447443E+04  0.22496457839E+04  0.50400001928E-02 0. -1.
</event>
<event>
 5   0  0.8038352E-07  0.3753337E+04  0.7818609E-02  0.8056243E-01
       -2   -1    0    0    0  501  0.00000000000E+00  0.00000000000E+00  0.18906587674E+04  0.18906587674E+04  0.25500000920E-02 0. -1.
        2   -1    0    0  501    0  0.00000000000E+00  0.00000000000E+00 -0.18627817040E+04  0.18627817040E+04  0.25500000920E-02 0.  1.
    10030    2    1    2    0    0  0.00000000000E+00  0.00000000000E+00  0.27877063423E+02  0.37534404714E+04  0.37533369475E+04 0.  0.
        2    1    3    3  502    0 -0.14551666414E+04 -0.17800998994E+03  0.11855881265E+04  0.18854221587E+04  0.25500000920E-02 0. -1.
       -2    1    3    3    0  502  0.14551666414E+04  0.17800998994E+03 -0.11577110631E+04  0.18680183127E+04  0.25500000920E-02 0.  1.
</event>
<event>
 5   0  0.2529875E-07  0.3584423E+04  0.7818609E-02  0.8094069E-01
       -1   -1    0    0    0  501  0.00000000000E+00  0.00000000000E+00  0.14723357049E+04  0.14723357049E+04  0.50400001928E-02 0.  1.
        1   -1    0    0  501    0  0.00000000000E+00  0.00000000000E+00 -0.21815823634E+04  0.21815823634E+04  0.50400001928E-02 0. -1.
    10030    2    1    2    0    0  0.00000000000E+00  0.00000000000E+00 -0.70924665853E+03  0.36539180684E+04  0.35844227468E+04 0.  0.
        3    1    3    3  502    0 -0.76441042942E+03 -0.95114962218E+02 -0.20042224913E+04  0.21471557851E+04  0.10100000352E+00 0. -1.
       -3    1    3    3    0  502  0.76441042942E+03  0.95114962218E+02  0.12949758328E+04  0.15067622833E+04  0.10100000352E+00 0.  1.
</event>
<event>
 5   0  0.7551495E-07  0.3300248E+04  0.7818609E-02  0.8162832E-01
        2   -1    0    0  501    0  0.00000000000E+00  0.00000000000E+00  0.25937470598E+04  0.25937470598E+04  0.25500000920E-02 0. -1.
       -2   -1    0    0    0  501  0.00000000000E+00  0.00000000000E+00 -0.10497972326E+04  0.10497972326E+04  0.25500000920E-02 0.  1.
    10030    2    1    2    0    0  0.00000000000E+00  0.00000000000E+00  0.15439498272E+04  0.36435442924E+04  0.33002475576E+04 0.  0.
        1    1    3    3  502    0 -0.77491234771E+03 -0.14513334599E+04  0.63210568481E+03  0.17625026398E+04  0.50400001928E-02 0.  1.
       -1    1    3    3    0  502  0.77491234771E+03  0.14513334599E+04  0.91184414242E+03  0.18810416526E+04  0.50400001928E-02 0. -1.
</event>
<event>
 5   0  0.2529875E-07  0.3808159E+04  0.7818609E-02  0.8044406E-01
       -1   -1    0    0    0  501  0.00000000000E+00  0.00000000000E+00  0.12617204464E+04  0.12617204464E+04  0.50400001928E-02 0. -1.
        1   -1    0    0  501    0  0.00000000000E+00  0.00000000000E+00 -0.28734727624E+04  0.28734727624E+04  0.50400001928E-02 0.  1.
    10030    2    1    2    0    0  0.00000000000E+00  0.00000000000E+00 -0.16117523160E+04  0.41351932088E+04  0.38081593121E+04 0.  0.
        4    1    3    3  502    0 -0.94772377794E+03  0.53060412523E+03  0.89233178637E+03  0.14056951045E+04  0.12699999809E+01 0. -1.
       -4    1    3    3    0  502  0.94772377794E+03 -0.53060412523E+03 -0.25040841024E+04  0.27294981043E+04  0.12699999809E+01 0.  1.
</event>
<event>
 5   0  0.2529875E-07  0.3565241E+04  0.7818609E-02  0.8098500E-01
       -1   -1    0    0    0  501  0.00000000000E+00  0.00000000000E+00  0.26217799805E+04  0.26217799805E+04  0.50400001928E-02 0. -1.
        1   -1    0    0  501    0  0.00000000000E+00  0.00000000000E+00 -0.12120528903E+04  0.12120528903E+04  0.50400001928E-02 0.  1.
    10030    2    1    2    0    0  0.00000000000E+00  0.00000000000E+00  0.14097270902E+04  0.38338328708E+04  0.35652410876E+04 0.  0.
        1    1    3    3  502    0 -0.65405023321E+03  0.75619125279E+03  0.22918969964E+04  0.25004797061E+04  0.50400001928E-02 0. -1.
       -1    1    3    3    0  502  0.65405023321E+03 -0.75619125279E+03 -0.88216990624E+03  0.13333531647E+04  0.50400001928E-02 0.  1.
</event>
<event>
 5   0  0.8038352E-07  0.3764092E+04  0.7818609E-02  0.8053905E-01
        2   -1    0    0  501    0  0.00000000000E+00  0.00000000000E+00  0.20644866571E+04  0.20644866571E+04  0.25500000920E-02 0.  1.
       -2   -1    0    0    0  501  0.00000000000E+00  0.00000000000E+00 -0.17157277374E+04  0.17157277374E+04  0.25500000920E-02 0. -1.
    10030    2    1    2    0    0  0.00000000000E+00  0.00000000000E+00  0.34875891965E+03  0.37802143945E+04  0.37640919336E+04 0.  0.
        2    1    3    3  502    0  0.19053417156E+03  0.13757474009E+04  0.14499033095E+04  0.20077857926E+04  0.25500000920E-02 0.  1.
       -2    1    3    3    0  502 -0.19053417156E+03 -0.13757474009E+04 -0.11011443899E+04  0.17724286020E+04  0.25500000920E-02 0. -1.
</event>
<event>
 5   0  0.2529875E-07  0.3475416E+04  0.7818609E-02  0.8119641E-01
       -1   -1    0    0    0  501  0.00000000000E+00  0.00000000000E+00  0.17032591614E+04  0.17032591614E+04  0.50400001928E-02 0.  1.
        1   -1    0    0  501    0  0.00000000000E+00  0.00000000000E+00 -0.17728535022E+04  0.17728535022E+04  0.50400001928E-02 0. -1.
    10030    2    1    2    0    0  0.00000000000E+00  0.00000000000E+00 -0.69594340814E+02  0.34761126637E+04  0.34754159288E+04 0.  0.
        5    1    3    3  502    0  0.16128962051E+04  0.23720470034E+03 -0.63650454319E+03  0.17501029575E+04  0.46999998093E+01 0.  1.
       -5    1    3    3    0  502 -0.16128962051E+04 -0.23720470034E+03  0.56691020238E+03  0.17260097062E+04  0.46999998093E+01 0. -1.
</event>
<event>
 5   0  0.7649458E-07  0.3770262E+04  0.7818609E-02  0.8052567E-01
       -2   -1    0    0    0  501  0.00000000000E+00  0.00000000000E+00  0.14365065347E+04  0.14365065347E+04  0.25500000920E-02 0.  1.
        2   -1    0    0  501    0  0.00000000000E+00  0.00000000000E+00 -0.24738624029E+04  0.24738624029E+04  0.25500000920E-02 0. -1.
    10030    2    1    2    0    0  0.00000000000E+00  0.00000000000E+00 -0.10373558682E+04  0.39103689376E+04  0.37702623292E+04 0.  0.
        4    1    3    3  502    0  0.10665201310E+04  0.11818702886E+04  0.52851331655E+03  0.16773820399E+04  0.12699999809E+01 0.  1.
       -4    1    3    3    0  502 -0.10665201310E+04 -0.11818702886E+04 -0.15658691847E+04  0.22329868978E+04  0.12699999809E+01 0. -1.
</event>
<event>
 5   0  0.8421677E-07  0.3643583E+04  0.7818609E-02  0.8080581E-01
       -2   -1    0    0    0  501  0.00000000000E+00  0.00000000000E+00  0.14111299941E+04  0.14111299941E+04  0.25500000920E-02 0.  1.
        2   -1    0    0  501    0  0.00000000000E+00  0.00000000000E+00 -0.23519617492E+04  0.23519617492E+04  0.25500000920E-02 0. -1.
    10030    2    1    2    0    0  0.00000000000E+00  0.00000000000E+00 -0.94083175508E+03  0.37630917433E+04  0.36435827254E+04 0.  0.
        3    1    3    3  502    0  0.44402867343E+03  0.17555040200E+04 -0.67689303384E+03  0.19331683881E+04  0.10100000352E+00 0. -1.
       -3    1    3    3    0  502 -0.44402867343E+03 -0.17555040200E+04 -0.26393872124E+03  0.18299233552E+04  0.10100000352E+00 0.  1.
</event>
<event>
 5   0  0.7638805E-07  0.3825992E+04  0.7818609E-02  0.8040600E-01
       -2   -1    0    0    0  501  0.00000000000E+00  0.00000000000E+00  0.13567106086E+04  0.13567106086E+04  0.25500000920E-02 0. -1.
        2   -1    0    0  501    0  0.00000000000E+00  0.00000000000E+00 -0.26973730551E+04  0.26973730551E+04  0.25500000920E-02 0.  1.
    10030    2    1    2    0    0  0.00000000000E+00  0.00000000000E+00 -0.13406624465E+04  0.40540836637E+04  0.38259924930E+04 0.  0.
        5    1    3    3  502    0 -0.10654150628E+04  0.11357046722E+04 -0.18476970101E+04  0.24163900119E+04  0.46999998093E+01 0.  1.
       -5    1    3    3    0  502  0.10654150628E+04 -0.11357046722E+04  0.50703456353E+03  0.16376936518E+04  0.46999998093E+01 0. -1.
</event>
<event>
 5   0  0.2529875E-07  0.3787703E+04  0.7818609E-02  0.8048799E-01
        1   -1    0    0  501    0  0.00000000000E+00  0.00000000000E+00  0.20993737176E+04  0.20993737176E+04  0.50400001928E-02 0. -1.
       -1   -1    0    0    0  501  0.00000000000E+00  0.00000000000E+00 -0.17084492361E+04  0.17084492362E+04  0.50400001928E-02 0.  1.
    10030    2    1    2    0    0  0.00000000000E+00  0.00000000000E+00  0.39092448146E+03  0.38078229538E+04  0.37877029579E+04 0.  0.
        4    1    3    3  502    0 -0.10085554764E+04  0.13128604073E+04  0.11200679079E+04  0.19988347429E+04  0.12699999809E+01 0. -1.
       -4    1    3    3    0  502  0.10085554764E+04 -0.13128604073E+04 -0.72914342647E+03  0.18089882109E+04  0.12699999809E+01 0.  1.
</event>
<event>
 5   0  0.2529875E-07  0.3795410E+04  0.7818609E-02  0.8047141E-01
       -1   -1    0    0    0  501  0.00000000000E+00  0.00000000000E+00  0.20885038807E+04  0.20885038808E+04  0.50400001928E-02 0. -1.
        1   -1    0    0  501    0  0.00000000000E+00  0.00000000000E+00 -0.17243364389E+04  0.17243364389E+04  0.50400001928E-02 0.  1.
    10030    2    1    2    0    0  0.00000000000E+00  0.00000000000E+00  0.36416744186E+03  0.38128403196E+04  0.37954095138E+04 0.  0.
        3    1    3    3  502    0  0.15237873588E+04 -0.75226393785E+03 -0.66645776862E+03  0.18253752805E+04  0.10100000352E+00 0.  1.
       -3    1    3    3    0  502 -0.15237873588E+04  0.75226393785E+03  0.10306252105E+04  0.19874650391E+04  0.10100000352E+00 0. -1.
</event>
<event>
 5   0  0.2529875E-07  0.3775668E+04  0.7818609E-02  0.8051397E-01
        1   -1    0    0  501    0  0.00000000000E+00  0.00000000000E+00  0.15450644875E+04  0.15450644875E+04  0.50400001928E-02 0.  1.
       -1   -1    0    0    0  501  0.00000000000E+00  0.00000000000E+00 -0.23066464934E+04  0.23066464934E+04  0.50400001928E-02 0. -1.
    10030    2    1    2    0    0  0.00000000000E+00  0.00000000000E+00 -0.76158200592E+03  0.38517109809E+04  0.37756681963E+04 0.  0.
        5    1    3    3  502    0  0.67688612040E+03 -0.13890103776E+04 -0.14872415195E+04  0.21446291233E+04  0.46999998093E+01 0. -1.
       -5    1    3    3    0  502 -0.67688612040E+03  0.13890103776E+04  0.72565951363E+03  0.17070818576E+04  0.46999998093E+01 0.  1.
</event>
<event>
 5   0  0.7649458E-07  0.3782469E+04  0.7818609E-02  0.8049927E-01
       -2   -1    0    0    0  501  0.00000000000E+00  0.00000000000E+00  0.14888091734E+04  0.14888091734E+04  0.25500000920E-02 0.  1.
        2   -1    0    0  501    0  0.00000000000E+00  0.00000000000E+00 -0.24024358167E+04  0.24024358167E+04  0.25500000920E-02 0. -1.
    10030    2    1    2    0    0  0.00000000000E+00  0.00000000000E+00 -0.91362664332E+03  0.38912449901E+04  0.37824692900E+04 0.  0.
        4    1    3    3  502    0  0.75776714436E+03  0.17181052868E+04 -0.22523984205E+03  0.18912512845E+04  0.12699999809E+01 0.  1.
       -4    1    3    3    0  502 -0.75776714436E+03 -0.17181052868E+04 -0.68838680127E+03  0.19999937057E+04  0.12699999809E+01 0. -1.
</event>
<event>
 5   0  0.7649458E-07  0.3784384E+04  0.7818609E-02  0.8049514E-01
        2   -1    0    0  501    0  0.00000000000E+00  0.00000000000E+00  0.20787374778E+04  0.20787374778E+04  0.25500000920E-02 0. -1.
       -2   -1    0    0    0  501  0.00000000000E+00  0.00000000000E+00 -0.17223869248E+04  0.17223869248E+04  0.25500000920E-02 0.  1.
    10030    2    1    2    0    0  0.00000000000E+00  0.00000000000E+00  0.35635055306E+03  0.38011244026E+04  0.37843838346E+04 0.  0.
        4    1    3    3  502    0 -0.65058022697E+02  0.14541617353E+04  0.13924771810E+04  0.20144014524E+04  0.12699999809E+01 0. -1.
       -4    1    3    3    0  502  0.65058022697E+02 -0.14541617353E+04 -0.10361266280E+04  0.17867229502E+04  0.12699999809E+01 0.  1.
</event>
<event>
 5   0  0.7638805E-07  0.3692651E+04  0.7818609E-02  0.8069592E-01
        2   -1    0    0  501    0  0.00000000000E+00  0.00000000000E+00  0.24186199528E+04  0.24186199529E+04  0.25500000920E-02 0. -1.
       -2   -1    0    0    0  501  0.00000000000E+00  0.00000000000E+00 -0.14094477698E+04  0.14094477698E+04  0.25500000920E-02 0.  1.
    10030    2    1    2    0    0  0.00000000000E+00  0.00000000000E+00  0.10091721830E+04  0.38280677227E+04  0.36926513502E+04 0.  0.
        5    1    3    3  502    0  0.11032261978E+04  0.31716196360E+03 -0.99454201024E+03  0.15188270655E+04  0.46999998093E+01 0.  1.
       -5    1    3    3    0  502 -0.11032261978E+04 -0.31716196360E+03  0.20037141933E+04  0.23092406572E+04  0.46999998093E+01 0. -1.
</event>
<event>
 5   0  0.7649458E-07  0.3452310E+04  0.7818609E-02  0.8125186E-01
        2   -1    0    0  501    0  0.00000000000E+00  0.00000000000E+00  0.24895136406E+04  0.24895136406E+04  0.25500000920E-02 0. -1.
       -2   -1    0    0    0  501  0.00000000000E+00  0.00000000000E+00 -0.11968647764E+04  0.11968647764E+04  0.25500000920E-02 0.  1.
    10030    2    1    2    0    0  0.00000000000E+00  0.00000000000E+00  0.12926488642E+04  0.36863784170E+04  0.34523100596E+04 0.  0.
        4    1    3    3  502    0  0.77947645096E+03 -0.50562060239E+03  0.21997352084E+04  0.23879012398E+04  0.12699999809E+01 0. -1.
       -4    1    3    3    0  502 -0.77947645096E+03  0.50562060239E+03 -0.90708634416E+03  0.12984771772E+04  0.12699999809E+01 0.  1.
</event>
<event>
 5   0  0.8038352E-07  0.3045035E+04  0.7818609E-02  0.8230986E-01
       -2   -1    0    0    0  501  0.00000000000E+00  0.00000000000E+00  0.12521981012E+04  0.12521981012E+04  0.25500000920E-02 0. -1.
        2   -1    0    0  501    0  0.00000000000E+00  0.00000000000E+00 -0.18511928011E+04  0.18511928011E+04  0.25500000920E-02 0.  1.
    10030    2    1    2    0    0  0.00000000000E+00  0.00000000000E+00 -0.59899469992E+03  0.31033909023E+04  0.30450353762E+04 0.  0.
        2    1    3    3  502    0  0.12445435873E+03  0.10289895912E+04 -0.14361060451E+04  0.17710756729E+04  0.25500000920E-02 0.  1.
       -2    1    3    3    0  502 -0.12445435873E+03 -0.10289895912E+04  0.83711134522E+03  0.13323152294E+04  0.25500000920E-02 0. -1.
</event>
<event>
 5   0  0.7638805E-07  0.2812999E+04  0.7818609E-02  0.8299244E-01
       -2   -1    0    0    0  501  0.00000000000E+00  0.00000000000E+00  0.13681557548E+04  0.13681557548E+04  0.25500000920E-02 0.  1.
        2   -1    0    0  501    0  0.00000000000E+00  0.00000000000E+00 -0.14459177514E+04  0.14459177514E+04  0.25500000920E-02 0. -1.
    10030    2    1    2    0    0  0.00000000000E+00  0.00000000000E+00 -0.77761996678E+02  0.28140735062E+04  0.28129988927E+04 0.  0.
        5    1    3    3  502    0  0.13379806869E+04  0.82658853820E+02  0.38695026241E+03  0.13952696514E+04  0.46999998093E+01 0.  1.
       -5    1    3    3    0  502 -0.13379806869E+04 -0.82658853820E+02 -0.46471225909E+03  0.14188038548E+04  0.46999998093E+01 0. -1.
</event>
<event>
 5   0  0.7638805E-07  0.3679630E+04  0.7818609E-02  0.8072491E-01
        2   -1    0    0  501    0  0.00000000000E+00  0.00000000000E+00  0.12913540733E+04  0.12913540733E+04  0.25500000920E-02 0.  1.
       -2   -1    0    0    0  501  0.00000000000E+00  0.00000000000E+00 -0.26212165257E+04  0.26212165257E+04  0.25500000920E-02 0. -1.
    10030    2    1    2    0    0  0.00000000000E+00  0.00000000000E+00 -0.13298624524E+04  0.39125705990E+04  0.36796296756E+04 0.  0.
        5    1    3    3  502    0  0.33874003777E+03 -0.15892191888E+04 -0.15824191831E+04  0.22681346971E+04  0.46999998093E+01 0. -1.
       -5    1    3    3    0  502 -0.33874003777E+03  0.15892191888E+04  0.25255673066E+03  0.16444359019E+04  0.46999998093E+01 0.  1.
</event>
<event>
 5   0  0.2907071E-07  0.3730076E+04  0.7818609E-02  0.8061329E-01
        1   -1    0    0  501    0  0.00000000000E+00  0.00000000000E+00  0.14725139551E+04  0.14725139551E+04  0.50400001928E-02 0. -1.
       -1   -1    0    0    0  501  0.00000000000E+00  0.00000000000E+00 -0.23621962438E+04  0.23621962439E+04  0.50400001928E-02 0.  1.
    10030    2    1    2    0    0  0.00000000000E+00  0.00000000000E+00 -0.88968228877E+03  0.38347101989E+04  0.37300761031E+04 0.  0.
        2    1    3    3  502    0 -0.10701929923E+04 -0.96766556435E+03 -0.16598036770E+04  0.21992357608E+04  0.25500000920E-02 0.  1.
       -2    1    3    3    0  502  0.10701929923E+04  0.96766556435E+03  0.77012138826E+03  0.16354744382E+04  0.25500000920E-02 0. -1.
</event>
<event>
 5   0  0.2907071E-07  0.3624845E+04  0.7818609E-02  0.8084824E-01
       -1   -1    0    0    0  501  0.00000000000E+00  0.00000000000E+00  0.20737565406E+04  0.20737565406E+04  0.50400001928E-02 0. -1.
        1   -1    0    0  501    0  0.00000000000E+00  0.00000000000E+00 -0.15840215135E+04  0.15840215135E+04  0.50400001928E-02 0.  1.
    10030    2    1    2    0    0  0.00000000000E+00  0.00000000000E+00  0.48973502715E+03  0.36577780541E+04  0.36248448100E+04 0.  0.
        2    1    3    3  502    0 -0.13516126927E+04 -0.62312999007E+03  0.12885404811E+04  0.19686250093E+04  0.25500000920E-02 0. -1.
       -2    1    3    3    0  502  0.13516126927E+04  0.62312999007E+03 -0.79880545394E+03  0.16891530448E+04  0.25500000920E-02 0.  1.
</event>
<event>
 5   0  0.2529875E-07  0.3745008E+04  0.7818609E-02  0.8058060E-01
       -4   -1    0    0    0  501  0.00000000000E+00  0.00000000000E+00  0.16287594650E+04  0.16287599602E+04  0.12699999809E+01 0.  1.
        4   -1    0    0  501    0  0.00000000000E+00  0.00000000000E+00 -0.21527243684E+04  0.21527247430E+04  0.12699999809E+01 0. -1.
    10030    2    1    2    0    0  0.00000000000E+00  0.00000000000E+00 -0.52396490332E+03  0.37814847032E+04  0.37450083231E+04 0.  0.
        1    1    3    3  502    0 -0.24685877426E+03  0.58603596191E+03  0.15163914132E+04  0.16443297483E+04  0.50400001928E-02 0.  1.
       -1    1    3    3    0  502  0.24685877426E+03 -0.58603596191E+03 -0.20403563165E+04  0.21371549549E+04  0.50400001928E-02 0. -1.
</event>
<event>
 5   0  0.2529875E-07  0.3703534E+04  0.7818609E-02  0.8067179E-01
        1   -1    0    0  501    0  0.00000000000E+00  0.00000000000E+00  0.19730814405E+04  0.19730814405E+04  0.50400001928E-02 0. -1.
       -1   -1    0    0    0  501  0.00000000000E+00  0.00000000000E+00 -0.17379115187E+04  0.17379115187E+04  0.50400001928E-02 0.  1.
    10030    2    1    2    0    0  0.00000000000E+00  0.00000000000E+00  0.23516992183E+03  0.37109929592E+04  0.37035339679E+04 0.  0.
        5    1    3    3  502    0 -0.12501957099E+04  0.65835240240E+03 -0.10817390411E+04  0.17794939286E+04  0.46999998093E+01 0.  1.
       -5    1    3    3    0  502  0.12501957099E+04 -0.65835240240E+03  0.13169089630E+04  0.19314990307E+04  0.46999998093E+01 0. -1.
</event>
<event>
 5   0  0.8421677E-07  0.3671333E+04  0.7818609E-02  0.8074345E-01
        2   -1    0    0  501    0  0.00000000000E+00  0.00000000000E+00  0.15045733289E+04  0.15045733289E+04  0.25500000920E-02 0.  1.
       -2   -1    0    0    0  501  0.00000000000E+00  0.00000000000E+00 -0.22396191628E+04  0.22396191628E+04  0.25500000920E-02 0. -1.
    10030    2    1    2    0    0  0.00000000000E+00  0.00000000000E+00 -0.73504583389E+03  0.37441924917E+04  0.36713328693E+04 0.  0.
        3    1    3    3  502    0 -0.15066507293E+04  0.10197319195E+04 -0.61696146393E+03  0.19210650863E+04  0.10100000352E+00 0.  1.
       -3    1    3    3    0  502  0.15066507293E+04 -0.10197319195E+04 -0.11808436997E+03  0.18231274054E+04  0.10100000352E+00 0. -1.
</event>
<event>
 5   0  0.2529875E-07  0.3814597E+04  0.7818609E-02  0.8043030E-01
        1   -1    0    0  501    0  0.00000000000E+00  0.00000000000E+00  0.26505016823E+04  0.26505016824E+04  0.50400001928E-02 0.  1.
       -1   -1    0    0    0  501  0.00000000000E+00  0.00000000000E+00 -0.13724899197E+04  0.13724899197E+04  0.50400001928E-02 0. -1.
    10030    2    1    2    0    0  0.00000000000E+00  0.00000000000E+00  0.12780117626E+04  0.40229916021E+04  0.38145966189E+04 0.  0.
        3    1    3    3  502    0 -0.13934177503E+03  0.12703231996E+04  0.21322119621E+04  0.24858529770E+04  0.10100000352E+00 0.  1.
       -3    1    3    3    0  502  0.13934177503E+03 -0.12703231996E+04 -0.85420019950E+03  0.15371386251E+04  0.10100000352E+00 0. -1.
</event>
<event>
 5   0  0.2907071E-07  0.3731147E+04  0.7818609E-02  0.8061094E-01
        1   -1    0    0  501    0  0.00000000000E+00  0.00000000000E+00  0.24243498015E+04  0.24243498015E+04  0.50400001928E-02 0.  1.
       -1   -1    0    0    0  501  0.00000000000E+00  0.00000000000E+00 -0.14355870162E+04  0.14355870162E+04  0.50400001928E-02 0. -1.
    10030    2    1    2    0    0  0.00000000000E+00  0.00000000000E+00  0.98876278528E+03  0.38599368177E+04  0.37311473291E+04 0.  0.
        2    1    3    3  502    0 -0.59307280156E+03  0.35305707424E+03 -0.12986436240E+04  0.14706664842E+04  0.25500000920E-02 0. -1.
       -2    1    3    3    0  502  0.59307280156E+03 -0.35305707424E+03  0.22874064093E+04  0.23892703335E+04  0.25500000920E-02 0.  1.
</event>
<event>
 5   0  0.2529875E-07  0.3360265E+04  0.7818609E-02  0.8147728E-01
        1   -1    0    0  501    0  0.00000000000E+00  0.00000000000E+00  0.15883205932E+04  0.15883205932E+04  0.50400001928E-02 0.  1.
       -1   -1    0    0    0  501  0.00000000000E+00  0.00000000000E+00 -0.17772516990E+04  0.17772516990E+04  0.50400001928E-02 0. -1.
    10030    2    1    2    0    0  0.00000000000E+00  0.00000000000E+00 -0.18893110588E+03  0.33655722922E+04  0.33602651519E+04 0.  0.
        5    1    3    3  502    0 -0.78575542232E+03  0.90019256578E+03  0.10885286581E+04  0.16163771122E+04  0.46999998093E+01 0. -1.
       -5    1    3    3    0  502  0.78575542232E+03 -0.90019256578E+03 -0.12774597640E+04  0.17491951800E+04  0.46999998093E+01 0.  1.
</event>
<event>
 5   0  0.8038352E-07  0.2561491E+04  0.7818609E-02  0.8381401E-01
       -2   -1    0    0    0  501  0.00000000000E+00  0.00000000000E+00  0.18282432898E+04  0.18282432898E+04  0.25500000920E-02 0. -1.
        2   -1    0    0  501    0  0.00000000000E+00  0.00000000000E+00 -0.89720500490E+03  0.89720500490E+03  0.25500000920E-02 0.  1.
    10030    2    1    2    0    0  0.00000000000E+00  0.00000000000E+00  0.93103828495E+03  0.27254482947E+04  0.25614909954E+04 0.  0.
        2    1    3    3  502    0  0.53988086792E+02  0.12673615496E+04  0.65342744522E+03  0.14269153574E+04  0.25500000920E-02 0. -1.
       -2    1    3    3    0  502 -0.53988086792E+02 -0.12673615496E+04  0.27761083973E+03  0.12985329373E+04  0.25500000920E-02 0.  1.
</event>
<event>
 5   0  0.7649458E-07  0.3864224E+04  0.7818609E-02  0.8032511E-01
       -2   -1    0    0    0  501  0.00000000000E+00  0.00000000000E+00  0.16055251295E+04  0.16055251295E+04  0.25500000920E-02 0. -1.
        2   -1    0    0  501    0  0.00000000000E+00  0.00000000000E+00 -0.23251311972E+04  0.23251311972E+04  0.25500000920E-02 0.  1.
    10030    2    1    2    0    0  0.00000000000E+00  0.00000000000E+00 -0.71960606771E+03  0.39306563266E+04  0.38642238892E+04 0.  0.
        4    1    3    3  502    0 -0.17737033460E+04 -0.72329106804E+03 -0.61689593750E+03  0.20123955226E+04  0.12699999809E+01 0.  1.
       -4    1    3    3    0  502  0.17737033460E+04  0.72329106804E+03 -0.10271013021E+03  0.19182608041E+04  0.12699999809E+01 0. -1.
</event>
<event>
 5   0  0.2529875E-07  0.3066867E+04  0.7818609E-02  0.8224890E-01
        1   -1    0    0  501    0  0.00000000000E+00  0.00000000000E+00  0.23944710359E+04  0.23944710359E+04  0.50400001928E-02 0.  1.
       -1   -1    0    0    0  501  0.00000000000E+00  0.00000000000E+00 -0.98202025399E+03  0.98202025400E+03  0.50400001928E-02 0. -1.
    10030    2    1    2    0    0  0.00000000000E+00  0.00000000000E+00  0.14124507819E+04  0.33764912899E+04  0.30668674930E+04 0.  0.
        3    1    3    3  502    0 -0.11899285076E+04  0.13267126510E+03  0.17610138166E+04  0.21294837850E+04  0.10100000352E+00 0.  1.
       -3    1    3    3    0  502  0.11899285076E+04 -0.13267126510E+03 -0.34856303476E+03  0.12470075049E+04  0.10100000352E+00 0. -1.
</event>
<event>
 5   0  0.8038352E-07  0.3875361E+04  0.7818609E-02  0.8030173E-01
        2   -1    0    0  501    0  0.00000000000E+00  0.00000000000E+00  0.21383652740E+04  0.21383652740E+04  0.25500000920E-02 0.  1.
       -2   -1    0    0    0  501  0.00000000000E+00  0.00000000000E+00 -0.17558301702E+04  0.17558301702E+04  0.25500000920E-02 0. -1.
    10030    2    1    2    0    0  0.00000000000E+00  0.00000000000E+00  0.38253510387E+03  0.38941954442E+04  0.38753612802E+04 0.  0.
        2    1    3    3  502    0  0.25391948167E+02 -0.13018244994E+04 -0.12507028324E+04  0.18054499033E+04  0.25500000920E-02 0.  1.
       -2    1    3    3    0  502 -0.25391948167E+02  0.13018244994E+04  0.16332379363E+04  0.20887455409E+04  0.25500000920E-02 0. -1.
</event>
<event>
 5   0  0.2529875E-07  0.3760644E+04  0.7818609E-02  0.8054654E-01
       -1   -1    0    0    0  501  0.00000000000E+00  0.00000000000E+00  0.14300097096E+04  0.14300097096E+04  0.50400001928E-02 0.  1.
        1   -1    0    0  501    0  0.00000000000E+00  0.00000000000E+00 -0.24724384986E+04  0.24724384986E+04  0.50400001928E-02 0. -1.
    10030    2    1    2    0    0  0.00000000000E+00  0.00000000000E+00 -0.10424287889E+04  0.39024482082E+04  0.37606441254E+04 0.  0.
        5    1    3    3  502    0  0.46481907643E+03 -0.91068139920E+03 -0.21587520333E+04  0.23886460215E+04  0.46999998093E+01 0. -1.
       -5    1    3    3    0  502 -0.46481907643E+03  0.91068139920E+03  0.11163232444E+04  0.15138021867E+04  0.46999998093E+01 0.  1.
</event>
<event>
 5   0  0.2529875E-07  0.2493469E+04  0.7818609E-02  0.8405316E-01
        1   -1    0    0  501    0  0.00000000000E+00  0.00000000000E+00  0.62319663780E+03  0.62319663782E+03  0.50400001928E-02 0. -1.
       -1   -1    0    0    0  501  0.00000000000E+00  0.00000000000E+00 -0.24941517888E+04  0.24941517888E+04  0.50400001928E-02 0.  1.
    10030    2    1    2    0    0  0.00000000000E+00  0.00000000000E+00 -0.18709551510E+04  0.31173484266E+04  0.24934690766E+04 0.  0.
        4    1    3    3  502    0  0.11172912322E+04 -0.17129841112E+03 -0.27788553245E+03  0.11640037909E+04  0.12699999809E+01 0. -1.
       -4    1    3    3    0  502 -0.11172912322E+04  0.17129841112E+03 -0.15930696185E+04  0.19533446356E+04  0.12699999809E+01 0.  1.
</event>
<event>
 5   0  0.2907071E-07  0.3740074E+04  0.7818609E-02  0.8059138E-01
       -1   -1    0    0    0  501  0.00000000000E+00  0.00000000000E+00  0.23809827554E+04  0.23809827554E+04  0.50400001928E-02 0.  1.
        1   -1    0    0  501    0  0.00000000000E+00  0.00000000000E+00 -0.14687376713E+04  0.14687376713E+04  0.50400001928E-02 0. -1.
    10030    2    1    2    0    0  0.00000000000E+00  0.00000000000E+00  0.91224508408E+03  0.38497204267E+04  0.37400743670E+04 0.  0.
        2    1    3    3  502    0  0.27820567084E+03 -0.18035767604E+04  0.35798838085E+02  0.18252586345E+04  0.25500000920E-02 0.  1.
       -2    1    3    3    0  502 -0.27820567084E+03  0.18035767604E+04  0.87644624600E+03  0.20244617922E+04  0.25500000920E-02 0. -1.
</event>
<event>
 5   0  0.2529875E-07  0.3349173E+04  0.7818609E-02  0.8150495E-01
       -1   -1    0    0    0  501  0.00000000000E+00  0.00000000000E+00  0.15150597789E+04  0.15150597789E+04  0.50400001928E-02 0.  1.
        1   -1    0    0  501    0  0.00000000000E+00  0.00000000000E+00 -0.18509108163E+04  0.18509108163E+04  0.50400001928E-02 0. -1.
    10030    2    1    2    0    0  0.00000000000E+00  0.00000000000E+00 -0.33585103739E+03  0.33659705952E+04  0.33491733500E+04 0.  0.
        5    1    3    3  502    0  0.72429551176E+03 -0.59657843287E+03  0.12260088856E+04  0.15439008040E+04  0.46999998093E+01 0.  1.
       -5    1    3    3    0  502 -0.72429551176E+03  0.59657843287E+03 -0.15618599230E+04  0.18220697912E+04  0.46999998093E+01 0. -1.
</event>
<event>
 5   0  0.2529875E-07  0.3829688E+04  0.7818609E-02  0.8039814E-01
        1   -1    0    0  501    0  0.00000000000E+00  0.00000000000E+00  0.21631860444E+04  0.21631860444E+04  0.50400001928E-02 0. -1.
       -1   -1    0    0    0  501  0.00000000000E+00  0.00000000000E+00 -0.16950124657E+04  0.16950124657E+04  0.50400001928E-02 0.  1.
    10030    2    1    2    0    0  0.00000000000E+00  0.00000000000E+00  0.46817357868E+03  0.38581985102E+04  0.38296878782E+04 0.  0.
        1    1    3    3  502    0  0.93603261428E+03  0.11830781158E+03  0.19127669454E+04  0.21327989077E+04  0.50400001928E-02 0. -1.
       -1    1    3    3    0  502 -0.93603261428E+03 -0.11830781158E+03 -0.14445933667E+04  0.17253996025E+04  0.50400001928E-02 0.  1.
</event>
<event>
 5   0  0.8421677E-07  0.3593790E+04  0.7818609E-02  0.8091916E-01
       -2   -1    0    0    0  501  0.00000000000E+00  0.00000000000E+00  0.20515532211E+04  0.20515532211E+04  0.25500000920E-02 0.  1.
        2   -1    0    0  501    0  0.00000000000E+00  0.00000000000E+00 -0.15738471856E+04  0.15738471856E+04  0.25500000920E-02 0. -1.
    10030    2    1    2    0    0  0.00000000000E+00  0.00000000000E+00  0.47770603549E+03  0.36254004066E+04  0.35937897896E+04 0.  0.
        3    1    3    3  502    0  0.13249451992E+04  0.29027338317E+03  0.14278176726E+04  0.19693658203E+04  0.10100000352E+00 0.  1.
       -3    1    3    3    0  502 -0.13249451992E+04 -0.29027338317E+03 -0.95011163707E+03  0.16560345863E+04  0.10100000352E+00 0. -1.
</event>
<event>
 5   0  0.8421677E-07  0.3500210E+04  0.7818609E-02  0.8113740E-01
       -2   -1    0    0    0  501  0.00000000000E+00  0.00000000000E+00  0.12563918065E+04  0.12563918065E+04  0.25500000920E-02 0.  1.
        2   -1    0    0  501    0  0.00000000000E+00  0.00000000000E+00 -0.24378278911E+04  0.24378278911E+04  0.25500000920E-02 0. -1.
    10030    2    1    2    0    0  0.00000000000E+00  0.00000000000E+00 -0.11814360846E+04  0.36942196975E+04  0.35002097011E+04 0.  0.
        3    1    3    3  502    0  0.13210760341E+04 -0.65772587597E+03  0.40218223137E+03  0.15295737227E+04  0.10100000352E+00 0.  1.
       -3    1    3    3    0  502 -0.13210760341E+04  0.65772587597E+03 -0.15836183159E+04  0.21646459749E+04  0.10100000352E+00 0. -1.
</event>
<event>
 5   0  0.2529875E-07  0.3819846E+04  0.7818609E-02  0.8041909E-01
       -1   -1    0    0    0  501  0.00000000000E+00  0.00000000000E+00  0.14279202477E+04  0.14279202478E+04  0.50400001928E-02 0.  1.
        1   -1    0    0  501    0  0.00000000000E+00  0.00000000000E+00 -0.25546290334E+04  0.25546290334E+04  0.50400001928E-02 0. -1.
    10030    2    1    2    0    0  0.00000000000E+00  0.00000000000E+00 -0.11267087857E+04  0.39825492812E+04  0.38198463437E+04 0.  0.
        5    1    3    3  502    0 -0.60762997571E+03  0.18074440470E+04 -0.45050225264E+03  0.19593474782E+04  0.46999998093E+01 0.  1.
       -5    1    3    3    0  502  0.60762997571E+03 -0.18074440470E+04 -0.67620653306E+03  0.20232018031E+04  0.46999998093E+01 0. -1.
</event>
<event>
 5   0  0.2529875E-07  0.3795887E+04  0.7818609E-02  0.8047038E-01
        1   -1    0    0  501    0  0.00000000000E+00  0.00000000000E+00  0.22512753450E+04  0.22512753450E+04  0.50400001928E-02 0.  1.
       -1   -1    0    0    0  501  0.00000000000E+00  0.00000000000E+00 -0.16000665276E+04  0.16000665276E+04  0.50400001928E-02 0. -1.
    10030    2    1    2    0    0  0.00000000000E+00  0.00000000000E+00  0.65120881741E+03  0.38513418727E+04  0.37958874188E+04 0.  0.
        3    1    3    3  502    0 -0.30650117759E+03 -0.18646917240E+04  0.14646881305E+03  0.18953815766E+04  0.10100000352E+00 0. -1.
       -3    1    3    3    0  502  0.30650117759E+03  0.18646917240E+04  0.50474000435E+03  0.19559602961E+04  0.10100000352E+00 0.  1.
</event>
<event>
 5   0  0.2529875E-07  0.3531622E+04  0.7818609E-02  0.8106336E-01
       -1   -1    0    0    0  501  0.00000000000E+00  0.00000000000E+00  0.19934601747E+04  0.19934601747E+04  0.50400001928E-02 0.  1.
        1   -1    0    0  501    0  0.00000000000E+00  0.00000000000E+00 -0.15641592366E+04  0.15641592367E+04  0.50400001928E-02 0. -1.
    10030    2    1    2    0    0  0.00000000000E+00  0.00000000000E+00  0.42930093807E+03  0.35576194114E+04  0.35316223723E+04 0.  0.
        3    1    3    3  502    0 -0.16276500181E+04  0.78948523824E+02  0.89981287474E+03  0.18614888317E+04  0.10100000352E+00 0. -1.
       -3    1    3    3    0  502  0.16276500181E+04 -0.78948523824E+02 -0.47051193667E+03  0.16961305797E+04  0.10100000352E+00 0.  1.
</event>
<event>
 5   0  0.8038352E-07  0.3808702E+04  0.7818609E-02  0.8044290E-01
       -2   -1    0    0    0  501  0.00000000000E+00  0.00000000000E+00  0.12802737647E+04  0.12802737647E+04  0.25500000920E-02 0. -1.
        2   -1    0    0  501    0  0.00000000000E+00  0.00000000000E+00 -0.28326385377E+04  0.28326385377E+04  0.25500000920E-02 0.  1.
    10030    2    1    2    0    0  0.00000000000E+00  0.00000000000E+00 -0.15523647731E+04  0.41129123024E+04  0.38087020386E+04 0.  0.
        2    1    3    3  502    0  0.17802706640E+04 -0.67242702397E+03 -0.85277773721E+03  0.20853660611E+04  0.25500000920E-02 0. -1.
       -2    1    3    3    0  502 -0.17802706640E+04  0.67242702397E+03 -0.69958703586E+03  0.20275462413E+04  0.25500000920E-02 0.  1.
</event>
<event>
 5   0  0.8038352E-07  0.3299206E+04  0.7818609E-02  0.8163097E-01
        2   -1    0    0  501    0  0.00000000000E+00  0.00000000000E+00  0.26232349697E+04  0.26232349697E+04  0.25500000920E-02 0. -1.
       -2   -1    0    0    0  501  0.00000000000E+00  0.00000000000E+00 -0.10373412224E+04  0.10373412224E+04  0.25500000920E-02 0.  1.
    10030    2    1    2    0    0  0.00000000000E+00  0.00000000000E+00  0.15858937473E+04  0.36605761922E+04  0.32992058258E+04 0.  0.
        2    1    3    3  502    0  0.11525095863E+04  0.15074716617E+03  0.20917099004E+04  0.23929591225E+04  0.25500000920E-02 0. -1.
       -2    1    3    3    0  502 -0.11525095863E+04 -0.15074716617E+03 -0.50581615312E+03  0.12676170697E+04  0.25500000920E-02 0.  1.
</event>
<event>
 5   0  0.2529875E-07  0.3844332E+04  0.7818609E-02  0.8036708E-01
        1   -1    0    0  501    0  0.00000000000E+00  0.00000000000E+00  0.13482917560E+04  0.13482917561E+04  0.50400001928E-02 0. -1.
       -1   -1    0    0    0  501  0.00000000000E+00  0.00000000000E+00 -0.27402982360E+04  0.27402982360E+04  0.50400001928E-02 0.  1.
    10030    2    1    2    0    0  0.00000000000E+00  0.00000000000E+00 -0.13920064799E+04  0.40885899920E+04  0.38443316822E+04 0.  0.
        4    1    3    3  502    0 -0.72598001059E+03 -0.90249089438E+03  0.93547232057E+03  0.14888407791E+04  0.12699999809E+01 0. -1.
       -4    1    3    3    0  502  0.72598001059E+03  0.90249089438E+03 -0.23274788005E+04  0.25997492129E+04  0.12699999809E+01 0.  1.
</event>
<event>
 5   0  0.7551495E-07  0.3835605E+04  0.7818609E-02  0.8038557E-01
       -2   -1    0    0    0  501  0.00000000000E+00  0.00000000000E+00  0.26759693080E+04  0.26759693080E+04  0.25500000920E-02 0.  1.
        2   -1    0    0  501    0  0.00000000000E+00  0.00000000000E+00 -0.13744429802E+04  0.13744429802E+04  0.25500000920E-02 0. -1.
    10030    2    1    2    0    0  0.00000000000E+00  0.00000000000E+00  0.13015263279E+04  0.40504122882E+04  0.38356054180E+04 0.  0.
        1    1    3    3  502    0 -0.12107972460E+03 -0.19086586932E+04  0.80132763442E+03  0.20735872985E+04  0.50400001928E-02 0. -1.
       -1    1    3    3    0  502  0.12107972460E+03  0.19086586932E+04  0.50019869344E+03  0.19768249897E+04  0.50400001928E-02 0.  1.
</event>
<event>
 5   0  0.7638805E-07  0.2940219E+04  0.7818609E-02  0.8261011E-01
       -2   -1    0    0    0  501  0.00000000000E+00  0.00000000000E+00  0.99512000929E+03  0.99512000929E+03  0.25500000920E-02 0.  1.
        2   -1    0    0  501    0  0.00000000000E+00  0.00000000000E+00 -0.21718205106E+04  0.21718205106E+04  0.25500000920E-02 0. -1.
    10030    2    1    2    0    0  0.00000000000E+00  0.00000000000E+00 -0.11767005013E+04  0.31669405199E+04  0.29402190712E+04 0.  0.
        5    1    3    3  502    0  0.75061883063E+03  0.83808179853E+03 -0.16075666229E+04  0.19621677469E+04  0.46999998093E+01 0. -1.
       -5    1    3    3    0  502 -0.75061883063E+03 -0.83808179853E+03  0.43086612155E+03  0.12047727730E+04  0.46999998093E+01 0.  1.
</event>
<event>
 5   0  0.7638805E-07  0.3753476E+04  0.7818609E-02  0.8056213E-01
        2   -1    0    0  501    0  0.00000000000E+00  0.00000000000E+00  0.11239710995E+04  0.11239710995E+04  0.25500000920E-02 0. -1.
       -2   -1    0    0    0  501  0.00000000000E+00  0.00000000000E+00 -0.31336618533E+04  0.31336618533E+04  0.25500000920E-02 0.  1.
    10030    2    1    2    0    0  0.00000000000E+00  0.00000000000E+00 -0.20096907537E+04  0.42576329528E+04  0.37534759137E+04 0.  0.
        5    1    3    3  502    0 -0.49679736290E+03  0.89691537884E+03  0.77818408204E+03  0.12871897188E+04  0.46999998093E+01 0. -1.
       -5    1    3    3    0  502  0.49679736290E+03 -0.89691537884E+03 -0.27878748358E+04  0.29704432340E+04  0.46999998093E+01 0.  1.
</event>
<event>
 5   0  0.8038352E-07  0.3819862E+04  0.7818609E-02  0.8041906E-01
       -2   -1    0    0    0  501  0.00000000000E+00  0.00000000000E+00  0.16333509432E+04  0.16333509432E+04  0.25500000920E-02 0. -1.
        2   -1    0    0  501    0  0.00000000000E+00  0.00000000000E+00 -0.22333454289E+04  0.22333454289E+04  0.25500000920E-02 0.  1.
    10030    2    1    2    0    0  0.00000000000E+00  0.00000000000E+00 -0.59999448566E+03  0.38666963721E+04  0.38198622293E+04 0.  0.
        2    1    3    3  502    0  0.16246791161E+04  0.54296951859E+03  0.55501181128E+03  0.18006766059E+04  0.25500000920E-02 0. -1.
       -2    1    3    3    0  502 -0.16246791161E+04 -0.54296951859E+03 -0.11550062969E+04  0.20660197662E+04  0.25500000920E-02 0.  1.
</event>
<event>
 5   0  0.2529875E-07  0.2599808E+04  0.7818609E-02  0.8368266E-01
       -3   -1    0    0    0  501  0.00000000000E+00  0.00000000000E+00  0.12562702080E+04  0.12562702120E+04  0.10100000352E+00 0. -1.
        3   -1    0    0  501    0  0.00000000000E+00  0.00000000000E+00 -0.13450533948E+04  0.13450533986E+04  0.10100000352E+00 0.  1.
    10030    2    1    2    0    0  0.00000000000E+00  0.00000000000E+00 -0.88783186824E+02  0.26013236106E+04  0.25998080839E+04 0.  0.
        2    1    3    3  502    0  0.74731170484E+03 -0.42870542589E+03  0.92956547265E+03  0.12674206462E+04  0.25500000920E-02 0. -1.
       -2    1    3    3    0  502 -0.74731170484E+03  0.42870542589E+03 -0.10183486595E+04  0.13339029645E+04  0.25500000920E-02 0.  1.
</event>
<event>
 5   0  0.8421677E-07  0.3759149E+04  0.7818609E-02  0.8054979E-01
        2   -1    0    0  501    0  0.00000000000E+00  0.00000000000E+00  0.20166891841E+04  0.20166891841E+04  0.25500000920E-02 0.  1.
       -2   -1    0    0    0  501  0.00000000000E+00  0.00000000000E+00 -0.17517819268E+04  0.17517819268E+04  0.25500000920E-02 0. -1.
    10030    2    1    2    0    0  0.00000000000E+00  0.00000000000E+00  0.26490725732E+03  0.37684711109E+04  0.37591486614E+04 0.  0.
        3    1    3    3  502    0  0.22926714036E+03 -0.18154995496E+03  0.19937421869E+04  0.20150761092E+04  0.10100000352E+00 0.  1.
       -3    1    3    3    0  502 -0.22926714036E+03  0.18154995496E+03 -0.17288349296E+04  0.17533950017E+04  0.10100000352E+00 0. -1.
</event>
<event>
 5   0  0.2529875E-07  0.3765195E+04  0.7818609E-02  0.8053665E-01
       -1   -1    0    0    0  501  0.00000000000E+00  0.00000000000E+00  0.11683458052E+04  0.11683458052E+04  0.50400001928E-02 0.  1.
        1   -1    0    0  501    0  0.00000000000E+00  0.00000000000E+00 -0.30334973434E+04  0.30334973434E+04  0.50400001928E-02 0. -1.
    10030    2    1    2    0    0  0.00000000000E+00  0.00000000000E+00 -0.18651515383E+04  0.42018431486E+04  0.37651952917E+04 0.  0.
        3    1    3    3  502    0  0.70668001068E+03 -0.11177335754E+04  0.56276045648E+03  0.14371584202E+04  0.10100000352E+00 0.  1.
       -3    1    3    3    0  502 -0.70668001068E+03  0.11177335754E+04 -0.24279119947E+04  0.27646847284E+04  0.10100000352E+00 0. -1.
</event>
<event>
 5   0  0.7649458E-07  0.3756117E+04  0.7818609E-02  0.8055638E-01
       -2   -1    0    0    0  501  0.00000000000E+00  0.00000000000E+00  0.16972815656E+04  0.16972815656E+04  0.25500000920E-02 0.  1.
        2   -1    0    0  501    0  0.00000000000E+00  0.00000000000E+00 -0.20780896119E+04  0.20780896119E+04  0.25500000920E-02 0. -1.
    10030    2    1    2    0    0  0.00000000000E+00  0.00000000000E+00 -0.38080804623E+03  0.37753711775E+04  0.37561167128E+04 0.  0.
        4    1    3    3  502    0 -0.14628526667E+03 -0.13543939120E+04 -0.14898262624E+04  0.20187536138E+04  0.12699999809E+01 0. -1.
       -4    1    3    3    0  502  0.14628526667E+03  0.13543939120E+04  0.11090182162E+04  0.17566175637E+04  0.12699999809E+01 0.  1.
</event>
<event>
 5   0  0.2907071E-07  0.3604087E+04  0.7818609E-02  0.8089556E-01
        1   -1    0    0  501    0  0.00000000000E+00  0.00000000000E+00  0.19574885107E+04  0.19574885107E+04  0.50400001928E-02 0. -1.
       -1   -1    0    0    0  501  0.00000000000E+00  0.00000000000E+00 -0.16589425113E+04  0.16589425113E+04  0.50400001928E-02 0.  1.
    10030    2    1    2    0    0  0.00000000000E+00  0.00000000000E+00  0.29854599935E+03  0.36164310220E+04  0.36040870721E+04 0.  0.
        2    1    3    3  502    0  0.11761994498E+03 -0.17779100834E+04  0.41956929988E+03  0.18305291895E+04  0.25500000920E-02 0. -1.
       -2    1    3    3    0  502 -0.11761994498E+03  0.17779100834E+04 -0.12102330053E+03  0.17859018325E+04  0.25500000920E-02 0.  1.
</event>
<event>
 5   0  0.2529875E-07  0.2608905E+04  0.7818609E-02  0.8365183E-01
       -1   -1    0    0    0  501  0.00000000000E+00  0.00000000000E+00  0.12589429694E+04  0.12589429695E+04  0.50400001928E-02 0. -1.
        1   -1    0    0  501    0  0.00000000000E+00  0.00000000000E+00 -0.13516075776E+04  0.13516075776E+04  0.50400001928E-02 0.  1.
    10030    2    1    2    0    0  0.00000000000E+00  0.00000000000E+00 -0.92664608120E+02  0.26105505470E+04  0.26089054082E+04 0.  0.
        1    1    3    3  502    0  0.40258359418E+03  0.21179025309E+03 -0.12696694707E+04  0.13486990867E+04  0.50400001928E-02 0.  1.
       -1    1    3    3    0  502 -0.40258359418E+03 -0.21179025309E+03  0.11770048625E+04  0.12618514604E+04  0.50400001928E-02 0. -1.
</event>
<event>
 5   0  0.7638805E-07  0.3825009E+04  0.7818609E-02  0.8040809E-01
       -2   -1    0    0    0  501  0.00000000000E+00  0.00000000000E+00  0.26288452727E+04  0.26288452727E+04  0.25500000920E-02 0.  1.
        2   -1    0    0  501    0  0.00000000000E+00  0.00000000000E+00 -0.13913610740E+04  0.13913610740E+04  0.25500000920E-02 0. -1.
    10030    2    1    2    0    0  0.00000000000E+00  0.00000000000E+00  0.12374841987E+04  0.40202063468E+04  0.38250087488E+04 0.  0.
        5    1    3    3  502    0 -0.10745751934E+04 -0.35425346256E+02 -0.10436449442E+04  0.14983936936E+04  0.46999998093E+01 0. -1.
       -5    1    3    3    0  502  0.10745751934E+04  0.35425346256E+02  0.22811291429E+04  0.25218126532E+04  0.46999998093E+01 0.  1.
</event>
<event>
 5   0  0.2529875E-07  0.3224593E+04  0.7818609E-02  0.8182352E-01
        1   -1    0    0  501    0  0.00000000000E+00  0.00000000000E+00  0.21210676076E+04  0.21210676076E+04  0.50400001928E-02 0.  1.
       -1   -1    0    0    0  501  0.00000000000E+00  0.00000000000E+00 -0.12255624024E+04  0.12255624024E+04  0.50400001928E-02 0. -1.
    10030    2    1    2    0    0  0.00000000000E+00  0.00000000000E+00  0.89550520521E+03  0.33466300099E+04  0.32245934396E+04 0.  0.
        5    1    3    3  502    0  0.11066636798E+04  0.65416952496E+03 -0.56212838840E+03  0.14030868407E+04  0.46999998093E+01 0. -1.
       -5    1    3    3    0  502 -0.11066636798E+04 -0.65416952496E+03  0.14576335936E+04  0.19435431692E+04  0.46999998093E+01 0.  1.
</event>
<event>
 5   0  0.8421677E-07  0.2857433E+04  0.7818609E-02  0.8285656E-01
       -2   -1    0    0    0  501  0.00000000000E+00  0.00000000000E+00  0.15330788003E+04  0.15330788003E+04  0.25500000920E-02 0. -1.
        2   -1    0    0  501    0  0.00000000000E+00  0.00000000000E+00 -0.13314583728E+04  0.13314583728E+04  0.25500000920E-02 0.  1.
    10030    2    1    2    0    0  0.00000000000E+00  0.00000000000E+00  0.20162042758E+03  0.28645371731E+04  0.28574328372E+04 0.  0.
        3    1    3    3  502    0  0.75549266238E+03 -0.28480872702E+03  0.12824457631E+04  0.15154379959E+04  0.10100000352E+00 0. -1.
       -3    1    3    3    0  502 -0.75549266238E+03  0.28480872702E+03 -0.10808253355E+04  0.13490991772E+04  0.10100000352E+00 0.  1.
</event>
<event>
 5   0  0.7551495E-07  0.3910246E+04  0.7818609E-02  0.8022902E-01
        2   -1    0    0  501    0  0.00000000000E+00  0.00000000000E+00  0.23966324580E+04  0.23966324580E+04  0.25500000920E-02 0. -1.
       -2   -1    0    0    0  501  0.00000000000E+00  0.00000000000E+00 -0.15949486188E+04  0.15949486188E+04  0.25500000920E-02 0.  1.
    10030    2    1    2    0    0  0.00000000000E+00  0.00000000000E+00  0.80168383925E+03  0.39915810768E+04  0.39102458381E+04 0.  0.
        1    1    3    3  502    0 -0.13047313118E+04  0.13298181388E+04 -0.20459311020E+03  0.18741927380E+04  0.50400001928E-02 0. -1.
       -1    1    3    3    0  502  0.13047313118E+04 -0.13298181388E+04  0.10062769495E+04  0.21173883388E+04  0.50400001928E-02 0.  1.
</event>
<event>
 5   0  0.2907071E-07  0.3604455E+04  0.7818609E-02  0.8089472E-01
        1   -1    0    0  501    0  0.00000000000E+00  0.00000000000E+00  0.19731664630E+04  0.19731664631E+04  0.50400001928E-02 0. -1.
       -1   -1    0    0    0  501  0.00000000000E+00  0.00000000000E+00 -0.16460974347E+04  0.16460974347E+04  0.50400001928E-02 0.  1.
    10030    2    1    2    0    0  0.00000000000E+00  0.00000000000E+00  0.32706902835E+03  0.36192638978E+04  0.36044551616E+04 0.  0.
        2    1    3    3  502    0 -0.13424154043E+04  0.44034932644E+03 -0.96000748154E+03  0.17080986539E+04  0.25500000920E-02 0.  1.
       -2    1    3    3    0  502  0.13424154043E+04 -0.44034932644E+03  0.12870765099E+04  0.19111652438E+04  0.25500000920E-02 0. -1.
</event>
<event>
 5   0  0.2907071E-07  0.3747918E+04  0.7818609E-02  0.8057425E-01
        1   -1    0    0  501    0  0.00000000000E+00  0.00000000000E+00  0.17311106587E+04  0.17311106587E+04  0.50400001928E-02 0.  1.
       -1   -1    0    0    0  501  0.00000000000E+00  0.00000000000E+00 -0.20285953717E+04  0.20285953717E+04  0.50400001928E-02 0. -1.
    10030    2    1    2    0    0  0.00000000000E+00  0.00000000000E+00 -0.29748471302E+03  0.37597060304E+04  0.37479183930E+04 0.  0.
        2    1    3    3  502    0 -0.95692458141E+02  0.12777302631E+04  0.12230274671E+04  0.17713124674E+04  0.25500000920E-02 0.  1.
       -2    1    3    3    0  502  0.95692458141E+02 -0.12777302631E+04 -0.15205121801E+04  0.19883935631E+04  0.25500000920E-02 0. -1.
</event>
<event>
 5   0  0.8421677E-07  0.3781277E+04  0.7818609E-02  0.8050185E-01
       -2   -1    0    0    0  501  0.00000000000E+00  0.00000000000E+00  0.15850363473E+04  0.15850363473E+04  0.25500000920E-02 0.  1.
        2   -1    0    0  501    0  0.00000000000E+00  0.00000000000E+00 -0.22551624888E+04  0.22551624888E+04  0.25500000920E-02 0. -1.
    10030    2    1    2    0    0  0.00000000000E+00  0.00000000000E+00 -0.67012614157E+03  0.38401988361E+04  0.37812773047E+04 0.  0.
        3    1    3    3  502    0 -0.10642317983E+04 -0.94637922334E+03  0.92781340853E+03  0.16997237087E+04  0.10100000352E+00 0.  1.
       -3    1    3    3    0  502  0.10642317983E+04  0.94637922334E+03 -0.15979395501E+04  0.21404751273E+04  0.10100000352E+00 0. -1.
</event>
<event>
 5   0  0.8421677E-07  0.3822766E+04  0.7818609E-02  0.8041287E-01
       -2   -1    0    0    0  501  0.00000000000E+00  0.00000000000E+00  0.18692127766E+04  0.18692127766E+04  0.25500000920E-02 0.  1.
        2   -1    0    0  501    0  0.00000000000E+00  0.00000000000E+00 -0.19545042403E+04  0.19545042403E+04  0.25500000920E-02 0. -1.
    10030    2    1    2    0    0  0.00000000000E+00  0.00000000000E+00 -0.85291463650E+02  0.38237170169E+04  0.38227656470E+04 0.  0.
        3    1    3    3  502    0  0.13045995070E+04 -0.13954587071E+04 -0.10668830733E+03  0.19132870360E+04  0.10100000352E+00 0.  1.
       -3    1    3    3    0  502 -0.13045995070E+04  0.13954587071E+04  0.21396843684E+02  0.19104299810E+04  0.10100000352E+00 0. -1.
</event>
<event>
 5   0  0.2529875E-07  0.3728110E+04  0.7818609E-02  0.8061761E-01
       -1   -1    0    0    0  501  0.00000000000E+00  0.00000000000E+00  0.15939955081E+04  0.15939955081E+04  0.50400001928E-02 0.  1.
        1   -1    0    0  501    0  0.00000000000E+00  0.00000000000E+00 -0.21798692583E+04  0.21798692583E+04  0.50400001928E-02 0. -1.
    10030    2    1    2    0    0  0.00000000000E+00  0.00000000000E+00 -0.58587375022E+03  0.37738647665E+04  0.37281104094E+04 0.  0.
        4    1    3    3  502    0 -0.11549072009E+04  0.16071127782E+03  0.11792368463E+04  0.16583847292E+04  0.12699999809E+01 0.  1.
       -4    1    3    3    0  502  0.11549072009E+04 -0.16071127782E+03 -0.17651105965E+04  0.21154800373E+04  0.12699999809E+01 0. -1.
</event>
<event>
 5   0  0.2529875E-07  0.3792091E+04  0.7818609E-02  0.8047854E-01
        1   -1    0    0  501    0  0.00000000000E+00  0.00000000000E+00  0.13949537219E+04  0.13949537219E+04  0.50400001928E-02 0. -1.
       -1   -1    0    0    0  501  0.00000000000E+00  0.00000000000E+00 -0.25771382464E+04  0.25771382464E+04  0.50400001928E-02 0.  1.
    10030    2    1    2    0    0  0.00000000000E+00  0.00000000000E+00 -0.11821845245E+04  0.39720919683E+04  0.37920910267E+04 0.  0.
        4    1    3    3  502    0  0.16485662227E+04 -0.32846828571E+03  0.32765372679E+03  0.17126063713E+04  0.12699999809E+01 0. -1.
       -4    1    3    3    0  502 -0.16485662227E+04  0.32846828571E+03 -0.15098382513E+04  0.22594855970E+04  0.12699999809E+01 0.  1.
</event>
<event>
 5   0  0.2529875E-07  0.3926799E+04  0.7818609E-02  0.8019479E-01
        1   -1    0    0  501    0  0.00000000000E+00  0.00000000000E+00  0.14121246428E+04  0.14121246428E+04  0.50400001928E-02 0.  1.
       -1   -1    0    0    0  501  0.00000000000E+00  0.00000000000E+00 -0.27298842996E+04  0.27298842996E+04  0.50400001928E-02 0. -1.
    10030    2    1    2    0    0  0.00000000000E+00  0.00000000000E+00 -0.13177596569E+04  0.41420089424E+04  0.39267986408E+04 0.  0.
        1    1    3    3  502    0 -0.16509527084E+04  0.58838489248E+03  0.27454575305E+03  0.17740397396E+04  0.50400001928E-02 0.  1.
       -1    1    3    3    0  502  0.16509527084E+04 -0.58838489248E+03 -0.15923054099E+04  0.23679692028E+04  0.50400001928E-02 0. -1.
</event>
<event>
 5   0  0.2529875E-07  0.3739673E+04  0.7818609E-02  0.8059226E-01
       -1   -1    0    0    0  501  0.00000000000E+00  0.00000000000E+00  0.19133979041E+04  0.19133979041E+04  0.50400001928E-02 0. -1.
        1   -1    0    0  501    0  0.00000000000E+00  0.00000000000E+00 -0.18272664619E+04  0.18272664619E+04  0.50400001928E-02 0.  1.
    10030    2    1    2    0    0  0.00000000000E+00  0.00000000000E+00  0.86131442229E+02  0.37406643660E+04  0.37396726159E+04 0.  0.
        1    1    3    3  502    0 -0.56928608247E+03 -0.37119545504E+03 -0.16993535046E+04  0.18302117482E+04  0.50400001928E-02 0.  1.
       -1    1    3    3    0  502  0.56928608247E+03  0.37119545504E+03  0.17854849468E+04  0.19104526178E+04  0.50400001928E-02 0. -1.
</event>
<event>
 5   0  0.2907071E-07  0.3441570E+04  0.7818609E-02  0.8127778E-01
       -1   -1    0    0    0  501  0.00000000000E+00  0.00000000000E+00  0.19195908736E+04  0.19195908736E+04  0.50400001928E-02 0. -1.
        1   -1    0    0  501    0  0.00000000000E+00  0.00000000000E+00 -0.15425690842E+04  0.15425690842E+04  0.50400001928E-02 0.  1.
    10030    2    1    2    0    0  0.00000000000E+00  0.00000000000E+00  0.37702178949E+03  0.34621599578E+04  0.34415703020E+04 0.  0.
        2    1    3    3  502    0  0.85403044079E+02  0.96387852829E+03  0.16199595098E+04  0.18869616611E+04  0.25500000920E-02 0. -1.
       -2    1    3    3    0  502 -0.85403044079E+02 -0.96387852829E+03 -0.12429377203E+04  0.15751982967E+04  0.25500000920E-02 0.  1.
</event>
<event>
 5   0  0.2529875E-07  0.3833993E+04  0.7818609E-02  0.8038899E-01
       -1   -1    0    0    0  501  0.00000000000E+00  0.00000000000E+00  0.13403830128E+04  0.13403830128E+04  0.50400001928E-02 0.  1.
        1   -1    0    0  501    0  0.00000000000E+00  0.00000000000E+00 -0.27416605279E+04  0.27416605279E+04  0.50400001928E-02 0. -1.
    10030    2    1    2    0    0  0.00000000000E+00  0.00000000000E+00 -0.14012775151E+04  0.40820435407E+04  0.38339928005E+04 0.  0.
        5    1    3    3  502    0  0.84124837927E+03 -0.44692593931E+03  0.10705433187E+04  0.14330131605E+04  0.46999998093E+01 0.  1.
       -5    1    3    3    0  502 -0.84124837927E+03  0.44692593931E+03 -0.24718208338E+04  0.26490303802E+04  0.46999998093E+01 0. -1.
</event>
<event>
 5   0  0.2907071E-07  0.3764957E+04  0.7818609E-02  0.8053717E-01
        1   -1    0    0  501    0  0.00000000000E+00  0.00000000000E+00  0.28108417707E+04  0.28108417707E+04  0.50400001928E-02 0.  1.
       -1   -1    0    0    0  501  0.00000000000E+00  0.00000000000E+00 -0.12607344212E+04  0.12607344212E+04  0.50400001928E-02 0. -1.
    10030    2    1    2    0    0  0.00000000000E+00  0.00000000000E+00  0.15501073495E+04  0.40715761918E+04  0.37649568246E+04 0.  0.
        2    1    3    3  502    0 -0.63368321705E+03  0.22557945335E+03 -0.11263400295E+04  0.13119002902E+04  0.25500000920E-02 0. -1.
       -2    1    3    3    0  502  0.63368321705E+03 -0.22557945335E+03  0.26764473790E+04  0.27596759016E+04  0.25500000920E-02 0.  1.
</event>
<event>
 5   0  0.7551495E-07  0.3750917E+04  0.7818609E-02  0.8056771E-01
       -2   -1    0    0    0  501  0.00000000000E+00  0.00000000000E+00  0.15166151095E+04  0.15166151095E+04  0.25500000920E-02 0.  1.
        2   -1    0    0  501    0  0.00000000000E+00  0.00000000000E+00 -0.23192071531E+04  0.23192071531E+04  0.25500000920E-02 0. -1.
    10030    2    1    2    0    0  0.00000000000E+00  0.00000000000E+00 -0.80259204355E+03  0.38358222626E+04  0.37509170135E+04 0.  0.
        1    1    3    3  502    0 -0.76202514608E+03  0.99835761882E+03  0.10230504881E+04  0.16198865885E+04  0.50400001928E-02 0.  1.
       -1    1    3    3    0  502  0.76202514608E+03 -0.99835761882E+03 -0.18256425317E+04  0.22159356741E+04  0.50400001928E-02 0. -1.
</event>
<event>
 5   0  0.7551495E-07  0.3583655E+04  0.7818609E-02  0.8094246E-01
       -2   -1    0    0    0  501  0.00000000000E+00  0.00000000000E+00  0.12672900626E+04  0.12672900626E+04  0.25500000920E-02 0. -1.
        2   -1    0    0  501    0  0.00000000000E+00  0.00000000000E+00 -0.25334737290E+04  0.25334737290E+04  0.25500000920E-02 0.  1.
    10030    2    1    2    0    0  0.00000000000E+00  0.00000000000E+00 -0.12661836665E+04  0.38007637916E+04  0.35836551623E+04 0.  0.
        1    1    3    3  502    0 -0.76764974217E+03 -0.12904987013E+04  0.40388127269E+03  0.15549254346E+04  0.50400001928E-02 0. -1.
       -1    1    3    3    0  502  0.76764974217E+03  0.12904987013E+04 -0.16700649392E+04  0.22458383570E+04  0.50400001928E-02 0.  1.
</event>
<event>
 5   0  0.8038352E-07  0.3802002E+04  0.7818609E-02  0.8045725E-01
       -2   -1    0    0    0  501  0.00000000000E+00  0.00000000000E+00  0.13076452245E+04  0.13076452245E+04  0.25500000920E-02 0.  1.
        2   -1    0    0  501    0  0.00000000000E+00  0.00000000000E+00 -0.27635974817E+04  0.27635974817E+04  0.25500000920E-02 0. -1.
    10030    2    1    2    0    0  0.00000000000E+00  0.00000000000E+00 -0.14559522572E+04  0.40712427062E+04  0.38020021301E+04 0.  0.
        2    1    3    3  502    0  0.82378197195E+03  0.71003571534E+03  0.94161633312E+03  0.14385439768E+04  0.25500000920E-02 0.  1.
       -2    1    3    3    0  502 -0.82378197195E+03 -0.71003571534E+03 -0.23975685903E+04  0.26326987294E+04  0.25500000920E-02 0. -1.
</event>
<event>
 5   0  0.2529875E-07  0.3804863E+04  0.7818609E-02  0.8045112E-01
        1   -1    0    0  501    0  0.00000000000E+00  0.00000000000E+00  0.21619938910E+04  0.21619938910E+04  0.50400001928E-02 0.  1.
       -1   -1    0    0    0  501  0.00000000000E+00  0.00000000000E+00 -0.16740317107E+04  0.16740317107E+04  0.50400001928E-02 0. -1.
    10030    2    1    2    0    0  0.00000000000E+00  0.00000000000E+00  0.48796218031E+03  0.38360256017E+04  0.38048633783E+04 0.  0.
        4    1    3    3  502    0 -0.73486553976E+03 -0.61764463134E+03  0.18999106898E+04  0.21286555603E+04  0.12699999809E+01 0.  1.
       -4    1    3    3    0  502  0.73486553976E+03  0.61764463134E+03 -0.14119485095E+04  0.17073700415E+04  0.12699999809E+01 0. -1.
</event>
<event>
 5   0  0.2529875E-07  0.3532171E+04  0.7818609E-02  0.8106208E-01
       -1   -1    0    0    0  501  0.00000000000E+00  0.00000000000E+00  0.12781772018E+04  0.12781772018E+04  0.50400001928E-02 0. -1.
        1   -1    0    0  501    0  0.00000000000E+00  0.00000000000E+00 -0.24402388732E+04  0.24402388732E+04  0.50400001928E-02 0.  1.
    10030    2    1    2    0    0  0.00000000000E+00  0.00000000000E+00 -0.11620616714E+04  0.37184160750E+04  0.35321708309E+04 0.  0.
        4    1    3    3  502    0 -0.14438724599E+04 -0.49753913432E+03  0.35272383267E+03  0.15673954784E+04  0.12699999809E+01 0.  1.
       -4    1    3    3    0  502  0.14438724599E+04  0.49753913432E+03 -0.15147855041E+04  0.21510205966E+04  0.12699999809E+01 0. -1.
</event>
<event>
 5   0  0.2529875E-07  0.3433615E+04  0.7818609E-02  0.8129705E-01
       -1   -1    0    0    0  501  0.00000000000E+00  0.00000000000E+00  0.14006568606E+04  0.14006568606E+04  0.50400001928E-02 0. -1.
        1   -1    0    0  501    0  0.00000000000E+00  0.00000000000E+00 -0.21043179458E+04  0.21043179458E+04  0.50400001928E-02 0.  1.
    10030    2    1    2    0    0  0.00000000000E+00  0.00000000000E+00 -0.70366108521E+03  0.35049748065E+04  0.34336146364E+04 0.  0.
        1    1    3    3  502    0  0.35289184735E+03  0.25658072800E+03  0.13431180858E+04  0.14122083835E+04  0.50400001928E-02 0. -1.
       -1    1    3    3    0  502 -0.35289184735E+03 -0.25658072800E+03 -0.20467791711E+04  0.20927664229E+04  0.50400001928E-02 0.  1.
</event>
<event>
 5   0  0.2907071E-07  0.3784025E+04  0.7818609E-02  0.8049592E-01
        1   -1    0    0  501    0  0.00000000000E+00  0.00000000000E+00  0.21179153055E+04  0.21179153055E+04  0.50400001928E-02 0. -1.
       -1   -1    0    0    0  501  0.00000000000E+00  0.00000000000E+00 -0.16902048065E+04  0.16902048065E+04  0.50400001928E-02 0.  1.
    10030    2    1    2    0    0  0.00000000000E+00  0.00000000000E+00  0.42771049900E+03  0.38081201119E+04  0.37840246453E+04 0.  0.
        2    1    3    3  502    0  0.15112117598E+04 -0.11354324930E+04  0.29649206979E+03  0.19133414427E+04  0.25500000920E-02 0.  1.
       -2    1    3    3    0  502 -0.15112117598E+04  0.11354324930E+04  0.13121842921E+03  0.18947786692E+04  0.25500000920E-02 0. -1.
</event>
<event>
 5   0  0.2907071E-07  0.3775341E+04  0.7818609E-02  0.8051467E-01
        1   -1    0    0  501    0  0.00000000000E+00  0.00000000000E+00  0.28511979645E+04  0.28511979645E+04  0.50400001928E-02 0.  1.
       -1   -1    0    0    0  501  0.00000000000E+00  0.00000000000E+00 -0.12497555356E+04  0.12497555356E+04  0.50400001928E-02 0. -1.
    10030    2    1    2    0    0  0.00000000000E+00  0.00000000000E+00  0.16014424289E+04  0.41009535001E+04  0.37753412768E+04 0.  0.
        2    1    3    3  502    0 -0.10366997341E+03  0.18848104419E+04  0.79363358595E+03  0.20477089964E+04  0.25500000920E-02 0.  1.
       -2    1    3    3    0  502  0.10366997341E+03 -0.18848104419E+04  0.80780884296E+03  0.20532445037E+04  0.25500000920E-02 0. -1.
</event>
<event>
 5   0  0.8421677E-07  0.2557501E+04  0.7818609E-02  0.8382782E-01
        2   -1    0    0  501    0  0.00000000000E+00  0.00000000000E+00  0.20044662501E+04  0.20044662501E+04  0.25500000920E-02 0. -1.
       -2   -1    0    0    0  501  0.00000000000E+00  0.00000000000E+00 -0.81577953895E+03  0.81577953895E+03  0.25500000920E-02 0.  1.
    10030    2    1    2    0    0  0.00000000000E+00  0.00000000000E+00  0.11886867111E+04  0.28202457890E+04  0.25575007748E+04 0.  0.
        3    1    3    3  502    0 -0.45422277198E+03  0.98120678272E+03 -0.15852470631E+03  0.10928015235E+04  0.10100000352E+00 0.  1.
       -3    1    3    3    0  502  0.45422277198E+03 -0.98120678272E+03  0.13472114174E+04  0.17274442655E+04  0.10100000352E+00 0. -1.
</event>
<event>
 5   0  0.7551495E-07  0.3653885E+04  0.7818609E-02  0.8078259E-01
        2   -1    0    0  501    0  0.00000000000E+00  0.00000000000E+00  0.14816191170E+04  0.14816191170E+04  0.25500000920E-02 0.  1.
       -2   -1    0    0    0  501  0.00000000000E+00  0.00000000000E+00 -0.22527512313E+04  0.22527512313E+04  0.25500000920E-02 0. -1.
    10030    2    1    2    0    0  0.00000000000E+00  0.00000000000E+00 -0.77113211423E+03  0.37343703483E+04  0.36538852145E+04 0.  0.
        1    1    3    3  502    0  0.77759041963E+03  0.73979052913E+03  0.11254391068E+04  0.15551688239E+04  0.50400001928E-02 0.  1.
       -1    1    3    3    0  502 -0.77759041963E+03 -0.73979052913E+03 -0.18965712210E+04  0.21792015244E+04  0.50400001928E-02 0. -1.
</event>
<event>
 5   0  0.8421677E-07  0.3637217E+04  0.7818609E-02  0.8082019E-01
        2   -1    0    0  501    0  0.00000000000E+00  0.00000000000E+00  0.21068267045E+04  0.21068267045E+04  0.25500000920E-02 0. -1.
       -2   -1    0    0    0  501  0.00000000000E+00  0.00000000000E+00 -0.15698192137E+04  0.15698192137E+04  0.25500000920E-02 0.  1.
    10030    2    1    2    0    0  0.00000000000E+00  0.00000000000E+00  0.53700749080E+03  0.36766459183E+04  0.36372170905E+04 0.  0.
        3    1    3    3  502    0  0.18688523174E+03  0.31108337232E+03 -0.15328461724E+04  0.15752194618E+04  0.10100000352E+00 0.  1.
       -3    1    3    3    0  502 -0.18688523174E+03 -0.31108337232E+03  0.20698536632E+04  0.21014264564E+04  0.10100000352E+00 0. -1.
</event>
<event>
 5   0  0.2529875E-07  0.3879567E+04  0.7818609E-02  0.8029292E-01
        1   -1    0    0  501    0  0.00000000000E+00  0.00000000000E+00  0.22763584015E+04  0.22763584015E+04  0.50400001928E-02 0.  1.
       -1   -1    0    0    0  501  0.00000000000E+00  0.00000000000E+00 -0.16529730557E+04  0.16529730557E+04  0.50400001928E-02 0. -1.
    10030    2    1    2    0    0  0.00000000000E+00  0.00000000000E+00  0.62338534573E+03  0.39293314572E+04  0.38795665236E+04 0.  0.
        1    1    3    3  502    0  0.23968883696E+03 -0.12679387015E+04 -0.11552087188E+04  0.17319429764E+04  0.50400001928E-02 0. -1.
       -1    1    3    3    0  502 -0.23968883696E+03  0.12679387015E+04  0.17785940645E+04  0.21973884808E+04  0.50400001928E-02 0.  1.
</event>
<event>
 5   0  0.8038352E-07  0.3814810E+04  0.7818609E-02  0.8042984E-01
        2   -1    0    0  501    0  0.00000000000E+00  0.00000000000E+00  0.24434120070E+04  0.24434120070E+04  0.25500000920E-02 0. -1.
       -2   -1    0    0    0  501  0.00000000000E+00  0.00000000000E+00 -0.14889812344E+04  0.14889812344E+04  0.25500000920E-02 0.  1.
    10030    2    1    2    0    0  0.00000000000E+00  0.00000000000E+00  0.95443077260E+03  0.39323932415E+04  0.38148104155E+04 0.  0.
        2    1    3    3  502    0  0.47249028717E+03 -0.82884193774E+03 -0.12253494702E+04  0.15529672737E+04  0.25500000920E-02 0.  1.
       -2    1    3    3    0  502 -0.47249028717E+03  0.82884193774E+03  0.21797802428E+04  0.23794259678E+04  0.25500000920E-02 0. -1.
</event>
<event>
 5   0  0.8038352E-07  0.3779407E+04  0.7818609E-02  0.8050589E-01
        2   -1    0    0  501    0  0.00000000000E+00  0.00000000000E+00  0.13621934333E+04  0.13621934333E+04  0.25500000920E-02 0.  1.
       -2   -1    0    0    0  501  0.00000000000E+00  0.00000000000E+00 -0.26214924069E+04  0.26214924069E+04  0.25500000920E-02 0. -1.
    10030    2    1    2    0    0  0.00000000000E+00  0.00000000000E+00 -0.12592989735E+04  0.39836858402E+04  0.37794072245E+04 0.  0.
        2    1    3    3  502    0 -0.99236718257E+03 -0.27373486945E+03  0.10406983386E+04  0.14638225424E+04  0.25500000920E-02 0.  1.
       -2    1    3    3    0  502  0.99236718257E+03  0.27373486945E+03 -0.22999973121E+04  0.25198632978E+04  0.25500000920E-02 0. -1.
</event>
<event>
 5   0  0.2529875E-07  0.3798536E+04  0.7818609E-02  0.8046469E-01
        1   -1    0    0  501    0  0.00000000000E+00  0.00000000000E+00  0.23237356254E+04  0.23237356254E+04  0.50400001928E-02 0.  1.
       -1   -1    0    0    0  501  0.00000000000E+00  0.00000000000E+00 -0.15523360095E+04  0.15523360095E+04  0.50400001928E-02 0. -1.
    10030    2    1    2    0    0  0.00000000000E+00  0.00000000000E+00  0.77139961585E+03  0.38760716349E+04  0.37985357641E+04 0.  0.
        1    1    3    3  502    0 -0.65248411851E+03  0.17427722841E+03  0.21970707031E+04  0.22985273007E+04  0.50400001928E-02 0.  1.
       -1    1    3    3    0  502  0.65248411851E+03 -0.17427722841E+03 -0.14256710873E+04  0.15775443342E+04  0.50400001928E-02 0. -1.
</event>
<event>
 5   0  0.3124664E-07  0.2364818E+04  0.7818609E-02  0.8452794E-01
        1   -1    0    0  501    0  0.00000000000E+00  0.00000000000E+00  0.13198599223E+04  0.13198599223E+04  0.50400001928E-02 0.  1.
       -1   -1    0    0    0  501  0.00000000000E+00  0.00000000000E+00 -0.10592722663E+04  0.10592722663E+04  0.50400001928E-02 0. -1.
    10030    2    1    2    0    0  0.00000000000E+00  0.00000000000E+00  0.26058765606E+03  0.23791321886E+04  0.23648179728E+04 0.  0.
        4    1    3    3  502    0  0.44609150715E+03 -0.69003520630E+03 -0.72511344377E+03  0.10958728658E+04  0.12699999809E+01 0.  1.
       -4    1    3    3    0  502 -0.44609150715E+03  0.69003520630E+03  0.98570109982E+03  0.12832593229E+04  0.12699999809E+01 0. -1.
</event>
<event>
 5   0  0.2529875E-07  0.3640376E+04  0.7818609E-02  0.8081305E-01
       -1   -1    0    0    0  501  0.00000000000E+00  0.00000000000E+00  0.25975207914E+04  0.25975207914E+04  0.50400001928E-02 0. -1.
        1   -1    0    0  501    0  0.00000000000E+00  0.00000000000E+00 -0.12754792924E+04  0.12754792924E+04  0.50400001928E-02 0.  1.
    10030    2    1    2    0    0  0.00000000000E+00  0.00000000000E+00  0.13220414990E+04  0.38730000838E+04  0.36403757943E+04 0.  0.
        5    1    3    3  502    0  0.20529410014E+03 -0.24173448282E+03 -0.12458512846E+04  0.12855927587E+04  0.46999998093E+01 0.  1.
       -5    1    3    3    0  502 -0.20529410014E+03  0.24173448282E+03  0.25678927836E+04  0.25874073251E+04  0.46999998093E+01 0. -1.
</event>
<event>
 5   0  0.7649458E-07  0.2325863E+04  0.7818609E-02  0.8467793E-01
       -2   -1    0    0    0  501  0.00000000000E+00  0.00000000000E+00  0.66759237652E+03  0.66759237652E+03  0.25500000920E-02 0.  1.
        2   -1    0    0  501    0  0.00000000000E+00  0.00000000000E+00 -0.20258014356E+04  0.20258014356E+04  0.25500000920E-02 0. -1.
    10030    2    1    2    0    0  0.00000000000E+00  0.00000000000E+00 -0.13582090590E+04  0.26933938121E+04  0.23258629321E+04 0.  0.
        4    1    3    3  502    0  0.42198572372E+03 -0.87734228696E+03  0.57496278915E+02  0.97524810920E+03  0.12699999809E+01 0.  1.
       -4    1    3    3    0  502 -0.42198572372E+03  0.87734228696E+03 -0.14157053380E+04  0.17181457029E+04  0.12699999809E+01 0. -1.
</event>
<event>
 5   0  0.2529875E-07  0.2524383E+04  0.7818609E-02  0.8394350E-01
       -1   -1    0    0    0  501  0.00000000000E+00  0.00000000000E+00  0.67698456964E+03  0.67698456965E+03  0.50400001928E-02 0. -1.
        1   -1    0    0  501    0  0.00000000000E+00  0.00000000000E+00 -0.23532691279E+04  0.23532691279E+04  0.50400001928E-02 0.  1.
    10030    2    1    2    0    0  0.00000000000E+00  0.00000000000E+00 -0.16762845582E+04  0.30302536975E+04  0.25243826079E+04 0.  0.
        5    1    3    3  502    0  0.10323087379E+04 -0.28148286928E+03 -0.16417886703E+04  0.19596902980E+04  0.46999998093E+01 0.  1.
       -5    1    3    3    0  502 -0.10323087379E+04  0.28148286928E+03 -0.34495887932E+02  0.10705633995E+04  0.46999998093E+01 0. -1.
</event>
<event>
 5   0  0.7551495E-07  0.2856284E+04  0.7818609E-02  0.8286004E-01
       -2   -1    0    0    0  501  0.00000000000E+00  0.00000000000E+00  0.15541650553E+04  0.15541650553E+04  0.25500000920E-02 0. -1.
        2   -1    0    0  501    0  0.00000000000E+00  0.00000000000E+00 -0.13123378909E+04  0.13123378909E+04  0.25500000920E-02 0.  1.
    10030    2    1    2    0    0  0.00000000000E+00  0.00000000000E+00  0.24182716435E+03  0.28665029462E+04  0.28562840831E+04 0.  0.
        1    1    3    3  502    0 -0.11463551888E+03 -0.13191078160E+04 -0.41616736058E+03  0.13879416430E+04  0.50400001928E-02 0.  1.
       -1    1    3    3    0  502  0.11463551888E+03  0.13191078160E+04  0.65799452494E+03  0.14785613032E+04  0.50400001928E-02 0. -1.
</event>
<event>
 5   0  0.2529875E-07  0.3697089E+04  0.7818609E-02  0.8068607E-01
        1   -1    0    0  501    0  0.00000000000E+00  0.00000000000E+00  0.17004003853E+04  0.17004003853E+04  0.50400001928E-02 0. -1.
       -1   -1    0    0    0  501  0.00000000000E+00  0.00000000000E+00 -0.20095950267E+04  0.20095950267E+04  0.50400001928E-02 0.  1.
    10030    2    1    2    0    0  0.00000000000E+00  0.00000000000E+00 -0.30919464140E+03  0.37099954119E+04  0.36970886695E+04 0.  0.
        5    1    3    3  502    0 -0.17217842203E+02 -0.14295970452E+04  0.10212655213E+04  0.17570001482E+04  0.46999998093E+01 0. -1.
       -5    1    3    3    0  502  0.17217842203E+02  0.14295970452E+04 -0.13304601627E+04  0.19529952637E+04  0.46999998093E+01 0.  1.
</event>
<event>
 5   0  0.2529875E-07  0.3530309E+04  0.7818609E-02  0.8106645E-01
        1   -1    0    0  501    0  0.00000000000E+00  0.00000000000E+00  0.25712365400E+04  0.25712365400E+04  0.50400001928E-02 0. -1.
       -1   -1    0    0    0  501  0.00000000000E+00  0.00000000000E+00 -0.12117787548E+04  0.12117787548E+04  0.50400001928E-02 0.  1.
    10030    2    1    2    0    0  0.00000000000E+00  0.00000000000E+00  0.13594577852E+04  0.37830152949E+04  0.35303086624E+04 0.  0.
        3    1    3    3  502    0 -0.40941979670E+03  0.13806992385E+04  0.17734855002E+04  0.22845581163E+04  0.10100000352E+00 0. -1.
       -3    1    3    3    0  502  0.40941979670E+03 -0.13806992385E+04 -0.41402771497E+03  0.14984571786E+04  0.10100000352E+00 0.  1.
</event>
<event>
 5   0  0.2529875E-07  0.3654263E+04  0.7818609E-02  0.8078174E-01
        1   -1    0    0  501    0  0.00000000000E+00  0.00000000000E+00  0.21884619270E+04  0.21884619270E+04  0.50400001928E-02 0.  1.
       -1   -1    0    0    0  501  0.00000000000E+00  0.00000000000E+00 -0.15254592652E+04  0.15254592652E+04  0.50400001928E-02 0. -1.
    10030    2    1    2    0    0  0.00000000000E+00  0.00000000000E+00  0.66300266181E+03  0.37139211921E+04  0.36542630025E+04 0.  0.
        3    1    3    3  502    0 -0.97963892892E+03  0.14476260824E+04  0.87225515779E+03  0.19534950156E+04  0.10100000352E+00 0.  1.
       -3    1    3    3    0  502  0.97963892892E+03 -0.14476260824E+04 -0.20925249598E+03  0.17604261765E+04  0.10100000352E+00 0. -1.
</event>
<event>
 5   0  0.2529875E-07  0.3800166E+04  0.7818609E-02  0.8046119E-01
        3   -1    0    0  501    0  0.00000000000E+00  0.00000000000E+00  0.13885516099E+04  0.13885516136E+04  0.10100000352E+00 0. -1.
       -3   -1    0    0    0  501  0.00000000000E+00  0.00000000000E+00 -0.26000578141E+04  0.26000578161E+04  0.10100000352E+00 0.  1.
    10030    2    1    2    0    0  0.00000000000E+00  0.00000000000E+00 -0.12115062042E+04  0.39886094296E+04  0.38001655095E+04 0.  0.
        2    1    3    3  502    0  0.18582550036E+03 -0.18314210519E+04 -0.11157609012E+03  0.18442026488E+04  0.25500000920E-02 0. -1.
       -2    1    3    3    0  502 -0.18582550036E+03  0.18314210519E+04 -0.10999301141E+04  0.21444067809E+04  0.25500000920E-02 0.  1.
</event>
<event>
 5   0  0.7649458E-07  0.2508475E+04  0.7818609E-02  0.8399972E-01
        2   -1    0    0  501    0  0.00000000000E+00  0.00000000000E+00  0.13133171322E+04  0.13133171322E+04  0.25500000920E-02 0. -1.
       -2   -1    0    0    0  501  0.00000000000E+00  0.00000000000E+00 -0.11978156663E+04  0.11978156663E+04  0.25500000920E-02 0.  1.
    10030    2    1    2    0    0  0.00000000000E+00  0.00000000000E+00  0.11550146585E+03  0.25111327985E+04  0.25084751031E+04 0.  0.
        4    1    3    3  502    0 -0.48876446438E+03 -0.93732566670E+03  0.73347709489E+03  0.12866469480E+04  0.12699999809E+01 0. -1.
       -4    1    3    3    0  502  0.48876446438E+03  0.93732566670E+03 -0.61797562904E+03  0.12244858505E+04  0.12699999809E+01 0.  1.
</event>
<event>
 5   0  0.8421677E-07  0.2911035E+04  0.7818609E-02  0.8269602E-01
       -2   -1    0    0    0  501  0.00000000000E+00  0.00000000000E+00  0.10620915147E+04  0.10620915147E+04  0.25500000920E-02 0. -1.
        2   -1    0    0  501    0  0.00000000000E+00  0.00000000000E+00 -0.19946791399E+04  0.19946791399E+04  0.25500000920E-02 0.  1.
    10030    2    1    2    0    0  0.00000000000E+00  0.00000000000E+00 -0.93258762516E+03  0.30567706546E+04  0.29110354096E+04 0.  0.
        3    1    3    3  502    0 -0.10207717018E+04 -0.20282029584E+03 -0.15347920694E+04  0.18543725748E+04  0.10100000352E+00 0.  1.
       -3    1    3    3    0  502  0.10207717018E+04  0.20282029584E+03  0.60220444425E+03  0.12023980798E+04  0.10100000352E+00 0. -1.
</event>
<event>
 5   0  0.8038352E-07  0.3752781E+04  0.7818609E-02  0.8056365E-01
        2   -1    0    0  501    0  0.00000000000E+00  0.00000000000E+00  0.16314222954E+04  0.16314222954E+04  0.25500000920E-02 0. -1.
       -2   -1    0    0    0  501  0.00000000000E+00  0.00000000000E+00 -0.21581419117E+04  0.21581419117E+04  0.25500000920E-02 0.  1.
    10030    2    1    2    0    0  0.00000000000E+00  0.00000000000E+00 -0.52671961629E+03  0.37895642072E+04  0.37527807458E+04 0.  0.
        2    1    3    3  502    0 -0.73322193911E+03 -0.16860670496E+04 -0.64173819311E+03  0.19473737228E+04  0.25500000920E-02 0.  1.
       -2    1    3    3    0  502  0.73322193911E+03  0.16860670496E+04  0.11501857682E+03  0.18421904844E+04  0.25500000920E-02 0. -1.
</event>
<event>
 5   0  0.7551495E-07  0.3704760E+04  0.7818609E-02  0.8066908E-01
       -2   -1    0    0    0  501  0.00000000000E+00  0.00000000000E+00  0.14542453960E+04  0.14542453960E+04  0.25500000920E-02 0. -1.
        2   -1    0    0  501    0  0.00000000000E+00  0.00000000000E+00 -0.23595140518E+04  0.23595140518E+04  0.25500000920E-02 0.  1.
    10030    2    1    2    0    0  0.00000000000E+00  0.00000000000E+00 -0.90526865583E+03  0.38137594477E+04  0.37047604222E+04 0.  0.
        1    1    3    3  502    0  0.15546008868E+04  0.10044593258E+04 -0.37566835514E+03  0.18886103800E+04  0.50400001928E-02 0. -1.
       -1    1    3    3    0  502 -0.15546008868E+04 -0.10044593258E+04 -0.52960030070E+03  0.19251490677E+04  0.50400001928E-02 0.  1.
</event>
<event>
 5   0  0.7638805E-07  0.3726082E+04  0.7818609E-02  0.8062206E-01
        2   -1    0    0  501    0  0.00000000000E+00  0.00000000000E+00  0.21371670914E+04  0.21371670914E+04  0.25500000920E-02 0. -1.
       -2   -1    0    0    0  501  0.00000000000E+00  0.00000000000E+00 -0.16240758841E+04  0.16240758841E+04  0.25500000920E-02 0.  1.
    10030    2    1    2    0    0  0.00000000000E+00  0.00000000000E+00  0.51309120729E+03  0.37612429754E+04  0.37260818742E+04 0.  0.
        5    1    3    3  502    0 -0.16851531773E+03  0.78615625020E+03 -0.14399265669E+04  0.16491966742E+04  0.46999998093E+01 0.  1.
       -5    1    3    3    0  502  0.16851531773E+03 -0.78615625020E+03  0.19530177742E+04  0.21120463012E+04  0.46999998093E+01 0. -1.
</event>
<event>
 5   0  0.8421677E-07  0.3211325E+04  0.7818609E-02  0.8185833E-01
        2   -1    0    0  501    0  0.00000000000E+00  0.00000000000E+00  0.15631386814E+04  0.15631386814E+04  0.25500000920E-02 0.  1.
       -2   -1    0    0    0  501  0.00000000000E+00  0.00000000000E+00 -0.16493436474E+04  0.16493436474E+04  0.25500000920E-02 0. -1.
    10030    2    1    2    0    0  0.00000000000E+00  0.00000000000E+00 -0.86204965980E+02  0.32124823288E+04  0.32113254921E+04 0.  0.
        3    1    3    3  502    0 -0.13094496760E+04 -0.55204519486E+03 -0.79086121595E+03  0.16263068051E+04  0.10100000352E+00 0. -1.
       -3    1    3    3    0  502  0.13094496760E+04  0.55204519486E+03  0.70465624997E+03  0.15861755237E+04  0.10100000352E+00 0.  1.
</event>
<event>
 5   0  0.2529875E-07  0.2901682E+04  0.7818609E-02  0.8272377E-01
       -1   -1    0    0    0  501  0.00000000000E+00  0.00000000000E+00  0.11556263251E+04  0.11556263252E+04  0.50400001928E-02 0.  1.
        1   -1    0    0  501    0  0.00000000000E+00  0.00000000000E+00 -0.18214708294E+04  0.18214708294E+04  0.50400001928E-02 0. -1.
    10030    2    1    2    0    0  0.00000000000E+00  0.00000000000E+00 -0.66584450430E+03  0.29770971546E+04  0.29016820232E+04 0.  0.
        1    1    3    3  502    0 -0.51914494396E+02  0.11343419663E+03 -0.18159579845E+04  0.18202378507E+04  0.50400001928E-02 0. -1.
       -1    1    3    3    0  502  0.51914494396E+02 -0.11343419663E+03  0.11501134802E+04  0.11568593039E+04  0.50400001928E-02 0.  1.
</event>
<event>
 5   0  0.2529875E-07  0.3183256E+04  0.7818609E-02  0.8193253E-01
       -1   -1    0    0    0  501  0.00000000000E+00  0.00000000000E+00  0.94518518226E+03  0.94518518228E+03  0.50400001928E-02 0.  1.
        1   -1    0    0  501    0  0.00000000000E+00  0.00000000000E+00 -0.26801944158E+04  0.26801944158E+04  0.50400001928E-02 0. -1.
    10030    2    1    2    0    0  0.00000000000E+00  0.00000000000E+00 -0.17350092335E+04  0.36253795981E+04  0.31832562243E+04 0.  0.
        3    1    3    3  502    0  0.13497129314E+04 -0.23150736709E+03  0.56302769940E+02  0.13705804136E+04  0.10100000352E+00 0.  1.
       -3    1    3    3    0  502 -0.13497129314E+04  0.23150736709E+03 -0.17913120035E+04  0.22547991844E+04  0.10100000352E+00 0. -1.
</event>
<event>
 5   0  0.2529875E-07  0.3716760E+04  0.7818609E-02  0.8064258E-01
       -1   -1    0    0    0  501  0.00000000000E+00  0.00000000000E+00  0.22232600499E+04  0.22232600499E+04  0.50400001928E-02 0.  1.
        1   -1    0    0  501    0  0.00000000000E+00  0.00000000000E+00 -0.15533838776E+04  0.15533838776E+04  0.50400001928E-02 0. -1.
    10030    2    1    2    0    0  0.00000000000E+00  0.00000000000E+00  0.66987617230E+03  0.37766439275E+04  0.37167600499E+04 0.  0.
        5    1    3    3  502    0  0.33400942140E+03 -0.13180245928E+04 -0.95228077297E+03  0.16600035787E+04  0.46999998093E+01 0. -1.
       -5    1    3    3    0  502 -0.33400942140E+03  0.13180245928E+04  0.16221569453E+04  0.21166403487E+04  0.46999998093E+01 0.  1.
</event>
<event>
 5   0  0.2529875E-07  0.3686387E+04  0.7818609E-02  0.8070985E-01
        1   -1    0    0  501    0  0.00000000000E+00  0.00000000000E+00  0.28271405684E+04  0.28271405684E+04  0.50400001928E-02 0.  1.
       -1   -1    0    0    0  501  0.00000000000E+00  0.00000000000E+00 -0.12016956036E+04  0.12016956036E+04  0.50400001928E-02 0. -1.
    10030    2    1    2    0    0  0.00000000000E+00  0.00000000000E+00  0.16254449649E+04  0.40288361720E+04  0.36863870615E+04 0.  0.
        3    1    3    3  502    0 -0.56611456071E+03 -0.17082698603E+04  0.12480884810E+04  0.21900676880E+04  0.10100000352E+00 0. -1.
       -3    1    3    3    0  502  0.56611456071E+03  0.17082698603E+04  0.37735648381E+03  0.18387684839E+04  0.10100000352E+00 0.  1.
</event>
<event>
 5   0  0.8038352E-07  0.3943068E+04  0.7818609E-02  0.8016131E-01
        2   -1    0    0  501    0  0.00000000000E+00  0.00000000000E+00  0.20918131724E+04  0.20918131724E+04  0.25500000920E-02 0. -1.
       -2   -1    0    0    0  501  0.00000000000E+00  0.00000000000E+00 -0.18581710540E+04  0.18581710540E+04  0.25500000920E-02 0.  1.
    10030    2    1    2    0    0  0.00000000000E+00  0.00000000000E+00  0.23364211847E+03  0.39499842264E+04  0.39430681898E+04 0.  0.
        2    1    3    3  502    0  0.13717419008E+04  0.94411855913E+03  0.11740920550E+04  0.20375298402E+04  0.25500000920E-02 0. -1.
       -2    1    3    3    0  502 -0.13717419008E+04 -0.94411855913E+03 -0.94044993650E+03  0.19124543862E+04  0.25500000920E-02 0.  1.
</event>
<event>
 5   0  0.7551495E-07  0.3837844E+04  0.7818609E-02  0.8038082E-01
       -2   -1    0    0    0  501  0.00000000000E+00  0.00000000000E+00  0.15651559159E+04  0.15651559159E+04  0.25500000920E-02 0. -1.
        2   -1    0    0  501    0  0.00000000000E+00  0.00000000000E+00 -0.23526482798E+04  0.23526482798E+04  0.25500000920E-02 0.  1.
    10030    2    1    2    0    0  0.00000000000E+00  0.00000000000E+00 -0.78749236388E+03  0.39178041957E+04  0.38378438599E+04 0.  0.
        1    1    3    3  502    0 -0.69090183689E+03 -0.38797739866E+03  0.13903474323E+04  0.16002930333E+04  0.50400001928E-02 0. -1.
       -1    1    3    3    0  502  0.69090183689E+03  0.38797739866E+03 -0.21778397961E+04  0.23175111624E+04  0.50400001928E-02 0.  1.
</event>
<event>
 5   0  0.2529875E-07  0.3822629E+04  0.7818609E-02  0.8041316E-01
       -1   -1    0    0    0  501  0.00000000000E+00  0.00000000000E+00  0.20342866265E+04  0.20342866265E+04  0.50400001928E-02 0.  1.
        1   -1    0    0  501    0  0.00000000000E+00  0.00000000000E+00 -0.17957757811E+04  0.17957757811E+04  0.50400001928E-02 0. -1.
    10030    2    1    2    0    0  0.00000000000E+00  0.00000000000E+00  0.23851084537E+03  0.38300624076E+04  0.38226287582E+04 0.  0.
        3    1    3    3  502    0 -0.14802024606E+04 -0.16580403657E+03  0.13193460294E+04  0.19897648751E+04  0.10100000352E+00 0.  1.
       -3    1    3    3    0  502  0.14802024606E+04  0.16580403657E+03 -0.10808351840E+04  0.18402975325E+04  0.10100000352E+00 0. -1.
</event>
<event>
 5   0  0.2907071E-07  0.3816077E+04  0.7818609E-02  0.8042714E-01
       -1   -1    0    0    0  501  0.00000000000E+00  0.00000000000E+00  0.21399027400E+04  0.21399027400E+04  0.50400001928E-02 0.  1.
        1   -1    0    0  501    0  0.00000000000E+00  0.00000000000E+00 -0.17012976638E+04  0.17012976638E+04  0.50400001928E-02 0. -1.
    10030    2    1    2    0    0  0.00000000000E+00  0.00000000000E+00  0.43860507620E+03  0.38412004037E+04  0.38160773222E+04 0.  0.
        2    1    3    3  502    0 -0.46967379060E+02 -0.14001108548E+04  0.15232440045E+04  0.20694899462E+04  0.25500000920E-02 0.  1.
       -2    1    3    3    0  502  0.46967379060E+02  0.14001108548E+04 -0.10846389283E+04  0.17717104575E+04  0.25500000920E-02 0. -1.
</event>
<event>
 5   0  0.8038352E-07  0.3758266E+04  0.7818609E-02  0.8055171E-01
        2   -1    0    0  501    0  0.00000000000E+00  0.00000000000E+00  0.18015954361E+04  0.18015954361E+04  0.25500000920E-02 0.  1.
       -2   -1    0    0    0  501  0.00000000000E+00  0.00000000000E+00 -0.19600075851E+04  0.19600075851E+04  0.25500000920E-02 0. -1.
    10030    2    1    2    0    0  0.00000000000E+00  0.00000000000E+00 -0.15841214898E+03  0.37616030212E+04  0.37582659406E+04 0.  0.
        2    1    3    3  502    0  0.12419334003E+04 -0.14017616952E+03  0.13252835766E+04  0.18216543272E+04  0.25500000920E-02 0.  1.
       -2    1    3    3    0  502 -0.12419334003E+04  0.14017616952E+03 -0.14836957256E+04  0.19399486940E+04  0.25500000920E-02 0. -1.
</event>
<event>
 5   0  0.2529875E-07  0.3731576E+04  0.7818609E-02  0.8061000E-01
        1   -1    0    0  501    0  0.00000000000E+00  0.00000000000E+00  0.13611473200E+04  0.13611473200E+04  0.50400001928E-02 0.  1.
       -1   -1    0    0    0  501  0.00000000000E+00  0.00000000000E+00 -0.25575219552E+04  0.25575219552E+04  0.50400001928E-02 0. -1.
    10030    2    1    2    0    0  0.00000000000E+00  0.00000000000E+00 -0.11963746351E+04  0.39186692752E+04  0.37315756217E+04 0.  0.
        4    1    3    3  502    0  0.11197893628E+04  0.63854528685E+02  0.96759514365E+03  0.14812992921E+04  0.12699999809E+01 0.  1.
       -4    1    3    3    0  502 -0.11197893628E+04 -0.63854528685E+02 -0.21639697788E+04  0.24373699831E+04  0.12699999809E+01 0. -1.
</event>
<event>
 5   0  0.7551495E-07  0.3760252E+04  0.7818609E-02  0.8054739E-01
       -2   -1    0    0    0  501  0.00000000000E+00  0.00000000000E+00  0.11299922882E+04  0.11299922882E+04  0.25500000920E-02 0.  1.
        2   -1    0    0  501    0  0.00000000000E+00  0.00000000000E+00 -0.31282275430E+04  0.31282275430E+04  0.25500000920E-02 0. -1.
    10030    2    1    2    0    0  0.00000000000E+00  0.00000000000E+00 -0.19982352549E+04  0.42582198312E+04  0.37602515869E+04 0.  0.
        1    1    3    3  502    0  0.80744677864E+03  0.11359049752E+02 -0.29218394187E+04  0.30313767362E+04  0.50400001928E-02 0. -1.
       -1    1    3    3    0  502 -0.80744677864E+03 -0.11359049752E+02  0.92360416378E+03  0.12268430950E+04  0.50400001928E-02 0.  1.
</event>
<event>
 5   0  0.2529875E-07  0.3933430E+04  0.7818609E-02  0.8018112E-01
        1   -1    0    0  501    0  0.00000000000E+00  0.00000000000E+00  0.22994955019E+04  0.22994955019E+04  0.50400001928E-02 0. -1.
       -1   -1    0    0    0  501  0.00000000000E+00  0.00000000000E+00 -0.16820941724E+04  0.16820941724E+04  0.50400001928E-02 0.  1.
    10030    2    1    2    0    0  0.00000000000E+00  0.00000000000E+00  0.61740132956E+03  0.39815896743E+04  0.39334300468E+04 0.  0.
        4    1    3    3  502    0  0.37714000119E+03 -0.13209987993E+04  0.17333033524E+04  0.22116994671E+04  0.12699999809E+01 0. -1.
       -4    1    3    3    0  502 -0.37714000119E+03  0.13209987993E+04 -0.11159020229E+04  0.17698902072E+04  0.12699999809E+01 0.  1.
</event>
<event>
 5   0  0.2529875E-07  0.3939735E+04  0.7818609E-02  0.8016816E-01
        1   -1    0    0  501    0  0.00000000000E+00  0.00000000000E+00  0.15744632635E+04  0.15744632635E+04  0.50400001928E-02 0. -1.
       -1   -1    0    0    0  501  0.00000000000E+00  0.00000000000E+00 -0.24645716097E+04  0.24645716097E+04  0.50400001928E-02 0.  1.
    10030    2    1    2    0    0  0.00000000000E+00  0.00000000000E+00 -0.89010834621E+03  0.40390348731E+04  0.39397347421E+04 0.  0.
        3    1    3    3  502    0  0.18391991980E+04 -0.46427433774E+03 -0.98964262070E+03  0.21395319296E+04  0.10100000352E+00 0.  1.
       -3    1    3    3    0  502 -0.18391991980E+04  0.46427433774E+03  0.99534274496E+02  0.18995029436E+04  0.10100000352E+00 0. -1.
</event>
<event>
 5   0  0.2907071E-07  0.3563806E+04  0.7818609E-02  0.8098833E-01
       -1   -1    0    0    0  501  0.00000000000E+00  0.00000000000E+00  0.13118300579E+04  0.13118300579E+04  0.50400001928E-02 0. -1.
        1   -1    0    0  501    0  0.00000000000E+00  0.00000000000E+00 -0.24204186310E+04  0.24204186310E+04  0.50400001928E-02 0.  1.
    10030    2    1    2    0    0  0.00000000000E+00  0.00000000000E+00 -0.11085885731E+04  0.37322486889E+04  0.35638057820E+04 0.  0.
        2    1    3    3  502    0 -0.84755656089E+03  0.15665330417E+04 -0.49887805550E+03  0.18496640800E+04  0.25500000920E-02 0.  1.
       -2    1    3    3    0  502  0.84755656089E+03 -0.15665330417E+04 -0.60971051759E+03  0.18825846089E+04  0.25500000920E-02 0. -1.
</event>
<event>
 5   0  0.7551495E-07  0.3786624E+04  0.7818609E-02  0.8049031E-01
        2   -1    0    0  501    0  0.00000000000E+00  0.00000000000E+00  0.13025732522E+04  0.13025732522E+04  0.25500000920E-02 0.  1.
       -2   -1    0    0    0  501  0.00000000000E+00  0.00000000000E+00 -0.27519602284E+04  0.27519602284E+04  0.25500000920E-02 0. -1.
    10030    2    1    2    0    0  0.00000000000E+00  0.00000000000E+00 -0.14493869763E+04  0.40545334806E+04  0.37866237123E+04 0.  0.
        1    1    3    3  502    0 -0.12592404315E+04  0.13297808560E+03  0.78246697522E+03  0.14884972969E+04  0.50400001928E-02 0.  1.
       -1    1    3    3    0  502  0.12592404315E+04 -0.13297808560E+03 -0.22318539515E+04  0.25660361837E+04  0.50400001928E-02 0. -1.
</event>
<event>
 5   0  0.7638805E-07  0.3110403E+04  0.7818609E-02  0.8212889E-01
       -2   -1    0    0    0  501  0.00000000000E+00  0.00000000000E+00  0.14344727324E+04  0.14344727324E+04  0.25500000920E-02 0. -1.
        2   -1    0    0  501    0  0.00000000000E+00  0.00000000000E+00 -0.16860915814E+04  0.16860915814E+04  0.25500000920E-02 0.  1.
    10030    2    1    2    0    0  0.00000000000E+00  0.00000000000E+00 -0.25161884898E+03  0.31205643137E+04  0.31104034451E+04 0.  0.
        5    1    3    3  502    0  0.75873469356E+03  0.42569236392E+03  0.11674858387E+04  0.14560005486E+04  0.46999998093E+01 0. -1.
       -5    1    3    3    0  502 -0.75873469356E+03 -0.42569236392E+03 -0.14191046876E+04  0.16645637652E+04  0.46999998093E+01 0.  1.
</event>
<event>
 5   0  0.2529875E-07  0.3822138E+04  0.7818609E-02  0.8041421E-01
       -1   -1    0    0    0  501  0.00000000000E+00  0.00000000000E+00  0.17465723753E+04  0.17465723753E+04  0.50400001928E-02 0. -1.
        1   -1    0    0  501    0  0.00000000000E+00  0.00000000000E+00 -0.20910588411E+04  0.20910588411E+04  0.50400001928E-02 0.  1.
    10030    2    1    2    0    0  0.00000000000E+00  0.00000000000E+00 -0.34448646574E+03  0.38376312164E+04  0.38221384627E+04 0.  0.
        5    1    3    3  502    0  0.12462840722E+04 -0.54541211788E+03  0.11753839257E+04  0.17978453297E+04  0.46999998093E+01 0. -1.
       -5    1    3    3    0  502 -0.12462840722E+04  0.54541211788E+03 -0.15198703914E+04  0.20397858867E+04  0.46999998093E+01 0.  1.
</event>
<event>
 5   0  0.7649458E-07  0.2342909E+04  0.7818609E-02  0.8461192E-01
        2   -1    0    0  501    0  0.00000000000E+00  0.00000000000E+00  0.11629439918E+04  0.11629439918E+04  0.25500000920E-02 0. -1.
       -2   -1    0    0    0  501  0.00000000000E+00  0.00000000000E+00 -0.11800271804E+04  0.11800271804E+04  0.25500000920E-02 0.  1.
    10030    2    1    2    0    0  0.00000000000E+00  0.00000000000E+00 -0.17083188559E+02  0.23429711722E+04  0.23429088924E+04 0.  0.
        4    1    3    3  502    0  0.82209612263E+02 -0.54858626414E+03 -0.10403628950E+04  0.11790088531E+04  0.12699999809E+01 0.  1.
       -4    1    3    3    0  502 -0.82209612263E+02  0.54858626414E+03  0.10232797065E+04  0.11639623190E+04  0.12699999809E+01 0. -1.
</event>
<event>
 5   0  0.2529875E-07  0.3843203E+04  0.7818609E-02  0.8036947E-01
       -1   -1    0    0    0  501  0.00000000000E+00  0.00000000000E+00  0.18291678868E+04  0.18291678868E+04  0.50400001928E-02 0. -1.
        1   -1    0    0  501    0  0.00000000000E+00  0.00000000000E+00 -0.20187060552E+04  0.20187060552E+04  0.50400001928E-02 0.  1.
    10030    2    1    2    0    0  0.00000000000E+00  0.00000000000E+00 -0.18953816842E+03  0.38478739419E+04  0.38432029813E+04 0.  0.
        1    1    3    3  502    0 -0.52877291809E+03 -0.62776274369E+03  0.16448308807E+04  0.18382479395E+04  0.50400001928E-02 0. -1.
       -1    1    3    3    0  502  0.52877291809E+03  0.62776274369E+03 -0.18343690491E+04  0.20096260024E+04  0.50400001928E-02 0.  1.
</event>
<event>
 5   0  0.2529875E-07  0.3543296E+04  0.7818609E-02  0.8103605E-01
        1   -1    0    0  501    0  0.00000000000E+00  0.00000000000E+00  0.24497811695E+04  0.24497811695E+04  0.50400001928E-02 0. -1.
       -1   -1    0    0    0  501  0.00000000000E+00  0.00000000000E+00 -0.12812314875E+04  0.12812314875E+04  0.50400001928E-02 0.  1.
    10030    2    1    2    0    0  0.00000000000E+00  0.00000000000E+00  0.11685496820E+04  0.37310126570E+04  0.35432960768E+04 0.  0.
        5    1    3    3  502    0 -0.21094994414E+03 -0.11704791685E+03 -0.12638483376E+04  0.12866758738E+04  0.46999998093E+01 0.  1.
       -5    1    3    3    0  502  0.21094994414E+03  0.11704791685E+03  0.24323980197E+04  0.24443367832E+04  0.46999998093E+01 0. -1.
</event>
<event>
 5   0  0.2907071E-07  0.3488366E+04  0.7818609E-02  0.8116553E-01
       -1   -1    0    0    0  501  0.00000000000E+00  0.00000000000E+00  0.15679301479E+04  0.15679301479E+04  0.50400001928E-02 0.  1.
        1   -1    0    0  501    0  0.00000000000E+00  0.00000000000E+00 -0.19402487046E+04  0.19402487046E+04  0.50400001928E-02 0. -1.
    10030    2    1    2    0    0  0.00000000000E+00  0.00000000000E+00 -0.37231855671E+03  0.35081788525E+04  0.34883660579E+04 0.  0.
        2    1    3    3  502    0  0.15800138792E+04  0.90831892951E+02 -0.92345359786E+03  0.18323375340E+04  0.25500000920E-02 0. -1.
       -2    1    3    3    0  502 -0.15800138792E+04 -0.90831892951E+02  0.55113504115E+03  0.16758413185E+04  0.25500000920E-02 0.  1.
</event>
<event>
 5   0  0.2907071E-07  0.3788843E+04  0.7818609E-02  0.8048553E-01
       -1   -1    0    0    0  501  0.00000000000E+00  0.00000000000E+00  0.20792078914E+04  0.20792078914E+04  0.50400001928E-02 0. -1.
        1   -1    0    0  501    0  0.00000000000E+00  0.00000000000E+00 -0.17260579311E+04  0.17260579311E+04  0.50400001928E-02 0.  1.
    10030    2    1    2    0    0  0.00000000000E+00  0.00000000000E+00  0.35314996025E+03  0.38052658225E+04  0.37888432385E+04 0.  0.
        2    1    3    3  502    0  0.24724381869E+03 -0.56518895927E+03  0.19755017898E+04  0.20695833849E+04  0.25500000920E-02 0. -1.
       -2    1    3    3    0  502 -0.24724381869E+03  0.56518895927E+03 -0.16223518295E+04  0.17356824376E+04  0.25500000920E-02 0.  1.
</event>
<event>
 5   0  0.2529875E-07  0.3805497E+04  0.7818609E-02  0.8044976E-01
       -3   -1    0    0    0  501  0.00000000000E+00  0.00000000000E+00  0.19427639332E+04  0.19427639358E+04  0.10100000352E+00 0.  1.
        3   -1    0    0  501    0  0.00000000000E+00  0.00000000000E+00 -0.18635576570E+04  0.18635576598E+04  0.10100000352E+00 0. -1.
    10030    2    1    2    0    0  0.00000000000E+00  0.00000000000E+00  0.79206276175E+02  0.38063215956E+04  0.38054973991E+04 0.  0.
        2    1    3    3  502    0  0.60897134601E+03  0.70016410602E+03 -0.16218938140E+04  0.18685864763E+04  0.25500000920E-02 0. -1.
       -2    1    3    3    0  502 -0.60897134601E+03 -0.70016410602E+03  0.17011000902E+04  0.19377351193E+04  0.25500000920E-02 0.  1.
</event>
<event>
 5   0  0.2529875E-07  0.3823821E+04  0.7818609E-02  0.8041062E-01
       -1   -1    0    0    0  501  0.00000000000E+00  0.00000000000E+00  0.13733493839E+04  0.13733493839E+04  0.50400001928E-02 0. -1.
        1   -1    0    0  501    0  0.00000000000E+00  0.00000000000E+00 -0.26616693603E+04  0.26616693603E+04  0.50400001928E-02 0.  1.
    10030    2    1    2    0    0  0.00000000000E+00  0.00000000000E+00 -0.12883199764E+04  0.40350187442E+04  0.38238211130E+04 0.  0.
        5    1    3    3  502    0 -0.17345112599E+04  0.44409055167E+03  0.63423414875E+02  0.17915887777E+04  0.46999998093E+01 0. -1.
       -5    1    3    3    0  502  0.17345112599E+04 -0.44409055167E+03 -0.13517433913E+04  0.22434299665E+04  0.46999998093E+01 0.  1.
</event>
<event>
 5   0  0.2907071E-07  0.3452111E+04  0.7818609E-02  0.8125234E-01
       -1   -1    0    0    0  501  0.00000000000E+00  0.00000000000E+00  0.14959866208E+04  0.14959866208E+04  0.50400001928E-02 0.  1.
        1   -1    0    0  501    0  0.00000000000E+00  0.00000000000E+00 -0.19915064977E+04  0.19915064977E+04  0.50400001928E-02 0. -1.
    10030    2    1    2    0    0  0.00000000000E+00  0.00000000000E+00 -0.49551987693E+03  0.34874931186E+04  0.34521107027E+04 0.  0.
        2    1    3    3  502    0  0.27776198312E+03 -0.18785680070E+03 -0.19582842461E+04  0.19867861197E+04  0.25500000920E-02 0. -1.
       -2    1    3    3    0  502 -0.27776198312E+03  0.18785680070E+03  0.14627643692E+04  0.15007069989E+04  0.25500000920E-02 0.  1.
</event>
<event>
 5   0  0.2907071E-07  0.3774335E+04  0.7818609E-02  0.8051685E-01
        1   -1    0    0  501    0  0.00000000000E+00  0.00000000000E+00  0.21547056586E+04  0.21547056586E+04  0.50400001928E-02 0. -1.
       -1   -1    0    0    0  501  0.00000000000E+00  0.00000000000E+00 -0.16528482088E+04  0.16528482088E+04  0.50400001928E-02 0.  1.
    10030    2    1    2    0    0  0.00000000000E+00  0.00000000000E+00  0.50185744983E+03  0.38075538674E+04  0.37743351140E+04 0.  0.
        2    1    3    3  502    0 -0.80480703282E+02 -0.31534664208E+03  0.21261815874E+04  0.21509460223E+04  0.25500000920E-02 0. -1.
       -2    1    3    3    0  502  0.80480703282E+02  0.31534664208E+03 -0.16243241376E+04  0.16566078450E+04  0.25500000920E-02 0.  1.
</event>
<event>
 5   0  0.2529875E-07  0.3868229E+04  0.7818609E-02  0.8031670E-01
       -4   -1    0    0    0  501  0.00000000000E+00  0.00000000000E+00  0.14907109885E+04  0.14907115295E+04  0.12699999809E+01 0.  1.
        4   -1    0    0  501    0  0.00000000000E+00  0.00000000000E+00 -0.25094040818E+04  0.25094044032E+04  0.12699999809E+01 0. -1.
    10030    2    1    2    0    0  0.00000000000E+00  0.00000000000E+00 -0.10186930933E+04  0.40001159327E+04  0.38682285166E+04 0.  0.
        4    1    3    3  502    0  0.11304976523E+04 -0.95720139125E+03  0.77665236283E+03  0.16725579066E+04  0.12699999809E+01 0.  1.
       -4    1    3    3    0  502 -0.11304976523E+04  0.95720139125E+03 -0.17953454561E+04  0.23275580261E+04  0.12699999809E+01 0. -1.
</event>
<event>
 5   0  0.7551495E-07  0.3827740E+04  0.7818609E-02  0.8040228E-01
        2   -1    0    0  501    0  0.00000000000E+00  0.00000000000E+00  0.20769152045E+04  0.20769152045E+04  0.25500000920E-02 0. -1.
       -2   -1    0    0    0  501  0.00000000000E+00  0.00000000000E+00 -0.17636247187E+04  0.17636247187E+04  0.25500000920E-02 0.  1.
    10030    2    1    2    0    0  0.00000000000E+00  0.00000000000E+00  0.31329048579E+03  0.38405399232E+04  0.38277403220E+04 0.  0.
        1    1    3    3  502    0 -0.98575552042E+02  0.48809654054E+03  0.20107812416E+04  0.20715203533E+04  0.50400001928E-02 0. -1.
       -1    1    3    3    0  502  0.98575552042E+02 -0.48809654054E+03 -0.16974907559E+04  0.17690195699E+04  0.50400001928E-02 0.  1.
</event>
<event>
 5   0  0.2529875E-07  0.3788195E+04  0.7818609E-02  0.8048693E-01
       -1   -1    0    0    0  501  0.00000000000E+00  0.00000000000E+00  0.25544348152E+04  0.25544348152E+04  0.50400001928E-02 0. -1.
        1   -1    0    0  501    0  0.00000000000E+00  0.00000000000E+00 -0.14044615680E+04  0.14044615680E+04  0.50400001928E-02 0.  1.
    10030    2    1    2    0    0  0.00000000000E+00  0.00000000000E+00  0.11499732472E+04  0.39588963832E+04  0.37881950984E+04 0.  0.
        5    1    3    3  502    0  0.56832485483E+03 -0.42344433765E+03  0.24106348303E+04  0.25126640489E+04  0.46999998093E+01 0. -1.
       -5    1    3    3    0  502 -0.56832485483E+03  0.42344433765E+03 -0.12606615831E+04  0.14462323343E+04  0.46999998093E+01 0.  1.
</event>
<event>
 5   0  0.2907071E-07  0.3529685E+04  0.7818609E-02  0.8106791E-01
       -1   -1    0    0    0  501  0.00000000000E+00  0.00000000000E+00  0.20260321317E+04  0.20260321317E+04  0.50400001928E-02 0. -1.
        1   -1    0    0  501    0  0.00000000000E+00  0.00000000000E+00 -0.15373249702E+04  0.15373249702E+04  0.50400001928E-02 0.  1.
    10030    2    1    2    0    0  0.00000000000E+00  0.00000000000E+00  0.48870716146E+03  0.35633571019E+04  0.35296854174E+04 0.  0.
        2    1    3    3  502    0  0.12257752778E+03  0.62937180157E+03 -0.14155749850E+04  0.15540227325E+04  0.25500000920E-02 0.  1.
       -2    1    3    3    0  502 -0.12257752778E+03 -0.62937180157E+03  0.19042821464E+04  0.20093343694E+04  0.25500000920E-02 0. -1.
</event>
<event>
 5   0  0.2529875E-07  0.3483215E+04  0.7818609E-02  0.8117779E-01
       -1   -1    0    0    0  501  0.00000000000E+00  0.00000000000E+00  0.13855879122E+04  0.13855879122E+04  0.50400001928E-02 0.  1.
        1   -1    0    0  501    0  0.00000000000E+00  0.00000000000E+00 -0.21891046134E+04  0.21891046134E+04  0.50400001928E-02 0. -1.
    10030    2    1    2    0    0  0.00000000000E+00  0.00000000000E+00 -0.80351670125E+03  0.35746925256E+04  0.34832151188E+04 0.  0.
        1    1    3    3  502    0 -0.10262221117E+04 -0.33626533796E+03  0.10005046391E+04  0.14721466411E+04  0.50400001928E-02 0.  1.
       -1    1    3    3    0  502  0.10262221117E+04  0.33626533796E+03 -0.18040213403E+04  0.21025458845E+04  0.50400001928E-02 0. -1.
</event>
<event>
 5   0  0.7638805E-07  0.2413168E+04  0.7818609E-02  0.8434590E-01
        2   -1    0    0  501    0  0.00000000000E+00  0.00000000000E+00  0.12725560865E+04  0.12725560865E+04  0.25500000920E-02 0.  1.
       -2   -1    0    0    0  501  0.00000000000E+00  0.00000000000E+00 -0.11440317603E+04  0.11440317603E+04  0.25500000920E-02 0. -1.
    10030    2    1    2    0    0  0.00000000000E+00  0.00000000000E+00  0.12852432617E+03  0.24165878468E+04  0.24131676939E+04 0.  0.
        5    1    3    3  502    0 -0.37247408726E+03  0.95936069200E+03 -0.56648177498E+03  0.11747483026E+04  0.46999998093E+01 0. -1.
       -5    1    3    3    0  502  0.37247408726E+03 -0.95936069200E+03  0.69500610115E+03  0.12418395443E+04  0.46999998093E+01 0.  1.
</event>
<event>
 5   0  0.7638805E-07  0.3943734E+04  0.7818609E-02  0.8015994E-01
       -2   -1    0    0    0  501  0.00000000000E+00  0.00000000000E+00  0.16246893125E+04  0.16246893125E+04  0.25500000920E-02 0.  1.
        2   -1    0    0  501    0  0.00000000000E+00  0.00000000000E+00 -0.23932323697E+04  0.23932323697E+04  0.25500000920E-02 0. -1.
    10030    2    1    2    0    0  0.00000000000E+00  0.00000000000E+00 -0.76854305720E+03  0.40179216823E+04  0.39437337910E+04 0.  0.
        5    1    3    3  502    0  0.88037607394E+03  0.83366698151E+03  0.12000293966E+04  0.17059177326E+04  0.46999998093E+01 0.  1.
       -5    1    3    3    0  502 -0.88037607394E+03 -0.83366698151E+03 -0.19685724538E+04  0.23120039497E+04  0.46999998093E+01 0. -1.
</event>
<event>
 5   0  0.7649458E-07  0.3820512E+04  0.7818609E-02  0.8041767E-01
        2   -1    0    0  501    0  0.00000000000E+00  0.00000000000E+00  0.22818573647E+04  0.22818573647E+04  0.25500000920E-02 0.  1.
       -2   -1    0    0    0  501  0.00000000000E+00  0.00000000000E+00 -0.15991698678E+04  0.15991698678E+04  0.25500000920E-02 0. -1.
    10030    2    1    2    0    0  0.00000000000E+00  0.00000000000E+00  0.68268749690E+03  0.38810272325E+04  0.38205117669E+04 0.  0.
        4    1    3    3  502    0 -0.41167941959E+03  0.17525313574E+04 -0.30770529390E+03  0.18263434135E+04  0.12699999809E+01 0. -1.
       -4    1    3    3    0  502  0.41167941959E+03 -0.17525313574E+04  0.99039279081E+03  0.20546838190E+04  0.12699999809E+01 0.  1.
</event>
<event>
 5   0  0.2529875E-07  0.3761720E+04  0.7818609E-02  0.8054420E-01
        1   -1    0    0  501    0  0.00000000000E+00  0.00000000000E+00  0.21945462468E+04  0.21945462468E+04  0.50400001928E-02 0.  1.
       -1   -1    0    0    0  501  0.00000000000E+00  0.00000000000E+00 -0.16120114874E+04  0.16120114874E+04  0.50400001928E-02 0. -1.
    10030    2    1    2    0    0  0.00000000000E+00  0.00000000000E+00  0.58253475947E+03  0.38065577342E+04  0.37617196916E+04 0.  0.
        5    1    3    3  502    0  0.12894544804E+04  0.10224407513E+04 -0.63037622427E+03  0.17622355748E+04  0.46999998093E+01 0. -1.
       -5    1    3    3    0  502 -0.12894544804E+04 -0.10224407513E+04  0.12129109837E+04  0.20443221594E+04  0.46999998093E+01 0.  1.
</event>
<event>
 5   0  0.8038352E-07  0.2577779E+04  0.7818609E-02  0.8375789E-01
       -2   -1    0    0    0  501  0.00000000000E+00  0.00000000000E+00  0.15146281813E+04  0.15146281813E+04  0.25500000920E-02 0. -1.
        2   -1    0    0  501    0  0.00000000000E+00  0.00000000000E+00 -0.10967943333E+04  0.10967943333E+04  0.25500000920E-02 0.  1.
    10030    2    1    2    0    0  0.00000000000E+00  0.00000000000E+00  0.41783384799E+03  0.26114225145E+04  0.25777785834E+04 0.  0.
        2    1    3    3  502    0  0.90178663213E+03  0.20089297871E+03  0.11193445208E+04  0.14513818502E+04  0.25500000920E-02 0. -1.
       -2    1    3    3    0  502 -0.90178663213E+03 -0.20089297871E+03 -0.70151067284E+03  0.11600406643E+04  0.25500000920E-02 0.  1.
</event>
<event>
 5   0  0.2907071E-07  0.3704304E+04  0.7818609E-02  0.8067009E-01
       -1   -1    0    0    0  501  0.00000000000E+00  0.00000000000E+00  0.11680289324E+04  0.11680289325E+04  0.50400001928E-02 0.  1.
        1   -1    0    0  501    0  0.00000000000E+00  0.00000000000E+00 -0.29369710182E+04  0.29369710182E+04  0.50400001928E-02 0. -1.
    10030    2    1    2    0    0  0.00000000000E+00  0.00000000000E+00 -0.17689420858E+04  0.41049999507E+04  0.37043040497E+04 0.  0.
        2    1    3    3  502    0  0.10892741729E+04 -0.75266398205E+03  0.55078961963E+03  0.14340120288E+04  0.25500000920E-02 0.  1.
       -2    1    3    3    0  502 -0.10892741729E+04  0.75266398205E+03 -0.23197317054E+04  0.26709879219E+04  0.25500000920E-02 0. -1.
</event>
<event>
 5   0  0.8038352E-07  0.3764409E+04  0.7818609E-02  0.8053836E-01
       -2   -1    0    0    0  501  0.00000000000E+00  0.00000000000E+00  0.10928185052E+04  0.10928185052E+04  0.25500000920E-02 0.  1.
        2   -1    0    0  501    0  0.00000000000E+00  0.00000000000E+00 -0.32417952024E+04  0.32417952024E+04  0.25500000920E-02 0. -1.
    10030    2    1    2    0    0  0.00000000000E+00  0.00000000000E+00 -0.21489766973E+04  0.43346137076E+04  0.37644090039E+04 0.  0.
        2    1    3    3  502    0  0.18769562126E+03  0.67667074783E+02  0.10806073269E+04  0.10988724558E+04  0.25500000920E-02 0.  1.
       -2    1    3    3    0  502 -0.18769562126E+03 -0.67667074783E+02 -0.32295840242E+04  0.32357412518E+04  0.25500000920E-02 0. -1.
</event>
<event>
 5   0  0.2529875E-07  0.3727040E+04  0.7818609E-02  0.8061996E-01
        1   -1    0    0  501    0  0.00000000000E+00  0.00000000000E+00  0.23029040016E+04  0.23029040016E+04  0.50400001928E-02 0. -1.
       -1   -1    0    0    0  501  0.00000000000E+00  0.00000000000E+00 -0.15079683100E+04  0.15079683100E+04  0.50400001928E-02 0.  1.
    10030    2    1    2    0    0  0.00000000000E+00  0.00000000000E+00  0.79493569158E+03  0.38108723115E+04  0.37270397129E+04 0.  0.
        5    1    3    3  502    0 -0.17312086087E+04 -0.93972855981E+02 -0.30110524824E+03  0.17597160581E+04  0.46999998093E+01 0.  1.
       -5    1    3    3    0  502  0.17312086087E+04  0.93972855981E+02  0.10960409398E+04  0.20511562535E+04  0.46999998093E+01 0. -1.
</event>
<event>
 5   0  0.7649458E-07  0.3242948E+04  0.7818609E-02  0.8177566E-01
       -2   -1    0    0    0  501  0.00000000000E+00  0.00000000000E+00  0.13037497433E+04  0.13037497433E+04  0.25500000920E-02 0.  1.
        2   -1    0    0  501    0  0.00000000000E+00  0.00000000000E+00 -0.20166282688E+04  0.20166282688E+04  0.25500000920E-02 0. -1.
    10030    2    1    2    0    0  0.00000000000E+00  0.00000000000E+00 -0.71287852550E+03  0.33203780120E+04  0.32429484039E+04 0.  0.
        4    1    3    3  502    0 -0.51456289235E+03 -0.14945525807E+04 -0.72661633783E+03  0.17396652845E+04  0.12699999809E+01 0. -1.
       -4    1    3    3    0  502  0.51456289235E+03  0.14945525807E+04  0.13737812331E+02  0.15807127276E+04  0.12699999809E+01 0.  1.
</event>
<event>
 5   0  0.2529875E-07  0.3837780E+04  0.7818609E-02  0.8038096E-01
        1   -1    0    0  501    0  0.00000000000E+00  0.00000000000E+00  0.20803197672E+04  0.20803197672E+04  0.50400001928E-02 0. -1.
       -1   -1    0    0    0  501  0.00000000000E+00  0.00000000000E+00 -0.17699870538E+04  0.17699870538E+04  0.50400001928E-02 0.  1.
    10030    2    1    2    0    0  0.00000000000E+00  0.00000000000E+00  0.31033271340E+03  0.38503068210E+04  0.38377801165E+04 0.  0.
        1    1    3    3  502    0 -0.12211392705E+04  0.52243951545E+02  0.16392609605E+04  0.20447706584E+04  0.50400001928E-02 0. -1.
       -1    1    3    3    0  502  0.12211392705E+04 -0.52243951545E+02 -0.13289282471E+04  0.18055361626E+04  0.50400001928E-02 0.  1.
</event>
<event>
 5   0  0.2529875E-07  0.3116129E+04  0.7818609E-02  0.8211325E-01
       -1   -1    0    0    0  501  0.00000000000E+00  0.00000000000E+00  0.16274071016E+04  0.16274071016E+04  0.50400001928E-02 0. -1.
        1   -1    0    0  501    0  0.00000000000E+00  0.00000000000E+00 -0.14916769518E+04  0.14916769518E+04  0.50400001928E-02 0.  1.
    10030    2    1    2    0    0  0.00000000000E+00  0.00000000000E+00  0.13573014979E+03  0.31190840534E+04  0.31161294355E+04 0.  0.
        5    1    3    3  502    0  0.16948663775E+03  0.18397674501E+03 -0.14714390932E+04  0.14925576230E+04  0.46999998093E+01 0.  1.
       -5    1    3    3    0  502 -0.16948663775E+03 -0.18397674501E+03  0.16071692430E+04  0.16265264304E+04  0.46999998093E+01 0. -1.
</event>
<event>
 5   0  0.2529875E-07  0.3697349E+04  0.7818609E-02  0.8068550E-01
        1   -1    0    0  501    0  0.00000000000E+00  0.00000000000E+00  0.18941131601E+04  0.18941131601E+04  0.50400001928E-02 0. -1.
       -1   -1    0    0    0  501  0.00000000000E+00  0.00000000000E+00 -0.18043256898E+04  0.18043256898E+04  0.50400001928E-02 0.  1.
    10030    2    1    2    0    0  0.00000000000E+00  0.00000000000E+00  0.89787470252E+02  0.36984388499E+04  0.36973487984E+04 0.  0.
        1    1    3    3  502    0 -0.45465883373E+03 -0.17420963455E+04  0.46452033539E+03  0.18594067533E+04  0.50400001928E-02 0. -1.
       -1    1    3    3    0  502  0.45465883373E+03  0.17420963455E+04 -0.37473286514E+03  0.18390320966E+04  0.50400001928E-02 0.  1.
</event>
<event>
 5   0  0.8038352E-07  0.3824757E+04  0.7818609E-02  0.8040863E-01
        2   -1    0    0  501    0  0.00000000000E+00  0.00000000000E+00  0.25345642267E+04  0.25345642267E+04  0.25500000920E-02 0.  1.
       -2   -1    0    0    0  501  0.00000000000E+00  0.00000000000E+00 -0.14429273493E+04  0.14429273493E+04  0.25500000920E-02 0. -1.
    10030    2    1    2    0    0  0.00000000000E+00  0.00000000000E+00  0.10916368774E+04  0.39774915760E+04  0.38247572688E+04 0.  0.
        2    1    3    3  502    0  0.53743893160E+03 -0.17345329016E+04 -0.77922156126E+02  0.18175579370E+04  0.25500000920E-02 0.  1.
       -2    1    3    3    0  502 -0.53743893160E+03  0.17345329016E+04  0.11695590335E+04  0.21599336390E+04  0.25500000920E-02 0. -1.
</event>
<event>
 5   0  0.7551495E-07  0.2509912E+04  0.7818609E-02  0.8399463E-01
        2   -1    0    0  501    0  0.00000000000E+00  0.00000000000E+00  0.16899868507E+04  0.16899868507E+04  0.25500000920E-02 0. -1.
       -2   -1    0    0    0  501  0.00000000000E+00  0.00000000000E+00 -0.93190901623E+03  0.93190901624E+03  0.25500000920E-02 0.  1.
    10030    2    1    2    0    0  0.00000000000E+00  0.00000000000E+00  0.75807783447E+03  0.26218958669E+04  0.25099115391E+04 0.  0.
        1    1    3    3  502    0 -0.35232375631E+03  0.10231172772E+04 -0.28494061022E+03  0.11189692326E+04  0.50400001928E-02 0.  1.
       -1    1    3    3    0  502  0.35232375631E+03 -0.10231172772E+04  0.10430184447E+04  0.15029266343E+04  0.50400001928E-02 0. -1.
</event>
<event>
 5   0  0.2529875E-07  0.3892014E+04  0.7818609E-02  0.8026692E-01
       -1   -1    0    0    0  501  0.00000000000E+00  0.00000000000E+00  0.27093814066E+04  0.27093814066E+04  0.50400001928E-02 0.  1.
        1   -1    0    0  501    0  0.00000000000E+00  0.00000000000E+00 -0.13977154193E+04  0.13977154193E+04  0.50400001928E-02 0. -1.
    10030    2    1    2    0    0  0.00000000000E+00  0.00000000000E+00  0.13116659873E+04  0.41070968259E+04  0.38920144751E+04 0.  0.
        5    1    3    3  502    0 -0.13223525145E+04 -0.11032586325E+04 -0.30040385427E+03  0.17481591313E+04  0.46999998093E+01 0. -1.
       -5    1    3    3    0  502  0.13223525145E+04  0.11032586325E+04  0.16120698416E+04  0.23589376946E+04  0.46999998093E+01 0.  1.
</event>
<event>
 5   0  0.7638805E-07  0.3770965E+04  0.7818609E-02  0.8052415E-01
        2   -1    0    0  501    0  0.00000000000E+00  0.00000000000E+00  0.26825318591E+04  0.26825318591E+04  0.25500000920E-02 0. -1.
       -2   -1    0    0    0  501  0.00000000000E+00  0.00000000000E+00 -0.13252569696E+04  0.13252569696E+04  0.25500000920E-02 0.  1.
    10030    2    1    2    0    0  0.00000000000E+00  0.00000000000E+00  0.13572748895E+04  0.40077888287E+04  0.37709648858E+04 0.  0.
        5    1    3    3  502    0  0.12858926446E+03 -0.15448778392E+04 -0.46200170129E+03  0.16176063795E+04  0.46999998093E+01 0.  1.
       -5    1    3    3    0  502 -0.12858926446E+03  0.15448778392E+04  0.18192765908E+04  0.23901824493E+04  0.46999998093E+01 0. -1.
</event>
<event>
 5   0  0.7638805E-07  0.3767484E+04  0.7818609E-02  0.8053169E-01
        2   -1    0    0  501    0  0.00000000000E+00  0.00000000000E+00  0.18830145710E+04  0.18830145710E+04  0.25500000920E-02 0.  1.
       -2   -1    0    0    0  501  0.00000000000E+00  0.00000000000E+00 -0.18844693034E+04  0.18844693034E+04  0.25500000920E-02 0. -1.
    10030    2    1    2    0    0  0.00000000000E+00  0.00000000000E+00 -0.14547324177E+01  0.37674838744E+04  0.37674835935E+04 0.  0.
        5    1    3    3  502    0  0.12041573453E+04 -0.14008858693E+04 -0.36948874719E+03  0.18838843264E+04  0.46999998093E+01 0. -1.
       -5    1    3    3    0  502 -0.12041573453E+04  0.14008858693E+04  0.36803401477E+03  0.18835995480E+04  0.46999998093E+01 0.  1.
</event>
<event>
 5   0  0.7638805E-07  0.2817017E+04  0.7818609E-02  0.8298005E-01
        2   -1    0    0  501    0  0.00000000000E+00  0.00000000000E+00  0.14661032027E+04  0.14661032027E+04  0.25500000920E-02 0. -1.
       -2   -1    0    0    0  501  0.00000000000E+00  0.00000000000E+00 -0.13531762680E+04  0.13531762680E+04  0.25500000920E-02 0.  1.
    10030    2    1    2    0    0  0.00000000000E+00  0.00000000000E+00  0.11292693470E+03  0.28192794707E+04  0.28170169047E+04 0.  0.
        5    1    3    3  502    0  0.94558215362E+03  0.21864130053E+03 -0.96511313209E+03  0.13687202327E+04  0.46999998093E+01 0.  1.
       -5    1    3    3    0  502 -0.94558215362E+03 -0.21864130053E+03  0.10780400668E+04  0.14505592381E+04  0.46999998093E+01 0. -1.
</event>
<event>
 5   0  0.2529875E-07  0.3698761E+04  0.7818609E-02  0.8068236E-01
       -1   -1    0    0    0  501  0.00000000000E+00  0.00000000000E+00  0.16337054602E+04  0.16337054602E+04  0.50400001928E-02 0.  1.
        1   -1    0    0  501    0  0.00000000000E+00  0.00000000000E+00 -0.20935283528E+04  0.20935283528E+04  0.50400001928E-02 0. -1.
    10030    2    1    2    0    0  0.00000000000E+00  0.00000000000E+00 -0.45982289259E+03  0.37272338129E+04  0.36987612526E+04 0.  0.
        1    1    3    3  502    0  0.17537711646E+04  0.91234070349E+01 -0.82129545978E+03  0.19365750093E+04  0.50400001928E-02 0.  1.
       -1    1    3    3    0  502 -0.17537711646E+04 -0.91234070349E+01  0.36147256719E+03  0.17906588037E+04  0.50400001928E-02 0. -1.
</event>
<event>
 5   0  0.7649458E-07  0.3855304E+04  0.7818609E-02  0.8034390E-01
       -2   -1    0    0    0  501  0.00000000000E+00  0.00000000000E+00  0.15316750633E+04  0.15316750633E+04  0.25500000920E-02 0.  1.
        2   -1    0    0  501    0  0.00000000000E+00  0.00000000000E+00 -0.24259992354E+04  0.24259992354E+04  0.25500000920E-02 0. -1.
    10030    2    1    2    0    0  0.00000000000E+00  0.00000000000E+00 -0.89432417216E+03  0.39576742987E+04  0.38553041553E+04 0.  0.
        4    1    3    3  502    0 -0.38945206114E+03  0.13917832592E+04 -0.17566138663E+04  0.22747367841E+04  0.12699999809E+01 0. -1.
       -4    1    3    3    0  502  0.38945206114E+03 -0.13917832592E+04  0.86228969418E+03  0.16829375146E+04  0.12699999809E+01 0.  1.
</event>
<event>
 5   0  0.2529875E-07  0.3851743E+04  0.7818609E-02  0.8035141E-01
        1   -1    0    0  501    0  0.00000000000E+00  0.00000000000E+00  0.15544649942E+04  0.15544649942E+04  0.50400001928E-02 0.  1.
       -1   -1    0    0    0  501  0.00000000000E+00  0.00000000000E+00 -0.23860183447E+04  0.23860183447E+04  0.50400001928E-02 0. -1.
    10030    2    1    2    0    0  0.00000000000E+00  0.00000000000E+00 -0.83155335052E+03  0.39404833390E+04  0.38517434974E+04 0.  0.
        1    1    3    3  502    0 -0.12361078567E+04  0.63498594929E+03 -0.17798417171E+04  0.22580979445E+04  0.50400001928E-02 0. -1.
       -1    1    3    3    0  502  0.12361078567E+04 -0.63498594929E+03  0.94828836655E+03  0.16823853944E+04  0.50400001928E-02 0.  1.
</event>
<event>
 5   0  0.2529875E-07  0.2589384E+04  0.7818609E-02  0.8371816E-01
       -1   -1    0    0    0  501  0.00000000000E+00  0.00000000000E+00  0.84430720300E+03  0.84430720301E+03  0.50400001928E-02 0.  1.
        1   -1    0    0  501    0  0.00000000000E+00  0.00000000000E+00 -0.19853281561E+04  0.19853281561E+04  0.50400001928E-02 0. -1.
    10030    2    1    2    0    0  0.00000000000E+00  0.00000000000E+00 -0.11410209531E+04  0.28296353592E+04  0.25893836043E+04 0.  0.
        3    1    3    3  502    0  0.76842520059E+03  0.23176525571E+03 -0.16806592234E+04  0.18624735859E+04  0.10100000352E+00 0. -1.
       -3    1    3    3    0  502 -0.76842520059E+03 -0.23176525571E+03  0.53963827030E+03  0.96716177325E+03  0.10100000352E+00 0.  1.
</event>
<event>
 5   0  0.2529875E-07  0.3781066E+04  0.7818609E-02  0.8050230E-01
        1   -1    0    0  501    0  0.00000000000E+00  0.00000000000E+00  0.14596497950E+04  0.14596497950E+04  0.50400001928E-02 0.  1.
       -1   -1    0    0    0  501  0.00000000000E+00  0.00000000000E+00 -0.24486119446E+04  0.24486119446E+04  0.50400001928E-02 0. -1.
    10030    2    1    2    0    0  0.00000000000E+00  0.00000000000E+00 -0.98896214958E+03  0.39082617396E+04  0.37810664755E+04 0.  0.
        4    1    3    3  502    0 -0.27791106311E+03  0.16310145162E+04 -0.14399489778E+04  0.21933758416E+04  0.12699999809E+01 0. -1.
       -4    1    3    3    0  502  0.27791106311E+03 -0.16310145162E+04  0.45098682818E+03  0.17148858980E+04  0.12699999809E+01 0.  1.
</event>
<event>
 5   0  0.7649458E-07  0.3752266E+04  0.7818609E-02  0.8056477E-01
       -2   -1    0    0    0  501  0.00000000000E+00  0.00000000000E+00  0.11770896287E+04  0.11770896287E+04  0.25500000920E-02 0. -1.
        2   -1    0    0  501    0  0.00000000000E+00  0.00000000000E+00 -0.29903196722E+04  0.29903196722E+04  0.25500000920E-02 0.  1.
    10030    2    1    2    0    0  0.00000000000E+00  0.00000000000E+00 -0.18132300435E+04  0.41674093010E+04  0.37522655944E+04 0.  0.
        4    1    3    3  502    0 -0.29672415505E+02 -0.15649374561E+04 -0.20554481709E+04  0.25835592677E+04  0.12699999809E+01 0.  1.
       -4    1    3    3    0  502  0.29672415505E+02  0.15649374561E+04  0.24221812741E+03  0.15838500333E+04  0.12699999809E+01 0. -1.
</event>
<event>
 5   0  0.2529875E-07  0.2790097E+04  0.7818609E-02  0.8306350E-01
        1   -1    0    0  501    0  0.00000000000E+00  0.00000000000E+00  0.15372348409E+04  0.15372348409E+04  0.50400001928E-02 0.  1.
       -1   -1    0    0    0  501  0.00000000000E+00  0.00000000000E+00 -0.12660133701E+04  0.12660133701E+04  0.50400001928E-02 0. -1.
    10030    2    1    2    0    0  0.00000000000E+00  0.00000000000E+00  0.27122147082E+03  0.28032482110E+04  0.27900966733E+04 0.  0.
        4    1    3    3  502    0 -0.17175970092E+02  0.96379408036E+03 -0.87758915917E+03  0.13035944110E+04  0.12699999809E+01 0. -1.
       -4    1    3    3    0  502  0.17175970092E+02 -0.96379408036E+03  0.11488106300E+04  0.14996538000E+04  0.12699999809E+01 0.  1.
</event>
<event>
 5   0  0.2529875E-07  0.3823423E+04  0.7818609E-02  0.8041147E-01
       -1   -1    0    0    0  501  0.00000000000E+00  0.00000000000E+00  0.22727240245E+04  0.22727240245E+04  0.50400001928E-02 0. -1.
        1   -1    0    0  501    0  0.00000000000E+00  0.00000000000E+00 -0.16080443830E+04  0.16080443830E+04  0.50400001928E-02 0.  1.
    10030    2    1    2    0    0  0.00000000000E+00  0.00000000000E+00  0.66467964150E+03  0.38807684075E+04  0.38234231269E+04 0.  0.
        3    1    3    3  502    0 -0.14304968232E+04 -0.58324298818E+03 -0.81067077516E+03  0.17446147599E+04  0.10100000352E+00 0.  1.
       -3    1    3    3    0  502  0.14304968232E+04  0.58324298818E+03  0.14753504167E+04  0.21361536477E+04  0.10100000352E+00 0. -1.
</event>
<event>
 5   0  0.7551495E-07  0.3760210E+04  0.7818609E-02  0.8054748E-01
       -2   -1    0    0    0  501  0.00000000000E+00  0.00000000000E+00  0.12599118011E+04  0.12599118011E+04  0.25500000920E-02 0.  1.
        2   -1    0    0  501    0  0.00000000000E+00  0.00000000000E+00 -0.28055893715E+04  0.28055893715E+04  0.25500000920E-02 0. -1.
    10030    2    1    2    0    0  0.00000000000E+00  0.00000000000E+00 -0.15456775703E+04  0.40655011726E+04  0.37602101847E+04 0.  0.
        1    1    3    3  502    0  0.48440184635E+03  0.42200483312E+03 -0.26832318202E+04  0.27590698122E+04  0.50400001928E-02 0. -1.
       -1    1    3    3    0  502 -0.48440184635E+03 -0.42200483312E+03  0.11375542499E+04  0.13064313604E+04  0.50400001928E-02 0.  1.
</event>
<event>
 5   0  0.7638805E-07  0.3804393E+04  0.7818609E-02  0.8045213E-01
       -2   -1    0    0    0  501  0.00000000000E+00  0.00000000000E+00  0.14867407660E+04  0.14867407660E+04  0.25500000920E-02 0.  1.
        2   -1    0    0  501    0  0.00000000000E+00  0.00000000000E+00 -0.24337478156E+04  0.24337478156E+04  0.25500000920E-02 0. -1.
    10030    2    1    2    0    0  0.00000000000E+00  0.00000000000E+00 -0.94700704960E+03  0.39204885816E+04  0.38043932981E+04 0.  0.
        5    1    3    3  502    0  0.10545913599E+04 -0.15502354307E+04 -0.14287455218E+03  0.18803797634E+04  0.46999998093E+01 0. -1.
       -5    1    3    3    0  502 -0.10545913599E+04  0.15502354307E+04 -0.80413249742E+03  0.20401088182E+04  0.46999998093E+01 0.  1.
</event>
<event>
 5   0  0.2529875E-07  0.3861372E+04  0.7818609E-02  0.8033111E-01
       -1   -1    0    0    0  501  0.00000000000E+00  0.00000000000E+00  0.17659862525E+04  0.17659862525E+04  0.50400001928E-02 0.  1.
        1   -1    0    0  501    0  0.00000000000E+00  0.00000000000E+00 -0.21107458710E+04  0.21107458711E+04  0.50400001928E-02 0. -1.
    10030    2    1    2    0    0  0.00000000000E+00  0.00000000000E+00 -0.34475961856E+03  0.38767321235E+04  0.38613718758E+04 0.  0.
        4    1    3    3  502    0 -0.17723344261E+04 -0.47599020092E+03 -0.77460807271E+03  0.19919225056E+04  0.12699999809E+01 0. -1.
       -4    1    3    3    0  502  0.17723344261E+04  0.47599020092E+03  0.42984845415E+03  0.18848096179E+04  0.12699999809E+01 0.  1.
</event>
<event>
 5   0  0.7649458E-07  0.3009361E+04  0.7818609E-02  0.8241063E-01
       -2   -1    0    0    0  501  0.00000000000E+00  0.00000000000E+00  0.12071112915E+04  0.12071112915E+04  0.25500000920E-02 0. -1.
        2   -1    0    0  501    0  0.00000000000E+00  0.00000000000E+00 -0.18756041431E+04  0.18756041431E+04  0.25500000920E-02 0.  1.
    10030    2    1    2    0    0  0.00000000000E+00  0.00000000000E+00 -0.66849285157E+03  0.30827154346E+04  0.30093606893E+04 0.  0.
        4    1    3    3  502    0 -0.32091007428E+03  0.14361974706E+04 -0.65560476091E+03  0.16110448988E+04  0.12699999809E+01 0.  1.
       -4    1    3    3    0  502  0.32091007428E+03 -0.14361974706E+04 -0.12888090658E+02  0.14716705359E+04  0.12699999809E+01 0. -1.
</event>
<event>
 5   0  0.8038352E-07  0.3855346E+04  0.7818609E-02  0.8034381E-01
       -2   -1    0    0    0  501  0.00000000000E+00  0.00000000000E+00  0.18945544877E+04  0.18945544877E+04  0.25500000920E-02 0.  1.
        2   -1    0    0  501    0  0.00000000000E+00  0.00000000000E+00 -0.19613708173E+04  0.19613708173E+04  0.25500000920E-02 0. -1.
    10030    2    1    2    0    0  0.00000000000E+00  0.00000000000E+00 -0.66816329551E+02  0.38559253050E+04  0.38553463574E+04 0.  0.
        2    1    3    3  502    0 -0.79882211949E+03 -0.12376358126E+04 -0.12770033854E+04  0.19495119465E+04  0.25500000920E-02 0. -1.
       -2    1    3    3    0  502  0.79882211949E+03  0.12376358126E+04  0.12101870558E+04  0.19064133585E+04  0.25500000920E-02 0.  1.
</event>
<event>
 5   0  0.2529875E-07  0.3906475E+04  0.7818609E-02  0.8023684E-01
        1   -1    0    0  501    0  0.00000000000E+00  0.00000000000E+00  0.18543513351E+04  0.18543513351E+04  0.50400001928E-02 0.  1.
       -1   -1    0    0    0  501  0.00000000000E+00  0.00000000000E+00 -0.20573969847E+04  0.20573969847E+04  0.50400001928E-02 0. -1.
    10030    2    1    2    0    0  0.00000000000E+00  0.00000000000E+00 -0.20304564962E+03  0.39117483198E+04  0.39064750584E+04 0.  0.
        1    1    3    3  502    0 -0.24304928155E+02  0.50038020825E+03  0.17889254367E+04  0.18577473726E+04  0.50400001928E-02 0.  1.
       -1    1    3    3    0  502  0.24304928155E+02 -0.50038020825E+03 -0.19919710863E+04  0.20540009472E+04  0.50400001928E-02 0. -1.
</event>
<event>
 5   0  0.8038352E-07  0.3732816E+04  0.7818609E-02  0.8060728E-01
       -2   -1    0    0    0  501  0.00000000000E+00  0.00000000000E+00  0.12804839733E+04  0.12804839733E+04  0.25500000920E-02 0.  1.
        2   -1    0    0  501    0  0.00000000000E+00  0.00000000000E+00 -0.27204396317E+04  0.27204396317E+04  0.25500000920E-02 0. -1.
    10030    2    1    2    0    0  0.00000000000E+00  0.00000000000E+00 -0.14399556584E+04  0.40009236050E+04  0.37328162819E+04 0.  0.
        2    1    3    3  502    0 -0.41160328364E+03  0.10448969298E+04  0.87781454487E+03  0.14254070409E+04  0.25500000920E-02 0.  1.
       -2    1    3    3    0  502  0.41160328364E+03 -0.10448969298E+04 -0.23177702032E+04  0.25755165641E+04  0.25500000920E-02 0. -1.
</event>
<event>
 5   0  0.2907071E-07  0.2921413E+04  0.7818609E-02  0.8266535E-01
       -1   -1    0    0    0  501  0.00000000000E+00  0.00000000000E+00  0.17593138101E+04  0.17593138101E+04  0.50400001928E-02 0.  1.
        1   -1    0    0  501    0  0.00000000000E+00  0.00000000000E+00 -0.12127815025E+04  0.12127815025E+04  0.50400001928E-02 0. -1.
    10030    2    1    2    0    0  0.00000000000E+00  0.00000000000E+00  0.54653230757E+03  0.29720953126E+04  0.29214128404E+04 0.  0.
        2    1    3    3  502    0  0.96620079238E+03 -0.57230535127E+03  0.12235949398E+04  0.16608016025E+04  0.25500000920E-02 0.  1.
       -2    1    3    3    0  502 -0.96620079238E+03  0.57230535127E+03 -0.67706263218E+03  0.13112937101E+04  0.25500000920E-02 0. -1.
</event>
<event>
 5   0  0.2529875E-07  0.3758756E+04  0.7818609E-02  0.8055064E-01
        1   -1    0    0  501    0  0.00000000000E+00  0.00000000000E+00  0.19020166436E+04  0.19020166436E+04  0.50400001928E-02 0. -1.
       -1   -1    0    0    0  501  0.00000000000E+00  0.00000000000E+00 -0.18570085071E+04  0.18570085071E+04  0.50400001928E-02 0.  1.
    10030    2    1    2    0    0  0.00000000000E+00  0.00000000000E+00  0.45008136478E+02  0.37590251507E+04  0.37587556919E+04 0.  0.
        1    1    3    3  502    0  0.99602293738E+03  0.79250786933E+03  0.14053290062E+04  0.18960696270E+04  0.50400001928E-02 0. -1.
       -1    1    3    3    0  502 -0.99602293738E+03 -0.79250786933E+03 -0.13603208697E+04  0.18629555237E+04  0.50400001928E-02 0.  1.
</event>
<event>
 5   0  0.7551495E-07  0.3295143E+04  0.7818609E-02  0.8164132E-01
       -2   -1    0    0    0  501  0.00000000000E+00  0.00000000000E+00  0.10476182651E+04  0.10476182651E+04  0.25500000920E-02 0.  1.
        2   -1    0    0  501    0  0.00000000000E+00  0.00000000000E+00 -0.25911083284E+04  0.25911083284E+04  0.25500000920E-02 0. -1.
    10030    2    1    2    0    0  0.00000000000E+00  0.00000000000E+00 -0.15434900634E+04  0.36387265935E+04  0.32951433423E+04 0.  0.
        1    1    3    3  502    0  0.19124223425E+03  0.25342611403E+03 -0.25570091885E+04  0.25766440145E+04  0.50400001928E-02 0. -1.
       -1    1    3    3    0  502 -0.19124223425E+03 -0.25342611403E+03  0.10135191252E+04  0.10620825790E+04  0.50400001928E-02 0.  1.
</event>
<event>
 5   0  0.8038352E-07  0.3620268E+04  0.7818609E-02  0.8085865E-01
        2   -1    0    0  501    0  0.00000000000E+00  0.00000000000E+00  0.19600113779E+04  0.19600113779E+04  0.25500000920E-02 0. -1.
       -2   -1    0    0    0  501  0.00000000000E+00  0.00000000000E+00 -0.16717173929E+04  0.16717173929E+04  0.25500000920E-02 0.  1.
    10030    2    1    2    0    0  0.00000000000E+00  0.00000000000E+00  0.28829398497E+03  0.36317287709E+04  0.36202680071E+04 0.  0.
        2    1    3    3  502    0 -0.17367078619E+04 -0.31498582470E+03  0.54693376227E+03  0.18478384150E+04  0.25500000920E-02 0. -1.
       -2    1    3    3    0  502  0.17367078619E+04  0.31498582470E+03 -0.25863977730E+03  0.17838903559E+04  0.25500000920E-02 0.  1.
</event>
<event>
 5   0  0.2529875E-07  0.3777439E+04  0.7818609E-02  0.8051014E-01
        1   -1    0    0  501    0  0.00000000000E+00  0.00000000000E+00  0.20693319372E+04  0.20693319372E+04  0.50400001928E-02 0.  1.
       -1   -1    0    0    0  501  0.00000000000E+00  0.00000000000E+00 -0.17238706515E+04  0.17238706515E+04  0.50400001928E-02 0. -1.
    10030    2    1    2    0    0  0.00000000000E+00  0.00000000000E+00  0.34546128569E+03  0.37932025887E+04  0.37774386003E+04 0.  0.
        1    1    3    3  502    0  0.14844870859E+04  0.55663025613E+03  0.12035238162E+04  0.19904795217E+04  0.50400001928E-02 0.  1.
       -1    1    3    3    0  502 -0.14844870859E+04 -0.55663025613E+03 -0.85806253048E+03  0.18027230670E+04  0.50400001928E-02 0. -1.
</event>
<event>
 5   0  0.2907071E-07  0.3714462E+04  0.7818609E-02  0.8064764E-01
       -1   -1    0    0    0  501  0.00000000000E+00  0.00000000000E+00  0.12787373949E+04  0.12787373949E+04  0.50400001928E-02 0. -1.
        1   -1    0    0  501    0  0.00000000000E+00  0.00000000000E+00 -0.26974313882E+04  0.26974313882E+04  0.50400001928E-02 0.  1.
    10030    2    1    2    0    0  0.00000000000E+00  0.00000000000E+00 -0.14186939933E+04  0.39761687831E+04  0.37144616763E+04 0.  0.
        2    1    3    3  502    0  0.12658241085E+04 -0.11392444611E+04  0.83887656926E+02  0.17050588713E+04  0.25500000920E-02 0. -1.
       -2    1    3    3    0  502 -0.12658241085E+04  0.11392444611E+04 -0.15025816502E+04  0.22711099118E+04  0.25500000920E-02 0.  1.
</event>
<event>
 5   0  0.7551495E-07  0.3615710E+04  0.7818609E-02  0.8086903E-01
        2   -1    0    0  501    0  0.00000000000E+00  0.00000000000E+00  0.16541104364E+04  0.16541104364E+04  0.25500000920E-02 0. -1.
       -2   -1    0    0    0  501  0.00000000000E+00  0.00000000000E+00 -0.19758900061E+04  0.19758900061E+04  0.25500000920E-02 0.  1.
    10030    2    1    2    0    0  0.00000000000E+00  0.00000000000E+00 -0.32177956971E+03  0.36300004426E+04  0.36157103205E+04 0.  0.
        1    1    3    3  502    0 -0.28117103337E+03 -0.17853020424E+04 -0.11621957506E+03  0.18110404529E+04  0.50400001928E-02 0. -1.
       -1    1    3    3    0  502  0.28117103337E+03  0.17853020424E+04 -0.20555999465E+03  0.18189599897E+04  0.50400001928E-02 0.  1.
</event>
<event>
 5   0  0.2907071E-07  0.3782480E+04  0.7818609E-02  0.8049925E-01
        1   -1    0    0  501    0  0.00000000000E+00  0.00000000000E+00  0.28602466417E+04  0.28602466417E+04  0.50400001928E-02 0.  1.
       -1   -1    0    0    0  501  0.00000000000E+00  0.00000000000E+00 -0.12505175392E+04  0.12505175392E+04  0.50400001928E-02 0. -1.
    10030    2    1    2    0    0  0.00000000000E+00  0.00000000000E+00  0.16097291025E+04  0.41107641809E+04  0.37824799229E+04 0.  0.
        2    1    3    3  502    0 -0.15134736678E+04 -0.60838146990E+03  0.18450419821E+04  0.24627038945E+04  0.25500000920E-02 0.  1.
       -2    1    3    3    0  502  0.15134736678E+04  0.60838146990E+03 -0.23531287963E+03  0.16480602864E+04  0.25500000920E-02 0. -1.
</event>
<event>
 5   0  0.2529875E-07  0.3801079E+04  0.7818609E-02  0.8045923E-01
       -1   -1    0    0    0  501  0.00000000000E+00  0.00000000000E+00  0.27480621236E+04  0.27480621236E+04  0.50400001928E-02 0.  1.
        1   -1    0    0  501    0  0.00000000000E+00  0.00000000000E+00 -0.13143991948E+04  0.13143991948E+04  0.50400001928E-02 0. -1.
    10030    2    1    2    0    0  0.00000000000E+00  0.00000000000E+00  0.14336629288E+04  0.40624613184E+04  0.38010791323E+04 0.  0.
        3    1    3    3  502    0 -0.83396365028E+03  0.48351251757E+03  0.24673798604E+04  0.26490079483E+04  0.10100000352E+00 0.  1.
       -3    1    3    3    0  502  0.83396365028E+03 -0.48351251757E+03 -0.10337169316E+04  0.14134533701E+04  0.10100000352E+00 0. -1.
</event>
<event>
 5   0  0.7649458E-07  0.3809637E+04  0.7818609E-02  0.8044090E-01
       -2   -1    0    0    0  501  0.00000000000E+00  0.00000000000E+00  0.21021265606E+04  0.21021265606E+04  0.25500000920E-02 0.  1.
        2   -1    0    0  501    0  0.00000000000E+00  0.00000000000E+00 -0.17260300976E+04  0.17260300976E+04  0.25500000920E-02 0. -1.
    10030    2    1    2    0    0  0.00000000000E+00  0.00000000000E+00  0.37609646302E+03  0.38281566582E+04  0.38096371021E+04 0.  0.
        4    1    3    3  502    0 -0.96109122631E+03  0.10625715061E+04  0.14493702760E+04  0.20379966538E+04  0.12699999809E+01 0.  1.
       -4    1    3    3    0  502  0.96109122631E+03 -0.10625715061E+04 -0.10732738130E+04  0.17901600044E+04  0.12699999809E+01 0. -1.
</event>
<event>
 5   0  0.7649458E-07  0.3015486E+04  0.7818609E-02  0.8239323E-01
       -2   -1    0    0    0  501  0.00000000000E+00  0.00000000000E+00  0.12288694413E+04  0.12288694413E+04  0.25500000920E-02 0.  1.
        2   -1    0    0  501    0  0.00000000000E+00  0.00000000000E+00 -0.18499025279E+04  0.18499025279E+04  0.25500000920E-02 0. -1.
    10030    2    1    2    0    0  0.00000000000E+00  0.00000000000E+00 -0.62103308659E+03  0.30787719692E+04  0.30154858222E+04 0.  0.
        4    1    3    3  502    0 -0.35349364883E+03  0.31943223767E+03  0.11499919074E+04  0.12447801871E+04  0.12699999809E+01 0.  1.
       -4    1    3    3    0  502  0.35349364883E+03 -0.31943223767E+03 -0.17710249940E+04  0.18339917821E+04  0.12699999809E+01 0. -1.
</event>
<event>
 5   0  0.7649458E-07  0.3829233E+04  0.7818609E-02  0.8039910E-01
       -2   -1    0    0    0  501  0.00000000000E+00  0.00000000000E+00  0.13500413249E+04  0.13500413249E+04  0.25500000920E-02 0. -1.
        2   -1    0    0  501    0  0.00000000000E+00  0.00000000000E+00 -0.27152923327E+04  0.27152923327E+04  0.25500000920E-02 0.  1.
    10030    2    1    2    0    0  0.00000000000E+00  0.00000000000E+00 -0.13652510078E+04  0.40653336576E+04  0.38292332696E+04 0.  0.
        4    1    3    3  502    0 -0.13666672903E+04 -0.36740538696E+03  0.68645525266E+03  0.15728918041E+04  0.12699999809E+01 0. -1.
       -4    1    3    3    0  502  0.13666672903E+04  0.36740538696E+03 -0.20517062605E+04  0.24924418535E+04  0.12699999809E+01 0.  1.
</event>
<event>
 5   0  0.8421677E-07  0.3943082E+04  0.7818609E-02  0.8016128E-01
        2   -1    0    0  501    0  0.00000000000E+00  0.00000000000E+00  0.13528300405E+04  0.13528300405E+04  0.25500000920E-02 0.  1.
       -2   -1    0    0    0  501  0.00000000000E+00  0.00000000000E+00 -0.28732167320E+04  0.28732167320E+04  0.25500000920E-02 0. -1.
    10030    2    1    2    0    0  0.00000000000E+00  0.00000000000E+00 -0.15203866915E+04  0.42260467725E+04  0.39430819965E+04 0.  0.
        3    1    3    3  502    0  0.10960870710E+04  0.85409484999E+03  0.73877616191E+03  0.15737455663E+04  0.10100000352E+00 0.  1.
       -3    1    3    3    0  502 -0.10960870710E+04 -0.85409484999E+03 -0.22591628534E+04  0.26523012061E+04  0.10100000352E+00 0. -1.
</event>
<event>
 5   0  0.2529875E-07  0.2985266E+04  0.7818609E-02  0.8247951E-01
       -1   -1    0    0    0  501  0.00000000000E+00  0.00000000000E+00  0.10854971711E+04  0.10854971711E+04  0.50400001928E-02 0.  1.
        1   -1    0    0  501    0  0.00000000000E+00  0.00000000000E+00 -0.20524730989E+04  0.20524730989E+04  0.50400001928E-02 0. -1.
    10030    2    1    2    0    0  0.00000000000E+00  0.00000000000E+00 -0.96697592775E+03  0.31379702700E+04  0.29852663149E+04 0.  0.
        1    1    3    3  502    0  0.59884376426E+03  0.73097539479E+03 -0.16980194949E+04  0.19432470473E+04  0.50400001928E-02 0. -1.
       -1    1    3    3    0  502 -0.59884376426E+03 -0.73097539479E+03  0.73104356716E+03  0.11947232227E+04  0.50400001928E-02 0.  1.
</event>
<event>
 5   0  0.8038352E-07  0.3770337E+04  0.7818609E-02  0.8052551E-01
        2   -1    0    0  501    0  0.00000000000E+00  0.00000000000E+00  0.14370696974E+04  0.14370696974E+04  0.25500000920E-02 0.  1.
       -2   -1    0    0    0  501  0.00000000000E+00  0.00000000000E+00 -0.24729912467E+04  0.24729912467E+04  0.25500000920E-02 0. -1.
    10030    2    1    2    0    0  0.00000000000E+00  0.00000000000E+00 -0.10359215493E+04  0.39100609441E+04  0.37703372701E+04 0.  0.
        2    1    3    3  502    0  0.18862984860E+03 -0.33909004243E+03 -0.24311295456E+04  0.24619005146E+04  0.25500000920E-02 0. -1.
       -2    1    3    3    0  502 -0.18862984860E+03  0.33909004243E+03  0.13952079962E+04  0.14481604294E+04  0.25500000920E-02 0.  1.
</event>
<event>
 5   0  0.7551495E-07  0.3722487E+04  0.7818609E-02  0.8062997E-01
        2   -1    0    0  501    0  0.00000000000E+00  0.00000000000E+00  0.16787040644E+04  0.16787040644E+04  0.25500000920E-02 0.  1.
       -2   -1    0    0    0  501  0.00000000000E+00  0.00000000000E+00 -0.20636319446E+04  0.20636319446E+04  0.25500000920E-02 0. -1.
    10030    2    1    2    0    0  0.00000000000E+00  0.00000000000E+00 -0.38492788018E+03  0.37423360090E+04  0.37224869820E+04 0.  0.
        1    1    3    3  502    0  0.10405794784E+04 -0.11547303332E+04  0.83672303340E+03  0.17653082530E+04  0.50400001928E-02 0. -1.
       -1    1    3    3    0  502 -0.10405794784E+04  0.11547303332E+04 -0.12216509136E+04  0.19770277560E+04  0.50400001928E-02 0.  1.
</event>
<event>
 5   0  0.2907071E-07  0.3781582E+04  0.7818609E-02  0.8050119E-01
        1   -1    0    0  501    0  0.00000000000E+00  0.00000000000E+00  0.27626208182E+04  0.27626208182E+04  0.50400001928E-02 0.  1.
       -1   -1    0    0    0  501  0.00000000000E+00  0.00000000000E+00 -0.12940937744E+04  0.12940937744E+04  0.50400001928E-02 0. -1.
    10030    2    1    2    0    0  0.00000000000E+00  0.00000000000E+00  0.14685270437E+04  0.40567145926E+04  0.37815818922E+04 0.  0.
        2    1    3    3  502    0  0.20124209807E+03 -0.18422768375E+04  0.11365228037E+04  0.21739747955E+04  0.25500000920E-02 0. -1.
       -2    1    3    3    0  502 -0.20124209807E+03  0.18422768375E+04  0.33200424004E+03  0.18827397971E+04  0.25500000920E-02 0.  1.
</event>
<event>
 5   0  0.2907071E-07  0.3801319E+04  0.7818609E-02  0.8045872E-01
       -1   -1    0    0    0  501  0.00000000000E+00  0.00000000000E+00  0.16919731947E+04  0.16919731947E+04  0.50400001928E-02 0.  1.
        1   -1    0    0  501    0  0.00000000000E+00  0.00000000000E+00 -0.21350846771E+04  0.21350846771E+04  0.50400001928E-02 0. -1.
    10030    2    1    2    0    0  0.00000000000E+00  0.00000000000E+00 -0.44311148240E+03  0.38270578719E+04  0.38013187408E+04 0.  0.
        2    1    3    3  502    0  0.90991915275E+02 -0.14074230168E+04 -0.15043049934E+04  0.20620505789E+04  0.25500000920E-02 0. -1.
       -2    1    3    3    0  502 -0.90991915275E+02  0.14074230168E+04  0.10611935110E+04  0.17650072930E+04  0.25500000920E-02 0.  1.
</event>
<event>
 5   0  0.7649458E-07  0.3892398E+04  0.7818609E-02  0.8026612E-01
        2   -1    0    0  501    0  0.00000000000E+00  0.00000000000E+00  0.12142856661E+04  0.12142856661E+04  0.25500000920E-02 0. -1.
       -2   -1    0    0    0  501  0.00000000000E+00  0.00000000000E+00 -0.31192749492E+04  0.31192749492E+04  0.25500000920E-02 0.  1.
    10030    2    1    2    0    0  0.00000000000E+00  0.00000000000E+00 -0.19049892831E+04  0.43335606153E+04  0.38923981602E+04 0.  0.
        4    1    3    3  502    0  0.55377220557E+03 -0.15869382120E+04 -0.20448462037E+04  0.26469669726E+04  0.12699999809E+01 0.  1.
       -4    1    3    3    0  502 -0.55377220557E+03  0.15869382120E+04  0.13985692055E+03  0.16865936427E+04  0.12699999809E+01 0. -1.
</event>
<event>
 5   0  0.7649458E-07  0.3811656E+04  0.7818609E-02  0.8043658E-01
        2   -1    0    0  501    0  0.00000000000E+00  0.00000000000E+00  0.23502242442E+04  0.23502242442E+04  0.25500000920E-02 0. -1.
       -2   -1    0    0    0  501  0.00000000000E+00  0.00000000000E+00 -0.15454610636E+04  0.15454610636E+04  0.25500000920E-02 0.  1.
    10030    2    1    2    0    0  0.00000000000E+00  0.00000000000E+00  0.80476318055E+03  0.38956853078E+04  0.38116558397E+04 0.  0.
        4    1    3    3  502    0  0.26392136342E+02 -0.15227439767E+03 -0.15390458765E+04  0.15467863006E+04  0.12699999809E+01 0.  1.
       -4    1    3    3    0  502 -0.26392136342E+02  0.15227439767E+03  0.23438090570E+04  0.23488990071E+04  0.12699999809E+01 0. -1.
</event>
<event>
 5   0  0.7649458E-07  0.3838766E+04  0.7818609E-02  0.8037887E-01
        2   -1    0    0  501    0  0.00000000000E+00  0.00000000000E+00  0.26006845899E+04  0.26006845899E+04  0.25500000920E-02 0.  1.
       -2   -1    0    0    0  501  0.00000000000E+00  0.00000000000E+00 -0.14165622813E+04  0.14165622813E+04  0.25500000920E-02 0. -1.
    10030    2    1    2    0    0  0.00000000000E+00  0.00000000000E+00  0.11841223086E+04  0.40172468711E+04  0.38387663099E+04 0.  0.
        4    1    3    3  502    0 -0.24693019811E+03 -0.47898676056E+03 -0.13357696493E+04  0.14403766898E+04  0.12699999809E+01 0. -1.
       -4    1    3    3    0  502  0.24693019811E+03  0.47898676056E+03  0.25198919579E+04  0.25768701814E+04  0.12699999809E+01 0.  1.
</event>
<event>
 5   0  0.2529875E-07  0.3810751E+04  0.7818609E-02  0.8043852E-01
        1   -1    0    0  501    0  0.00000000000E+00  0.00000000000E+00  0.23748129381E+04  0.23748129381E+04  0.50400001928E-02 0. -1.
       -1   -1    0    0    0  501  0.00000000000E+00  0.00000000000E+00 -0.15287331942E+04  0.15287331942E+04  0.50400001928E-02 0.  1.
    10030    2    1    2    0    0  0.00000000000E+00  0.00000000000E+00  0.84607974386E+03  0.39035461323E+04  0.38107507756E+04 0.  0.
        3    1    3    3  502    0  0.18135925073E+04 -0.98132753058E+02 -0.16692538970E+03  0.18239001935E+04  0.10100000352E+00 0. -1.
       -3    1    3    3    0  502 -0.18135925073E+04  0.98132753058E+02  0.10130051336E+04  0.20796459388E+04  0.10100000352E+00 0.  1.
</event>
<event>
 5   0  0.2529875E-07  0.3756015E+04  0.7818609E-02  0.8055660E-01
        1   -1    0    0  501    0  0.00000000000E+00  0.00000000000E+00  0.13087744916E+04  0.13087744916E+04  0.50400001928E-02 0.  1.
       -1   -1    0    0    0  501  0.00000000000E+00  0.00000000000E+00 -0.26948202482E+04  0.26948202482E+04  0.50400001928E-02 0. -1.
    10030    2    1    2    0    0  0.00000000000E+00  0.00000000000E+00 -0.13860457566E+04  0.40035947398E+04  0.37560149096E+04 0.  0.
        5    1    3    3  502    0  0.13324228013E+04 -0.87824035757E+03 -0.17483510224E+04  0.23671523049E+04  0.46999998093E+01 0. -1.
       -5    1    3    3    0  502 -0.13324228013E+04  0.87824035757E+03  0.36230526586E+03  0.16364424349E+04  0.46999998093E+01 0.  1.
</event>
<event>
 5   0  0.8038352E-07  0.3406815E+04  0.7818609E-02  0.8136236E-01
        2   -1    0    0  501    0  0.00000000000E+00  0.00000000000E+00  0.21388171590E+04  0.21388171590E+04  0.25500000920E-02 0. -1.
       -2   -1    0    0    0  501  0.00000000000E+00  0.00000000000E+00 -0.13566364566E+04  0.13566364566E+04  0.25500000920E-02 0.  1.
    10030    2    1    2    0    0  0.00000000000E+00  0.00000000000E+00  0.78218070240E+03  0.34954536157E+04  0.34068151297E+04 0.  0.
        2    1    3    3  502    0  0.54704761705E+03  0.37718726454E+03  0.20003582786E+04  0.21078340947E+04  0.25500000920E-02 0. -1.
       -2    1    3    3    0  502 -0.54704761705E+03 -0.37718726454E+03 -0.12181775762E+04  0.13876195210E+04  0.25500000920E-02 0.  1.
</event>
<event>
 5   0  0.2907071E-07  0.3518766E+04  0.7818609E-02  0.8109357E-01
       -1   -1    0    0    0  501  0.00000000000E+00  0.00000000000E+00  0.10009689669E+04  0.10009689669E+04  0.50400001928E-02 0.  1.
        1   -1    0    0  501    0  0.00000000000E+00  0.00000000000E+00 -0.30924319932E+04  0.30924319932E+04  0.50400001928E-02 0. -1.
    10030    2    1    2    0    0  0.00000000000E+00  0.00000000000E+00 -0.20914630263E+04  0.40934009600E+04  0.35187659526E+04 0.  0.
        2    1    3    3  502    0  0.99006701788E+03  0.42430464609E+02  0.64542688347E+03  0.11826279661E+04  0.25500000920E-02 0.  1.
       -2    1    3    3    0  502 -0.99006701788E+03 -0.42430464609E+02 -0.27368899098E+04  0.29107729940E+04  0.25500000920E-02 0. -1.
</event>
<event>
 5   0  0.2907071E-07  0.3849951E+04  0.7818609E-02  0.8035520E-01
       -1   -1    0    0    0  501  0.00000000000E+00  0.00000000000E+00  0.15472654752E+04  0.15472654752E+04  0.50400001928E-02 0.  1.
        1   -1    0    0  501    0  0.00000000000E+00  0.00000000000E+00 -0.23948896144E+04  0.23948896144E+04  0.50400001928E-02 0. -1.
    10030    2    1    2    0    0  0.00000000000E+00  0.00000000000E+00 -0.84762413917E+03  0.39421550895E+04  0.38499506580E+04 0.  0.
        2    1    3    3  502    0  0.12414516744E+04  0.33039577162E+03 -0.18917308846E+04  0.22867027279E+04  0.25500000920E-02 0. -1.
       -2    1    3    3    0  502 -0.12414516744E+04 -0.33039577162E+03  0.10441067455E+04  0.16554523617E+04  0.25500000920E-02 0.  1.
</event>
<event>
 5   0  0.2952769E-07  0.2362076E+04  0.7818609E-02  0.8453840E-01
       -1   -1    0    0    0  501  0.00000000000E+00  0.00000000000E+00  0.10698985672E+04  0.10698985672E+04  0.50400001928E-02 0.  1.
        1   -1    0    0  501    0  0.00000000000E+00  0.00000000000E+00 -0.13037218877E+04  0.13037218877E+04  0.50400001928E-02 0. -1.
    10030    2    1    2    0    0  0.00000000000E+00  0.00000000000E+00 -0.23382332048E+03  0.23736204550E+04  0.23620755109E+04 0.  0.
        1    1    3    3  502    0 -0.15687534275E+03  0.73234407597E+03  0.80073973782E+03  0.10964131733E+04  0.50400001928E-02 0.  1.
       -1    1    3    3    0  502  0.15687534275E+03 -0.73234407597E+03 -0.10345630583E+04  0.12772072817E+04  0.50400001928E-02 0. -1.
</event>
<event>
 5   0  0.8038352E-07  0.3794888E+04  0.7818609E-02  0.8047253E-01
       -2   -1    0    0    0  501  0.00000000000E+00  0.00000000000E+00  0.16460177514E+04  0.16460177514E+04  0.25500000920E-02 0.  1.
        2   -1    0    0  501    0  0.00000000000E+00  0.00000000000E+00 -0.21872747309E+04  0.21872747309E+04  0.25500000920E-02 0. -1.
    10030    2    1    2    0    0  0.00000000000E+00  0.00000000000E+00 -0.54125697953E+03  0.38332924824E+04  0.37948876317E+04 0.  0.
        2    1    3    3  502    0  0.46816492519E+02  0.18392465385E+04 -0.73929966407E+03  0.19828221318E+04  0.25500000920E-02 0. -1.
       -2    1    3    3    0  502 -0.46816492519E+02 -0.18392465385E+04  0.19804268455E+03  0.18504703505E+04  0.25500000920E-02 0.  1.
</event>
<event>
 5   0  0.7649458E-07  0.3860979E+04  0.7818609E-02  0.8033194E-01
        2   -1    0    0  501    0  0.00000000000E+00  0.00000000000E+00  0.17096122324E+04  0.17096122324E+04  0.25500000920E-02 0. -1.
       -2   -1    0    0    0  501  0.00000000000E+00  0.00000000000E+00 -0.21799034682E+04  0.21799034682E+04  0.25500000920E-02 0.  1.
    10030    2    1    2    0    0  0.00000000000E+00  0.00000000000E+00 -0.47029123581E+03  0.38895157005E+04  0.38609789611E+04 0.  0.
        4    1    3    3  502    0  0.48508408303E+03  0.88109752661E+03  0.14248039581E+04  0.17440491252E+04  0.12699999809E+01 0. -1.
       -4    1    3    3    0  502 -0.48508408303E+03 -0.88109752661E+03 -0.18950951939E+04  0.21454665754E+04  0.12699999809E+01 0.  1.
</event>
<event>
 5   0  0.2529875E-07  0.3139211E+04  0.7818609E-02  0.8205058E-01
        1   -1    0    0  501    0  0.00000000000E+00  0.00000000000E+00  0.23572939150E+04  0.23572939150E+04  0.50400001928E-02 0.  1.
       -1   -1    0    0    0  501  0.00000000000E+00  0.00000000000E+00 -0.10451227658E+04  0.10451227658E+04  0.50400001928E-02 0. -1.
    10030    2    1    2    0    0  0.00000000000E+00  0.00000000000E+00  0.13121711492E+04  0.34024166808E+04  0.31392110704E+04 0.  0.
        3    1    3    3  502    0  0.13334196913E+04 -0.14545399645E+03 -0.22742826990E+03  0.13604736552E+04  0.10100000352E+00 0. -1.
       -3    1    3    3    0  502 -0.13334196913E+04  0.14545399645E+03  0.15395994191E+04  0.20419430256E+04  0.10100000352E+00 0.  1.
</event>
<event>
 5   0  0.7551495E-07  0.3582239E+04  0.7818609E-02  0.8094572E-01
       -2   -1    0    0    0  501  0.00000000000E+00  0.00000000000E+00  0.16293435721E+04  0.16293435721E+04  0.25500000920E-02 0. -1.
        2   -1    0    0  501    0  0.00000000000E+00  0.00000000000E+00 -0.19689574741E+04  0.19689574741E+04  0.25500000920E-02 0.  1.
    10030    2    1    2    0    0  0.00000000000E+00  0.00000000000E+00 -0.33961390195E+03  0.35983010462E+04  0.35822385203E+04 0.  0.
        1    1    3    3  502    0  0.50083262480E+03  0.16325551058E+04  0.37302225756E+03  0.17479173596E+04  0.50400001928E-02 0.  1.
       -1    1    3    3    0  502 -0.50083262480E+03 -0.16325551058E+04 -0.71263615951E+03  0.18503836865E+04  0.50400001928E-02 0. -1.
</event>
<event>
 5   0  0.2907071E-07  0.3586351E+04  0.7818609E-02  0.8093625E-01
       -1   -1    0    0    0  501  0.00000000000E+00  0.00000000000E+00  0.20531800069E+04  0.20531800069E+04  0.50400001928E-02 0.  1.
        1   -1    0    0  501    0  0.00000000000E+00  0.00000000000E+00 -0.15660966484E+04  0.15660966484E+04  0.50400001928E-02 0. -1.
    10030    2    1    2    0    0  0.00000000000E+00  0.00000000000E+00  0.48708335849E+03  0.36192766553E+04  0.35863509741E+04 0.  0.
        2    1    3    3  502    0  0.10057941783E+04  0.12082435570E+04  0.11140172753E+04  0.19267871994E+04  0.25500000920E-02 0.  1.
       -2    1    3    3    0  502 -0.10057941783E+04 -0.12082435570E+04 -0.62693391682E+03  0.16924894559E+04  0.25500000920E-02 0. -1.
</event>
<event>
 5   0  0.2529875E-07  0.3832680E+04  0.7818609E-02  0.8039178E-01
        1   -1    0    0  501    0  0.00000000000E+00  0.00000000000E+00  0.22473970129E+04  0.22473970129E+04  0.50400001928E-02 0. -1.
       -1   -1    0    0    0  501  0.00000000000E+00  0.00000000000E+00 -0.16340499731E+04  0.16340499731E+04  0.50400001928E-02 0.  1.
    10030    2    1    2    0    0  0.00000000000E+00  0.00000000000E+00  0.61334703978E+03  0.38814469860E+04  0.38326800171E+04 0.  0.
        1    1    3    3  502    0 -0.34483159849E+03 -0.10741728120E+04  0.18754489958E+04  0.21886217118E+04  0.50400001928E-02 0. -1.
       -1    1    3    3    0  502  0.34483159849E+03  0.10741728120E+04 -0.12621019560E+04  0.16928252742E+04  0.50400001928E-02 0.  1.
</event>
<event>
 5   0  0.2529875E-07  0.3862159E+04  0.7818609E-02  0.8032946E-01
        1   -1    0    0  501    0  0.00000000000E+00  0.00000000000E+00  0.13489826720E+04  0.13489826720E+04  0.50400001928E-02 0. -1.
       -1   -1    0    0    0  501  0.00000000000E+00  0.00000000000E+00 -0.27643551764E+04  0.27643551764E+04  0.50400001928E-02 0.  1.
    10030    2    1    2    0    0  0.00000000000E+00  0.00000000000E+00 -0.14153725045E+04  0.41133378484E+04  0.38621585841E+04 0.  0.
        3    1    3    3  502    0 -0.80110573028E+03  0.12003012812E+04  0.65895605758E+03  0.15864162924E+04  0.10100000352E+00 0. -1.
       -3    1    3    3    0  502  0.80110573028E+03 -0.12003012812E+04 -0.20743285620E+04  0.25269215560E+04  0.10100000352E+00 0.  1.
</event>
<event>
 5   0  0.2529875E-07  0.3782946E+04  0.7818609E-02  0.8049825E-01
        1   -1    0    0  501    0  0.00000000000E+00  0.00000000000E+00  0.29604722767E+04  0.29604722767E+04  0.50400001928E-02 0.  1.
       -1   -1    0    0    0  501  0.00000000000E+00  0.00000000000E+00 -0.12084794134E+04  0.12084794134E+04  0.50400001928E-02 0. -1.
    10030    2    1    2    0    0  0.00000000000E+00  0.00000000000E+00  0.17519928633E+04  0.41689516901E+04  0.37829458364E+04 0.  0.
        1    1    3    3  502    0 -0.56025037667E+03 -0.43168487197E+03 -0.10572684380E+04  0.12720254963E+04  0.50400001928E-02 0. -1.
       -1    1    3    3    0  502  0.56025037667E+03  0.43168487197E+03  0.28092613013E+04  0.28969261938E+04  0.50400001928E-02 0.  1.
</event>
<event>
 5   0  0.2529875E-07  0.3146981E+04  0.7818609E-02  0.8202961E-01
        1   -1    0    0  501    0  0.00000000000E+00  0.00000000000E+00  0.13433210432E+04  0.13433210432E+04  0.50400001928E-02 0. -1.
       -1   -1    0    0    0  501  0.00000000000E+00  0.00000000000E+00 -0.18430982282E+04  0.18430982282E+04  0.50400001928E-02 0.  1.
    10030    2    1    2    0    0  0.00000000000E+00  0.00000000000E+00 -0.49977718505E+03  0.31864192714E+04  0.31469811786E+04 0.  0.
        1    1    3    3  502    0  0.11792151887E+04 -0.67183640160E+03 -0.10560828692E+04  0.17196580004E+04  0.50400001928E-02 0.  1.
       -1    1    3    3    0  502 -0.11792151887E+04  0.67183640160E+03  0.55630568414E+03  0.14667612710E+04  0.50400001928E-02 0. -1.
</event>
<event>
 5   0  0.2907071E-07  0.3821004E+04  0.7818609E-02  0.8041663E-01
        1   -1    0    0  501    0  0.00000000000E+00  0.00000000000E+00  0.26823966692E+04  0.26823966692E+04  0.50400001928E-02 0. -1.
       -1   -1    0    0    0  501  0.00000000000E+00  0.00000000000E+00 -0.13607298640E+04  0.13607298640E+04  0.50400001928E-02 0.  1.
    10030    2    1    2    0    0  0.00000000000E+00  0.00000000000E+00  0.13216668052E+04  0.40431265332E+04  0.38210036665E+04 0.  0.
        2    1    3    3  502    0 -0.31033528994E+03 -0.17541733421E+04 -0.69649627145E+02  0.17827740117E+04  0.25500000920E-02 0.  1.
       -2    1    3    3    0  502  0.31033528994E+03  0.17541733421E+04  0.13913164324E+04  0.22603525215E+04  0.25500000920E-02 0. -1.
</event>
<event>
 5   0  0.2529875E-07  0.3905495E+04  0.7818609E-02  0.8023887E-01
        1   -1    0    0  501    0  0.00000000000E+00  0.00000000000E+00  0.19199244389E+04  0.19199244389E+04  0.50400001928E-02 0.  1.
       -1   -1    0    0    0  501  0.00000000000E+00  0.00000000000E+00 -0.19861319890E+04  0.19861319891E+04  0.50400001928E-02 0. -1.
    10030    2    1    2    0    0  0.00000000000E+00  0.00000000000E+00 -0.66207550104E+02  0.39060564280E+04  0.39054952796E+04 0.  0.
        1    1    3    3  502    0 -0.16860956878E+04  0.54107378630E+03 -0.85635255249E+03  0.19669822584E+04  0.50400001928E-02 0. -1.
       -1    1    3    3    0  502  0.16860956878E+04 -0.54107378630E+03  0.79014500239E+03  0.19390741696E+04  0.50400001928E-02 0.  1.
</event>
<event>
 5   0  0.8038352E-07  0.3775422E+04  0.7818609E-02  0.8051450E-01
       -2   -1    0    0    0  501  0.00000000000E+00  0.00000000000E+00  0.16329799383E+04  0.16329799383E+04  0.25500000920E-02 0. -1.
        2   -1    0    0  501    0  0.00000000000E+00  0.00000000000E+00 -0.21821777735E+04  0.21821777735E+04  0.25500000920E-02 0.  1.
    10030    2    1    2    0    0  0.00000000000E+00  0.00000000000E+00 -0.54919783520E+03  0.38151577119E+04  0.37754218445E+04 0.  0.
        2    1    3    3  502    0  0.14734200668E+04 -0.24674098922E+02  0.91759648817E+03  0.17359604890E+04  0.25500000920E-02 0. -1.
       -2    1    3    3    0  502 -0.14734200668E+04  0.24674098922E+02 -0.14667943234E+04  0.20791972228E+04  0.25500000920E-02 0.  1.
</event>
<event>
 5   0  0.2907071E-07  0.3797543E+04  0.7818609E-02  0.8046682E-01
       -1   -1    0    0    0  501  0.00000000000E+00  0.00000000000E+00  0.22282108201E+04  0.22282108201E+04  0.50400001928E-02 0.  1.
        1   -1    0    0  501    0  0.00000000000E+00  0.00000000000E+00 -0.16180394777E+04  0.16180394777E+04  0.50400001928E-02 0. -1.
    10030    2    1    2    0    0  0.00000000000E+00  0.00000000000E+00  0.61017134237E+03  0.38462502979E+04  0.37975429276E+04 0.  0.
        2    1    3    3  502    0 -0.14064451992E+04 -0.12032421477E+04  0.73413831710E+03  0.19911903055E+04  0.25500000920E-02 0.  1.
       -2    1    3    3    0  502  0.14064451992E+04  0.12032421477E+04 -0.12396697472E+03  0.18550599923E+04  0.25500000920E-02 0. -1.
</event>
<event>
 5   0  0.2915762E-07  0.2548999E+04  0.7818609E-02  0.8385734E-01
       -1   -1    0    0    0  501  0.00000000000E+00  0.00000000000E+00  0.11392493175E+04  0.11392493175E+04  0.50400001928E-02 0.  1.
        1   -1    0    0  501    0  0.00000000000E+00  0.00000000000E+00 -0.14258062155E+04  0.14258062155E+04  0.50400001928E-02 0. -1.
    10030    2    1    2    0    0  0.00000000000E+00  0.00000000000E+00 -0.28655689803E+03  0.25650555331E+04  0.25489988293E+04 0.  0.
        5    1    3    3  502    0 -0.75917211175E+03 -0.37496976306E+03 -0.11018449060E+04  0.13896146607E+04  0.46999998093E+01 0. -1.
       -5    1    3    3    0  502  0.75917211175E+03  0.37496976306E+03  0.81528800795E+03  0.11754408723E+04  0.46999998093E+01 0.  1.
</event>
<event>
 5   0  0.7551495E-07  0.3847698E+04  0.7818609E-02  0.8035996E-01
       -2   -1    0    0    0  501  0.00000000000E+00  0.00000000000E+00  0.21715041887E+04  0.21715041887E+04  0.25500000920E-02 0.  1.
        2   -1    0    0  501    0  0.00000000000E+00  0.00000000000E+00 -0.17044380838E+04  0.17044380838E+04  0.25500000920E-02 0. -1.
    10030    2    1    2    0    0  0.00000000000E+00  0.00000000000E+00  0.46706610499E+03  0.38759422725E+04  0.38476977212E+04 0.  0.
        1    1    3    3  502    0  0.71978970530E+03  0.17002288931E+04 -0.31110104040E+03  0.18723406117E+04  0.50400001928E-02 0.  1.
       -1    1    3    3    0  502 -0.71978970530E+03 -0.17002288931E+04  0.77816714539E+03  0.20036016608E+04  0.50400001928E-02 0. -1.
</event>
<event>
 5   0  0.7551495E-07  0.3827358E+04  0.7818609E-02  0.8040309E-01
        2   -1    0    0  501    0  0.00000000000E+00  0.00000000000E+00  0.17437734069E+04  0.17437734069E+04  0.25500000920E-02 0. -1.
       -2   -1    0    0    0  501  0.00000000000E+00  0.00000000000E+00 -0.21001390653E+04  0.21001390653E+04  0.25500000920E-02 0.  1.
    10030    2    1    2    0    0  0.00000000000E+00  0.00000000000E+00 -0.35636565847E+03  0.38439124722E+04  0.38273576540E+04 0.  0.
        1    1    3    3  502    0  0.13170919153E+04 -0.66527382169E+03  0.10456305319E+04  0.18084976031E+04  0.50400001928E-02 0. -1.
       -1    1    3    3    0  502 -0.13170919153E+04  0.66527382169E+03 -0.14019961904E+04  0.20354148691E+04  0.50400001928E-02 0.  1.
</event>
<event>
 5   0  0.8038352E-07  0.2888240E+04  0.7818609E-02  0.8276385E-01
       -2   -1    0    0    0  501  0.00000000000E+00  0.00000000000E+00  0.11662414982E+04  0.11662414982E+04  0.25500000920E-02 0.  1.
        2   -1    0    0  501    0  0.00000000000E+00  0.00000000000E+00 -0.17882078410E+04  0.17882078410E+04  0.25500000920E-02 0. -1.
    10030    2    1    2    0    0  0.00000000000E+00  0.00000000000E+00 -0.62196634273E+03  0.29544493392E+04  0.28882397349E+04 0.  0.
        2    1    3    3  502    0 -0.14035072873E+04 -0.20810516723E+03 -0.35853302963E+02  0.14193047331E+04  0.25500000920E-02 0. -1.
       -2    1    3    3    0  502  0.14035072873E+04  0.20810516723E+03 -0.58611303977E+03  0.15351446061E+04  0.25500000920E-02 0.  1.
</event>
<event>
 5   0  0.7638805E-07  0.3784019E+04  0.7818609E-02  0.8049593E-01
        2   -1    0    0  501    0  0.00000000000E+00  0.00000000000E+00  0.18940126718E+04  0.18940126718E+04  0.25500000920E-02 0. -1.
       -2   -1    0    0    0  501  0.00000000000E+00  0.00000000000E+00 -0.18900085449E+04  0.18900085449E+04  0.25500000920E-02 0.  1.
    10030    2    1    2    0    0  0.00000000000E+00  0.00000000000E+00  0.40041269663E+01  0.37840212167E+04  0.37840190982E+04 0.  0.
        5    1    3    3  502    0  0.15293712598E+03  0.10269439903E+04  0.15836711570E+04  0.18936842786E+04  0.46999998093E+01 0. -1.
       -5    1    3    3    0  502 -0.15293712598E+03 -0.10269439903E+04 -0.15796670300E+04  0.18903369381E+04  0.46999998093E+01 0.  1.
</event>
<event>
 5   0  0.2529875E-07  0.3789510E+04  0.7818609E-02  0.8048410E-01
       -1   -1    0    0    0  501  0.00000000000E+00  0.00000000000E+00  0.21012495724E+04  0.21012495724E+04  0.50400001928E-02 0. -1.
        1   -1    0    0  501    0  0.00000000000E+00  0.00000000000E+00 -0.17085529626E+04  0.17085529626E+04  0.50400001928E-02 0.  1.
    10030    2    1    2    0    0  0.00000000000E+00  0.00000000000E+00  0.39269660986E+03  0.38098025350E+04  0.37895098269E+04 0.  0.
        4    1    3    3  502    0  0.50908361089E+03  0.29808738198E+03  0.20065658947E+04  0.20914900222E+04  0.12699999809E+01 0. -1.
       -4    1    3    3    0  502 -0.50908361089E+03 -0.29808738198E+03 -0.16138692849E+04  0.17183125128E+04  0.12699999809E+01 0.  1.
</event>
<event>
 5   0  0.7551495E-07  0.2642668E+04  0.7818609E-02  0.8353851E-01
       -2   -1    0    0    0  501  0.00000000000E+00  0.00000000000E+00  0.69322591203E+03  0.69322591203E+03  0.25500000920E-02 0.  1.
        2   -1    0    0  501    0  0.00000000000E+00  0.00000000000E+00 -0.25185491041E+04  0.25185491041E+04  0.25500000920E-02 0. -1.
    10030    2    1    2    0    0  0.00000000000E+00  0.00000000000E+00 -0.18253231920E+04  0.32117750161E+04  0.26426679698E+04 0.  0.
        1    1    3    3  502    0  0.63316183849E+03  0.32439109181E+03 -0.22659125176E+04  0.23749701117E+04  0.50400001928E-02 0. -1.
       -1    1    3    3    0  502 -0.63316183849E+03 -0.32439109181E+03  0.44058932556E+03  0.83680490437E+03  0.50400001928E-02 0.  1.
</event>
<event>
 5   0  0.2529875E-07  0.3830781E+04  0.7818609E-02  0.8039582E-01
        1   -1    0    0  501    0  0.00000000000E+00  0.00000000000E+00  0.29058870938E+04  0.29058870938E+04  0.50400001928E-02 0. -1.
       -1   -1    0    0    0  501  0.00000000000E+00  0.00000000000E+00 -0.12625129154E+04  0.12625129154E+04  0.50400001928E-02 0.  1.
    10030    2    1    2    0    0  0.00000000000E+00  0.00000000000E+00  0.16433741784E+04  0.41684000092E+04  0.38307805923E+04 0.  0.
        1    1    3    3  502    0  0.95022251475E+03 -0.48271840782E+02  0.26305649782E+04  0.27973425073E+04  0.50400001928E-02 0. -1.
       -1    1    3    3    0  502 -0.95022251475E+03  0.48271840782E+02 -0.98719079986E+03  0.13710575019E+04  0.50400001928E-02 0.  1.
</event>
<event>
 5   0  0.2907071E-07  0.3833554E+04  0.7818609E-02  0.8038992E-01
        1   -1    0    0  501    0  0.00000000000E+00  0.00000000000E+00  0.20274891167E+04  0.20274891167E+04  0.50400001928E-02 0.  1.
       -1   -1    0    0    0  501  0.00000000000E+00  0.00000000000E+00 -0.18121103586E+04  0.18121103586E+04  0.50400001928E-02 0. -1.
    10030    2    1    2    0    0  0.00000000000E+00  0.00000000000E+00  0.21537875810E+03  0.38395994754E+04  0.38335539806E+04 0.  0.
        2    1    3    3  502    0  0.39999714965E+02 -0.18344648265E+04 -0.44741641040E+03  0.18886615952E+04  0.25500000920E-02 0. -1.
       -2    1    3    3    0  502 -0.39999714965E+02  0.18344648265E+04  0.66279516850E+03  0.19509378802E+04  0.25500000920E-02 0.  1.
</event>
<event>
 5   0  0.2529875E-07  0.2479045E+04  0.7818609E-02  0.8410489E-01
        1   -1    0    0  501    0  0.00000000000E+00  0.00000000000E+00  0.14985497744E+04  0.14985497744E+04  0.50400001928E-02 0.  1.
       -1   -1    0    0    0  501  0.00000000000E+00  0.00000000000E+00 -0.10252688967E+04  0.10252688967E+04  0.50400001928E-02 0. -1.
    10030    2    1    2    0    0  0.00000000000E+00  0.00000000000E+00  0.47328087774E+03  0.25238186712E+04  0.24790453597E+04 0.  0.
        1    1    3    3  502    0 -0.30243630663E+03 -0.97897645835E+03  0.94677251792E+03  0.13950773549E+04  0.50400001928E-02 0.  1.
       -1    1    3    3    0  502  0.30243630663E+03  0.97897645835E+03 -0.47349164018E+03  0.11287413162E+04  0.50400001928E-02 0. -1.
</event>
<event>
 5   0  0.2529875E-07  0.3924346E+04  0.7818609E-02  0.8019985E-01
        1   -1    0    0  501    0  0.00000000000E+00  0.00000000000E+00  0.15440729176E+04  0.15440729176E+04  0.50400001928E-02 0.  1.
       -1   -1    0    0    0  501  0.00000000000E+00  0.00000000000E+00 -0.24934848811E+04  0.24934848811E+04  0.50400001928E-02 0. -1.
    10030    2    1    2    0    0  0.00000000000E+00  0.00000000000E+00 -0.94941196358E+03  0.40375577987E+04  0.39243457928E+04 0.  0.
        5    1    3    3  502    0  0.15711336038E+04  0.83905560842E+03  0.37222160848E+03  0.18196280199E+04  0.46999998093E+01 0. -1.
       -5    1    3    3    0  502 -0.15711336038E+04 -0.83905560842E+03 -0.13216335721E+04  0.22179297788E+04  0.46999998093E+01 0.  1.
</event>
<event>
 5   0  0.2907071E-07  0.2500572E+04  0.7818609E-02  0.8402782E-01
        1   -1    0    0  501    0  0.00000000000E+00  0.00000000000E+00  0.15786263824E+04  0.15786263824E+04  0.50400001928E-02 0. -1.
       -1   -1    0    0    0  501  0.00000000000E+00  0.00000000000E+00 -0.99023768392E+03  0.99023768393E+03  0.50400001928E-02 0.  1.
    10030    2    1    2    0    0  0.00000000000E+00  0.00000000000E+00  0.58838869850E+03  0.25688640664E+04  0.25005722007E+04 0.  0.
        2    1    3    3  502    0 -0.86519706452E+03  0.21449675332E+03 -0.60647080622E+03  0.10781380507E+04  0.25500000920E-02 0.  1.
       -2    1    3    3    0  502  0.86519706452E+03 -0.21449675332E+03  0.11948595047E+04  0.14907260156E+04  0.25500000920E-02 0. -1.
</event>
<event>
 5   0  0.7551495E-07  0.3804663E+04  0.7818609E-02  0.8045155E-01
        2   -1    0    0  501    0  0.00000000000E+00  0.00000000000E+00  0.21002237078E+04  0.21002237078E+04  0.25500000920E-02 0.  1.
       -2   -1    0    0    0  501  0.00000000000E+00  0.00000000000E+00 -0.17230855401E+04  0.17230855401E+04  0.25500000920E-02 0. -1.
    10030    2    1    2    0    0  0.00000000000E+00  0.00000000000E+00  0.37713816775E+03  0.38233092479E+04  0.38046629821E+04 0.  0.
        1    1    3    3  502    0  0.15113768639E+04  0.66418854268E+03 -0.76129280950E+03  0.18179585217E+04  0.50400001928E-02 0. -1.
       -1    1    3    3    0  502 -0.15113768639E+04 -0.66418854268E+03  0.11384309773E+04  0.20053507262E+04  0.50400001928E-02 0.  1.
</event>
<event>
 5   0  0.8421677E-07  0.3779646E+04  0.7818609E-02  0.8050537E-01
       -2   -1    0    0    0  501  0.00000000000E+00  0.00000000000E+00  0.13261174919E+04  0.13261174919E+04  0.25500000920E-02 0. -1.
        2   -1    0    0  501    0  0.00000000000E+00  0.00000000000E+00 -0.26931487004E+04  0.26931487004E+04  0.25500000920E-02 0.  1.
    10030    2    1    2    0    0  0.00000000000E+00  0.00000000000E+00 -0.13670312086E+04  0.40192661923E+04  0.37796463326E+04 0.  0.
        3    1    3    3  502    0 -0.13816649603E+03 -0.12372422676E+02  0.13206961732E+04  0.13279613886E+04  0.10100000352E+00 0. -1.
       -3    1    3    3    0  502  0.13816649603E+03  0.12372422676E+02 -0.26877273818E+04  0.26913048037E+04  0.10100000352E+00 0.  1.
</event>
<event>
 5   0  0.2529875E-07  0.3773214E+04  0.7818609E-02  0.8051928E-01
        1   -1    0    0  501    0  0.00000000000E+00  0.00000000000E+00  0.17437029784E+04  0.17437029784E+04  0.50400001928E-02 0. -1.
       -1   -1    0    0    0  501  0.00000000000E+00  0.00000000000E+00 -0.20412226880E+04  0.20412226880E+04  0.50400001928E-02 0.  1.
    10030    2    1    2    0    0  0.00000000000E+00  0.00000000000E+00 -0.29751970962E+03  0.37849256664E+04  0.37732140574E+04 0.  0.
        1    1    3    3  502    0 -0.63641301301E+03 -0.17760119483E+04 -0.15557189273E+03  0.18929983036E+04  0.50400001928E-02 0. -1.
       -1    1    3    3    0  502  0.63641301301E+03  0.17760119483E+04 -0.14194781689E+03  0.18919273628E+04  0.50400001928E-02 0.  1.
</event>
<event>
 5   0  0.2907071E-07  0.3051470E+04  0.7818609E-02  0.8229184E-01
        1   -1    0    0  501    0  0.00000000000E+00  0.00000000000E+00  0.19369573725E+04  0.19369573725E+04  0.50400001928E-02 0. -1.
       -1   -1    0    0    0  501  0.00000000000E+00  0.00000000000E+00 -0.12018166670E+04  0.12018166670E+04  0.50400001928E-02 0.  1.
    10030    2    1    2    0    0  0.00000000000E+00  0.00000000000E+00  0.73514070548E+03  0.31387740396E+04  0.30514702382E+04 0.  0.
        2    1    3    3  502    0 -0.25900921942E+03  0.11275189875E+04  0.13907574160E+04  0.18090304124E+04  0.25500000920E-02 0. -1.
       -2    1    3    3    0  502  0.25900921942E+03 -0.11275189875E+04 -0.65561671050E+03  0.13297436272E+04  0.25500000920E-02 0.  1.
</event>
<event>
 5   0  0.2529875E-07  0.3777115E+04  0.7818609E-02  0.8051084E-01
        1   -1    0    0  501    0  0.00000000000E+00  0.00000000000E+00  0.18596547019E+04  0.18596547019E+04  0.50400001928E-02 0. -1.
       -1   -1    0    0    0  501  0.00000000000E+00  0.00000000000E+00 -0.19179097136E+04  0.19179097136E+04  0.50400001928E-02 0.  1.
    10030    2    1    2    0    0  0.00000000000E+00  0.00000000000E+00 -0.58255011657E+02  0.37775644155E+04  0.37771152044E+04 0.  0.
        1    1    3    3  502    0 -0.16164097480E+04 -0.97223088505E+03 -0.12207105833E+03  0.18902155196E+04  0.50400001928E-02 0. -1.
       -1    1    3    3    0  502  0.16164097480E+04  0.97223088505E+03  0.63816046671E+02  0.18873488959E+04  0.50400001928E-02 0.  1.
</event>
<event>
 5   0  0.2529875E-07  0.3683737E+04  0.7818609E-02  0.8071576E-01
       -1   -1    0    0    0  501  0.00000000000E+00  0.00000000000E+00  0.13969310396E+04  0.13969310396E+04  0.50400001928E-02 0.  1.
        1   -1    0    0  501    0  0.00000000000E+00  0.00000000000E+00 -0.24285228665E+04  0.24285228665E+04  0.50400001928E-02 0. -1.
    10030    2    1    2    0    0  0.00000000000E+00  0.00000000000E+00 -0.10315918269E+04  0.38254539061E+04  0.36837366749E+04 0.  0.
        4    1    3    3  502    0 -0.78999165000E+01  0.18131429112E+04 -0.17940865035E+03  0.18220150115E+04  0.12699999809E+01 0.  1.
       -4    1    3    3    0  502  0.78999165000E+01 -0.18131429112E+04 -0.85218317657E+03  0.20034388946E+04  0.12699999809E+01 0. -1.
</event>
<event>
 5   0  0.2529875E-07  0.3855226E+04  0.7818609E-02  0.8034406E-01
        1   -1    0    0  501    0  0.00000000000E+00  0.00000000000E+00  0.20700256145E+04  0.20700256145E+04  0.50400001928E-02 0. -1.
       -1   -1    0    0    0  501  0.00000000000E+00  0.00000000000E+00 -0.17949978276E+04  0.17949978276E+04  0.50400001928E-02 0.  1.
    10030    2    1    2    0    0  0.00000000000E+00  0.00000000000E+00  0.27502778696E+03  0.38650234421E+04  0.38552257942E+04 0.  0.
        3    1    3    3  502    0  0.16580033515E+03  0.14477778884E+04 -0.11274934992E+04  0.18424961781E+04  0.10100000352E+00 0.  1.
       -3    1    3    3    0  502 -0.16580033515E+03 -0.14477778884E+04  0.14025212862E+04  0.20225272640E+04  0.10100000352E+00 0. -1.
</event>
<event>
 5   0  0.7551495E-07  0.3286896E+04  0.7818609E-02  0.8166238E-01
        2   -1    0    0  501    0  0.00000000000E+00  0.00000000000E+00  0.87936293034E+03  0.87936293034E+03  0.25500000920E-02 0.  1.
       -2   -1    0    0    0  501  0.00000000000E+00  0.00000000000E+00 -0.30714521932E+04  0.30714521932E+04  0.25500000920E-02 0. -1.
    10030    2    1    2    0    0  0.00000000000E+00  0.00000000000E+00 -0.21920892629E+04  0.39508151235E+04  0.32868959223E+04 0.  0.
        1    1    3    3  502    0 -0.14162752410E+04  0.83367767050E+03 -0.11058968707E+04  0.19808740256E+04  0.50400001928E-02 0. -1.
       -1    1    3    3    0  502  0.14162752410E+04 -0.83367767050E+03 -0.10861923922E+04  0.19699410980E+04  0.50400001928E-02 0.  1.
</event>
<event>
 5   0  0.2529875E-07  0.3151463E+04  0.7818609E-02  0.8201755E-01
       -1   -1    0    0    0  501  0.00000000000E+00  0.00000000000E+00  0.13560558471E+04  0.13560558471E+04  0.50400001928E-02 0.  1.
        1   -1    0    0  501    0  0.00000000000E+00  0.00000000000E+00 -0.18309931713E+04  0.18309931713E+04  0.50400001928E-02 0. -1.
    10030    2    1    2    0    0  0.00000000000E+00  0.00000000000E+00 -0.47493732419E+03  0.31870490184E+04  0.31514625150E+04 0.  0.
        5    1    3    3  502    0  0.10820542573E+04 -0.68645017224E+03  0.68986556197E+03  0.14553322089E+04  0.46999998093E+01 0.  1.
       -5    1    3    3    0  502 -0.10820542573E+04  0.68645017224E+03 -0.11648028862E+04  0.17317168095E+04  0.46999998093E+01 0. -1.
</event>
<event>
 5   0  0.8038352E-07  0.3801205E+04  0.7818609E-02  0.8045896E-01
       -2   -1    0    0    0  501  0.00000000000E+00  0.00000000000E+00  0.21458894594E+04  0.21458894594E+04  0.25500000920E-02 0.  1.
        2   -1    0    0  501    0  0.00000000000E+00  0.00000000000E+00 -0.16833535856E+04  0.16833535856E+04  0.25500000920E-02 0. -1.
    10030    2    1    2    0    0  0.00000000000E+00  0.00000000000E+00  0.46253587376E+03  0.38292430450E+04  0.38012054486E+04 0.  0.
        2    1    3    3  502    0 -0.72796569344E+03  0.16558293862E+04 -0.35663387600E+03  0.18436086159E+04  0.25500000920E-02 0.  1.
       -2    1    3    3    0  502  0.72796569344E+03 -0.16558293862E+04  0.81916974976E+03  0.19856344291E+04  0.25500000920E-02 0. -1.
</event>
<event>
 5   0  0.2529875E-07  0.3902212E+04  0.7818609E-02  0.8024569E-01
        1   -1    0    0  501    0  0.00000000000E+00  0.00000000000E+00  0.23322673248E+04  0.23322673248E+04  0.50400001928E-02 0.  1.
       -1   -1    0    0    0  501  0.00000000000E+00  0.00000000000E+00 -0.16322379339E+04  0.16322379339E+04  0.50400001928E-02 0. -1.
    10030    2    1    2    0    0  0.00000000000E+00  0.00000000000E+00  0.70002939088E+03  0.39645052587E+04  0.39022122954E+04 0.  0.
        4    1    3    3  502    0  0.10949704129E+04 -0.12707807448E+04 -0.66237123078E+03  0.18034913825E+04  0.12699999809E+01 0. -1.
       -4    1    3    3    0  502 -0.10949704129E+04  0.12707807448E+04  0.13624006217E+04  0.21610138762E+04  0.12699999809E+01 0.  1.
</event>
<event>
 5   0  0.8421677E-07  0.2348078E+04  0.7818609E-02  0.8459202E-01
       -2   -1    0    0    0  501  0.00000000000E+00  0.00000000000E+00  0.12495546529E+04  0.12495546529E+04  0.25500000920E-02 0.  1.
        2   -1    0    0  501    0  0.00000000000E+00  0.00000000000E+00 -0.11030867870E+04  0.11030867870E+04  0.25500000920E-02 0. -1.
    10030    2    1    2    0    0  0.00000000000E+00  0.00000000000E+00  0.14646786591E+03  0.23526414398E+04  0.23480777050E+04 0.  0.
        3    1    3    3  502    0 -0.67213773981E+03 -0.29776477489E+03 -0.84393268531E+03  0.11192208853E+04  0.10100000352E+00 0. -1.
       -3    1    3    3    0  502  0.67213773981E+03  0.29776477489E+03  0.99040055122E+03  0.12334205546E+04  0.10100000352E+00 0.  1.
</event>
<event>
 5   0  0.2529875E-07  0.3212158E+04  0.7818609E-02  0.8185614E-01
       -1   -1    0    0    0  501  0.00000000000E+00  0.00000000000E+00  0.10089964678E+04  0.10089964678E+04  0.50400001928E-02 0. -1.
        1   -1    0    0  501    0  0.00000000000E+00  0.00000000000E+00 -0.25564900016E+04  0.25564900016E+04  0.50400001928E-02 0.  1.
    10030    2    1    2    0    0  0.00000000000E+00  0.00000000000E+00 -0.15474935338E+04  0.35654864693E+04  0.32121577679E+04 0.  0.
        1    1    3    3  502    0  0.30905041166E+03 -0.11628105596E+03 -0.25184054700E+04  0.25399605415E+04  0.50400001928E-02 0.  1.
       -1    1    3    3    0  502 -0.30905041166E+03  0.11628105596E+03  0.97091193617E+03  0.10255259279E+04  0.50400001928E-02 0. -1.
</event>
<event>
 5   0  0.8421677E-07  0.3738367E+04  0.7818609E-02  0.8059512E-01
        2   -1    0    0  501    0  0.00000000000E+00  0.00000000000E+00  0.12346809493E+04  0.12346809493E+04  0.25500000920E-02 0.  1.
       -2   -1    0    0    0  501  0.00000000000E+00  0.00000000000E+00 -0.28297575596E+04  0.28297575596E+04  0.25500000920E-02 0. -1.
    10030    2    1    2    0    0  0.00000000000E+00  0.00000000000E+00 -0.15950766104E+04  0.40644385089E+04  0.37383674244E+04 0.  0.
        3    1    3    3  502    0 -0.17123660870E+03  0.69995905930E+03  0.10775927451E+04  0.12963297402E+04  0.10100000352E+00 0.  1.
       -3    1    3    3    0  502  0.17123660870E+03 -0.69995905930E+03 -0.26726693555E+04  0.27681087686E+04  0.10100000352E+00 0. -1.
</event>
<event>
 5   0  0.2529875E-07  0.3785230E+04  0.7818609E-02  0.8049332E-01
        1   -1    0    0  501    0  0.00000000000E+00  0.00000000000E+00  0.22410566293E+04  0.22410566293E+04  0.50400001928E-02 0.  1.
       -1   -1    0    0    0  501  0.00000000000E+00  0.00000000000E+00 -0.15983494733E+04  0.15983494733E+04  0.50400001928E-02 0. -1.
    10030    2    1    2    0    0  0.00000000000E+00  0.00000000000E+00  0.64270715603E+03  0.38394061026E+04  0.37852300765E+04 0.  0.
        5    1    3    3  502    0  0.79591384968E+03  0.85450078487E+03 -0.11893657388E+04  0.16668123464E+04  0.46999998093E+01 0. -1.
       -5    1    3    3    0  502 -0.79591384968E+03 -0.85450078487E+03  0.18320728948E+04  0.21725937562E+04  0.46999998093E+01 0.  1.
</event>
<event>
 5   0  0.2529875E-07  0.3814335E+04  0.7818609E-02  0.8043086E-01
       -1   -1    0    0    0  501  0.00000000000E+00  0.00000000000E+00  0.22243044500E+04  0.22243044500E+04  0.50400001928E-02 0. -1.
        1   -1    0    0  501    0  0.00000000000E+00  0.00000000000E+00 -0.16352474324E+04  0.16352474324E+04  0.50400001928E-02 0.  1.
    10030    2    1    2    0    0  0.00000000000E+00  0.00000000000E+00  0.58905701763E+03  0.38595518825E+04  0.38143351404E+04 0.  0.
        5    1    3    3  502    0 -0.12833649966E+04  0.83840367470E+02 -0.11304309543E+04  0.17122941202E+04  0.46999998093E+01 0.  1.
       -5    1    3    3    0  502  0.12833649966E+04 -0.83840367470E+02  0.17194879719E+04  0.21472577622E+04  0.46999998093E+01 0. -1.
</event>
<event>
 5   0  0.2529875E-07  0.3789289E+04  0.7818609E-02  0.8048457E-01
        1   -1    0    0  501    0  0.00000000000E+00  0.00000000000E+00  0.20713767723E+04  0.20713767723E+04  0.50400001928E-02 0. -1.
       -1   -1    0    0    0  501  0.00000000000E+00  0.00000000000E+00 -0.17329913586E+04  0.17329913586E+04  0.50400001928E-02 0.  1.
    10030    2    1    2    0    0  0.00000000000E+00  0.00000000000E+00  0.33838541370E+03  0.38043681310E+04  0.37892891402E+04 0.  0.
        3    1    3    3  502    0 -0.10859092969E+04 -0.10303060666E+04 -0.99687150283E+03  0.17984666789E+04  0.10100000352E+00 0.  1.
       -3    1    3    3    0  502  0.10859092969E+04  0.10303060666E+04  0.13352569165E+04  0.20059014520E+04  0.10100000352E+00 0. -1.
</event>
<event>
 5   0  0.7638805E-07  0.3865308E+04  0.7818609E-02  0.8032283E-01
        2   -1    0    0  501    0  0.00000000000E+00  0.00000000000E+00  0.21414229392E+04  0.21414229392E+04  0.25500000920E-02 0. -1.
       -2   -1    0    0    0  501  0.00000000000E+00  0.00000000000E+00 -0.17442381536E+04  0.17442381536E+04  0.25500000920E-02 0.  1.
    10030    2    1    2    0    0  0.00000000000E+00  0.00000000000E+00  0.39718478565E+03  0.38856610928E+04  0.38653080568E+04 0.  0.
        5    1    3    3  502    0 -0.66823510898E+03 -0.11238003531E+04 -0.12321601401E+04  0.17965817809E+04  0.46999998093E+01 0.  1.
       -5    1    3    3    0  502  0.66823510898E+03  0.11238003531E+04  0.16293449257E+04  0.20890793119E+04  0.46999998093E+01 0. -1.
</event>
<event>
 5   0  0.7551495E-07  0.2486500E+04  0.7818609E-02  0.8407811E-01
       -2   -1    0    0    0  501  0.00000000000E+00  0.00000000000E+00  0.14338164408E+04  0.14338164408E+04  0.25500000920E-02 0. -1.
        2   -1    0    0  501    0  0.00000000000E+00  0.00000000000E+00 -0.10780114560E+04  0.10780114560E+04  0.25500000920E-02 0.  1.
    10030    2    1    2    0    0  0.00000000000E+00  0.00000000000E+00  0.35580498480E+03  0.25118278968E+04  0.24864999892E+04 0.  0.
        1    1    3    3  502    0  0.10487219931E+04  0.32131007974E+03  0.76919593077E+03  0.13396717382E+04  0.50400001928E-02 0. -1.
       -1    1    3    3    0  502 -0.10487219931E+04 -0.32131007974E+03 -0.41339094597E+03  0.11721561587E+04  0.50400001928E-02 0.  1.
</event>
<event>
 5   0  0.7551495E-07  0.3778724E+04  0.7818609E-02  0.8050736E-01
       -2   -1    0    0    0  501  0.00000000000E+00  0.00000000000E+00  0.19105273083E+04  0.19105273083E+04  0.25500000920E-02 0. -1.
        2   -1    0    0  501    0  0.00000000000E+00  0.00000000000E+00 -0.18684308999E+04  0.18684308999E+04  0.25500000920E-02 0.  1.
    10030    2    1    2    0    0  0.00000000000E+00  0.00000000000E+00  0.42096408361E+02  0.37789582082E+04  0.37787237305E+04 0.  0.
        1    1    3    3  502    0  0.18803463325E+04  0.48878238843E+02 -0.15671784185E+03  0.18874988461E+04  0.50400001928E-02 0. -1.
       -1    1    3    3    0  502 -0.18803463325E+04 -0.48878238843E+02  0.19881425021E+03  0.18914593621E+04  0.50400001928E-02 0.  1.
</event>
<event>
 5   0  0.2907071E-07  0.3744528E+04  0.7818609E-02  0.8058165E-01
        1   -1    0    0  501    0  0.00000000000E+00  0.00000000000E+00  0.16653205856E+04  0.16653205856E+04  0.50400001928E-02 0.  1.
       -1   -1    0    0    0  501  0.00000000000E+00  0.00000000000E+00 -0.21049237719E+04  0.21049237719E+04  0.50400001928E-02 0. -1.
    10030    2    1    2    0    0  0.00000000000E+00  0.00000000000E+00 -0.43960318623E+03  0.37702443575E+04  0.37445282151E+04 0.  0.
        2    1    3    3  502    0 -0.88006372489E+03  0.12360641906E+04  0.88454728971E+03  0.17563572390E+04  0.25500000920E-02 0.  1.
       -2    1    3    3    0  502  0.88006372489E+03 -0.12360641906E+04 -0.13241504759E+04  0.20138871185E+04  0.25500000920E-02 0. -1.
</event>
<event>
 5   0  0.7638805E-07  0.3712279E+04  0.7818609E-02  0.8065246E-01
        2   -1    0    0  501    0  0.00000000000E+00  0.00000000000E+00  0.97443936431E+03  0.97443936432E+03  0.25500000920E-02 0. -1.
       -2   -1    0    0    0  501  0.00000000000E+00  0.00000000000E+00 -0.35356276236E+04  0.35356276236E+04  0.25500000920E-02 0.  1.
    10030    2    1    2    0    0  0.00000000000E+00  0.00000000000E+00 -0.25611882593E+04  0.45100669879E+04  0.37122794798E+04 0.  0.
        5    1    3    3  502    0 -0.12527133554E+04 -0.10284871063E+04 -0.23794998432E+04  0.28790828527E+04  0.46999998093E+01 0.  1.
       -5    1    3    3    0  502  0.12527133554E+04  0.10284871063E+04 -0.18168841605E+03  0.16309841352E+04  0.46999998093E+01 0. -1.
</event>
<event>
 5   0  0.8038352E-07  0.3719387E+04  0.7818609E-02  0.8063679E-01
        2   -1    0    0  501    0  0.00000000000E+00  0.00000000000E+00  0.14150236562E+04  0.14150236562E+04  0.25500000920E-02 0. -1.
       -2   -1    0    0    0  501  0.00000000000E+00  0.00000000000E+00 -0.24441002120E+04  0.24441002120E+04  0.25500000920E-02 0.  1.
    10030    2    1    2    0    0  0.00000000000E+00  0.00000000000E+00 -0.10290765558E+04  0.38591238681E+04  0.37193868408E+04 0.  0.
        2    1    3    3  502    0  0.36485583539E+03  0.63690430292E+03  0.12583686773E+04  0.14567973778E+04  0.25500000920E-02 0. -1.
       -2    1    3    3    0  502 -0.36485583539E+03 -0.63690430292E+03 -0.22874452331E+04  0.24023264904E+04  0.25500000920E-02 0.  1.
</event>
<event>
 5   0  0.2529875E-07  0.3581811E+04  0.7818609E-02  0.8094671E-01
        1   -1    0    0  501    0  0.00000000000E+00  0.00000000000E+00  0.10895875495E+04  0.10895875495E+04  0.50400001928E-02 0.  1.
       -1   -1    0    0    0  501  0.00000000000E+00  0.00000000000E+00 -0.29436295801E+04  0.29436295801E+04  0.50400001928E-02 0. -1.
    10030    2    1    2    0    0  0.00000000000E+00  0.00000000000E+00 -0.18540420306E+04  0.40332171296E+04  0.35818107939E+04 0.  0.
        5    1    3    3  502    0 -0.53929142573E+03  0.76344749890E+03 -0.26471666409E+04  0.28073476166E+04  0.46999998093E+01 0. -1.
       -5    1    3    3    0  502  0.53929142573E+03 -0.76344749890E+03  0.79312461033E+03  0.12258695130E+04  0.46999998093E+01 0.  1.
</event>
<event>
 5   0  0.2529875E-07  0.3759096E+04  0.7818609E-02  0.8054990E-01
        1   -1    0    0  501    0  0.00000000000E+00  0.00000000000E+00  0.19223748978E+04  0.19223748978E+04  0.50400001928E-02 0. -1.
       -1   -1    0    0    0  501  0.00000000000E+00  0.00000000000E+00 -0.18376750577E+04  0.18376750577E+04  0.50400001928E-02 0.  1.
    10030    2    1    2    0    0  0.00000000000E+00  0.00000000000E+00  0.84699840074E+02  0.37600499555E+04  0.37590958494E+04 0.  0.
        4    1    3    3  502    0 -0.98932581420E+03 -0.15955811425E+04 -0.47417158768E+02  0.18780028617E+04  0.12699999809E+01 0.  1.
       -4    1    3    3    0  502  0.98932581420E+03  0.15955811425E+04  0.13211699884E+03  0.18820470938E+04  0.12699999809E+01 0. -1.
</event>
<event>
 5   0  0.2529875E-07  0.3829894E+04  0.7818609E-02  0.8039770E-01
       -1   -1    0    0    0  501  0.00000000000E+00  0.00000000000E+00  0.34357506812E+04  0.34357506812E+04  0.50400001928E-02 0.  1.
        1   -1    0    0  501    0  0.00000000000E+00  0.00000000000E+00 -0.10673133163E+04  0.10673133164E+04  0.50400001928E-02 0. -1.
    10030    2    1    2    0    0  0.00000000000E+00  0.00000000000E+00  0.23684373649E+04  0.45030639976E+04  0.38298942303E+04 0.  0.
        3    1    3    3  502    0  0.49825673660E+03 -0.12905948714E+04 -0.37256437228E+03  0.14327243696E+04  0.10100000352E+00 0. -1.
       -3    1    3    3    0  502 -0.49825673660E+03  0.12905948714E+04  0.27410017372E+04  0.30703396280E+04  0.10100000352E+00 0.  1.
</event>
<event>
 5   0  0.2529875E-07  0.3783571E+04  0.7818609E-02  0.8049690E-01
        1   -1    0    0  501    0  0.00000000000E+00  0.00000000000E+00  0.11305660429E+04  0.11305660429E+04  0.50400001928E-02 0. -1.
       -1   -1    0    0    0  501  0.00000000000E+00  0.00000000000E+00 -0.31655408278E+04  0.31655408278E+04  0.50400001928E-02 0.  1.
    10030    2    1    2    0    0  0.00000000000E+00  0.00000000000E+00 -0.20349747849E+04  0.42961068708E+04  0.37835713116E+04 0.  0.
        5    1    3    3  502    0 -0.98238538859E+03  0.20865023799E+03 -0.28378498550E+04  0.30103205582E+04  0.46999998093E+01 0.  1.
       -5    1    3    3    0  502  0.98238538859E+03 -0.20865023799E+03  0.80287507005E+03  0.12857863126E+04  0.46999998093E+01 0. -1.
</event>
<event>
 5   0  0.8038352E-07  0.3723580E+04  0.7818609E-02  0.8062756E-01
       -2   -1    0    0    0  501  0.00000000000E+00  0.00000000000E+00  0.13053905154E+04  0.13053905154E+04  0.25500000920E-02 0. -1.
        2   -1    0    0  501    0  0.00000000000E+00  0.00000000000E+00 -0.26553451680E+04  0.26553451680E+04  0.25500000920E-02 0.  1.
    10030    2    1    2    0    0  0.00000000000E+00  0.00000000000E+00 -0.13499546526E+04  0.39607356834E+04  0.37235802112E+04 0.  0.
        2    1    3    3  502    0 -0.17611818128E+04 -0.33908641378E+03 -0.12063131126E+04  0.21614653130E+04  0.25500000920E-02 0. -1.
       -2    1    3    3    0  502  0.17611818128E+04  0.33908641378E+03 -0.14364154007E+03  0.17992703704E+04  0.25500000920E-02 0.  1.
</event>
<event>
 5   0  0.8038352E-07  0.3855551E+04  0.7818609E-02  0.8034338E-01
        2   -1    0    0  501    0  0.00000000000E+00  0.00000000000E+00  0.15396934482E+04  0.15396934482E+04  0.25500000920E-02 0. -1.
       -2   -1    0    0    0  501  0.00000000000E+00  0.00000000000E+00 -0.24136748358E+04  0.24136748359E+04  0.25500000920E-02 0.  1.
    10030    2    1    2    0    0  0.00000000000E+00  0.00000000000E+00 -0.87398138764E+03  0.39533682841E+04  0.38555514941E+04 0.  0.
        2    1    3    3  502    0 -0.91939711147E+02 -0.18611774230E+04  0.69385557371E+02  0.18647382299E+04  0.25500000920E-02 0. -1.
       -2    1    3    3    0  502  0.91939711147E+02  0.18611774230E+04 -0.94336694501E+03  0.20886300542E+04  0.25500000920E-02 0.  1.
</event>
<event>
 5   0  0.2529875E-07  0.3786572E+04  0.7818609E-02  0.8049043E-01
        1   -1    0    0  501    0  0.00000000000E+00  0.00000000000E+00  0.28260893761E+04  0.28260893761E+04  0.50400001928E-02 0. -1.
       -1   -1    0    0    0  501  0.00000000000E+00  0.00000000000E+00 -0.12683715709E+04  0.12683715710E+04  0.50400001928E-02 0.  1.
    10030    2    1    2    0    0  0.00000000000E+00  0.00000000000E+00  0.15577178051E+04  0.40944609470E+04  0.37865717590E+04 0.  0.
        4    1    3    3  502    0  0.96139828207E+03 -0.16248197271E+04  0.62516052205E+03  0.19887566702E+04  0.12699999809E+01 0. -1.
       -4    1    3    3    0  502 -0.96139828207E+03  0.16248197271E+04  0.93255728308E+03  0.21057042768E+04  0.12699999809E+01 0.  1.
</event>
<event>
 5   0  0.2529875E-07  0.3430934E+04  0.7818609E-02  0.8130356E-01
        1   -1    0    0  501    0  0.00000000000E+00  0.00000000000E+00  0.16828694366E+04  0.16828694366E+04  0.50400001928E-02 0.  1.
       -1   -1    0    0    0  501  0.00000000000E+00  0.00000000000E+00 -0.17486956775E+04  0.17486956775E+04  0.50400001928E-02 0. -1.
    10030    2    1    2    0    0  0.00000000000E+00  0.00000000000E+00 -0.65826240862E+02  0.34315651141E+04  0.34309336977E+04 0.  0.
        1    1    3    3  502    0 -0.96813462036E+03  0.88504974088E+03  0.10728349218E+04  0.16945714669E+04  0.50400001928E-02 0.  1.
       -1    1    3    3    0  502  0.96813462036E+03 -0.88504974088E+03 -0.11386611627E+04  0.17369936472E+04  0.50400001928E-02 0. -1.
</event>
<event>
 5   0  0.2529875E-07  0.3787709E+04  0.7818609E-02  0.8048798E-01
        1   -1    0    0  501    0  0.00000000000E+00  0.00000000000E+00  0.27760437029E+04  0.27760437029E+04  0.50400001928E-02 0.  1.
       -1   -1    0    0    0  501  0.00000000000E+00  0.00000000000E+00 -0.12920129629E+04  0.12920129630E+04  0.50400001928E-02 0. -1.
    10030    2    1    2    0    0  0.00000000000E+00  0.00000000000E+00  0.14840307399E+04  0.40680566658E+04  0.37877087796E+04 0.  0.
        1    1    3    3  502    0  0.15658175256E+04 -0.10585004820E+04  0.61279096581E+03  0.19868871538E+04  0.50400001928E-02 0. -1.
       -1    1    3    3    0  502 -0.15658175256E+04  0.10585004820E+04  0.87123977411E+03  0.20811695121E+04  0.50400001928E-02 0.  1.
</event>
<event>
 5   0  0.2529875E-07  0.3784345E+04  0.7818609E-02  0.8049523E-01
        1   -1    0    0  501    0  0.00000000000E+00  0.00000000000E+00  0.23934941846E+04  0.23934941846E+04  0.50400001928E-02 0.  1.
       -1   -1    0    0    0  501  0.00000000000E+00  0.00000000000E+00 -0.14958533603E+04  0.14958533603E+04  0.50400001928E-02 0. -1.
    10030    2    1    2    0    0  0.00000000000E+00  0.00000000000E+00  0.89764082428E+03  0.38893475449E+04  0.37843447617E+04 0.  0.
        5    1    3    3  502    0  0.38876019218E+03 -0.12961354101E+04 -0.91044695653E+03  0.16309620593E+04  0.46999998093E+01 0. -1.
       -5    1    3    3    0  502 -0.38876019218E+03  0.12961354101E+04  0.18080877808E+04  0.22583854856E+04  0.46999998093E+01 0.  1.
</event>
<event>
 5   0  0.7649458E-07  0.3819065E+04  0.7818609E-02  0.8042076E-01
       -2   -1    0    0    0  501  0.00000000000E+00  0.00000000000E+00  0.15815099685E+04  0.15815099685E+04  0.25500000920E-02 0. -1.
        2   -1    0    0  501    0  0.00000000000E+00  0.00000000000E+00 -0.23055901688E+04  0.23055901688E+04  0.25500000920E-02 0.  1.
    10030    2    1    2    0    0  0.00000000000E+00  0.00000000000E+00 -0.72408020031E+03  0.38871001372E+04  0.38190647206E+04 0.  0.
        4    1    3    3  502    0  0.15687641475E+04 -0.39611385855E+03 -0.13941990785E+04  0.21358183029E+04  0.12699999809E+01 0. -1.
       -4    1    3    3    0  502 -0.15687641475E+04  0.39611385855E+03  0.67011887817E+03  0.17512818344E+04  0.12699999809E+01 0.  1.
</event>
<event>
 5   0  0.8421677E-07  0.3913135E+04  0.7818609E-02  0.8022303E-01
        2   -1    0    0  501    0  0.00000000000E+00  0.00000000000E+00  0.22211538091E+04  0.22211538091E+04  0.25500000920E-02 0.  1.
       -2   -1    0    0    0  501  0.00000000000E+00  0.00000000000E+00 -0.17234993229E+04  0.17234993229E+04  0.25500000920E-02 0. -1.
    10030    2    1    2    0    0  0.00000000000E+00  0.00000000000E+00  0.49765448620E+03  0.39446531320E+04  0.39131353598E+04 0.  0.
        3    1    3    3  502    0 -0.23373458774E+03 -0.19069643870E+04  0.62195995425E+03  0.20194007095E+04  0.10100000352E+00 0.  1.
       -3    1    3    3    0  502  0.23373458774E+03  0.19069643870E+04 -0.12430546806E+03  0.19252524225E+04  0.10100000352E+00 0. -1.
</event>
<event>
 5   0  0.7551495E-07  0.3791653E+04  0.7818609E-02  0.8047949E-01
        2   -1    0    0  501    0  0.00000000000E+00  0.00000000000E+00  0.22688634724E+04  0.22688634724E+04  0.25500000920E-02 0.  1.
       -2   -1    0    0    0  501  0.00000000000E+00  0.00000000000E+00 -0.15841223253E+04  0.15841223253E+04  0.25500000920E-02 0. -1.
    10030    2    1    2    0    0  0.00000000000E+00  0.00000000000E+00  0.68474114711E+03  0.38529857977E+04  0.37916525578E+04 0.  0.
        1    1    3    3  502    0 -0.12455211036E+04  0.46255255579E+03  0.17166069195E+04  0.21707180845E+04  0.50400001928E-02 0.  1.
       -1    1    3    3    0  502  0.12455211036E+04 -0.46255255579E+03 -0.10318657724E+04  0.16822677132E+04  0.50400001928E-02 0. -1.
</event>
<event>
 5   0  0.8421677E-07  0.3922625E+04  0.7818609E-02  0.8020340E-01
       -2   -1    0    0    0  501  0.00000000000E+00  0.00000000000E+00  0.20403933161E+04  0.20403933161E+04  0.25500000920E-02 0.  1.
        2   -1    0    0  501    0  0.00000000000E+00  0.00000000000E+00 -0.18852970369E+04  0.18852970369E+04  0.25500000920E-02 0. -1.
    10030    2    1    2    0    0  0.00000000000E+00  0.00000000000E+00  0.15509627924E+03  0.39256903530E+04  0.39226253826E+04 0.  0.
        3    1    3    3  502    0  0.12444217605E+04 -0.49777740853E+03  0.15105816370E+04  0.20194615022E+04  0.10100000352E+00 0.  1.
       -3    1    3    3    0  502 -0.12444217605E+04  0.49777740853E+03 -0.13554853578E+04  0.19062288508E+04  0.10100000352E+00 0. -1.
</event>
<event>
 5   0  0.7638805E-07  0.3704953E+04  0.7818609E-02  0.8066865E-01
       -2   -1    0    0    0  501  0.00000000000E+00  0.00000000000E+00  0.12461193275E+04  0.12461193275E+04  0.25500000920E-02 0.  1.
        2   -1    0    0  501    0  0.00000000000E+00  0.00000000000E+00 -0.27538852242E+04  0.27538852242E+04  0.25500000920E-02 0. -1.
    10030    2    1    2    0    0  0.00000000000E+00  0.00000000000E+00 -0.15077658968E+04  0.40000045517E+04  0.37049532270E+04 0.  0.
        5    1    3    3  502    0 -0.13568607610E+04 -0.54256503877E+03  0.47529197629E+03  0.15366757949E+04  0.46999998093E+01 0.  1.
       -5    1    3    3    0  502  0.13568607610E+04  0.54256503877E+03 -0.19830578730E+04  0.24633287568E+04  0.46999998093E+01 0. -1.
</event>
<event>
 5   0  0.7638805E-07  0.3867615E+04  0.7818609E-02  0.8031798E-01
       -2   -1    0    0    0  501  0.00000000000E+00  0.00000000000E+00  0.13399191849E+04  0.13399191849E+04  0.25500000920E-02 0. -1.
        2   -1    0    0  501    0  0.00000000000E+00  0.00000000000E+00 -0.27909237458E+04  0.27909237458E+04  0.25500000920E-02 0.  1.
    10030    2    1    2    0    0  0.00000000000E+00  0.00000000000E+00 -0.14510045609E+04  0.41308429307E+04  0.38676154259E+04 0.  0.
        5    1    3    3  502    0 -0.10361116840E+04 -0.14921340953E+04 -0.14336494910E+04  0.23141660556E+04  0.46999998093E+01 0.  1.
       -5    1    3    3    0  502  0.10361116840E+04  0.14921340953E+04 -0.17355069902E+02  0.18166768751E+04  0.46999998093E+01 0. -1.
</event>
<event>
 5   0  0.2529875E-07  0.3386244E+04  0.7818609E-02  0.8141291E-01
       -1   -1    0    0    0  501  0.00000000000E+00  0.00000000000E+00  0.12679166616E+04  0.12679166616E+04  0.50400001928E-02 0. -1.
        1   -1    0    0  501    0  0.00000000000E+00  0.00000000000E+00 -0.22609231286E+04  0.22609231286E+04  0.50400001928E-02 0.  1.
    10030    2    1    2    0    0  0.00000000000E+00  0.00000000000E+00 -0.99300646700E+03  0.35288397901E+04  0.33862439990E+04 0.  0.
        3    1    3    3  502    0  0.10110408610E+03 -0.85291073783E+03 -0.20170501472E+04  0.21922978970E+04  0.10100000352E+00 0.  1.
       -3    1    3    3    0  502 -0.10110408610E+03  0.85291073783E+03  0.10240436802E+04  0.13365418931E+04  0.10100000352E+00 0. -1.
</event>
<event>
 5   0  0.7649458E-07  0.3691609E+04  0.7818609E-02  0.8069824E-01
        2   -1    0    0  501    0  0.00000000000E+00  0.00000000000E+00  0.22296947369E+04  0.22296947369E+04  0.25500000920E-02 0. -1.
       -2   -1    0    0    0  501  0.00000000000E+00  0.00000000000E+00 -0.15280092828E+04  0.15280092828E+04  0.25500000920E-02 0.  1.
    10030    2    1    2    0    0  0.00000000000E+00  0.00000000000E+00  0.70168545416E+03  0.37577040197E+04  0.36916090019E+04 0.  0.
        4    1    3    3  502    0  0.80314441263E+03  0.73028418258E+03  0.18704330275E+04  0.21626089009E+04  0.12699999809E+01 0. -1.
       -4    1    3    3    0  502 -0.80314441263E+03 -0.73028418258E+03 -0.11687475734E+04  0.15950951188E+04  0.12699999809E+01 0.  1.
</event>
<event>
 5   0  0.2529875E-07  0.3480543E+04  0.7818609E-02  0.8118416E-01
        1   -1    0    0  501    0  0.00000000000E+00  0.00000000000E+00  0.17213417339E+04  0.17213417339E+04  0.50400001928E-02 0. -1.
       -1   -1    0    0    0  501  0.00000000000E+00  0.00000000000E+00 -0.17594099243E+04  0.17594099243E+04  0.50400001928E-02 0.  1.
    10030    2    1    2    0    0  0.00000000000E+00  0.00000000000E+00 -0.38068190371E+02  0.34807516582E+04  0.34805434804E+04 0.  0.
        3    1    3    3  502    0 -0.69778967991E+03  0.14555591992E+04  0.63137600640E+03  0.17332624416E+04  0.10100000352E+00 0. -1.
       -3    1    3    3    0  502  0.69778967991E+03 -0.14555591992E+04 -0.66944419677E+03  0.17474892167E+04  0.10100000352E+00 0.  1.
</event>
<event>
 5   0  0.2907071E-07  0.3528574E+04  0.7818609E-02  0.8107052E-01
        1   -1    0    0  501    0  0.00000000000E+00  0.00000000000E+00  0.16503012604E+04  0.16503012604E+04  0.50400001928E-02 0. -1.
       -1   -1    0    0    0  501  0.00000000000E+00  0.00000000000E+00 -0.18861455147E+04  0.18861455147E+04  0.50400001928E-02 0.  1.
    10030    2    1    2    0    0  0.00000000000E+00  0.00000000000E+00 -0.23584425437E+03  0.35364467751E+04  0.35285738310E+04 0.  0.
        2    1    3    3  502    0  0.70767366644E+03  0.85904093968E+03  0.12540569620E+04  0.16767266379E+04  0.25500000920E-02 0. -1.
       -2    1    3    3    0  502 -0.70767366644E+03 -0.85904093968E+03 -0.14899012164E+04  0.18597201372E+04  0.25500000920E-02 0.  1.
</event>
<event>
 5   0  0.2529875E-07  0.3860207E+04  0.7818609E-02  0.8033357E-01
       -1   -1    0    0    0  501  0.00000000000E+00  0.00000000000E+00  0.15903720343E+04  0.15903720343E+04  0.50400001928E-02 0.  1.
        1   -1    0    0  501    0  0.00000000000E+00  0.00000000000E+00 -0.23424080044E+04  0.23424080044E+04  0.50400001928E-02 0. -1.
    10030    2    1    2    0    0  0.00000000000E+00  0.00000000000E+00 -0.75203597006E+03  0.39327800388E+04  0.38602073433E+04 0.  0.
        4    1    3    3  502    0 -0.15122428491E+04 -0.11912039693E+04 -0.23392095885E+03  0.19392178730E+04  0.12699999809E+01 0.  1.
       -4    1    3    3    0  502  0.15122428491E+04  0.11912039693E+04 -0.51811501121E+03  0.19935621658E+04  0.12699999809E+01 0. -1.
</event>
<event>
 5   0  0.7649458E-07  0.3829146E+04  0.7818609E-02  0.8039929E-01
        2   -1    0    0  501    0  0.00000000000E+00  0.00000000000E+00  0.15368864437E+04  0.15368864437E+04  0.25500000920E-02 0. -1.
       -2   -1    0    0    0  501  0.00000000000E+00  0.00000000000E+00 -0.23850752740E+04  0.23850752740E+04  0.25500000920E-02 0.  1.
    10030    2    1    2    0    0  0.00000000000E+00  0.00000000000E+00 -0.84818883029E+03  0.39219617178E+04  0.38291460437E+04 0.  0.
        4    1    3    3  502    0 -0.11775042034E+04  0.14752324744E+04 -0.95760240210E+02  0.18899731847E+04  0.12699999809E+01 0. -1.
       -4    1    3    3    0  502  0.11775042034E+04 -0.14752324744E+04 -0.75242859008E+03  0.20319885331E+04  0.12699999809E+01 0.  1.
</event>
<event>
 5   0  0.2529875E-07  0.2796046E+04  0.7818609E-02  0.8304497E-01
       -3   -1    0    0    0  501  0.00000000000E+00  0.00000000000E+00  0.10089358786E+04  0.10089358836E+04  0.10100000352E+00 0. -1.
        3   -1    0    0  501    0  0.00000000000E+00  0.00000000000E+00 -0.19371580997E+04  0.19371581023E+04  0.10100000352E+00 0.  1.
    10030    2    1    2    0    0  0.00000000000E+00  0.00000000000E+00 -0.92822222111E+03  0.29460939860E+04  0.27960460086E+04 0.  0.
        2    1    3    3  502    0 -0.10598204187E+04 -0.78295038127E+03 -0.95634008390E+03  0.16281329723E+04  0.25500000920E-02 0.  1.
       -2    1    3    3    0  502  0.10598204187E+04  0.78295038127E+03  0.28117862788E+02  0.13179610137E+04  0.25500000920E-02 0. -1.
</event>
<event>
 5   0  0.2529875E-07  0.2798673E+04  0.7818609E-02  0.8303680E-01
       -1   -1    0    0    0  501  0.00000000000E+00  0.00000000000E+00  0.88661628353E+03  0.88661628355E+03  0.50400001928E-02 0. -1.
        1   -1    0    0  501    0  0.00000000000E+00  0.00000000000E+00 -0.22085568762E+04  0.22085568762E+04  0.50400001928E-02 0.  1.
    10030    2    1    2    0    0  0.00000000000E+00  0.00000000000E+00 -0.13219405927E+04  0.30951731598E+04  0.27986728924E+04 0.  0.
        5    1    3    3  502    0  0.60939699851E+03 -0.90659310400E+03 -0.16281772799E+04  0.19606782252E+04  0.46999998093E+01 0.  1.
       -5    1    3    3    0  502 -0.60939699851E+03  0.90659310400E+03  0.30623668719E+03  0.11344949346E+04  0.46999998093E+01 0. -1.
</event>
<event>
 5   0  0.2529875E-07  0.3261575E+04  0.7818609E-02  0.8172742E-01
       -1   -1    0    0    0  501  0.00000000000E+00  0.00000000000E+00  0.15090998914E+04  0.15090998914E+04  0.50400001928E-02 0. -1.
        1   -1    0    0  501    0  0.00000000000E+00  0.00000000000E+00 -0.17622875976E+04  0.17622875976E+04  0.50400001928E-02 0.  1.
    10030    2    1    2    0    0  0.00000000000E+00  0.00000000000E+00 -0.25318770621E+03  0.32713874891E+04  0.32615750933E+04 0.  0.
        5    1    3    3  502    0  0.13682755746E+03  0.11814224122E+04  0.99254305512E+03  0.15490785980E+04  0.46999998093E+01 0. -1.
       -5    1    3    3    0  502 -0.13682755746E+03 -0.11814224122E+04 -0.12457307613E+04  0.17223088911E+04  0.46999998093E+01 0.  1.
</event>
<event>
 5   0  0.7638805E-07  0.3609658E+04  0.7818609E-02  0.8088283E-01
        2   -1    0    0  501    0  0.00000000000E+00  0.00000000000E+00  0.27056920055E+04  0.27056920055E+04  0.25500000920E-02 0. -1.
       -2   -1    0    0    0  501  0.00000000000E+00  0.00000000000E+00 -0.12039090114E+04  0.12039090114E+04  0.25500000920E-02 0.  1.
    10030    2    1    2    0    0  0.00000000000E+00  0.00000000000E+00  0.15017829941E+04  0.39096010170E+04  0.36096575946E+04 0.  0.
        5    1    3    3  502    0 -0.14268535588E+04 -0.38844022919E+03  0.18715611679E+04  0.23852798966E+04  0.46999998093E+01 0. -1.
       -5    1    3    3    0  502  0.14268535588E+04  0.38844022919E+03 -0.36977817382E+03  0.15243211203E+04  0.46999998093E+01 0.  1.
</event>
<event>
 5   0  0.7551495E-07  0.2974584E+04  0.7818609E-02  0.8251026E-01
        2   -1    0    0  501    0  0.00000000000E+00  0.00000000000E+00  0.12024368930E+04  0.12024368930E+04  0.25500000920E-02 0. -1.
       -2   -1    0    0    0  501  0.00000000000E+00  0.00000000000E+00 -0.18396288781E+04  0.18396288781E+04  0.25500000920E-02 0.  1.
    10030    2    1    2    0    0  0.00000000000E+00  0.00000000000E+00 -0.63719198515E+03  0.30420657711E+04  0.29745840935E+04 0.  0.
        1    1    3    3  502    0 -0.10765027241E+04 -0.10253123023E+04 -0.27385186963E+03  0.15116607685E+04  0.50400001928E-02 0. -1.
       -1    1    3    3    0  502  0.10765027241E+04  0.10253123023E+04 -0.36334011553E+03  0.15304050026E+04  0.50400001928E-02 0.  1.
</event>
<event>
 5   0  0.2907071E-07  0.2663481E+04  0.7818609E-02  0.8346952E-01
        1   -1    0    0  501    0  0.00000000000E+00  0.00000000000E+00  0.13400992271E+04  0.13400992271E+04  0.50400001928E-02 0.  1.
       -1   -1    0    0    0  501  0.00000000000E+00  0.00000000000E+00 -0.13234341065E+04  0.13234341065E+04  0.50400001928E-02 0. -1.
    10030    2    1    2    0    0  0.00000000000E+00  0.00000000000E+00  0.16665120603E+02  0.26635333336E+04  0.26634811982E+04 0.  0.
        2    1    3    3  502    0  0.22119870451E+03 -0.10300744664E+04 -0.80626962928E+03  0.13266698867E+04  0.25500000920E-02 0. -1.
       -2    1    3    3    0  502 -0.22119870451E+03  0.10300744664E+04  0.82293474989E+03  0.13368634469E+04  0.25500000920E-02 0.  1.
</event>
<event>
 5   0  0.7638805E-07  0.3806838E+04  0.7818609E-02  0.8044689E-01
       -2   -1    0    0    0  501  0.00000000000E+00  0.00000000000E+00  0.13712814647E+04  0.13712814647E+04  0.25500000920E-02 0.  1.
        2   -1    0    0  501    0  0.00000000000E+00  0.00000000000E+00 -0.26420577418E+04  0.26420577418E+04  0.25500000920E-02 0. -1.
    10030    2    1    2    0    0  0.00000000000E+00  0.00000000000E+00 -0.12707762771E+04  0.40133392064E+04  0.38068384835E+04 0.  0.
        5    1    3    3  502    0 -0.14518856189E+04  0.11684784016E+04 -0.10432447273E+04  0.21358125565E+04  0.46999998093E+01 0. -1.
       -5    1    3    3    0  502  0.14518856189E+04 -0.11684784016E+04 -0.22753154976E+03  0.18775266500E+04  0.46999998093E+01 0.  1.
</event>
<event>
 5   0  0.7551495E-07  0.2658818E+04  0.7818609E-02  0.8348492E-01
       -2   -1    0    0    0  501  0.00000000000E+00  0.00000000000E+00  0.84235333312E+03  0.84235333312E+03  0.25500000920E-02 0.  1.
        2   -1    0    0  501    0  0.00000000000E+00  0.00000000000E+00 -0.20980843506E+04  0.20980843506E+04  0.25500000920E-02 0. -1.
    10030    2    1    2    0    0  0.00000000000E+00  0.00000000000E+00 -0.12557310175E+04  0.29404376837E+04  0.26588180426E+04 0.  0.
        1    1    3    3  502    0 -0.10580568194E+04 -0.32623634465E+03 -0.14416100487E+04  0.18177331812E+04  0.50400001928E-02 0. -1.
       -1    1    3    3    0  502  0.10580568194E+04  0.32623634465E+03  0.18587903125E+03  0.11227045025E+04  0.50400001928E-02 0.  1.
</event>
<event>
 5   0  0.7551495E-07  0.3735574E+04  0.7818609E-02  0.8060124E-01
        2   -1    0    0  501    0  0.00000000000E+00  0.00000000000E+00  0.22630838921E+04  0.22630838921E+04  0.25500000920E-02 0.  1.
       -2   -1    0    0    0  501  0.00000000000E+00  0.00000000000E+00 -0.15415373450E+04  0.15415373450E+04  0.25500000920E-02 0. -1.
    10030    2    1    2    0    0  0.00000000000E+00  0.00000000000E+00  0.72154654714E+03  0.38046212371E+04  0.37355740306E+04 0.  0.
        1    1    3    3  502    0  0.10094446853E+04  0.23129191163E+03 -0.12223559629E+04  0.16020701050E+04  0.50400001928E-02 0. -1.
       -1    1    3    3    0  502 -0.10094446853E+04 -0.23129191163E+03  0.19439025101E+04  0.22025511321E+04  0.50400001928E-02 0.  1.
</event>
<event>
 5   0  0.8421677E-07  0.3793000E+04  0.7818609E-02  0.8047659E-01
        2   -1    0    0  501    0  0.00000000000E+00  0.00000000000E+00  0.11773775672E+04  0.11773775672E+04  0.25500000920E-02 0. -1.
       -2   -1    0    0    0  501  0.00000000000E+00  0.00000000000E+00 -0.30548495340E+04  0.30548495340E+04  0.25500000920E-02 0.  1.
    10030    2    1    2    0    0  0.00000000000E+00  0.00000000000E+00 -0.18774719668E+04  0.42322271012E+04  0.37929995057E+04 0.  0.
        3    1    3    3  502    0 -0.11137209999E+04  0.13128275538E+04 -0.18263547980E+04  0.25098730067E+04  0.10100000352E+00 0.  1.
       -3    1    3    3    0  502  0.11137209999E+04 -0.13128275538E+04 -0.51117168805E+02  0.17223540945E+04  0.10100000352E+00 0. -1.
</event>
<event>
 5   0  0.2529875E-07  0.3980562E+04  0.7818609E-02  0.8008479E-01
       -1   -1    0    0    0  501  0.00000000000E+00  0.00000000000E+00  0.14565687615E+04  0.14565687615E+04  0.50400001928E-02 0.  1.
        1   -1    0    0  501    0  0.00000000000E+00  0.00000000000E+00 -0.27195547266E+04  0.27195547266E+04  0.50400001928E-02 0. -1.
    10030    2    1    2    0    0  0.00000000000E+00  0.00000000000E+00 -0.12629859651E+04  0.41761234881E+04  0.39805620005E+04 0.  0.
        4    1    3    3  502    0 -0.93827746283E+03  0.16354876351E+04 -0.13000051386E+04  0.22902400256E+04  0.12699999809E+01 0. -1.
       -4    1    3    3    0  502  0.93827746283E+03 -0.16354876351E+04  0.37019173484E+02  0.18858834624E+04  0.12699999809E+01 0.  1.
</event>
<event>
 5   0  0.2529875E-07  0.3815105E+04  0.7818609E-02  0.8042921E-01
       -1   -1    0    0    0  501  0.00000000000E+00  0.00000000000E+00  0.15914290446E+04  0.15914290446E+04  0.50400001928E-02 0. -1.
        1   -1    0    0  501    0  0.00000000000E+00  0.00000000000E+00 -0.22864716763E+04  0.22864716763E+04  0.50400001928E-02 0.  1.
    10030    2    1    2    0    0  0.00000000000E+00  0.00000000000E+00 -0.69504263170E+03  0.38779007209E+04  0.38151054692E+04 0.  0.
        4    1    3    3  502    0  0.93443714990E+03 -0.33086190996E+03  0.13090626246E+04  0.16420380503E+04  0.12699999809E+01 0. -1.
       -4    1    3    3    0  502 -0.93443714990E+03  0.33086190996E+03 -0.20041052563E+04  0.22358626706E+04  0.12699999809E+01 0.  1.
</event>
<event>
 5   0  0.2529875E-07  0.3682741E+04  0.7818609E-02  0.8071797E-01
        1   -1    0    0  501    0  0.00000000000E+00  0.00000000000E+00  0.19150827264E+04  0.19150827264E+04  0.50400001928E-02 0.  1.
       -1   -1    0    0    0  501  0.00000000000E+00  0.00000000000E+00 -0.17704956368E+04  0.17704956368E+04  0.50400001928E-02 0. -1.
    10030    2    1    2    0    0  0.00000000000E+00  0.00000000000E+00  0.14458708961E+03  0.36855783632E+04  0.36827411590E+04 0.  0.
        1    1    3    3  502    0 -0.14345795533E+04  0.73140206626E+03  0.96610990095E+03  0.18778540460E+04  0.50400001928E-02 0.  1.
       -1    1    3    3    0  502  0.14345795533E+04 -0.73140206626E+03 -0.82152281134E+03  0.18077243172E+04  0.50400001928E-02 0. -1.
</event>
<event>
 5   0  0.7638805E-07  0.3833245E+04  0.7818609E-02  0.8039058E-01
        2   -1    0    0  501    0  0.00000000000E+00  0.00000000000E+00  0.17662102446E+04  0.17662102446E+04  0.25500000920E-02 0. -1.
       -2   -1    0    0    0  501  0.00000000000E+00  0.00000000000E+00 -0.20798441451E+04  0.20798441451E+04  0.25500000920E-02 0.  1.
    10030    2    1    2    0    0  0.00000000000E+00  0.00000000000E+00 -0.31363390051E+03  0.38460543897E+04  0.38332451193E+04 0.  0.
        5    1    3    3  502    0 -0.99860586041E+03  0.24079016975E+03  0.14666835509E+04  0.17906357248E+04  0.46999998093E+01 0. -1.
       -5    1    3    3    0  502  0.99860586041E+03 -0.24079016975E+03 -0.17803174514E+04  0.20554186649E+04  0.46999998093E+01 0.  1.
</event>
<event>
 5   0  0.2529875E-07  0.3841327E+04  0.7818609E-02  0.8037344E-01
       -1   -1    0    0    0  501  0.00000000000E+00  0.00000000000E+00  0.31534756109E+04  0.31534756109E+04  0.50400001928E-02 0.  1.
        1   -1    0    0  501    0  0.00000000000E+00  0.00000000000E+00 -0.11698038012E+04  0.11698038012E+04  0.50400001928E-02 0. -1.
    10030    2    1    2    0    0  0.00000000000E+00  0.00000000000E+00  0.19836718097E+04  0.43232794121E+04  0.38413267274E+04 0.  0.
        3    1    3    3  502    0 -0.37580190601E+03  0.77449132165E+03 -0.94052054840E+03  0.12750069772E+04  0.10100000352E+00 0. -1.
       -3    1    3    3    0  502  0.37580190601E+03 -0.77449132165E+03  0.29241923581E+04  0.30482724349E+04  0.10100000352E+00 0.  1.
</event>
<event>
 5   0  0.7638805E-07  0.2513267E+04  0.7818609E-02  0.8398274E-01
       -2   -1    0    0    0  501  0.00000000000E+00  0.00000000000E+00  0.73584909034E+03  0.73584909034E+03  0.25500000920E-02 0.  1.
        2   -1    0    0  501    0  0.00000000000E+00  0.00000000000E+00 -0.21459932714E+04  0.21459932714E+04  0.25500000920E-02 0. -1.
    10030    2    1    2    0    0  0.00000000000E+00  0.00000000000E+00 -0.14101441811E+04  0.28818423617E+04  0.25132665570E+04 0.  0.
        5    1    3    3  502    0 -0.80387662788E+03 -0.88517236201E+03 -0.26192797391E+03  0.12240817362E+04  0.46999998093E+01 0.  1.
       -5    1    3    3    0  502  0.80387662788E+03  0.88517236201E+03 -0.11482162072E+04  0.16577606256E+04  0.46999998093E+01 0. -1.
</event>
<event>
 5   0  0.7551495E-07  0.3785823E+04  0.7818609E-02  0.8049204E-01
       -2   -1    0    0    0  501  0.00000000000E+00  0.00000000000E+00  0.31756207050E+04  0.31756207050E+04  0.25500000920E-02 0. -1.
        2   -1    0    0  501    0  0.00000000000E+00  0.00000000000E+00 -0.11283192612E+04  0.11283192612E+04  0.25500000920E-02 0.  1.
    10030    2    1    2    0    0  0.00000000000E+00  0.00000000000E+00  0.20473014438E+04  0.43039399662E+04  0.37858230322E+04 0.  0.
        1    1    3    3  502    0  0.84594630731E+03  0.10952078823E+04 -0.44461625719E+03  0.14535436273E+04  0.50400001928E-02 0.  1.
       -1    1    3    3    0  502 -0.84594630731E+03 -0.10952078823E+04  0.24919177010E+04  0.28503963389E+04  0.50400001928E-02 0. -1.
</event>
<event>
 5   0  0.7649458E-07  0.3873518E+04  0.7818609E-02  0.8030560E-01
       -2   -1    0    0    0  501  0.00000000000E+00  0.00000000000E+00  0.24037457574E+04  0.24037457574E+04  0.25500000920E-02 0. -1.
        2   -1    0    0  501    0  0.00000000000E+00  0.00000000000E+00 -0.15604957288E+04  0.15604957288E+04  0.25500000920E-02 0.  1.
    10030    2    1    2    0    0  0.00000000000E+00  0.00000000000E+00  0.84325002864E+03  0.39642414862E+04  0.38735177746E+04 0.  0.
        4    1    3    3  502    0 -0.49556714977E+03 -0.18703837991E+04  0.50792693576E+03  0.20004783780E+04  0.12699999809E+01 0. -1.
       -4    1    3    3    0  502  0.49556714977E+03  0.18703837991E+04  0.33532309287E+03  0.19637631082E+04  0.12699999809E+01 0.  1.
</event>
<event>
 5   0  0.7638805E-07  0.2393695E+04  0.7818609E-02  0.8441868E-01
       -2   -1    0    0    0  501  0.00000000000E+00  0.00000000000E+00  0.10633178454E+04  0.10633178454E+04  0.25500000920E-02 0. -1.
        2   -1    0    0  501    0  0.00000000000E+00  0.00000000000E+00 -0.13471450683E+04  0.13471450683E+04  0.25500000920E-02 0.  1.
    10030    2    1    2    0    0  0.00000000000E+00  0.00000000000E+00 -0.28382722294E+03  0.24104629137E+04  0.23936945431E+04 0.  0.
        5    1    3    3  502    0  0.78126098351E+03 -0.79524289252E+03 -0.58044249968E+03  0.12568673629E+04  0.46999998093E+01 0.  1.
       -5    1    3    3    0  502 -0.78126098351E+03  0.79524289252E+03  0.29661527674E+03  0.11535955508E+04  0.46999998093E+01 0. -1.
</event>
<event>
 5   0  0.2529875E-07  0.3999041E+04  0.7818609E-02  0.8004740E-01
       -1   -1    0    0    0  501  0.00000000000E+00  0.00000000000E+00  0.15995438266E+04  0.15995438266E+04  0.50400001928E-02 0.  1.
        1   -1    0    0  501    0  0.00000000000E+00  0.00000000000E+00 -0.24995144492E+04  0.24995144492E+04  0.50400001928E-02 0. -1.
    10030    2    1    2    0    0  0.00000000000E+00  0.00000000000E+00 -0.89997062256E+03  0.40990582758E+04  0.39990413385E+04 0.  0.
        4    1    3    3  502    0  0.99220049407E+03 -0.14400462280E+04 -0.14437095125E+04  0.22677067113E+04  0.12699999809E+01 0. -1.
       -4    1    3    3    0  502 -0.99220049407E+03  0.14400462280E+04  0.54373888992E+03  0.18313515644E+04  0.12699999809E+01 0.  1.
</event>
<event>
 5   0  0.7551495E-07  0.2594282E+04  0.7818609E-02  0.8370146E-01
       -2   -1    0    0    0  501  0.00000000000E+00  0.00000000000E+00  0.10549385415E+04  0.10549385415E+04  0.25500000920E-02 0. -1.
        2   -1    0    0  501    0  0.00000000000E+00  0.00000000000E+00 -0.15949500247E+04  0.15949500247E+04  0.25500000920E-02 0.  1.
    10030    2    1    2    0    0  0.00000000000E+00  0.00000000000E+00 -0.54001148320E+03  0.26498885663E+04  0.25942815984E+04 0.  0.
        1    1    3    3  502    0  0.29156775600E+03  0.14341934134E+03  0.10126952559E+04  0.10635471523E+04  0.50400001928E-02 0. -1.
       -1    1    3    3    0  502 -0.29156775600E+03 -0.14341934134E+03 -0.15527067391E+04  0.15863414139E+04  0.50400001928E-02 0.  1.
</event>
<event>
 5   0  0.2529875E-07  0.3829590E+04  0.7818609E-02  0.8039835E-01
       -1   -1    0    0    0  501  0.00000000000E+00  0.00000000000E+00  0.13657524803E+04  0.13657524803E+04  0.50400001928E-02 0.  1.
        1   -1    0    0  501    0  0.00000000000E+00  0.00000000000E+00 -0.26845564989E+04  0.26845564989E+04  0.50400001928E-02 0. -1.
    10030    2    1    2    0    0  0.00000000000E+00  0.00000000000E+00 -0.13188040186E+04  0.40503089792E+04  0.38295898981E+04 0.  0.
        4    1    3    3  502    0  0.15501814855E+04 -0.11237637600E+04 -0.63504290925E+03  0.20172230258E+04  0.12699999809E+01 0.  1.
       -4    1    3    3    0  502 -0.15501814855E+04  0.11237637600E+04 -0.68376110935E+03  0.20330859534E+04  0.12699999809E+01 0. -1.
</event>
<event>
 5   0  0.2907071E-07  0.3781899E+04  0.7818609E-02  0.8050050E-01
        1   -1    0    0  501    0  0.00000000000E+00  0.00000000000E+00  0.18547799359E+04  0.18547799359E+04  0.50400001928E-02 0. -1.
       -1   -1    0    0    0  501  0.00000000000E+00  0.00000000000E+00 -0.19278247866E+04  0.19278247866E+04  0.50400001928E-02 0.  1.
    10030    2    1    2    0    0  0.00000000000E+00  0.00000000000E+00 -0.73044850644E+02  0.37826047225E+04  0.37818993822E+04 0.  0.
        2    1    3    3  502    0  0.10107672120E+04 -0.46171885381E+03 -0.15667934203E+04  0.19208530081E+04  0.25500000920E-02 0.  1.
       -2    1    3    3    0  502 -0.10107672120E+04  0.46171885381E+03  0.14937485696E+04  0.18617517144E+04  0.25500000920E-02 0. -1.
</event>
<event>
 5   0  0.2907071E-07  0.3686324E+04  0.7818609E-02  0.8070999E-01
       -1   -1    0    0    0  501  0.00000000000E+00  0.00000000000E+00  0.14754766309E+04  0.14754766309E+04  0.50400001928E-02 0. -1.
        1   -1    0    0  501    0  0.00000000000E+00  0.00000000000E+00 -0.23024737808E+04  0.23024737808E+04  0.50400001928E-02 0.  1.
    10030    2    1    2    0    0  0.00000000000E+00  0.00000000000E+00 -0.82699714991E+03  0.37779504118E+04  0.36863240535E+04 0.  0.
        2    1    3    3  502    0  0.12504467560E+04 -0.13360964646E+04 -0.18785474425E+03  0.18395815441E+04  0.25500000920E-02 0. -1.
       -2    1    3    3    0  502 -0.12504467560E+04  0.13360964646E+04 -0.63914240565E+03  0.19383688677E+04  0.25500000920E-02 0.  1.
</event>
<event>
 5   0  0.2529875E-07  0.3756282E+04  0.7818609E-02  0.8055602E-01
       -1   -1    0    0    0  501  0.00000000000E+00  0.00000000000E+00  0.18831582242E+04  0.18831582242E+04  0.50400001928E-02 0.  1.
        1   -1    0    0  501    0  0.00000000000E+00  0.00000000000E+00 -0.18731367981E+04  0.18731367981E+04  0.50400001928E-02 0. -1.
    10030    2    1    2    0    0  0.00000000000E+00  0.00000000000E+00  0.10021426113E+02  0.37562950223E+04  0.37562816541E+04 0.  0.
        1    1    3    3  502    0 -0.70228048551E+03 -0.17337306083E+04 -0.16349289505E+03  0.18776979601E+04  0.50400001928E-02 0. -1.
       -1    1    3    3    0  502  0.70228048551E+03  0.17337306083E+04  0.17351432116E+03  0.18785970622E+04  0.50400001928E-02 0.  1.
</event>
<event>
 5   0  0.2529875E-07  0.2526511E+04  0.7818609E-02  0.8393601E-01
        1   -1    0    0  501    0  0.00000000000E+00  0.00000000000E+00  0.15407849003E+04  0.15407849003E+04  0.50400001928E-02 0. -1.
       -1   -1    0    0    0  501  0.00000000000E+00  0.00000000000E+00 -0.10357150622E+04  0.10357150622E+04  0.50400001928E-02 0.  1.
    10030    2    1    2    0    0  0.00000000000E+00  0.00000000000E+00  0.50506983807E+03  0.25764999625E+04  0.25265107393E+04 0.  0.
        4    1    3    3  502    0  0.12162739035E+03 -0.70583355112E+03 -0.80863952813E+03  0.10802285514E+04  0.12699999809E+01 0.  1.
       -4    1    3    3    0  502 -0.12162739035E+03  0.70583355112E+03  0.13137093662E+04  0.14962714111E+04  0.12699999809E+01 0. -1.
</event>
<event>
 5   0  0.7649458E-07  0.3891020E+04  0.7818609E-02  0.8026899E-01
        2   -1    0    0  501    0  0.00000000000E+00  0.00000000000E+00  0.18190847166E+04  0.18190847166E+04  0.25500000920E-02 0.  1.
       -2   -1    0    0    0  501  0.00000000000E+00  0.00000000000E+00 -0.20807220709E+04  0.20807220709E+04  0.25500000920E-02 0. -1.
    10030    2    1    2    0    0  0.00000000000E+00  0.00000000000E+00 -0.26163735431E+03  0.38998067875E+04  0.38910202871E+04 0.  0.
        4    1    3    3  502    0 -0.12378248423E+03 -0.89936806452E+01  0.18151127173E+04  0.18193511973E+04  0.12699999809E+01 0.  1.
       -4    1    3    3    0  502  0.12378248423E+03  0.89936806452E+01 -0.20767500716E+04  0.20804555902E+04  0.12699999809E+01 0. -1.
</event>
<event>
 5   0  0.7649458E-07  0.3769216E+04  0.7818609E-02  0.8052793E-01
        2   -1    0    0  501    0  0.00000000000E+00  0.00000000000E+00  0.25319790729E+04  0.25319790729E+04  0.25500000920E-02 0.  1.
       -2   -1    0    0    0  501  0.00000000000E+00  0.00000000000E+00 -0.14027554859E+04  0.14027554859E+04  0.25500000920E-02 0. -1.
    10030    2    1    2    0    0  0.00000000000E+00  0.00000000000E+00  0.11292235870E+04  0.39347345588E+04  0.37692161173E+04 0.  0.
        4    1    3    3  502    0 -0.18318550697E+04 -0.26820177565E+03  0.93239048754E+03  0.20729155368E+04  0.12699999809E+01 0.  1.
       -4    1    3    3    0  502  0.18318550697E+04  0.26820177565E+03  0.19683309945E+03  0.18618190220E+04  0.12699999809E+01 0. -1.
</event>
<event>
 5   0  0.2529875E-07  0.2456694E+04  0.7818609E-02  0.8418578E-01
       -1   -1    0    0    0  501  0.00000000000E+00  0.00000000000E+00  0.60809419065E+03  0.60809419067E+03  0.50400001928E-02 0.  1.
        1   -1    0    0  501    0  0.00000000000E+00  0.00000000000E+00 -0.24812552697E+04  0.24812552697E+04  0.50400001928E-02 0. -1.
    10030    2    1    2    0    0  0.00000000000E+00  0.00000000000E+00 -0.18731610791E+04  0.30893494604E+04  0.24566944581E+04 0.  0.
        5    1    3    3  502    0  0.10311491971E+04  0.63844563954E+03 -0.69165936139E+03  0.13961720036E+04  0.46999998093E+01 0.  1.
       -5    1    3    3    0  502 -0.10311491971E+04 -0.63844563954E+03 -0.11815017177E+04  0.16931774568E+04  0.46999998093E+01 0. -1.
</event>
<event>
 5   0  0.8038352E-07  0.2815499E+04  0.7818609E-02  0.8298473E-01
        2   -1    0    0  501    0  0.00000000000E+00  0.00000000000E+00  0.16552685070E+04  0.16552685070E+04  0.25500000920E-02 0. -1.
       -2   -1    0    0    0  501  0.00000000000E+00  0.00000000000E+00 -0.11972428107E+04  0.11972428107E+04  0.25500000920E-02 0.  1.
    10030    2    1    2    0    0  0.00000000000E+00  0.00000000000E+00  0.45802569628E+03  0.28525113177E+04  0.28154987621E+04 0.  0.
        2    1    3    3  502    0  0.68941795387E+03  0.21900352304E+03  0.14525722344E+04  0.16227217119E+04  0.25500000920E-02 0. -1.
       -2    1    3    3    0  502 -0.68941795387E+03 -0.21900352304E+03 -0.99454653809E+03  0.12297896058E+04  0.25500000920E-02 0.  1.
</event>
<event>
 5   0  0.2529875E-07  0.3521130E+04  0.7818609E-02  0.8108801E-01
        1   -1    0    0  501    0  0.00000000000E+00  0.00000000000E+00  0.18711840885E+04  0.18711840885E+04  0.50400001928E-02 0.  1.
       -1   -1    0    0    0  501  0.00000000000E+00  0.00000000000E+00 -0.16564854655E+04  0.16564854655E+04  0.50400001928E-02 0. -1.
    10030    2    1    2    0    0  0.00000000000E+00  0.00000000000E+00  0.21469862301E+03  0.35276695540E+04  0.35211300719E+04 0.  0.
        5    1    3    3  502    0 -0.13051042095E+04 -0.95005931939E+03  0.81126180807E+03  0.18066758202E+04  0.46999998093E+01 0.  1.
       -5    1    3    3    0  502  0.13051042095E+04  0.95005931939E+03 -0.59656318505E+03  0.17209937338E+04  0.46999998093E+01 0. -1.
</event>
<event>
 5   0  0.7551495E-07  0.3805624E+04  0.7818609E-02  0.8044949E-01
       -2   -1    0    0    0  501  0.00000000000E+00  0.00000000000E+00  0.17075882267E+04  0.17075882267E+04  0.25500000920E-02 0. -1.
        2   -1    0    0  501    0  0.00000000000E+00  0.00000000000E+00 -0.21203547910E+04  0.21203547910E+04  0.25500000920E-02 0.  1.
    10030    2    1    2    0    0  0.00000000000E+00  0.00000000000E+00 -0.41276656434E+03  0.38279430177E+04  0.38056236690E+04 0.  0.
        1    1    3    3  502    0 -0.51688385357E+03  0.14540617483E+04  0.91335184387E+03  0.17932306256E+04  0.50400001928E-02 0.  1.
       -1    1    3    3    0  502  0.51688385357E+03 -0.14540617483E+04 -0.13261184082E+04  0.20347123921E+04  0.50400001928E-02 0. -1.
</event>
<event>
 5   0  0.7649458E-07  0.3756422E+04  0.7818609E-02  0.8055572E-01
        2   -1    0    0  501    0  0.00000000000E+00  0.00000000000E+00  0.30584459335E+04  0.30584459335E+04  0.25500000920E-02 0.  1.
       -2   -1    0    0    0  501  0.00000000000E+00  0.00000000000E+00 -0.11534210853E+04  0.11534210853E+04  0.25500000920E-02 0. -1.
    10030    2    1    2    0    0  0.00000000000E+00  0.00000000000E+00  0.19050248482E+04  0.42118670188E+04  0.37564217165E+04 0.  0.
        4    1    3    3  502    0 -0.14698308591E+04  0.88695218061E+03  0.98165726426E+02  0.17195130263E+04  0.12699999809E+01 0. -1.
       -4    1    3    3    0  502  0.14698308591E+04 -0.88695218061E+03  0.18068591218E+04  0.24923539925E+04  0.12699999809E+01 0.  1.
</event>
<event>
 5   0  0.2529875E-07  0.3872710E+04  0.7818609E-02  0.8030729E-01
        1   -1    0    0  501    0  0.00000000000E+00  0.00000000000E+00  0.29937985167E+04  0.29937985167E+04  0.50400001928E-02 0. -1.
       -1   -1    0    0    0  501  0.00000000000E+00  0.00000000000E+00 -0.12524123526E+04  0.12524123526E+04  0.50400001928E-02 0.  1.
    10030    2    1    2    0    0  0.00000000000E+00  0.00000000000E+00  0.17413861641E+04  0.42462108692E+04  0.38727097714E+04 0.  0.
        5    1    3    3  502    0 -0.32425147494E+03 -0.16351797877E+04  0.19508417269E+04  0.25660782316E+04  0.46999998093E+01 0. -1.
       -5    1    3    3    0  502  0.32425147494E+03  0.16351797877E+04 -0.20945556283E+03  0.16801326376E+04  0.46999998093E+01 0.  1.
</event>
<event>
 5   0  0.7649458E-07  0.3006693E+04  0.7818609E-02  0.8241822E-01
        2   -1    0    0  501    0  0.00000000000E+00  0.00000000000E+00  0.12350247847E+04  0.12350247847E+04  0.25500000920E-02 0. -1.
       -2   -1    0    0    0  501  0.00000000000E+00  0.00000000000E+00 -0.18299642120E+04  0.18299642120E+04  0.25500000920E-02 0.  1.
    10030    2    1    2    0    0  0.00000000000E+00  0.00000000000E+00 -0.59493942730E+03  0.30649889966E+04  0.30066933045E+04 0.  0.
        4    1    3    3  502    0 -0.99107294446E+03  0.10419154692E+04 -0.74441800651E+03  0.16192508167E+04  0.12699999809E+01 0.  1.
       -4    1    3    3    0  502  0.99107294446E+03 -0.10419154692E+04  0.14947857921E+03  0.14457381799E+04  0.12699999809E+01 0. -1.
</event>
<event>
 5   0  0.7638805E-07  0.3371730E+04  0.7818609E-02  0.8144880E-01
       -2   -1    0    0    0  501  0.00000000000E+00  0.00000000000E+00  0.25338699546E+04  0.25338699546E+04  0.25500000920E-02 0. -1.
        2   -1    0    0  501    0  0.00000000000E+00  0.00000000000E+00 -0.11216600662E+04  0.11216600662E+04  0.25500000920E-02 0.  1.
    10030    2    1    2    0    0  0.00000000000E+00  0.00000000000E+00  0.14122098884E+04  0.36555300209E+04  0.33717299662E+04 0.  0.
        5    1    3    3  502    0 -0.12150345902E+04  0.10907670617E+04  0.11609875368E+04  0.20034959418E+04  0.46999998093E+01 0.  1.
       -5    1    3    3    0  502  0.12150345902E+04 -0.10907670617E+04  0.25122235162E+03  0.16520340790E+04  0.46999998093E+01 0. -1.
</event>
<event>
 5   0  0.7551495E-07  0.3357648E+04  0.7818609E-02  0.8148380E-01
       -2   -1    0    0    0  501  0.00000000000E+00  0.00000000000E+00  0.16494278618E+04  0.16494278618E+04  0.25500000920E-02 0. -1.
        2   -1    0    0  501    0  0.00000000000E+00  0.00000000000E+00 -0.17087445158E+04  0.17087445158E+04  0.25500000920E-02 0.  1.
    10030    2    1    2    0    0  0.00000000000E+00  0.00000000000E+00 -0.59316653963E+02  0.33581723776E+04  0.33576484706E+04 0.  0.
        1    1    3    3  502    0  0.91490351987E+03  0.67185863271E+03 -0.12667863897E+04  0.17009380442E+04  0.50400001928E-02 0.  1.
       -1    1    3    3    0  502 -0.91490351987E+03 -0.67185863271E+03  0.12074697357E+04  0.16572343334E+04  0.50400001928E-02 0. -1.
</event>
<event>
 5   0  0.2529875E-07  0.3806204E+04  0.7818609E-02  0.8044825E-01
       -1   -1    0    0    0  501  0.00000000000E+00  0.00000000000E+00  0.15871794680E+04  0.15871794680E+04  0.50400001928E-02 0.  1.
        1   -1    0    0  501    0  0.00000000000E+00  0.00000000000E+00 -0.22819075753E+04  0.22819075753E+04  0.50400001928E-02 0. -1.
    10030    2    1    2    0    0  0.00000000000E+00  0.00000000000E+00 -0.69472810730E+03  0.38690870432E+04  0.38062038050E+04 0.  0.
        4    1    3    3  502    0  0.60071708771E+03  0.50803153921E+03  0.14141350449E+04  0.16182510937E+04  0.12699999809E+01 0.  1.
       -4    1    3    3    0  502 -0.60071708771E+03 -0.50803153921E+03 -0.21088631522E+04  0.22508359495E+04  0.12699999809E+01 0. -1.
</event>
<event>
 5   0  0.7551495E-07  0.3783521E+04  0.7818609E-02  0.8049700E-01
       -2   -1    0    0    0  501  0.00000000000E+00  0.00000000000E+00  0.20267903198E+04  0.20267903198E+04  0.25500000920E-02 0. -1.
        2   -1    0    0  501    0  0.00000000000E+00  0.00000000000E+00 -0.17657270450E+04  0.17657270450E+04  0.25500000920E-02 0.  1.
    10030    2    1    2    0    0  0.00000000000E+00  0.00000000000E+00  0.26106327481E+03  0.37925173649E+04  0.37835213663E+04 0.  0.
        1    1    3    3  502    0 -0.11151051148E+04  0.14153915905E+04  0.70806622800E+03  0.19360140895E+04  0.50400001928E-02 0. -1.
       -1    1    3    3    0  502  0.11151051148E+04 -0.14153915905E+04 -0.44700295319E+03  0.18565032754E+04  0.50400001928E-02 0.  1.
</event>
<event>
 5   0  0.2907071E-07  0.3809180E+04  0.7818609E-02  0.8044188E-01
       -1   -1    0    0    0  501  0.00000000000E+00  0.00000000000E+00  0.11730885215E+04  0.11730885215E+04  0.50400001928E-02 0.  1.
        1   -1    0    0  501    0  0.00000000000E+00  0.00000000000E+00 -0.30922330386E+04  0.30922330386E+04  0.50400001928E-02 0. -1.
    10030    2    1    2    0    0  0.00000000000E+00  0.00000000000E+00 -0.19191445172E+04  0.42653215601E+04  0.38091800080E+04 0.  0.
        2    1    3    3  502    0  0.90493959711E+03  0.16722102634E+04 -0.10835574553E+04  0.21884468462E+04  0.25500000920E-02 0.  1.
       -2    1    3    3    0  502 -0.90493959711E+03 -0.16722102634E+04 -0.83558706184E+03  0.20768747139E+04  0.25500000920E-02 0. -1.
</event>
<event>
 5   0  0.8421677E-07  0.3291486E+04  0.7818609E-02  0.8165065E-01
        2   -1    0    0  501    0  0.00000000000E+00  0.00000000000E+00  0.13989934806E+04  0.13989934806E+04  0.25500000920E-02 0.  1.
       -2   -1    0    0    0  501  0.00000000000E+00  0.00000000000E+00 -0.19360137109E+04  0.19360137109E+04  0.25500000920E-02 0. -1.
    10030    2    1    2    0    0  0.00000000000E+00  0.00000000000E+00 -0.53702023031E+03  0.33350071916E+04  0.32914863269E+04 0.  0.
        3    1    3    3  502    0 -0.70957377976E+03  0.13009289436E+04 -0.99390895481E+03  0.17843110956E+04  0.10100000352E+00 0. -1.
       -3    1    3    3    0  502  0.70957377976E+03 -0.13009289436E+04  0.45688872450E+03  0.15506960960E+04  0.10100000352E+00 0.  1.
</event>
<event>
 5   0  0.2529875E-07  0.3700900E+04  0.7818609E-02  0.8067762E-01
       -1   -1    0    0    0  501  0.00000000000E+00  0.00000000000E+00  0.22234574377E+04  0.22234574377E+04  0.50400001928E-02 0. -1.
        1   -1    0    0  501    0  0.00000000000E+00  0.00000000000E+00 -0.15400180903E+04  0.15400180903E+04  0.50400001928E-02 0.  1.
    10030    2    1    2    0    0  0.00000000000E+00  0.00000000000E+00  0.68343934731E+03  0.37634755280E+04  0.37008997161E+04 0.  0.
        4    1    3    3  502    0  0.74351979146E+03 -0.87819739407E+03 -0.11319592599E+04  0.16141207273E+04  0.12699999809E+01 0.  1.
       -4    1    3    3    0  502 -0.74351979146E+03  0.87819739407E+03  0.18153986072E+04  0.21493548007E+04  0.12699999809E+01 0. -1.
</event>
<event>
 5   0  0.2529875E-07  0.3614813E+04  0.7818609E-02  0.8087107E-01
       -1   -1    0    0    0  501  0.00000000000E+00  0.00000000000E+00  0.22964175141E+04  0.22964175141E+04  0.50400001928E-02 0. -1.
        1   -1    0    0  501    0  0.00000000000E+00  0.00000000000E+00 -0.14225277076E+04  0.14225277077E+04  0.50400001928E-02 0.  1.
    10030    2    1    2    0    0  0.00000000000E+00  0.00000000000E+00  0.87388980648E+03  0.37189452218E+04  0.36148126049E+04 0.  0.
        1    1    3    3  502    0 -0.98084348673E+03 -0.31561281455E+03  0.19646637129E+04  0.22184609302E+04  0.50400001928E-02 0. -1.
       -1    1    3    3    0  502  0.98084348673E+03  0.31561281455E+03 -0.10907739064E+04  0.15004842915E+04  0.50400001928E-02 0.  1.
</event>
<event>
 5   0  0.7551495E-07  0.3809887E+04  0.7818609E-02  0.8044036E-01
        2   -1    0    0  501    0  0.00000000000E+00  0.00000000000E+00  0.15179931683E+04  0.15179931683E+04  0.25500000920E-02 0.  1.
       -2   -1    0    0    0  501  0.00000000000E+00  0.00000000000E+00 -0.23905313531E+04  0.23905313531E+04  0.25500000920E-02 0. -1.
    10030    2    1    2    0    0  0.00000000000E+00  0.00000000000E+00 -0.87253818476E+03  0.39085245213E+04  0.38098872753E+04 0.  0.
        1    1    3    3  502    0 -0.97507608741E+03  0.77334220463E+03 -0.19158208449E+04  0.22845570799E+04  0.50400001928E-02 0. -1.
       -1    1    3    3    0  502  0.97507608741E+03 -0.77334220463E+03  0.10432826602E+04  0.16239674414E+04  0.50400001928E-02 0.  1.
</event>
<event>
 5   0  0.7649458E-07  0.3769316E+04  0.7818609E-02  0.8052772E-01
        2   -1    0    0  501    0  0.00000000000E+00  0.00000000000E+00  0.13515287119E+04  0.13515287119E+04  0.25500000920E-02 0.  1.
       -2   -1    0    0    0  501  0.00000000000E+00  0.00000000000E+00 -0.26280873277E+04  0.26280873277E+04  0.25500000920E-02 0. -1.
    10030    2    1    2    0    0  0.00000000000E+00  0.00000000000E+00 -0.12765586158E+04  0.39796160396E+04  0.37693158428E+04 0.  0.
        4    1    3    3  502    0  0.29450121835E+03 -0.38863213923E+03 -0.25603347019E+04  0.26063540255E+04  0.12699999809E+01 0. -1.
       -4    1    3    3    0  502 -0.29450121835E+03  0.38863213923E+03  0.12837760861E+04  0.13732620141E+04  0.12699999809E+01 0.  1.
</event>
<event>
 5   0  0.2529875E-07  0.3761370E+04  0.7818609E-02  0.8054496E-01
       -3   -1    0    0    0  501  0.00000000000E+00  0.00000000000E+00  0.21990959672E+04  0.21990959695E+04  0.10100000352E+00 0.  1.
        3   -1    0    0  501    0  0.00000000000E+00  0.00000000000E+00 -0.16083772816E+04  0.16083772848E+04  0.10100000352E+00 0. -1.
    10030    2    1    2    0    0  0.00000000000E+00  0.00000000000E+00  0.59071868557E+03  0.38074732543E+04  0.37613699654E+04 0.  0.
        2    1    3    3  502    0  0.12199014531E+04  0.10807496155E+04  0.12453703838E+04  0.20511281480E+04  0.25500000920E-02 0.  1.
       -2    1    3    3    0  502 -0.12199014531E+04 -0.10807496155E+04 -0.65465169823E+03  0.17563451063E+04  0.25500000920E-02 0. -1.
</event>
<event>
 5   0  0.7551495E-07  0.3795702E+04  0.7818609E-02  0.8047078E-01
       -2   -1    0    0    0  501  0.00000000000E+00  0.00000000000E+00  0.21356429886E+04  0.21356429886E+04  0.25500000920E-02 0. -1.
        2   -1    0    0  501    0  0.00000000000E+00  0.00000000000E+00 -0.16865359663E+04  0.16865359663E+04  0.25500000920E-02 0.  1.
    10030    2    1    2    0    0  0.00000000000E+00  0.00000000000E+00  0.44910702229E+03  0.38221789550E+04  0.37957021546E+04 0.  0.
        1    1    3    3  502    0 -0.97612158802E+03 -0.14628866157E+04  0.94296407158E+03  0.19955029054E+04  0.50400001928E-02 0. -1.
       -1    1    3    3    0  502  0.97612158802E+03  0.14628866157E+04 -0.49385704929E+03  0.18266760496E+04  0.50400001928E-02 0.  1.
</event>
<event>
 5   0  0.8421677E-07  0.3835970E+04  0.7818609E-02  0.8038480E-01
        2   -1    0    0  501    0  0.00000000000E+00  0.00000000000E+00  0.21630577597E+04  0.21630577597E+04  0.25500000920E-02 0. -1.
       -2   -1    0    0    0  501  0.00000000000E+00  0.00000000000E+00 -0.17006783761E+04  0.17006783761E+04  0.25500000920E-02 0.  1.
    10030    2    1    2    0    0  0.00000000000E+00  0.00000000000E+00  0.46237938358E+03  0.38637361358E+04  0.38359695297E+04 0.  0.
        3    1    3    3  502    0 -0.11157065728E+04 -0.14699112957E+04  0.75768277082E+03  0.19948743232E+04  0.10100000352E+00 0. -1.
       -3    1    3    3    0  502  0.11157065728E+04  0.14699112957E+04 -0.29530338725E+03  0.18688618126E+04  0.10100000352E+00 0.  1.
</event>
<event>
 5   0  0.2529875E-07  0.3799282E+04  0.7818609E-02  0.8046309E-01
        1   -1    0    0  501    0  0.00000000000E+00  0.00000000000E+00  0.24509854046E+04  0.24509854046E+04  0.50400001928E-02 0.  1.
       -1   -1    0    0    0  501  0.00000000000E+00  0.00000000000E+00 -0.14723201279E+04  0.14723201279E+04  0.50400001928E-02 0. -1.
    10030    2    1    2    0    0  0.00000000000E+00  0.00000000000E+00  0.97866527665E+03  0.39233055325E+04  0.37992815871E+04 0.  0.
        1    1    3    3  502    0 -0.98876351881E+03 -0.95882432398E+03 -0.86167118396E+03  0.16246459952E+04  0.50400001928E-02 0. -1.
       -1    1    3    3    0  502  0.98876351881E+03  0.95882432398E+03  0.18403364606E+04  0.22986595374E+04  0.50400001928E-02 0.  1.
</event>
<event>
 5   0  0.2529875E-07  0.3904612E+04  0.7818609E-02  0.8024071E-01
        1   -1    0    0  501    0  0.00000000000E+00  0.00000000000E+00  0.26311427062E+04  0.26311427062E+04  0.50400001928E-02 0.  1.
       -1   -1    0    0    0  501  0.00000000000E+00  0.00000000000E+00 -0.14486096452E+04  0.14486096452E+04  0.50400001928E-02 0. -1.
    10030    2    1    2    0    0  0.00000000000E+00  0.00000000000E+00  0.11825330610E+04  0.40797523514E+04  0.39046119920E+04 0.  0.
        1    1    3    3  502    0  0.15663911120E+04 -0.11628772152E+04  0.66969447606E+03  0.20626088395E+04  0.50400001928E-02 0. -1.
       -1    1    3    3    0  502 -0.15663911120E+04  0.11628772152E+04  0.51283858492E+03  0.20171435119E+04  0.50400001928E-02 0.  1.
</event>
<event>
 5   0  0.3903465E-07  0.2333411E+04  0.7818609E-02  0.8464863E-01
        1   -1    0    0  501    0  0.00000000000E+00  0.00000000000E+00  0.12776843513E+04  0.12776843513E+04  0.50400001928E-02 0. -1.
       -1   -1    0    0    0  501  0.00000000000E+00  0.00000000000E+00 -0.10653658647E+04  0.10653658647E+04  0.50400001928E-02 0.  1.
    10030    2    1    2    0    0  0.00000000000E+00  0.00000000000E+00  0.21231848659E+03  0.23430502161E+04  0.23334106315E+04 0.  0.
        3    1    3    3  502    0 -0.11558951709E+03  0.63297122859E+03  0.10834155129E+04  0.12600804325E+04  0.10100000352E+00 0. -1.
       -3    1    3    3    0  502  0.11558951709E+03 -0.63297122859E+03 -0.87109702627E+03  0.10829697835E+04  0.10100000352E+00 0.  1.
</event>
<event>
 5   0  0.2529875E-07  0.3827174E+04  0.7818609E-02  0.8040348E-01
        1   -1    0    0  501    0  0.00000000000E+00  0.00000000000E+00  0.13990405684E+04  0.13990405684E+04  0.50400001928E-02 0.  1.
       -1   -1    0    0    0  501  0.00000000000E+00  0.00000000000E+00 -0.26173763090E+04  0.26173763090E+04  0.50400001928E-02 0. -1.
    10030    2    1    2    0    0  0.00000000000E+00  0.00000000000E+00 -0.12183357406E+04  0.40164168774E+04  0.38271742260E+04 0.  0.
        5    1    3    3  502    0 -0.16465231116E+04  0.81264823380E+03 -0.11746611890E+04  0.21797445970E+04  0.46999998093E+01 0.  1.
       -5    1    3    3    0  502  0.16465231116E+04 -0.81264823380E+03 -0.43674551565E+02  0.18366722804E+04  0.46999998093E+01 0. -1.
</event>
<event>
 5   0  0.2529875E-07  0.3184479E+04  0.7818609E-02  0.8192928E-01
        1   -1    0    0  501    0  0.00000000000E+00  0.00000000000E+00  0.16034060155E+04  0.16034060155E+04  0.50400001928E-02 0. -1.
       -1   -1    0    0    0  501  0.00000000000E+00  0.00000000000E+00 -0.15811507810E+04  0.15811507810E+04  0.50400001928E-02 0.  1.
    10030    2    1    2    0    0  0.00000000000E+00  0.00000000000E+00  0.22255234441E+02  0.31845567965E+04  0.31844790303E+04 0.  0.
        5    1    3    3  502    0 -0.96470832405E+03 -0.54783929289E+03  0.11532651972E+04  0.16002602121E+04  0.46999998093E+01 0. -1.
       -5    1    3    3    0  502  0.96470832405E+03  0.54783929289E+03 -0.11310099628E+04  0.15842965844E+04  0.46999998093E+01 0.  1.
</event>
<event>
 5   0  0.7649458E-07  0.3048631E+04  0.7818609E-02  0.8229979E-01
        2   -1    0    0  501    0  0.00000000000E+00  0.00000000000E+00  0.25767490929E+04  0.25767490929E+04  0.25500000920E-02 0. -1.
       -2   -1    0    0    0  501  0.00000000000E+00  0.00000000000E+00 -0.90173213639E+03  0.90173213640E+03  0.25500000920E-02 0.  1.
    10030    2    1    2    0    0  0.00000000000E+00  0.00000000000E+00  0.16750169565E+04  0.34784812293E+04  0.30486308169E+04 0.  0.
        4    1    3    3  502    0  0.79361901114E+03 -0.10463337763E+04  0.17205039670E+04  0.21644354967E+04  0.12699999809E+01 0.  1.
       -4    1    3    3    0  502 -0.79361901114E+03  0.10463337763E+04 -0.45487010493E+02  0.13140457326E+04  0.12699999809E+01 0. -1.
</event>
<event>
 5   0  0.7551495E-07  0.3860719E+04  0.7818609E-02  0.8033249E-01
        2   -1    0    0  501    0  0.00000000000E+00  0.00000000000E+00  0.11624821275E+04  0.11624821275E+04  0.25500000920E-02 0.  1.
       -2   -1    0    0    0  501  0.00000000000E+00  0.00000000000E+00 -0.32054577681E+04  0.32054577681E+04  0.25500000920E-02 0. -1.
    10030    2    1    2    0    0  0.00000000000E+00  0.00000000000E+00 -0.20429756407E+04  0.43679398956E+04  0.38607187754E+04 0.  0.
        1    1    3    3  502    0 -0.47543416676E+03  0.17505419452E+04 -0.17684150893E+04  0.25333232476E+04  0.50400001928E-02 0. -1.
       -1    1    3    3    0  502  0.47543416676E+03 -0.17505419452E+04 -0.27456055138E+03  0.18346166480E+04  0.50400001928E-02 0.  1.
</event>
<event>
 5   0  0.2907071E-07  0.3603758E+04  0.7818609E-02  0.8089631E-01
        1   -1    0    0  501    0  0.00000000000E+00  0.00000000000E+00  0.19930670272E+04  0.19930670272E+04  0.50400001928E-02 0. -1.
       -1   -1    0    0    0  501  0.00000000000E+00  0.00000000000E+00 -0.16290307989E+04  0.16290307989E+04  0.50400001928E-02 0.  1.
    10030    2    1    2    0    0  0.00000000000E+00  0.00000000000E+00  0.36403622831E+03  0.36220978262E+04  0.36037578008E+04 0.  0.
        2    1    3    3  502    0  0.10330433756E+04  0.56407275101E+03 -0.11892605064E+04  0.16732295827E+04  0.25500000920E-02 0.  1.
       -2    1    3    3    0  502 -0.10330433756E+04 -0.56407275101E+03  0.15532967347E+04  0.19488682435E+04  0.25500000920E-02 0. -1.
</event>
<event>
 5   0  0.7638805E-07  0.3803147E+04  0.7818609E-02  0.8045480E-01
       -2   -1    0    0    0  501  0.00000000000E+00  0.00000000000E+00  0.26148137210E+04  0.26148137210E+04  0.25500000920E-02 0. -1.
        2   -1    0    0  501    0  0.00000000000E+00  0.00000000000E+00 -0.13828829561E+04  0.13828829561E+04  0.25500000920E-02 0.  1.
    10030    2    1    2    0    0  0.00000000000E+00  0.00000000000E+00  0.12319307650E+04  0.39976966771E+04  0.38031467645E+04 0.  0.
        5    1    3    3  502    0 -0.32583449750E+03  0.18419110404E+04  0.97575354197E+03  0.21097207079E+04  0.46999998093E+01 0. -1.
       -5    1    3    3    0  502  0.32583449750E+03 -0.18419110404E+04  0.25617722299E+03  0.18879759692E+04  0.46999998093E+01 0.  1.
</event>
<event>
 5   0  0.2907071E-07  0.3866935E+04  0.7818609E-02  0.8031941E-01
        1   -1    0    0  501    0  0.00000000000E+00  0.00000000000E+00  0.19356023188E+04  0.19356023188E+04  0.50400001928E-02 0.  1.
       -1   -1    0    0    0  501  0.00000000000E+00  0.00000000000E+00 -0.19313348322E+04  0.19313348322E+04  0.50400001928E-02 0. -1.
    10030    2    1    2    0    0  0.00000000000E+00  0.00000000000E+00  0.42674865683E+01  0.38669371511E+04  0.38669347963E+04 0.  0.
        2    1    3    3  502    0  0.12475893168E+04 -0.10000250303E+04  0.10892254847E+04  0.19346682716E+04  0.25500000920E-02 0.  1.
       -2    1    3    3    0  502 -0.12475893168E+04  0.10000250303E+04 -0.10849579982E+04  0.19322688794E+04  0.25500000920E-02 0. -1.
</event>
<event>
 5   0  0.8038352E-07  0.2884015E+04  0.7818609E-02  0.8277649E-01
       -2   -1    0    0    0  501  0.00000000000E+00  0.00000000000E+00  0.13273373780E+04  0.13273373780E+04  0.25500000920E-02 0.  1.
        2   -1    0    0  501    0  0.00000000000E+00  0.00000000000E+00 -0.15665840818E+04  0.15665840818E+04  0.25500000920E-02 0. -1.
    10030    2    1    2    0    0  0.00000000000E+00  0.00000000000E+00 -0.23924670382E+03  0.28939214598E+04  0.28840149844E+04 0.  0.
        2    1    3    3  502    0  0.94953046710E+03 -0.69387375428E+03  0.71769890882E+03  0.13777374999E+04  0.25500000920E-02 0.  1.
       -2    1    3    3    0  502 -0.94953046710E+03  0.69387375428E+03 -0.95694561264E+03  0.15161839599E+04  0.25500000920E-02 0. -1.
</event>
<event>
 5   0  0.8421677E-07  0.3777724E+04  0.7818609E-02  0.8050952E-01
        2   -1    0    0  501    0  0.00000000000E+00  0.00000000000E+00  0.28486018010E+04  0.28486018010E+04  0.25500000920E-02 0.  1.
       -2   -1    0    0    0  501  0.00000000000E+00  0.00000000000E+00 -0.12524739381E+04  0.12524739381E+04  0.25500000920E-02 0. -1.
    10030    2    1    2    0    0  0.00000000000E+00  0.00000000000E+00  0.15961278629E+04  0.41010757390E+04  0.37777239262E+04 0.  0.
        3    1    3    3  502    0 -0.15177731928E+04  0.65429549644E+03 -0.19456441037E+03  0.16642095365E+04  0.10100000352E+00 0. -1.
       -3    1    3    3    0  502  0.15177731928E+04 -0.65429549644E+03  0.17906922732E+04  0.24368662025E+04  0.10100000352E+00 0.  1.
</event>
<event>
 5   0  0.7551495E-07  0.3814349E+04  0.7818609E-02  0.8043083E-01
       -2   -1    0    0    0  501  0.00000000000E+00  0.00000000000E+00  0.13444696512E+04  0.13444696512E+04  0.25500000920E-02 0. -1.
        2   -1    0    0  501    0  0.00000000000E+00  0.00000000000E+00 -0.27053902024E+04  0.27053902024E+04  0.25500000920E-02 0.  1.
    10030    2    1    2    0    0  0.00000000000E+00  0.00000000000E+00 -0.13609205512E+04  0.40498598536E+04  0.38143492351E+04 0.  0.
        1    1    3    3  502    0  0.85950442500E+03 -0.57294645131E+03 -0.23826635013E+04  0.25969406719E+04  0.50400001928E-02 0.  1.
       -1    1    3    3    0  502 -0.85950442500E+03  0.57294645131E+03  0.10217429501E+04  0.14529191818E+04  0.50400001928E-02 0. -1.
</event>
<event>
 5   0  0.7649458E-07  0.3819143E+04  0.7818609E-02  0.8042059E-01
        2   -1    0    0  501    0  0.00000000000E+00  0.00000000000E+00  0.11786178534E+04  0.11786178534E+04  0.25500000920E-02 0.  1.
       -2   -1    0    0    0  501  0.00000000000E+00  0.00000000000E+00 -0.30938465689E+04  0.30938465689E+04  0.25500000920E-02 0. -1.
    10030    2    1    2    0    0  0.00000000000E+00  0.00000000000E+00 -0.19152287154E+04  0.42724644223E+04  0.38191427320E+04 0.  0.
        4    1    3    3  502    0 -0.11205147036E+04  0.29190177730E+03 -0.26563042066E+04  0.28977083185E+04  0.12699999809E+01 0. -1.
       -4    1    3    3    0  502  0.11205147036E+04 -0.29190177730E+03  0.74107549111E+03  0.13747561038E+04  0.12699999809E+01 0.  1.
</event>
<event>
 5   0  0.2529875E-07  0.3552327E+04  0.7818609E-02  0.8101500E-01
        1   -1    0    0  501    0  0.00000000000E+00  0.00000000000E+00  0.19443291031E+04  0.19443291031E+04  0.50400001928E-02 0. -1.
       -1   -1    0    0    0  501  0.00000000000E+00  0.00000000000E+00 -0.16225428857E+04  0.16225428857E+04  0.50400001928E-02 0.  1.
    10030    2    1    2    0    0  0.00000000000E+00  0.00000000000E+00  0.32178621735E+03  0.35668719888E+04  0.35523273237E+04 0.  0.
        5    1    3    3  502    0 -0.10041962953E+04  0.14397937148E+04  0.43277681262E+03  0.18079640484E+04  0.46999998093E+01 0. -1.
       -5    1    3    3    0  502  0.10041962953E+04 -0.14397937148E+04 -0.11099059528E+03  0.17589079404E+04  0.46999998093E+01 0.  1.
</event>
<event>
 5   0  0.2529875E-07  0.3698888E+04  0.7818609E-02  0.8068208E-01
        1   -1    0    0  501    0  0.00000000000E+00  0.00000000000E+00  0.16208699872E+04  0.16208699872E+04  0.50400001928E-02 0.  1.
       -1   -1    0    0    0  501  0.00000000000E+00  0.00000000000E+00 -0.21102513255E+04  0.21102513255E+04  0.50400001928E-02 0. -1.
    10030    2    1    2    0    0  0.00000000000E+00  0.00000000000E+00 -0.48938133830E+03  0.37311213127E+04  0.36988879621E+04 0.  0.
        4    1    3    3  502    0 -0.32526009108E+03  0.25224477904E+03 -0.20634616024E+04  0.21041142918E+04  0.12699999809E+01 0. -1.
       -4    1    3    3    0  502  0.32526009108E+03 -0.25224477904E+03  0.15740802641E+04  0.16270070209E+04  0.12699999809E+01 0.  1.
</event>
<event>
 5   0  0.2529875E-07  0.3763706E+04  0.7818609E-02  0.8053989E-01
       -3   -1    0    0    0  501  0.00000000000E+00  0.00000000000E+00  0.28944459051E+04  0.28944459069E+04  0.10100000352E+00 0. -1.
        3   -1    0    0  501    0  0.00000000000E+00  0.00000000000E+00 -0.12235053010E+04  0.12235053052E+04  0.10100000352E+00 0.  1.
    10030    2    1    2    0    0  0.00000000000E+00  0.00000000000E+00  0.16709406041E+04  0.41179512121E+04  0.37637055786E+04 0.  0.
        4    1    3    3  502    0 -0.16125821259E+04  0.84767139691E+03  0.13514508554E+04  0.22683449776E+04  0.12699999809E+01 0. -1.
       -4    1    3    3    0  502  0.16125821259E+04 -0.84767139691E+03  0.31948974873E+03  0.18496062344E+04  0.12699999809E+01 0.  1.
</event>
<event>
 5   0  0.8421677E-07  0.3885602E+04  0.7818609E-02  0.8028030E-01
        2   -1    0    0  501    0  0.00000000000E+00  0.00000000000E+00  0.22263977857E+04  0.22263977857E+04  0.25500000920E-02 0. -1.
       -2   -1    0    0    0  501  0.00000000000E+00  0.00000000000E+00 -0.16953282710E+04  0.16953282710E+04  0.25500000920E-02 0.  1.
    10030    2    1    2    0    0  0.00000000000E+00  0.00000000000E+00  0.53106951472E+03  0.39217260568E+04  0.38856016825E+04 0.  0.
        3    1    3    3  502    0 -0.16281659011E+04 -0.14846628763E+02  0.13352612355E+04  0.21057224891E+04  0.10100000352E+00 0. -1.
       -3    1    3    3    0  502  0.16281659011E+04  0.14846628763E+02 -0.80419172078E+03  0.18160035677E+04  0.10100000352E+00 0.  1.
</event>
<event>
 5   0  0.8038352E-07  0.3805603E+04  0.7818609E-02  0.8044954E-01
       -2   -1    0    0    0  501  0.00000000000E+00  0.00000000000E+00  0.29395770312E+04  0.29395770312E+04  0.25500000920E-02 0. -1.
        2   -1    0    0  501    0  0.00000000000E+00  0.00000000000E+00 -0.12316917264E+04  0.12316917264E+04  0.25500000920E-02 0.  1.
    10030    2    1    2    0    0  0.00000000000E+00  0.00000000000E+00  0.17078853047E+04  0.41712687576E+04  0.38056025586E+04 0.  0.
        2    1    3    3  502    0 -0.17504488138E+04  0.70628714948E+03  0.11173231341E+04  0.21934729479E+04  0.25500000920E-02 0. -1.
       -2    1    3    3    0  502  0.17504488138E+04 -0.70628714948E+03  0.59056217063E+03  0.19777958096E+04  0.25500000920E-02 0.  1.
</event>
<event>
 5   0  0.7638805E-07  0.2836067E+04  0.7818609E-02  0.8292158E-01
        2   -1    0    0  501    0  0.00000000000E+00  0.00000000000E+00  0.10155216849E+04  0.10155216849E+04  0.25500000920E-02 0. -1.
       -2   -1    0    0    0  501  0.00000000000E+00  0.00000000000E+00 -0.19800849255E+04  0.19800849255E+04  0.25500000920E-02 0.  1.
    10030    2    1    2    0    0  0.00000000000E+00  0.00000000000E+00 -0.96456324064E+03  0.29956066104E+04  0.28360671218E+04 0.  0.
        5    1    3    3  502    0 -0.13260083046E+04  0.35458526539E+03 -0.85835596158E+03  0.16188964701E+04  0.46999998093E+01 0.  1.
       -5    1    3    3    0  502  0.13260083046E+04 -0.35458526539E+03 -0.10620727906E+03  0.13767101403E+04  0.46999998093E+01 0. -1.
</event>
<event>
 5   0  0.2529875E-07  0.2728202E+04  0.7818609E-02  0.8325912E-01
        1   -1    0    0  501    0  0.00000000000E+00  0.00000000000E+00  0.19189113022E+04  0.19189113022E+04  0.50400001928E-02 0.  1.
       -1   -1    0    0    0  501  0.00000000000E+00  0.00000000000E+00 -0.96970161763E+03  0.96970161764E+03  0.50400001928E-02 0. -1.
    10030    2    1    2    0    0  0.00000000000E+00  0.00000000000E+00  0.94920968458E+03  0.28886129199E+04  0.27282018942E+04 0.  0.
        4    1    3    3  502    0 -0.90585663438E+03 -0.56766581873E+03  0.13717436801E+04  0.17391098472E+04  0.12699999809E+01 0.  1.
       -4    1    3    3    0  502  0.90585663438E+03  0.56766581873E+03 -0.42253399552E+03  0.11495030727E+04  0.12699999809E+01 0. -1.
</event>
<event>
 5   0  0.2529875E-07  0.3749407E+04  0.7818609E-02  0.8057100E-01
       -1   -1    0    0    0  501  0.00000000000E+00  0.00000000000E+00  0.27689137870E+04  0.27689137870E+04  0.50400001928E-02 0. -1.
        1   -1    0    0  501    0  0.00000000000E+00  0.00000000000E+00 -0.12692750065E+04  0.12692750065E+04  0.50400001928E-02 0.  1.
    10030    2    1    2    0    0  0.00000000000E+00  0.00000000000E+00  0.14996387805E+04  0.40381887934E+04  0.37494069210E+04 0.  0.
        1    1    3    3  502    0  0.16113224616E+04  0.66765019327E+03  0.95713874586E+01  0.17441927839E+04  0.50400001928E-02 0. -1.
       -1    1    3    3    0  502 -0.16113224616E+04 -0.66765019327E+03  0.14900673930E+04  0.22939960095E+04  0.50400001928E-02 0.  1.
</event>
<event>
 5   0  0.8038352E-07  0.3721830E+04  0.7818609E-02  0.8063141E-01
        2   -1    0    0  501    0  0.00000000000E+00  0.00000000000E+00  0.15892661845E+04  0.15892661845E+04  0.25500000920E-02 0. -1.
       -2   -1    0    0    0  501  0.00000000000E+00  0.00000000000E+00 -0.21789961627E+04  0.21789961627E+04  0.25500000920E-02 0.  1.
    10030    2    1    2    0    0  0.00000000000E+00  0.00000000000E+00 -0.58972997812E+03  0.37682623472E+04  0.37218301506E+04 0.  0.
        2    1    3    3  502    0  0.12057737402E+04  0.14065528338E+04 -0.11739637588E+03  0.18563574806E+04  0.25500000920E-02 0. -1.
       -2    1    3    3    0  502 -0.12057737402E+04 -0.14065528338E+04 -0.47233360225E+03  0.19119048665E+04  0.25500000920E-02 0.  1.
</event>
<event>
 5   0  0.2529875E-07  0.3765751E+04  0.7818609E-02  0.8053545E-01
       -1   -1    0    0    0  501  0.00000000000E+00  0.00000000000E+00  0.29566127510E+04  0.29566127510E+04  0.50400001928E-02 0.  1.
        1   -1    0    0  501    0  0.00000000000E+00  0.00000000000E+00 -0.11990817021E+04  0.11990817021E+04  0.50400001928E-02 0. -1.
    10030    2    1    2    0    0  0.00000000000E+00  0.00000000000E+00  0.17575310489E+04  0.41556944531E+04  0.37657510539E+04 0.  0.
        4    1    3    3  502    0  0.15881152045E+04  0.96462793278E+03  0.12145815740E+04  0.22198709341E+04  0.12699999809E+01 0.  1.
       -4    1    3    3    0  502 -0.15881152045E+04 -0.96462793278E+03  0.54294947499E+03  0.19358235190E+04  0.12699999809E+01 0. -1.
</event>
<event>
 5   0  0.7649458E-07  0.3771959E+04  0.7818609E-02  0.8052199E-01
        2   -1    0    0  501    0  0.00000000000E+00  0.00000000000E+00  0.16663514496E+04  0.16663514496E+04  0.25500000920E-02 0. -1.
       -2   -1    0    0    0  501  0.00000000000E+00  0.00000000000E+00 -0.21345551434E+04  0.21345551434E+04  0.25500000920E-02 0.  1.
    10030    2    1    2    0    0  0.00000000000E+00  0.00000000000E+00 -0.46820369382E+03  0.38009065931E+04  0.37719592031E+04 0.  0.
        4    1    3    3  502    0 -0.25280711577E+02 -0.12207350990E+04  0.12143171525E+04  0.17220339881E+04  0.12699999809E+01 0. -1.
       -4    1    3    3    0  502  0.25280711577E+02  0.12207350990E+04 -0.16825208463E+04  0.20788726050E+04  0.12699999809E+01 0.  1.
</event>
<event>
 5   0  0.2529875E-07  0.3781585E+04  0.7818609E-02  0.8050118E-01
       -1   -1    0    0    0  501  0.00000000000E+00  0.00000000000E+00  0.23638679946E+04  0.23638679946E+04  0.50400001928E-02 0. -1.
        1   -1    0    0  501    0  0.00000000000E+00  0.00000000000E+00 -0.15123925072E+04  0.15123925072E+04  0.50400001928E-02 0.  1.
    10030    2    1    2    0    0  0.00000000000E+00  0.00000000000E+00  0.85147548735E+03  0.38762605018E+04  0.37815849815E+04 0.  0.
        5    1    3    3  502    0 -0.18650351947E+04  0.17304680597E+03  0.69061123154E+03  0.19963134618E+04  0.46999998093E+01 0.  1.
       -5    1    3    3    0  502  0.18650351947E+04 -0.17304680597E+03  0.16086425581E+03  0.18799470400E+04  0.46999998093E+01 0. -1.
</event>
<event>
 5   0  0.8421677E-07  0.3224462E+04  0.7818609E-02  0.8182387E-01
       -2   -1    0    0    0  501  0.00000000000E+00  0.00000000000E+00  0.17639684800E+04  0.17639684800E+04  0.25500000920E-02 0.  1.
        2   -1    0    0  501    0  0.00000000000E+00  0.00000000000E+00 -0.14735460196E+04  0.14735460196E+04  0.25500000920E-02 0. -1.
    10030    2    1    2    0    0  0.00000000000E+00  0.00000000000E+00  0.29042246045E+03  0.32375144996E+04  0.32244619597E+04 0.  0.
        3    1    3    3  502    0  0.12761790342E+03  0.20412272324E+01 -0.14684654330E+04  0.14740017755E+04  0.10100000352E+00 0. -1.
       -3    1    3    3    0  502 -0.12761790342E+03 -0.20412272324E+01  0.17588878935E+04  0.17635127241E+04  0.10100000352E+00 0.  1.
</event>
<event>
 5   0  0.7551495E-07  0.2735484E+04  0.7818609E-02  0.8323583E-01
       -2   -1    0    0    0  501  0.00000000000E+00  0.00000000000E+00  0.28511225636E+04  0.28511225636E+04  0.25500000920E-02 0.  1.
        2   -1    0    0  501    0  0.00000000000E+00  0.00000000000E+00 -0.65613397730E+03  0.65613397731E+03  0.25500000920E-02 0. -1.
    10030    2    1    2    0    0  0.00000000000E+00  0.00000000000E+00  0.21949885863E+04  0.35072565409E+04  0.27354841527E+04 0.  0.
        1    1    3    3  502    0 -0.60239620640E+03  0.79678035583E+03 -0.10044564898E+03  0.10039070940E+04  0.50400001928E-02 0. -1.
       -1    1    3    3    0  502  0.60239620640E+03 -0.79678035583E+03  0.22954342352E+04  0.25033494469E+04  0.50400001928E-02 0.  1.
</event>
<event>
 5   0  0.2529875E-07  0.3638714E+04  0.7818609E-02  0.8081681E-01
       -1   -1    0    0    0  501  0.00000000000E+00  0.00000000000E+00  0.17105260197E+04  0.17105260197E+04  0.50400001928E-02 0. -1.
        1   -1    0    0  501    0  0.00000000000E+00  0.00000000000E+00 -0.19351126709E+04  0.19351126709E+04  0.50400001928E-02 0.  1.
    10030    2    1    2    0    0  0.00000000000E+00  0.00000000000E+00 -0.22458665118E+03  0.36456386907E+04  0.36387143745E+04 0.  0.
        3    1    3    3  502    0  0.11114497870E+04 -0.88807395050E+03  0.10239125984E+04  0.17528242896E+04  0.10100000352E+00 0. -1.
       -3    1    3    3    0  502 -0.11114497870E+04  0.88807395050E+03 -0.12484992496E+04  0.18928144011E+04  0.10100000352E+00 0.  1.
</event>
<event>
 5   0  0.2529875E-07  0.3604361E+04  0.7818609E-02  0.8089494E-01
        1   -1    0    0  501    0  0.00000000000E+00  0.00000000000E+00  0.14242023343E+04  0.14242023343E+04  0.50400001928E-02 0.  1.
       -1   -1    0    0    0  501  0.00000000000E+00  0.00000000000E+00 -0.22804721063E+04  0.22804721063E+04  0.50400001928E-02 0. -1.
    10030    2    1    2    0    0  0.00000000000E+00  0.00000000000E+00 -0.85626977199E+03  0.37046744406E+04  0.36043605242E+04 0.  0.
        4    1    3    3  502    0 -0.13473338986E+03  0.20768666130E+03 -0.22629116534E+04  0.22764133191E+04  0.12699999809E+01 0. -1.
       -4    1    3    3    0  502  0.13473338986E+03 -0.20768666130E+03  0.14066418814E+04  0.14282611214E+04  0.12699999809E+01 0.  1.
</event>
<event>
 5   0  0.2529875E-07  0.3551662E+04  0.7818609E-02  0.8101655E-01
        1   -1    0    0  501    0  0.00000000000E+00  0.00000000000E+00  0.22665689689E+04  0.22665689689E+04  0.50400001928E-02 0. -1.
       -1   -1    0    0    0  501  0.00000000000E+00  0.00000000000E+00 -0.13913434081E+04  0.13913434081E+04  0.50400001928E-02 0.  1.
    10030    2    1    2    0    0  0.00000000000E+00  0.00000000000E+00  0.87522556081E+03  0.36579123771E+04  0.35516620301E+04 0.  0.
        4    1    3    3  502    0 -0.68615795332E+03  0.96355473179E+03  0.18017452106E+04  0.21553509865E+04  0.12699999809E+01 0. -1.
       -4    1    3    3    0  502  0.68615795332E+03 -0.96355473179E+03 -0.92651964983E+03  0.15025613906E+04  0.12699999809E+01 0.  1.
</event>
<event>
 5   0  0.2529875E-07  0.3529195E+04  0.7818609E-02  0.8106906E-01
       -1   -1    0    0    0  501  0.00000000000E+00  0.00000000000E+00  0.16034276998E+04  0.16034276998E+04  0.50400001928E-02 0.  1.
        1   -1    0    0  501    0  0.00000000000E+00  0.00000000000E+00 -0.19419675278E+04  0.19419675278E+04  0.50400001928E-02 0. -1.
    10030    2    1    2    0    0  0.00000000000E+00  0.00000000000E+00 -0.33853982795E+03  0.35453952276E+04  0.35291951073E+04 0.  0.
        4    1    3    3  502    0 -0.14801914265E+03 -0.17578186935E+04 -0.12471899485E+03  0.17684435717E+04  0.12699999809E+01 0. -1.
       -4    1    3    3    0  502  0.14801914265E+03  0.17578186935E+04 -0.21382083310E+03  0.17769516559E+04  0.12699999809E+01 0.  1.
</event>
<event>
 5   0  0.2529875E-07  0.3431681E+04  0.7818609E-02  0.8130174E-01
        1   -1    0    0  501    0  0.00000000000E+00  0.00000000000E+00  0.25369412268E+04  0.25369412268E+04  0.50400001928E-02 0. -1.
       -1   -1    0    0    0  501  0.00000000000E+00  0.00000000000E+00 -0.11604950845E+04  0.11604950845E+04  0.50400001928E-02 0.  1.
    10030    2    1    2    0    0  0.00000000000E+00  0.00000000000E+00  0.13764461423E+04  0.36974363113E+04  0.34316805349E+04 0.  0.
        3    1    3    3  502    0  0.16941443941E+03  0.86153630150E+03 -0.90010378073E+03  0.12574310627E+04  0.10100000352E+00 0.  1.
       -3    1    3    3    0  502 -0.16941443941E+03 -0.86153630150E+03  0.22765499231E+04  0.24400052487E+04  0.10100000352E+00 0. -1.
</event>
<event>
 5   0  0.7638805E-07  0.3744467E+04  0.7818609E-02  0.8058178E-01
       -2   -1    0    0    0  501  0.00000000000E+00  0.00000000000E+00  0.17607552064E+04  0.17607552064E+04  0.25500000920E-02 0.  1.
        2   -1    0    0  501    0  0.00000000000E+00  0.00000000000E+00 -0.19907699277E+04  0.19907699277E+04  0.25500000920E-02 0. -1.
    10030    2    1    2    0    0  0.00000000000E+00  0.00000000000E+00 -0.23001472130E+03  0.37515251341E+04  0.37444671263E+04 0.  0.
        5    1    3    3  502    0  0.17196324453E+04 -0.62569568314E+03 -0.51148752840E+03  0.19000716872E+04  0.46999998093E+01 0. -1.
       -5    1    3    3    0  502 -0.17196324453E+04  0.62569568314E+03  0.28147280710E+03  0.18514534469E+04  0.46999998093E+01 0.  1.
</event>
<event>
 5   0  0.8038352E-07  0.3963384E+04  0.7818609E-02  0.8011974E-01
       -2   -1    0    0    0  501  0.00000000000E+00  0.00000000000E+00  0.14213139527E+04  0.14213139527E+04  0.25500000920E-02 0. -1.
        2   -1    0    0  501    0  0.00000000000E+00  0.00000000000E+00 -0.27630083976E+04  0.27630083976E+04  0.25500000920E-02 0.  1.
    10030    2    1    2    0    0  0.00000000000E+00  0.00000000000E+00 -0.13416944450E+04  0.41843223503E+04  0.39633835983E+04 0.  0.
        2    1    3    3  502    0  0.17229332665E+04  0.77688790263E+03 -0.12999228907E+04  0.22938730077E+04  0.25500000920E-02 0.  1.
       -2    1    3    3    0  502 -0.17229332665E+04 -0.77688790263E+03 -0.41771554314E+02  0.18904493426E+04  0.25500000920E-02 0. -1.
</event>
<event>
 5   0  0.2907071E-07  0.3532853E+04  0.7818609E-02  0.8106048E-01
       -1   -1    0    0    0  501  0.00000000000E+00  0.00000000000E+00  0.13825573833E+04  0.13825573833E+04  0.50400001928E-02 0. -1.
        1   -1    0    0  501    0  0.00000000000E+00  0.00000000000E+00 -0.22568772278E+04  0.22568772278E+04  0.50400001928E-02 0.  1.
    10030    2    1    2    0    0  0.00000000000E+00  0.00000000000E+00 -0.87431984455E+03  0.36394346111E+04  0.35328528271E+04 0.  0.
        2    1    3    3  502    0  0.12173550760E+04  0.50508175634E+03  0.77441722013E+03  0.15286539806E+04  0.25500000920E-02 0. -1.
       -2    1    3    3    0  502 -0.12173550760E+04 -0.50508175634E+03 -0.16487370647E+04  0.21107806305E+04  0.25500000920E-02 0.  1.
</event>
<event>
 5   0  0.2529875E-07  0.3791766E+04  0.7818609E-02  0.8047924E-01
        1   -1    0    0  501    0  0.00000000000E+00  0.00000000000E+00  0.26154093564E+04  0.26154093564E+04  0.50400001928E-02 0.  1.
       -1   -1    0    0    0  501  0.00000000000E+00  0.00000000000E+00 -0.13743059860E+04  0.13743059860E+04  0.50400001928E-02 0. -1.
    10030    2    1    2    0    0  0.00000000000E+00  0.00000000000E+00  0.12411033704E+04  0.39897153424E+04  0.37917662029E+04 0.  0.
        1    1    3    3  502    0  0.10568533300E+04 -0.15817401944E+03 -0.10272210767E+04  0.14822756565E+04  0.50400001928E-02 0. -1.
       -1    1    3    3    0  502 -0.10568533300E+04  0.15817401944E+03  0.22683244470E+04  0.25074396859E+04  0.50400001928E-02 0.  1.
</event>
<event>
 5   0  0.2529875E-07  0.2529674E+04  0.7818609E-02  0.8392490E-01
        1   -1    0    0  501    0  0.00000000000E+00  0.00000000000E+00  0.10979949372E+04  0.10979949372E+04  0.50400001928E-02 0.  1.
       -1   -1    0    0    0  501  0.00000000000E+00  0.00000000000E+00 -0.14570311556E+04  0.14570311557E+04  0.50400001928E-02 0. -1.
    10030    2    1    2    0    0  0.00000000000E+00  0.00000000000E+00 -0.35903621843E+03  0.25550260929E+04  0.25296741547E+04 0.  0.
        3    1    3    3  502    0 -0.10812347641E+04 -0.27695275034E+03  0.42145877689E+03  0.11930628449E+04  0.10100000352E+00 0.  1.
       -3    1    3    3    0  502  0.10812347641E+04  0.27695275034E+03 -0.78049499532E+03  0.13619632480E+04  0.10100000352E+00 0. -1.
</event>
<event>
 5   0  0.2529875E-07  0.3788183E+04  0.7818609E-02  0.8048696E-01
       -1   -1    0    0    0  501  0.00000000000E+00  0.00000000000E+00  0.14707119019E+04  0.14707119019E+04  0.50400001928E-02 0.  1.
        1   -1    0    0  501    0  0.00000000000E+00  0.00000000000E+00 -0.24393509604E+04  0.24393509604E+04  0.50400001928E-02 0. -1.
    10030    2    1    2    0    0  0.00000000000E+00  0.00000000000E+00 -0.96863905856E+03  0.39100628623E+04  0.37881829367E+04 0.  0.
        1    1    3    3  502    0 -0.17761011432E+03  0.70089054079E+03 -0.22912986227E+04  0.24026739856E+04  0.50400001928E-02 0. -1.
       -1    1    3    3    0  502  0.17761011432E+03 -0.70089054079E+03  0.13226595641E+04  0.15073888767E+04  0.50400001928E-02 0.  1.
</event>
<event>
 5   0  0.2529875E-07  0.3857032E+04  0.7818609E-02  0.8034026E-01
        1   -1    0    0  501    0  0.00000000000E+00  0.00000000000E+00  0.16685943317E+04  0.16685943317E+04  0.50400001928E-02 0.  1.
       -1   -1    0    0    0  501  0.00000000000E+00  0.00000000000E+00 -0.22289261511E+04  0.22289261511E+04  0.50400001928E-02 0. -1.
    10030    2    1    2    0    0  0.00000000000E+00  0.00000000000E+00 -0.56033181939E+03  0.38975204828E+04  0.38570317818E+04 0.  0.
        4    1    3    3  502    0  0.17398883034E+04 -0.67473730832E+03  0.21144930317E+03  0.18780825765E+04  0.12699999809E+01 0.  1.
       -4    1    3    3    0  502 -0.17398883034E+04  0.67473730832E+03 -0.77178112256E+03  0.20194379063E+04  0.12699999809E+01 0. -1.
</event>
<event>
 5   0  0.2529875E-07  0.3570990E+04  0.7818609E-02  0.8097169E-01
        1   -1    0    0  501    0  0.00000000000E+00  0.00000000000E+00  0.21010780907E+04  0.21010780907E+04  0.50400001928E-02 0. -1.
       -1   -1    0    0    0  501  0.00000000000E+00  0.00000000000E+00 -0.15173122765E+04  0.15173122766E+04  0.50400001928E-02 0.  1.
    10030    2    1    2    0    0  0.00000000000E+00  0.00000000000E+00  0.58376581416E+03  0.36183903673E+04  0.35709895441E+04 0.  0.
        4    1    3    3  502    0 -0.15411808359E+04  0.55533417540E+03  0.10114896818E+04  0.19252915116E+04  0.12699999809E+01 0. -1.
       -4    1    3    3    0  502  0.15411808359E+04 -0.55533417540E+03 -0.42772386763E+03  0.16930988557E+04  0.12699999809E+01 0.  1.
</event>
<event>
 5   0  0.2529875E-07  0.3543605E+04  0.7818609E-02  0.8103533E-01
       -1   -1    0    0    0  501  0.00000000000E+00  0.00000000000E+00  0.10600569469E+04  0.10600569469E+04  0.50400001928E-02 0.  1.
        1   -1    0    0  501    0  0.00000000000E+00  0.00000000000E+00 -0.29614299699E+04  0.29614299699E+04  0.50400001928E-02 0. -1.
    10030    2    1    2    0    0  0.00000000000E+00  0.00000000000E+00 -0.19013730230E+04  0.40214869169E+04  0.35436051769E+04 0.  0.
        3    1    3    3  502    0 -0.44465055324E+03 -0.26501694562E+03 -0.28737045756E+04  0.29199530979E+04  0.10100000352E+00 0. -1.
       -3    1    3    3    0  502  0.44465055324E+03  0.26501694562E+03  0.97233155258E+03  0.11015338190E+04  0.10100000352E+00 0.  1.
</event>
<event>
 5   0  0.8038352E-07  0.3935982E+04  0.7818609E-02  0.8017587E-01
        2   -1    0    0  501    0  0.00000000000E+00  0.00000000000E+00  0.20780656422E+04  0.20780656422E+04  0.25500000920E-02 0. -1.
       -2   -1    0    0    0  501  0.00000000000E+00  0.00000000000E+00 -0.18637470283E+04  0.18637470283E+04  0.25500000920E-02 0.  1.
    10030    2    1    2    0    0  0.00000000000E+00  0.00000000000E+00  0.21431861398E+03  0.39418126705E+04  0.39359820453E+04 0.  0.
        2    1    3    3  502    0  0.16007227569E+04 -0.54990911600E+03  0.11127759061E+04  0.20255822861E+04  0.25500000920E-02 0. -1.
       -2    1    3    3    0  502 -0.16007227569E+04  0.54990911600E+03 -0.89845729212E+03  0.19162303844E+04  0.25500000920E-02 0.  1.
</event>
<event>
 5   0  0.2529875E-07  0.3852920E+04  0.7818609E-02  0.8034893E-01
       -3   -1    0    0    0  501  0.00000000000E+00  0.00000000000E+00  0.17858849785E+04  0.17858849814E+04  0.10100000352E+00 0.  1.
        3   -1    0    0  501    0  0.00000000000E+00  0.00000000000E+00 -0.20781006673E+04  0.20781006698E+04  0.10100000352E+00 0. -1.
    10030    2    1    2    0    0  0.00000000000E+00  0.00000000000E+00 -0.29221568880E+03  0.38639856512E+04  0.38529203344E+04 0.  0.
        4    1    3    3  502    0 -0.30700624591E+03 -0.71503495312E+03 -0.19134741832E+04  0.20656507163E+04  0.12699999809E+01 0. -1.
       -4    1    3    3    0  502  0.30700624591E+03  0.71503495312E+03  0.16212584944E+04  0.17983349348E+04  0.12699999809E+01 0.  1.
</event>
<event>
 5   0  0.7551495E-07  0.3646683E+04  0.7818609E-02  0.8079881E-01
       -2   -1    0    0    0  501  0.00000000000E+00  0.00000000000E+00  0.21555644141E+04  0.21555644141E+04  0.25500000920E-02 0.  1.
        2   -1    0    0  501    0  0.00000000000E+00  0.00000000000E+00 -0.15423222238E+04  0.15423222238E+04  0.25500000920E-02 0. -1.
    10030    2    1    2    0    0  0.00000000000E+00  0.00000000000E+00  0.61324219031E+03  0.36978866379E+04  0.36466833703E+04 0.  0.
        1    1    3    3  502    0 -0.31043371041E+03  0.15340763208E+03 -0.15086743738E+04  0.15479022438E+04  0.50400001928E-02 0. -1.
       -1    1    3    3    0  502  0.31043371041E+03 -0.15340763208E+03  0.21219165641E+04  0.21499843942E+04  0.50400001928E-02 0.  1.
</event>
<event>
 5   0  0.2529875E-07  0.3805893E+04  0.7818609E-02  0.8044891E-01
       -1   -1    0    0    0  501  0.00000000000E+00  0.00000000000E+00  0.18417259760E+04  0.18417259760E+04  0.50400001928E-02 0. -1.
        1   -1    0    0  501    0  0.00000000000E+00  0.00000000000E+00 -0.19662022656E+04  0.19662022656E+04  0.50400001928E-02 0.  1.
    10030    2    1    2    0    0  0.00000000000E+00  0.00000000000E+00 -0.12447628960E+03  0.38079282416E+04  0.38058932127E+04 0.  0.
        3    1    3    3  502    0  0.13730420498E+04  0.71888947434E+03 -0.11669839791E+04  0.19400768450E+04  0.10100000352E+00 0.  1.
       -3    1    3    3    0  502 -0.13730420498E+04 -0.71888947434E+03  0.10425076895E+04  0.18678513966E+04  0.10100000352E+00 0. -1.
</event>
<event>
 5   0  0.7551495E-07  0.2634460E+04  0.7818609E-02  0.8356589E-01
       -2   -1    0    0    0  501  0.00000000000E+00  0.00000000000E+00  0.14891615501E+04  0.14891615501E+04  0.25500000920E-02 0. -1.
        2   -1    0    0  501    0  0.00000000000E+00  0.00000000000E+00 -0.11651485641E+04  0.11651485641E+04  0.25500000920E-02 0.  1.
    10030    2    1    2    0    0  0.00000000000E+00  0.00000000000E+00  0.32401298597E+03  0.26543101142E+04  0.26344596727E+04 0.  0.
        1    1    3    3  502    0  0.34806215815E+02 -0.98213171454E+03  0.10457129898E+04  0.14350295587E+04  0.50400001928E-02 0. -1.
       -1    1    3    3    0  502 -0.34806215815E+02  0.98213171454E+03 -0.72170000381E+03  0.12192805554E+04  0.50400001928E-02 0.  1.
</event>
<event>
 5   0  0.2529875E-07  0.3732693E+04  0.7818609E-02  0.8060755E-01
        1   -1    0    0  501    0  0.00000000000E+00  0.00000000000E+00  0.30159408837E+04  0.30159408837E+04  0.50400001928E-02 0. -1.
       -1   -1    0    0    0  501  0.00000000000E+00  0.00000000000E+00 -0.11549458945E+04  0.11549458945E+04  0.50400001928E-02 0.  1.
    10030    2    1    2    0    0  0.00000000000E+00  0.00000000000E+00  0.18609949892E+04  0.41708867782E+04  0.37326926162E+04 0.  0.
        1    1    3    3  502    0 -0.40547345319E+03  0.12473102798E+04 -0.55317940803E+03  0.14234462100E+04  0.50400001928E-02 0.  1.
       -1    1    3    3    0  502  0.40547345319E+03 -0.12473102798E+04  0.24141743972E+04  0.27474405682E+04  0.50400001928E-02 0. -1.
</event>
<event>
 5   0  0.7638805E-07  0.3782432E+04  0.7818609E-02  0.8049935E-01
       -2   -1    0    0    0  501  0.00000000000E+00  0.00000000000E+00  0.23218286686E+04  0.23218286686E+04  0.25500000920E-02 0.  1.
        2   -1    0    0  501    0  0.00000000000E+00  0.00000000000E+00 -0.15404661965E+04  0.15404661965E+04  0.25500000920E-02 0. -1.
    10030    2    1    2    0    0  0.00000000000E+00  0.00000000000E+00  0.78136247212E+03  0.38622948650E+04  0.37824323274E+04 0.  0.
        5    1    3    3  502    0  0.11741115602E+04  0.10114421372E+04 -0.71623812892E+03  0.17072118497E+04  0.46999998093E+01 0. -1.
       -5    1    3    3    0  502 -0.11741115602E+04 -0.10114421372E+04  0.14976006010E+04  0.21550830153E+04  0.46999998093E+01 0.  1.
</event>
<event>
 5   0  0.2907071E-07  0.3780685E+04  0.7818609E-02  0.8050313E-01
        1   -1    0    0  501    0  0.00000000000E+00  0.00000000000E+00  0.23877209622E+04  0.23877209622E+04  0.50400001928E-02 0.  1.
       -1   -1    0    0    0  501  0.00000000000E+00  0.00000000000E+00 -0.14965709941E+04  0.14965709941E+04  0.50400001928E-02 0. -1.
    10030    2    1    2    0    0  0.00000000000E+00  0.00000000000E+00  0.89114996802E+03  0.38842919563E+04  0.37806845592E+04 0.  0.
        2    1    3    3  502    0  0.21737704157E+03  0.44074189681E+03  0.23209434187E+04  0.23724005881E+04  0.25500000920E-02 0.  1.
       -2    1    3    3    0  502 -0.21737704157E+03 -0.44074189681E+03 -0.14297934506E+04  0.15118913682E+04  0.25500000920E-02 0. -1.
</event>
<event>
 5   0  0.8421677E-07  0.2395136E+04  0.7818609E-02  0.8441327E-01
       -2   -1    0    0    0  501  0.00000000000E+00  0.00000000000E+00  0.63599886766E+03  0.63599886767E+03  0.25500000920E-02 0. -1.
        2   -1    0    0  501    0  0.00000000000E+00  0.00000000000E+00 -0.22549861504E+04  0.22549861504E+04  0.25500000920E-02 0.  1.
    10030    2    1    2    0    0  0.00000000000E+00  0.00000000000E+00 -0.16189872827E+04  0.28909850181E+04  0.23951356022E+04 0.  0.
        3    1    3    3  502    0 -0.28414589527E+03  0.28796935388E+03  0.55102234348E+03  0.68358676976E+03  0.10100000352E+00 0. -1.
       -3    1    3    3    0  502  0.28414589527E+03 -0.28796935388E+03 -0.21700096262E+04  0.22073982483E+04  0.10100000352E+00 0.  1.
</event>
<event>
 5   0  0.8038352E-07  0.3773128E+04  0.7818609E-02  0.8051946E-01
        2   -1    0    0  501    0  0.00000000000E+00  0.00000000000E+00  0.26764064760E+04  0.26764064760E+04  0.25500000920E-02 0.  1.
       -2   -1    0    0    0  501  0.00000000000E+00  0.00000000000E+00 -0.13298142362E+04  0.13298142362E+04  0.25500000920E-02 0. -1.
    10030    2    1    2    0    0  0.00000000000E+00  0.00000000000E+00  0.13465922397E+04  0.40062207122E+04  0.37731278450E+04 0.  0.
        2    1    3    3  502    0 -0.16691879236E+04  0.21576649141E+03 -0.23163447066E+03  0.16989402671E+04  0.25500000920E-02 0. -1.
       -2    1    3    3    0  502  0.16691879236E+04 -0.21576649141E+03  0.15782267104E+04  0.23072804451E+04  0.25500000920E-02 0.  1.
</event>
<event>
 5   0  0.2907071E-07  0.3769953E+04  0.7818609E-02  0.8052634E-01
       -1   -1    0    0    0  501  0.00000000000E+00  0.00000000000E+00  0.17106243315E+04  0.17106243315E+04  0.50400001928E-02 0.  1.
        1   -1    0    0  501    0  0.00000000000E+00  0.00000000000E+00 -0.20770995694E+04  0.20770995694E+04  0.50400001928E-02 0. -1.
    10030    2    1    2    0    0  0.00000000000E+00  0.00000000000E+00 -0.36647523795E+03  0.37877239009E+04  0.37699533485E+04 0.  0.
        2    1    3    3  502    0 -0.49161042395E+02  0.10770268217E+03  0.17068851174E+04  0.17109861133E+04  0.25500000920E-02 0.  1.
       -2    1    3    3    0  502  0.49161042395E+02 -0.10770268217E+03 -0.20733603553E+04  0.20767377877E+04  0.25500000920E-02 0. -1.
</event>
<event>
 5   0  0.7638805E-07  0.3323210E+04  0.7818609E-02  0.8157015E-01
        2   -1    0    0  501    0  0.00000000000E+00  0.00000000000E+00  0.22985538062E+04  0.22985538062E+04  0.25500000920E-02 0. -1.
       -2   -1    0    0    0  501  0.00000000000E+00  0.00000000000E+00 -0.12011600958E+04  0.12011600958E+04  0.25500000920E-02 0.  1.
    10030    2    1    2    0    0  0.00000000000E+00  0.00000000000E+00  0.10973937104E+04  0.34997139019E+04  0.33232099602E+04 0.  0.
        5    1    3    3  502    0 -0.56375773490E+03  0.11546610067E+03  0.21902535938E+04  0.22645944669E+04  0.46999998093E+01 0. -1.
       -5    1    3    3    0  502  0.56375773490E+03 -0.11546610067E+03 -0.10928598834E+04  0.12351194351E+04  0.46999998093E+01 0.  1.
</event>
<event>
 5   0  0.7638805E-07  0.2552172E+04  0.7818609E-02  0.8384631E-01
        2   -1    0    0  501    0  0.00000000000E+00  0.00000000000E+00  0.23855194295E+04  0.23855194295E+04  0.25500000920E-02 0.  1.
       -2   -1    0    0    0  501  0.00000000000E+00  0.00000000000E+00 -0.68261684391E+03  0.68261684392E+03  0.25500000920E-02 0. -1.
    10030    2    1    2    0    0  0.00000000000E+00  0.00000000000E+00  0.17029025856E+04  0.30681362734E+04  0.25521722074E+04 0.  0.
        5    1    3    3  502    0 -0.63364208145E+03 -0.78141404761E+03 -0.92278958687E+02  0.10102711009E+04  0.46999998093E+01 0. -1.
       -5    1    3    3    0  502  0.63364208145E+03  0.78141404761E+03  0.17951815443E+04  0.20578651725E+04  0.46999998093E+01 0.  1.
</event>
<event>
 5   0  0.8421677E-07  0.3819288E+04  0.7818609E-02  0.8042028E-01
       -2   -1    0    0    0  501  0.00000000000E+00  0.00000000000E+00  0.24396401076E+04  0.24396401076E+04  0.25500000920E-02 0. -1.
        2   -1    0    0  501    0  0.00000000000E+00  0.00000000000E+00 -0.14947859588E+04  0.14947859588E+04  0.25500000920E-02 0.  1.
    10030    2    1    2    0    0  0.00000000000E+00  0.00000000000E+00  0.94485414881E+03  0.39344260663E+04  0.38192877751E+04 0.  0.
        3    1    3    3  502    0 -0.14051787462E+03  0.86648158912E+03  0.22194912573E+04  0.23867712644E+04  0.10100000352E+00 0. -1.
       -3    1    3    3    0  502  0.14051787462E+03 -0.86648158912E+03 -0.12746371085E+04  0.15476548019E+04  0.10100000352E+00 0.  1.
</event>
<event>
 5   0  0.7551495E-07  0.3743132E+04  0.7818609E-02  0.8058470E-01
        2   -1    0    0  501    0  0.00000000000E+00  0.00000000000E+00  0.20431998669E+04  0.20431998669E+04  0.25500000920E-02 0. -1.
       -2   -1    0    0    0  501  0.00000000000E+00  0.00000000000E+00 -0.17143500989E+04  0.17143500989E+04  0.25500000920E-02 0.  1.
    10030    2    1    2    0    0  0.00000000000E+00  0.00000000000E+00  0.32884976798E+03  0.37575499657E+04  0.37431323214E+04 0.  0.
        1    1    3    3  502    0  0.16331606930E+04 -0.23894550329E+03  0.10501220402E+04  0.19562886040E+04  0.50400001928E-02 0. -1.
       -1    1    3    3    0  502 -0.16331606930E+04  0.23894550329E+03 -0.72127227220E+03  0.18012613618E+04  0.50400001928E-02 0.  1.
</event>
<event>
 5   0  0.2529875E-07  0.3816319E+04  0.7818609E-02  0.8042662E-01
        1   -1    0    0  501    0  0.00000000000E+00  0.00000000000E+00  0.14753924973E+04  0.14753924973E+04  0.50400001928E-02 0. -1.
       -1   -1    0    0    0  501  0.00000000000E+00  0.00000000000E+00 -0.24678668894E+04  0.24678668894E+04  0.50400001928E-02 0.  1.
    10030    2    1    2    0    0  0.00000000000E+00  0.00000000000E+00 -0.99247439206E+03  0.39432593867E+04  0.38163187985E+04 0.  0.
        5    1    3    3  502    0 -0.91345811656E+02 -0.92050896113E+03  0.12282187303E+04  0.15376033767E+04  0.46999998093E+01 0. -1.
       -5    1    3    3    0  502  0.91345811656E+02  0.92050896113E+03 -0.22206931223E+04  0.24056560100E+04  0.46999998093E+01 0.  1.
</event>
<event>
 5   0  0.2529875E-07  0.3641815E+04  0.7818609E-02  0.8080980E-01
       -1   -1    0    0    0  501  0.00000000000E+00  0.00000000000E+00  0.14130888855E+04  0.14130888855E+04  0.50400001928E-02 0.  1.
        1   -1    0    0  501    0  0.00000000000E+00  0.00000000000E+00 -0.23464233478E+04  0.23464233478E+04  0.50400001928E-02 0. -1.
    10030    2    1    2    0    0  0.00000000000E+00  0.00000000000E+00 -0.93333446230E+03  0.37595122332E+04  0.36418153458E+04 0.  0.
        1    1    3    3  502    0 -0.79900723918E+03 -0.54573457362E+03 -0.20590714844E+04  0.22750855304E+04  0.50400001928E-02 0. -1.
       -1    1    3    3    0  502  0.79900723918E+03  0.54573457362E+03  0.11257370220E+04  0.14844267028E+04  0.50400001928E-02 0.  1.
</event>
<event>
 5   0  0.8038352E-07  0.3857191E+04  0.7818609E-02  0.8033992E-01
        2   -1    0    0  501    0  0.00000000000E+00  0.00000000000E+00  0.29610327965E+04  0.29610327965E+04  0.25500000920E-02 0.  1.
       -2   -1    0    0    0  501  0.00000000000E+00  0.00000000000E+00 -0.12561429616E+04  0.12561429616E+04  0.25500000920E-02 0. -1.
    10030    2    1    2    0    0  0.00000000000E+00  0.00000000000E+00  0.17048898349E+04  0.42171757581E+04  0.38571909501E+04 0.  0.
        2    1    3    3  502    0 -0.49230764965E+03  0.18447570612E+04  0.55505748914E+03  0.19883622037E+04  0.25500000920E-02 0.  1.
       -2    1    3    3    0  502  0.49230764965E+03 -0.18447570612E+04  0.11498323457E+04  0.22288135544E+04  0.25500000920E-02 0. -1.
</event>
<event>
 5   0  0.2907071E-07  0.2624858E+04  0.7818609E-02  0.8359806E-01
        1   -1    0    0  501    0  0.00000000000E+00  0.00000000000E+00  0.21063934682E+04  0.21063934682E+04  0.50400001928E-02 0.  1.
       -1   -1    0    0    0  501  0.00000000000E+00  0.00000000000E+00 -0.81773446505E+03  0.81773446507E+03  0.50400001928E-02 0. -1.
    10030    2    1    2    0    0  0.00000000000E+00  0.00000000000E+00  0.12886590031E+04  0.29241279333E+04  0.26248584998E+04 0.  0.
        2    1    3    3  502    0  0.23654140732E+03 -0.84952728133E+03  0.17271725026E+04  0.19392713304E+04  0.25500000920E-02 0.  1.
       -2    1    3    3    0  502 -0.23654140732E+03  0.84952728133E+03 -0.43851349943E+03  0.98485660291E+03  0.25500000920E-02 0. -1.
</event>
<event>
 5   0  0.7551495E-07  0.3818794E+04  0.7818609E-02  0.8042134E-01
       -2   -1    0    0    0  501  0.00000000000E+00  0.00000000000E+00  0.12219960015E+04  0.12219960015E+04  0.25500000920E-02 0. -1.
        2   -1    0    0  501    0  0.00000000000E+00  0.00000000000E+00 -0.29834768649E+04  0.29834768649E+04  0.25500000920E-02 0.  1.
    10030    2    1    2    0    0  0.00000000000E+00  0.00000000000E+00 -0.17614808634E+04  0.42054728664E+04  0.38187939455E+04 0.  0.
        1    1    3    3  502    0 -0.81905975026E+03 -0.19821117976E+03 -0.27676051621E+04  0.28930580498E+04  0.50400001928E-02 0.  1.
       -1    1    3    3    0  502  0.81905975026E+03  0.19821117976E+03  0.10061242987E+04  0.13124148166E+04  0.50400001928E-02 0. -1.
</event>
<event>
 5   0  0.7638805E-07  0.3862564E+04  0.7818609E-02  0.8032861E-01
       -2   -1    0    0    0  501  0.00000000000E+00  0.00000000000E+00  0.20576897978E+04  0.20576897978E+04  0.25500000920E-02 0. -1.
        2   -1    0    0  501    0  0.00000000000E+00  0.00000000000E+00 -0.18126394797E+04  0.18126394797E+04  0.25500000920E-02 0.  1.
    10030    2    1    2    0    0  0.00000000000E+00  0.00000000000E+00  0.24505031809E+03  0.38703292774E+04  0.38625637933E+04 0.  0.
        5    1    3    3  502    0  0.27867052198E+03  0.36343407622E+03  0.20024863862E+04  0.20541945878E+04  0.46999998093E+01 0. -1.
       -5    1    3    3    0  502 -0.27867052198E+03 -0.36343407622E+03 -0.17574360681E+04  0.18161346897E+04  0.46999998093E+01 0.  1.
</event>
<event>
 5   0  0.2529875E-07  0.3757891E+04  0.7818609E-02  0.8055252E-01
        1   -1    0    0  501    0  0.00000000000E+00  0.00000000000E+00  0.21807055356E+04  0.21807055356E+04  0.50400001928E-02 0.  1.
       -1   -1    0    0    0  501  0.00000000000E+00  0.00000000000E+00 -0.16189423797E+04  0.16189423797E+04  0.50400001928E-02 0. -1.
    10030    2    1    2    0    0  0.00000000000E+00  0.00000000000E+00  0.56176315590E+03  0.37996479154E+04  0.37578912221E+04 0.  0.
        5    1    3    3  502    0  0.46204916071E+03  0.16154556036E+04 -0.56943170213E+03  0.17741084487E+04  0.46999998093E+01 0. -1.
       -5    1    3    3    0  502 -0.46204916071E+03 -0.16154556036E+04  0.11311948580E+04  0.20255394667E+04  0.46999998093E+01 0.  1.
</event>
<event>
 5   0  0.2529875E-07  0.2909605E+04  0.7818609E-02  0.8270026E-01
        1   -1    0    0  501    0  0.00000000000E+00  0.00000000000E+00  0.18278072686E+04  0.18278072686E+04  0.50400001928E-02 0.  1.
       -1   -1    0    0    0  501  0.00000000000E+00  0.00000000000E+00 -0.11579173358E+04  0.11579173358E+04  0.50400001928E-02 0. -1.
    10030    2    1    2    0    0  0.00000000000E+00  0.00000000000E+00  0.66988993282E+03  0.29857246044E+04  0.29096045936E+04 0.  0.
        5    1    3    3  502    0 -0.44405194688E+03  0.40600332102E+03 -0.10242473941E+04  0.11879080952E+04  0.46999998093E+01 0. -1.
       -5    1    3    3    0  502  0.44405194688E+03 -0.40600332102E+03  0.16941373270E+04  0.17978165092E+04  0.46999998093E+01 0.  1.
</event>
<event>
 5   0  0.7551495E-07  0.4004256E+04  0.7818609E-02  0.8003689E-01
        2   -1    0    0  501    0  0.00000000000E+00  0.00000000000E+00  0.18564883930E+04  0.18564883930E+04  0.25500000920E-02 0.  1.
       -2   -1    0    0    0  501  0.00000000000E+00  0.00000000000E+00 -0.21591929339E+04  0.21591929339E+04  0.25500000920E-02 0. -1.
    10030    2    1    2    0    0  0.00000000000E+00  0.00000000000E+00 -0.30270454094E+03  0.40156813269E+04  0.40042560458E+04 0.  0.
        1    1    3    3  502    0 -0.12530593891E+04 -0.14572443983E+04 -0.71402138097E+03  0.20502550088E+04  0.50400001928E-02 0. -1.
       -1    1    3    3    0  502  0.12530593891E+04  0.14572443983E+04  0.41131684003E+03  0.19654263181E+04  0.50400001928E-02 0.  1.
</event>
<event>
 5   0  0.7649458E-07  0.3737232E+04  0.7818609E-02  0.8059761E-01
       -2   -1    0    0    0  501  0.00000000000E+00  0.00000000000E+00  0.14225316137E+04  0.14225316137E+04  0.25500000920E-02 0. -1.
        2   -1    0    0  501    0  0.00000000000E+00  0.00000000000E+00 -0.24545853019E+04  0.24545853019E+04  0.25500000920E-02 0.  1.
    10030    2    1    2    0    0  0.00000000000E+00  0.00000000000E+00 -0.10320536882E+04  0.38771169156E+04  0.37372316977E+04 0.  0.
        4    1    3    3  502    0  0.13484201659E+04 -0.97792468878E+03  0.36251784163E+03  0.17046977559E+04  0.12699999809E+01 0.  1.
       -4    1    3    3    0  502 -0.13484201659E+04  0.97792468878E+03 -0.13945715298E+04  0.21724191597E+04  0.12699999809E+01 0. -1.
</event>
<event>
 5   0  0.2907071E-07  0.3547793E+04  0.7818609E-02  0.8102556E-01
        1   -1    0    0  501    0  0.00000000000E+00  0.00000000000E+00  0.18068084470E+04  0.18068084470E+04  0.50400001928E-02 0. -1.
       -1   -1    0    0    0  501  0.00000000000E+00  0.00000000000E+00 -0.17415844501E+04  0.17415844501E+04  0.50400001928E-02 0.  1.
    10030    2    1    2    0    0  0.00000000000E+00  0.00000000000E+00  0.65223996948E+02  0.35483928971E+04  0.35477933963E+04 0.  0.
        2    1    3    3  502    0 -0.92586621025E+03 -0.11113636314E+04 -0.99437801657E+03  0.17553190594E+04  0.25500000920E-02 0.  1.
       -2    1    3    3    0  502  0.92586621025E+03  0.11113636314E+04  0.10596020135E+04  0.17930738377E+04  0.25500000920E-02 0. -1.
</event>
<event>
 5   0  0.2529875E-07  0.2624478E+04  0.7818609E-02  0.8359934E-01
       -1   -1    0    0    0  501  0.00000000000E+00  0.00000000000E+00  0.12975883906E+04  0.12975883906E+04  0.50400001928E-02 0.  1.
        1   -1    0    0  501    0  0.00000000000E+00  0.00000000000E+00 -0.13270545326E+04  0.13270545326E+04  0.50400001928E-02 0. -1.
    10030    2    1    2    0    0  0.00000000000E+00  0.00000000000E+00 -0.29466141972E+02  0.26246429232E+04  0.26244775139E+04 0.  0.
        4    1    3    3  502    0 -0.12823124161E+04  0.26656518293E+03  0.66431228198E+02  0.13114102524E+04  0.12699999809E+01 0.  1.
       -4    1    3    3    0  502  0.12823124161E+04 -0.26656518293E+03 -0.95897370170E+02  0.13132326708E+04  0.12699999809E+01 0. -1.
</event>
<event>
 5   0  0.8421677E-07  0.3706120E+04  0.7818609E-02  0.8066607E-01
       -2   -1    0    0    0  501  0.00000000000E+00  0.00000000000E+00  0.25779049055E+04  0.25779049055E+04  0.25500000920E-02 0. -1.
        2   -1    0    0  501    0  0.00000000000E+00  0.00000000000E+00 -0.13320239384E+04  0.13320239384E+04  0.25500000920E-02 0.  1.
    10030    2    1    2    0    0  0.00000000000E+00  0.00000000000E+00  0.12458809671E+04  0.39099288438E+04  0.37061198280E+04 0.  0.
        3    1    3    3  502    0 -0.11583903042E+04  0.50473725290E+03  0.20529140139E+04  0.24106189558E+04  0.10100000352E+00 0. -1.
       -3    1    3    3    0  502  0.11583903042E+04 -0.50473725290E+03 -0.80703304681E+03  0.14993098880E+04  0.10100000352E+00 0.  1.
</event>
<event>
 5   0  0.2529875E-07  0.3758251E+04  0.7818609E-02  0.8055174E-01
        1   -1    0    0  501    0  0.00000000000E+00  0.00000000000E+00  0.11523529112E+04  0.11523529112E+04  0.50400001928E-02 0.  1.
       -1   -1    0    0    0  501  0.00000000000E+00  0.00000000000E+00 -0.30642636404E+04  0.30642636404E+04  0.50400001928E-02 0. -1.
    10030    2    1    2    0    0  0.00000000000E+00  0.00000000000E+00 -0.19119107292E+04  0.42166165516E+04  0.37582512565E+04 0.  0.
        1    1    3    3  502    0 -0.76201970538E+03 -0.52396238876E+03 -0.27912823124E+04  0.29404876405E+04  0.50400001928E-02 0. -1.
       -1    1    3    3    0  502  0.76201970538E+03  0.52396238876E+03  0.87937158326E+03  0.12761289111E+04  0.50400001928E-02 0.  1.
</event>
<event>
 5   0  0.8421677E-07  0.3730620E+04  0.7818609E-02  0.8061210E-01
       -2   -1    0    0    0  501  0.00000000000E+00  0.00000000000E+00  0.15795694300E+04  0.15795694300E+04  0.25500000920E-02 0. -1.
        2   -1    0    0  501    0  0.00000000000E+00  0.00000000000E+00 -0.22027401162E+04  0.22027401162E+04  0.25500000920E-02 0.  1.
    10030    2    1    2    0    0  0.00000000000E+00  0.00000000000E+00 -0.62317068619E+03  0.37823095462E+04  0.37306197607E+04 0.  0.
        3    1    3    3  502    0  0.16860976100E+04 -0.67267475125E+03  0.12326824410E+03  0.18195085990E+04  0.10100000352E+00 0.  1.
       -3    1    3    3    0  502 -0.16860976100E+04  0.67267475125E+03 -0.74643893030E+03  0.19628009472E+04  0.10100000352E+00 0. -1.
</event>
<event>
 5   0  0.2907071E-07  0.3673166E+04  0.7818609E-02  0.8073935E-01
        1   -1    0    0  501    0  0.00000000000E+00  0.00000000000E+00  0.30176334013E+04  0.30176334013E+04  0.50400001928E-02 0. -1.
       -1   -1    0    0    0  501  0.00000000000E+00  0.00000000000E+00 -0.11177755655E+04  0.11177755656E+04  0.50400001928E-02 0.  1.
    10030    2    1    2    0    0  0.00000000000E+00  0.00000000000E+00  0.18998578358E+04  0.41354089669E+04  0.36731658725E+04 0.  0.
        2    1    3    3  502    0  0.17980181422E+04 -0.36703556574E+03  0.86679520492E+03  0.20295118313E+04  0.25500000920E-02 0.  1.
       -2    1    3    3    0  502 -0.17980181422E+04  0.36703556574E+03  0.10330626308E+04  0.21058971355E+04  0.25500000920E-02 0. -1.
</event>
<event>
 5   0  0.7551495E-07  0.3873498E+04  0.7818609E-02  0.8030564E-01
       -2   -1    0    0    0  501  0.00000000000E+00  0.00000000000E+00  0.17473018653E+04  0.17473018653E+04  0.25500000920E-02 0.  1.
        2   -1    0    0  501    0  0.00000000000E+00  0.00000000000E+00 -0.21467361293E+04  0.21467361293E+04  0.25500000920E-02 0. -1.
    10030    2    1    2    0    0  0.00000000000E+00  0.00000000000E+00 -0.39943426403E+03  0.38940379946E+04  0.38734976665E+04 0.  0.
        1    1    3    3  502    0  0.53641806497E+03 -0.18580232054E+04 -0.30516122686E+03  0.19578350152E+04  0.50400001928E-02 0. -1.
       -1    1    3    3    0  502 -0.53641806497E+03  0.18580232054E+04 -0.94273037165E+02  0.19362029795E+04  0.50400001928E-02 0.  1.
</event>
<event>
 5   0  0.8038352E-07  0.3824369E+04  0.7818609E-02  0.8040945E-01
        2   -1    0    0  501    0  0.00000000000E+00  0.00000000000E+00  0.28271265637E+04  0.28271265637E+04  0.25500000920E-02 0.  1.
       -2   -1    0    0    0  501  0.00000000000E+00  0.00000000000E+00 -0.12933449672E+04  0.12933449672E+04  0.25500000920E-02 0. -1.
    10030    2    1    2    0    0  0.00000000000E+00  0.00000000000E+00  0.15337815965E+04  0.41204715310E+04  0.38243691835E+04 0.  0.
        2    1    3    3  502    0  0.11937710596E+04  0.14431562036E+04  0.11823087464E+04  0.22148686513E+04  0.25500000920E-02 0.  1.
       -2    1    3    3    0  502 -0.11937710596E+04 -0.14431562036E+04  0.35147285003E+03  0.19056028797E+04  0.25500000920E-02 0. -1.
</event>
<event>
 5   0  0.2529875E-07  0.3910710E+04  0.7818609E-02  0.8022805E-01
        1   -1    0    0  501    0  0.00000000000E+00  0.00000000000E+00  0.14035487961E+04  0.14035487961E+04  0.50400001928E-02 0. -1.
       -1   -1    0    0    0  501  0.00000000000E+00  0.00000000000E+00 -0.27241037864E+04  0.27241037864E+04  0.50400001928E-02 0.  1.
    10030    2    1    2    0    0  0.00000000000E+00  0.00000000000E+00 -0.13205549902E+04  0.41276525825E+04  0.39107097003E+04 0.  0.
        4    1    3    3  502    0  0.11947314293E+03 -0.16664435419E+03  0.13921695529E+04  0.14071893439E+04  0.12699999809E+01 0. -1.
       -4    1    3    3    0  502 -0.11947314293E+03  0.16664435419E+03 -0.27127245431E+04  0.27204632386E+04  0.12699999809E+01 0.  1.
</event>
<event>
 5   0  0.7649458E-07  0.2368743E+04  0.7818609E-02  0.8451299E-01
        2   -1    0    0  501    0  0.00000000000E+00  0.00000000000E+00  0.21486843649E+04  0.21486843649E+04  0.25500000920E-02 0. -1.
       -2   -1    0    0    0  501  0.00000000000E+00  0.00000000000E+00 -0.65283476186E+03  0.65283476187E+03  0.25500000920E-02 0.  1.
    10030    2    1    2    0    0  0.00000000000E+00  0.00000000000E+00  0.14958496030E+04  0.28015191267E+04  0.23687429963E+04 0.  0.
        4    1    3    3  502    0 -0.11486262398E+04  0.16034343205E+03  0.46387419524E+03  0.12490929256E+04  0.12699999809E+01 0.  1.
       -4    1    3    3    0  502  0.11486262398E+04 -0.16034343205E+03  0.10319754078E+04  0.15524262011E+04  0.12699999809E+01 0. -1.
</event>
<event>
 5   0  0.7638805E-07  0.3827674E+04  0.7818609E-02  0.8040242E-01
       -2   -1    0    0    0  501  0.00000000000E+00  0.00000000000E+00  0.14832239361E+04  0.14832239361E+04  0.25500000920E-02 0.  1.
        2   -1    0    0  501    0  0.00000000000E+00  0.00000000000E+00 -0.24694666917E+04  0.24694666917E+04  0.25500000920E-02 0. -1.
    10030    2    1    2    0    0  0.00000000000E+00  0.00000000000E+00 -0.98624275563E+03  0.39526906279E+04  0.38276740230E+04 0.  0.
        5    1    3    3  502    0  0.22723543419E+03 -0.52560923722E+03 -0.23789228330E+04  0.24468749351E+04  0.46999998093E+01 0. -1.
       -5    1    3    3    0  502 -0.22723543419E+03  0.52560923722E+03  0.13926800773E+04  0.15058156928E+04  0.46999998093E+01 0.  1.
</event>
<event>
 5   0  0.2529875E-07  0.3651954E+04  0.7818609E-02  0.8078694E-01
        1   -1    0    0  501    0  0.00000000000E+00  0.00000000000E+00  0.24168212409E+04  0.24168212409E+04  0.50400001928E-02 0. -1.
       -1   -1    0    0    0  501  0.00000000000E+00  0.00000000000E+00 -0.13795771240E+04  0.13795771241E+04  0.50400001928E-02 0.  1.
    10030    2    1    2    0    0  0.00000000000E+00  0.00000000000E+00  0.10372441169E+04  0.37963983650E+04  0.36519536125E+04 0.  0.
        1    1    3    3  502    0 -0.87942017431E+03 -0.12330422237E+04  0.15789751878E+04  0.21879066735E+04  0.50400001928E-02 0. -1.
       -1    1    3    3    0  502  0.87942017431E+03  0.12330422237E+04 -0.54173107090E+03  0.16084916915E+04  0.50400001928E-02 0.  1.
</event>
<event>
 5   0  0.7649458E-07  0.3763995E+04  0.7818609E-02  0.8053926E-01
       -2   -1    0    0    0  501  0.00000000000E+00  0.00000000000E+00  0.21515058484E+04  0.21515058484E+04  0.25500000920E-02 0. -1.
        2   -1    0    0  501    0  0.00000000000E+00  0.00000000000E+00 -0.16462494110E+04  0.16462494110E+04  0.25500000920E-02 0.  1.
    10030    2    1    2    0    0  0.00000000000E+00  0.00000000000E+00  0.50525643738E+03  0.37977552594E+04  0.37639953431E+04 0.  0.
        4    1    3    3  502    0  0.29679119991E+03  0.14742309026E+04 -0.88910047150E+03  0.17469811195E+04  0.12699999809E+01 0. -1.
       -4    1    3    3    0  502 -0.29679119991E+03 -0.14742309026E+04  0.13943569089E+04  0.20507741399E+04  0.12699999809E+01 0.  1.
</event>
<event>
 5   0  0.2529875E-07  0.3459655E+04  0.7818609E-02  0.8123418E-01
       -1   -1    0    0    0  501  0.00000000000E+00  0.00000000000E+00  0.14428166742E+04  0.14428166742E+04  0.50400001928E-02 0.  1.
        1   -1    0    0  501    0  0.00000000000E+00  0.00000000000E+00 -0.20739311696E+04  0.20739311696E+04  0.50400001928E-02 0. -1.
    10030    2    1    2    0    0  0.00000000000E+00  0.00000000000E+00 -0.63111449546E+03  0.35167478438E+04  0.34596545912E+04 0.  0.
        3    1    3    3  502    0  0.74799952730E+03  0.15168086493E+04 -0.68499782527E+03  0.18246736153E+04  0.10100000352E+00 0. -1.
       -3    1    3    3    0  502 -0.74799952730E+03 -0.15168086493E+04  0.53883329805E+02  0.16920742285E+04  0.10100000352E+00 0.  1.
</event>
<event>
 5   0  0.2907071E-07  0.3806504E+04  0.7818609E-02  0.8044761E-01
        1   -1    0    0  501    0  0.00000000000E+00  0.00000000000E+00  0.24333895986E+04  0.24333895986E+04  0.50400001928E-02 0.  1.
       -1   -1    0    0    0  501  0.00000000000E+00  0.00000000000E+00 -0.14886098796E+04  0.14886098796E+04  0.50400001928E-02 0. -1.
    10030    2    1    2    0    0  0.00000000000E+00  0.00000000000E+00  0.94477971903E+03  0.39219994782E+04  0.38065038014E+04 0.  0.
        2    1    3    3  502    0 -0.90078886731E+03 -0.40221388322E+03 -0.12046225517E+04  0.15570202579E+04  0.25500000920E-02 0. -1.
       -2    1    3    3    0  502  0.90078886731E+03  0.40221388322E+03  0.21494022707E+04  0.23649792204E+04  0.25500000920E-02 0.  1.
</event>
<event>
 5   0  0.2907071E-07  0.4374340E+04  0.7818609E-02  0.7933013E-01
       -1   -1    0    0    0  501  0.00000000000E+00  0.00000000000E+00  0.20386254723E+04  0.20386254723E+04  0.50400001928E-02 0. -1.
        1   -1    0    0  501    0  0.00000000000E+00  0.00000000000E+00 -0.23465377017E+04  0.23465377017E+04  0.50400001928E-02 0.  1.
    10030    2    1    2    0    0  0.00000000000E+00  0.00000000000E+00 -0.30791222936E+03  0.43851631740E+04  0.43743395069E+04 0.  0.
        2    1    3    3  502    0 -0.37385715956E+03  0.21493792557E+04  0.17058155992E+01  0.21816515007E+04  0.25500000920E-02 0. -1.
       -2    1    3    3    0  502  0.37385715956E+03 -0.21493792557E+04 -0.30961804496E+03  0.22035116733E+04  0.25500000920E-02 0.  1.
</event>
<event>
 5   0  0.2529875E-07  0.3835533E+04  0.7818609E-02  0.8038572E-01
       -1   -1    0    0    0  501  0.00000000000E+00  0.00000000000E+00  0.11551969013E+04  0.11551969013E+04  0.50400001928E-02 0.  1.
        1   -1    0    0  501    0  0.00000000000E+00  0.00000000000E+00 -0.31837239160E+04  0.31837239160E+04  0.50400001928E-02 0. -1.
    10030    2    1    2    0    0  0.00000000000E+00  0.00000000000E+00 -0.20285270146E+04  0.43389208173E+04  0.38355328195E+04 0.  0.
        1    1    3    3  502    0  0.75236672774E+03  0.48017178912E+03 -0.29344494204E+04  0.30671834052E+04  0.50400001928E-02 0. -1.
       -1    1    3    3    0  502 -0.75236672774E+03 -0.48017178912E+03  0.90592240578E+03  0.12717374121E+04  0.50400001928E-02 0.  1.
</event>
<event>
 5   0  0.2529875E-07  0.3230794E+04  0.7818609E-02  0.8180732E-01
        1   -1    0    0  501    0  0.00000000000E+00  0.00000000000E+00  0.25324918271E+04  0.25324918271E+04  0.50400001928E-02 0.  1.
       -1   -1    0    0    0  501  0.00000000000E+00  0.00000000000E+00 -0.10304110395E+04  0.10304110395E+04  0.50400001928E-02 0. -1.
    10030    2    1    2    0    0  0.00000000000E+00  0.00000000000E+00  0.15020807876E+04  0.35629028667E+04  0.32307940424E+04 0.  0.
        5    1    3    3  502    0  0.16633396967E+03  0.10471103946E+04  0.20950836420E+04  0.23480853317E+04  0.46999998093E+01 0.  1.
       -5    1    3    3    0  502 -0.16633396967E+03 -0.10471103946E+04 -0.59300285441E+03  0.12148175350E+04  0.46999998093E+01 0. -1.
</event>
<event>
 5   0  0.2907071E-07  0.3739201E+04  0.7818609E-02  0.8059330E-01
        1   -1    0    0  501    0  0.00000000000E+00  0.00000000000E+00  0.21790717698E+04  0.21790717698E+04  0.50400001928E-02 0.  1.
       -1   -1    0    0    0  501  0.00000000000E+00  0.00000000000E+00 -0.16040800818E+04  0.16040800818E+04  0.50400001928E-02 0. -1.
    10030    2    1    2    0    0  0.00000000000E+00  0.00000000000E+00  0.57499168807E+03  0.37831518516E+04  0.37392007824E+04 0.  0.
        2    1    3    3  502    0  0.12824858138E+04  0.33931405549E+03 -0.10453732982E+04  0.16889965137E+04  0.25500000920E-02 0. -1.
       -2    1    3    3    0  502 -0.12824858138E+04 -0.33931405549E+03  0.16203649862E+04  0.20941553379E+04  0.25500000920E-02 0.  1.
</event>
<event>
 5   0  0.7649458E-07  0.3820235E+04  0.7818609E-02  0.8041826E-01
        2   -1    0    0  501    0  0.00000000000E+00  0.00000000000E+00  0.18654550566E+04  0.18654550566E+04  0.25500000920E-02 0.  1.
       -2   -1    0    0    0  501  0.00000000000E+00  0.00000000000E+00 -0.19558495374E+04  0.19558495374E+04  0.25500000920E-02 0. -1.
    10030    2    1    2    0    0  0.00000000000E+00  0.00000000000E+00 -0.90394480810E+02  0.38213045940E+04  0.38202352857E+04 0.  0.
        4    1    3    3  502    0  0.16254586945E+04 -0.99882002770E+03  0.48586035373E+02  0.19084338163E+04  0.12699999809E+01 0. -1.
       -4    1    3    3    0  502 -0.16254586945E+04  0.99882002770E+03 -0.13898051618E+03  0.19128707777E+04  0.12699999809E+01 0.  1.
</event>
<event>
 5   0  0.7649458E-07  0.3519353E+04  0.7818609E-02  0.8109219E-01
       -2   -1    0    0    0  501  0.00000000000E+00  0.00000000000E+00  0.16913002006E+04  0.16913002006E+04  0.25500000920E-02 0.  1.
        2   -1    0    0  501    0  0.00000000000E+00  0.00000000000E+00 -0.18308169404E+04  0.18308169404E+04  0.25500000920E-02 0. -1.
    10030    2    1    2    0    0  0.00000000000E+00  0.00000000000E+00 -0.13951673981E+03  0.35221171409E+04  0.35193528146E+04 0.  0.
        4    1    3    3  502    0  0.71455726003E+03  0.74065203836E+03 -0.14982203536E+04  0.18176422532E+04  0.12699999809E+01 0. -1.
       -4    1    3    3    0  502 -0.71455726003E+03 -0.74065203836E+03  0.13587036138E+04  0.17044748877E+04  0.12699999809E+01 0.  1.
</event>
<event>
 5   0  0.7551495E-07  0.3919933E+04  0.7818609E-02  0.8020896E-01
        2   -1    0    0  501    0  0.00000000000E+00  0.00000000000E+00  0.22933237009E+04  0.22933237009E+04  0.25500000920E-02 0. -1.
       -2   -1    0    0    0  501  0.00000000000E+00  0.00000000000E+00 -0.16750659978E+04  0.16750659978E+04  0.25500000920E-02 0.  1.
    10030    2    1    2    0    0  0.00000000000E+00  0.00000000000E+00  0.61825770312E+03  0.39683896987E+04  0.39199329348E+04 0.  0.
        1    1    3    3  502    0 -0.24285599538E+03  0.53279782410E+03 -0.15844518358E+04  0.16891832867E+04  0.50400001928E-02 0.  1.
       -1    1    3    3    0  502  0.24285599538E+03 -0.53279782410E+03  0.22027095389E+04  0.22792064121E+04  0.50400001928E-02 0. -1.
</event>
<event>
 5   0  0.2529875E-07  0.3623560E+04  0.7818609E-02  0.8085116E-01
        1   -1    0    0  501    0  0.00000000000E+00  0.00000000000E+00  0.22634465096E+04  0.22634465096E+04  0.50400001928E-02 0. -1.
       -1   -1    0    0    0  501  0.00000000000E+00  0.00000000000E+00 -0.14502429833E+04  0.14502429834E+04  0.50400001928E-02 0.  1.
    10030    2    1    2    0    0  0.00000000000E+00  0.00000000000E+00  0.81320352629E+03  0.37136894930E+04  0.36235603590E+04 0.  0.
        4    1    3    3  502    0 -0.81096534155E+03 -0.98296589886E+03  0.17265249313E+04  0.21458743428E+04  0.12699999809E+01 0. -1.
       -4    1    3    3    0  502  0.81096534155E+03  0.98296589886E+03 -0.91332140504E+03  0.15678151502E+04  0.12699999809E+01 0.  1.
</event>
<event>
 5   0  0.2529875E-07  0.3818785E+04  0.7818609E-02  0.8042136E-01
       -1   -1    0    0    0  501  0.00000000000E+00  0.00000000000E+00  0.17475202105E+04  0.17475202105E+04  0.50400001928E-02 0. -1.
        1   -1    0    0  501    0  0.00000000000E+00  0.00000000000E+00 -0.20862585530E+04  0.20862585530E+04  0.50400001928E-02 0.  1.
    10030    2    1    2    0    0  0.00000000000E+00  0.00000000000E+00 -0.33873834249E+03  0.38337787634E+04  0.38187846158E+04 0.  0.
        4    1    3    3  502    0 -0.29486995235E+03 -0.18332744166E+04 -0.61601376395E+03  0.19563532262E+04  0.12699999809E+01 0.  1.
       -4    1    3    3    0  502  0.29486995235E+03  0.18332744166E+04  0.27727542146E+03  0.18774255372E+04  0.12699999809E+01 0. -1.
</event>
<event>
 5   0  0.7638805E-07  0.3763985E+04  0.7818609E-02  0.8053928E-01
       -2   -1    0    0    0  501  0.00000000000E+00  0.00000000000E+00  0.19411824891E+04  0.19411824891E+04  0.25500000920E-02 0. -1.
        2   -1    0    0  501    0  0.00000000000E+00  0.00000000000E+00 -0.18246075756E+04  0.18246075756E+04  0.25500000920E-02 0.  1.
    10030    2    1    2    0    0  0.00000000000E+00  0.00000000000E+00  0.11657491350E+03  0.37657900647E+04  0.37639852684E+04 0.  0.
        5    1    3    3  502    0  0.63228377616E+03 -0.94037783235E+03 -0.14450244315E+04  0.18363580639E+04  0.46999998093E+01 0.  1.
       -5    1    3    3    0  502 -0.63228377616E+03  0.94037783235E+03  0.15615993450E+04  0.19294320008E+04  0.46999998093E+01 0. -1.
</event>
<event>
 5   0  0.2529875E-07  0.3598034E+04  0.7818609E-02  0.8090942E-01
       -1   -1    0    0    0  501  0.00000000000E+00  0.00000000000E+00  0.98389044561E+03  0.98389044562E+03  0.50400001928E-02 0.  1.
        1   -1    0    0  501    0  0.00000000000E+00  0.00000000000E+00 -0.32894536431E+04  0.32894536431E+04  0.50400001928E-02 0. -1.
    10030    2    1    2    0    0  0.00000000000E+00  0.00000000000E+00 -0.23055631975E+04  0.42733440887E+04  0.35980339135E+04 0.  0.
        5    1    3    3  502    0 -0.56443552064E+03  0.96472940920E+03 -0.28270223026E+04  0.30399617562E+04  0.46999998093E+01 0. -1.
       -5    1    3    3    0  502  0.56443552064E+03 -0.96472940920E+03  0.52145910507E+03  0.12333823325E+04  0.46999998093E+01 0.  1.
</event>
<event>
 5   0  0.2529875E-07  0.3851625E+04  0.7818609E-02  0.8035166E-01
        3   -1    0    0  501    0  0.00000000000E+00  0.00000000000E+00  0.20655724546E+04  0.20655724570E+04  0.10100000352E+00 0. -1.
       -3   -1    0    0    0  501  0.00000000000E+00  0.00000000000E+00 -0.17955085181E+04  0.17955085209E+04  0.10100000352E+00 0.  1.
    10030    2    1    2    0    0  0.00000000000E+00  0.00000000000E+00  0.27006393649E+03  0.38610809780E+04  0.38516245649E+04 0.  0.
        4    1    3    3  502    0 -0.20006603367E+03  0.49879156443E+03 -0.17188141879E+04  0.18008729183E+04  0.12699999809E+01 0.  1.
       -4    1    3    3    0  502  0.20006603367E+03 -0.49879156443E+03  0.19888781244E+04  0.20602080597E+04  0.12699999809E+01 0. -1.
</event>
<event>
 5   0  0.8038352E-07  0.3768346E+04  0.7818609E-02  0.8052982E-01
        2   -1    0    0  501    0  0.00000000000E+00  0.00000000000E+00  0.27609950364E+04  0.27609950364E+04  0.25500000920E-02 0. -1.
       -2   -1    0    0    0  501  0.00000000000E+00  0.00000000000E+00 -0.12858074284E+04  0.12858074284E+04  0.25500000920E-02 0.  1.
    10030    2    1    2    0    0  0.00000000000E+00  0.00000000000E+00  0.14751876080E+04  0.40468024648E+04  0.37683460179E+04 0.  0.
        2    1    3    3  502    0  0.84604903084E+03 -0.16823561554E+04  0.66978755496E+03  0.19986837081E+04  0.25500000920E-02 0.  1.
       -2    1    3    3    0  502 -0.84604903084E+03  0.16823561554E+04  0.80540005304E+03  0.20481187567E+04  0.25500000920E-02 0. -1.
</event>
<event>
 5   0  0.2529875E-07  0.3103428E+04  0.7818609E-02  0.8214798E-01
       -1   -1    0    0    0  501  0.00000000000E+00  0.00000000000E+00  0.75595577718E+03  0.75595577719E+03  0.50400001928E-02 0.  1.
        1   -1    0    0  501    0  0.00000000000E+00  0.00000000000E+00 -0.31851286183E+04  0.31851286183E+04  0.50400001928E-02 0. -1.
    10030    2    1    2    0    0  0.00000000000E+00  0.00000000000E+00 -0.24291728412E+04  0.39410843955E+04  0.31034280273E+04 0.  0.
        3    1    3    3  502    0 -0.14991705468E+04 -0.20422875816E+03 -0.77725909266E+03  0.17009860145E+04  0.10100000352E+00 0. -1.
       -3    1    3    3    0  502  0.14991705468E+04  0.20422875816E+03 -0.16519137485E+04  0.22400983810E+04  0.10100000352E+00 0.  1.
</event>
<event>
 5   0  0.8421677E-07  0.3788361E+04  0.7818609E-02  0.8048657E-01
        2   -1    0    0  501    0  0.00000000000E+00  0.00000000000E+00  0.19565381293E+04  0.19565381293E+04  0.25500000920E-02 0. -1.
       -2   -1    0    0    0  501  0.00000000000E+00  0.00000000000E+00 -0.18338102531E+04  0.18338102531E+04  0.25500000920E-02 0.  1.
    10030    2    1    2    0    0  0.00000000000E+00  0.00000000000E+00  0.12272787616E+03  0.37903483824E+04  0.37883609554E+04 0.  0.
        3    1    3    3  502    0 -0.74627377140E+03 -0.62621586397E+03  0.16866695407E+04  0.19478000410E+04  0.10100000352E+00 0. -1.
       -3    1    3    3    0  502  0.74627377140E+03  0.62621586397E+03 -0.15639416645E+04  0.18425483414E+04  0.10100000352E+00 0.  1.
</event>
<event>
 5   0  0.7649458E-07  0.3827096E+04  0.7818609E-02  0.8040365E-01
       -2   -1    0    0    0  501  0.00000000000E+00  0.00000000000E+00  0.21781796587E+04  0.21781796587E+04  0.25500000920E-02 0. -1.
        2   -1    0    0  501    0  0.00000000000E+00  0.00000000000E+00 -0.16810666589E+04  0.16810666589E+04  0.25500000920E-02 0.  1.
    10030    2    1    2    0    0  0.00000000000E+00  0.00000000000E+00  0.49711299974E+03  0.38592463176E+04  0.38270956096E+04 0.  0.
        4    1    3    3  502    0  0.10055208915E+04 -0.16199019148E+04  0.84372521993E+02  0.19084744725E+04  0.12699999809E+01 0. -1.
       -4    1    3    3    0  502 -0.10055208915E+04  0.16199019148E+04  0.41274047775E+03  0.19507718451E+04  0.12699999809E+01 0.  1.
</event>
<event>
 5   0  0.7649458E-07  0.3069512E+04  0.7818609E-02  0.8224155E-01
        2   -1    0    0  501    0  0.00000000000E+00  0.00000000000E+00  0.18797272758E+04  0.18797272758E+04  0.25500000920E-02 0. -1.
       -2   -1    0    0    0  501  0.00000000000E+00  0.00000000000E+00 -0.12530943466E+04  0.12530943466E+04  0.25500000920E-02 0.  1.
    10030    2    1    2    0    0  0.00000000000E+00  0.00000000000E+00  0.62663292914E+03  0.31328216224E+04  0.30695117673E+04 0.  0.
        4    1    3    3  502    0 -0.75700904157E+03  0.13124380683E+03 -0.10426896545E+04  0.12951798926E+04  0.12699999809E+01 0.  1.
       -4    1    3    3    0  502  0.75700904157E+03 -0.13124380683E+03  0.16693225836E+04  0.18376417297E+04  0.12699999809E+01 0. -1.
</event>
<event>
 5   0  0.2907071E-07  0.3800705E+04  0.7818609E-02  0.8046004E-01
       -1   -1    0    0    0  501  0.00000000000E+00  0.00000000000E+00  0.13887849004E+04  0.13887849004E+04  0.50400001928E-02 0.  1.
        1   -1    0    0  501    0  0.00000000000E+00  0.00000000000E+00 -0.26003597208E+04  0.26003597208E+04  0.50400001928E-02 0. -1.
    10030    2    1    2    0    0  0.00000000000E+00  0.00000000000E+00 -0.12115748204E+04  0.39891446213E+04  0.38007053640E+04 0.  0.
        2    1    3    3  502    0 -0.18673788526E+04  0.34089020606E+03 -0.51173189114E+03  0.19660059613E+04  0.25500000920E-02 0. -1.
       -2    1    3    3    0  502  0.18673788526E+04 -0.34089020606E+03 -0.69984292923E+03  0.20231386599E+04  0.25500000920E-02 0.  1.
</event>
<event>
 5   0  0.7551495E-07  0.3810374E+04  0.7818609E-02  0.8043932E-01
       -2   -1    0    0    0  501  0.00000000000E+00  0.00000000000E+00  0.11179444199E+04  0.11179444199E+04  0.25500000920E-02 0. -1.
        2   -1    0    0  501    0  0.00000000000E+00  0.00000000000E+00 -0.32467961758E+04  0.32467961758E+04  0.25500000920E-02 0.  1.
    10030    2    1    2    0    0  0.00000000000E+00  0.00000000000E+00 -0.21288517559E+04  0.43647405957E+04  0.38103740852E+04 0.  0.
        1    1    3    3  502    0  0.30605697644E+03 -0.18643476725E+04 -0.78319836050E+03  0.20452048281E+04  0.50400001928E-02 0. -1.
       -1    1    3    3    0  502 -0.30605697644E+03  0.18643476725E+04 -0.13456533954E+04  0.23195357676E+04  0.50400001928E-02 0.  1.
</event>
<event>
 5   0  0.2529875E-07  0.3808693E+04  0.7818609E-02  0.8044292E-01
       -1   -1    0    0    0  501  0.00000000000E+00  0.00000000000E+00  0.21767745731E+04  0.21767745731E+04  0.50400001928E-02 0. -1.
        1   -1    0    0  501    0  0.00000000000E+00  0.00000000000E+00 -0.16660134817E+04  0.16660134817E+04  0.50400001928E-02 0.  1.
    10030    2    1    2    0    0  0.00000000000E+00  0.00000000000E+00  0.51076109145E+03  0.38427880548E+04  0.38086931015E+04 0.  0.
        1    1    3    3  502    0  0.29723226535E+03  0.12289267123E+04  0.16921818317E+04  0.21123653177E+04  0.50400001928E-02 0.  1.
       -1    1    3    3    0  502 -0.29723226535E+03 -0.12289267123E+04 -0.11814207402E+04  0.17304227372E+04  0.50400001928E-02 0. -1.
</event>
<event>
 5   0  0.2529875E-07  0.2746377E+04  0.7818609E-02  0.8320112E-01
        1   -1    0    0  501    0  0.00000000000E+00  0.00000000000E+00  0.21361497883E+04  0.21361497883E+04  0.50400001928E-02 0. -1.
       -1   -1    0    0    0  501  0.00000000000E+00  0.00000000000E+00 -0.88273177869E+03  0.88273177870E+03  0.50400001928E-02 0.  1.
    10030    2    1    2    0    0  0.00000000000E+00  0.00000000000E+00  0.12534180096E+04  0.30188815670E+04  0.27463774702E+04 0.  0.
        5    1    3    3  502    0 -0.13452027540E+03 -0.13416289404E+04  0.34099282954E+03  0.13908134734E+04  0.46999998093E+01 0. -1.
       -5    1    3    3    0  502  0.13452027540E+03  0.13416289404E+04  0.91242518008E+03  0.16280680936E+04  0.46999998093E+01 0.  1.
</event>
<event>
 5   0  0.7551495E-07  0.3591053E+04  0.7818609E-02  0.8092544E-01
       -2   -1    0    0    0  501  0.00000000000E+00  0.00000000000E+00  0.14430667224E+04  0.14430667224E+04  0.25500000920E-02 0.  1.
        2   -1    0    0  501    0  0.00000000000E+00  0.00000000000E+00 -0.22340717927E+04  0.22340717927E+04  0.25500000920E-02 0. -1.
    10030    2    1    2    0    0  0.00000000000E+00  0.00000000000E+00 -0.79100507028E+03  0.36771385151E+04  0.35910525807E+04 0.  0.
        1    1    3    3  502    0 -0.40956924840E+03 -0.60843948165E+03  0.12826781974E+04  0.14775685873E+04  0.50400001928E-02 0.  1.
       -1    1    3    3    0  502  0.40956924840E+03  0.60843948165E+03 -0.20736832677E+04  0.21995699277E+04  0.50400001928E-02 0. -1.
</event>
<event>
 5   0  0.2529875E-07  0.3797251E+04  0.7818609E-02  0.8046745E-01
       -1   -1    0    0    0  501  0.00000000000E+00  0.00000000000E+00  0.10984460254E+04  0.10984460254E+04  0.50400001928E-02 0. -1.
        1   -1    0    0  501    0  0.00000000000E+00  0.00000000000E+00 -0.32817076191E+04  0.32817076191E+04  0.50400001928E-02 0.  1.
    10030    2    1    2    0    0  0.00000000000E+00  0.00000000000E+00 -0.21832615938E+04  0.43801536445E+04  0.37972509481E+04 0.  0.
        5    1    3    3  502    0 -0.73408126600E+03  0.81681663751E+03 -0.28781483088E+04  0.30805558755E+04  0.46999998093E+01 0.  1.
       -5    1    3    3    0  502  0.73408126600E+03 -0.81681663751E+03  0.69488671507E+03  0.12995977690E+04  0.46999998093E+01 0. -1.
</event>
<event>
 5   0  0.2529875E-07  0.3828597E+04  0.7818609E-02  0.8040046E-01
       -1   -1    0    0    0  501  0.00000000000E+00  0.00000000000E+00  0.12580794712E+04  0.12580794712E+04  0.50400001928E-02 0. -1.
        1   -1    0    0  501    0  0.00000000000E+00  0.00000000000E+00 -0.29128044706E+04  0.29128044706E+04  0.50400001928E-02 0.  1.
    10030    2    1    2    0    0  0.00000000000E+00  0.00000000000E+00 -0.16547249994E+04  0.41708839418E+04  0.38285973975E+04 0.  0.
        3    1    3    3  502    0 -0.17907305274E+04 -0.58406941567E+03 -0.45522889761E+03  0.19378044957E+04  0.10100000352E+00 0. -1.
       -3    1    3    3    0  502  0.17907305274E+04  0.58406941567E+03 -0.11994961018E+04  0.22330794461E+04  0.10100000352E+00 0.  1.
</event>
<event>
 5   0  0.2529875E-07  0.2803642E+04  0.7818609E-02  0.8302138E-01
        1   -1    0    0  501    0  0.00000000000E+00  0.00000000000E+00  0.22693764914E+04  0.22693764914E+04  0.50400001928E-02 0. -1.
       -1   -1    0    0    0  501  0.00000000000E+00  0.00000000000E+00 -0.86592177551E+03  0.86592177553E+03  0.50400001928E-02 0.  1.
    10030    2    1    2    0    0  0.00000000000E+00  0.00000000000E+00  0.14034547159E+04  0.31352982669E+04  0.28036422887E+04 0.  0.
        4    1    3    3  502    0  0.14888952416E+03  0.28590689679E+03 -0.82391108334E+03  0.88472703711E+03  0.12699999809E+01 0.  1.
       -4    1    3    3    0  502 -0.14888952416E+03 -0.28590689679E+03  0.22273657992E+04  0.22505712298E+04  0.12699999809E+01 0. -1.
</event>
<event>
 5   0  0.7638805E-07  0.3803564E+04  0.7818609E-02  0.8045390E-01
        2   -1    0    0  501    0  0.00000000000E+00  0.00000000000E+00  0.25164772969E+04  0.25164772969E+04  0.25500000920E-02 0.  1.
       -2   -1    0    0    0  501  0.00000000000E+00  0.00000000000E+00 -0.14372375208E+04  0.14372375208E+04  0.25500000920E-02 0. -1.
    10030    2    1    2    0    0  0.00000000000E+00  0.00000000000E+00  0.10792397761E+04  0.39537148177E+04  0.38035644290E+04 0.  0.
        5    1    3    3  502    0 -0.13206755800E+04  0.84416870530E+03  0.16591453009E+04  0.22824526305E+04  0.46999998093E+01 0.  1.
       -5    1    3    3    0  502  0.13206755800E+04 -0.84416870530E+03 -0.57990552481E+03  0.16712621872E+04  0.46999998093E+01 0. -1.
</event>
<event>
 5   0  0.7551495E-07  0.3783041E+04  0.7818609E-02  0.8049804E-01
       -2   -1    0    0    0  501  0.00000000000E+00  0.00000000000E+00  0.12048859128E+04  0.12048859128E+04  0.25500000920E-02 0.  1.
        2   -1    0    0  501    0  0.00000000000E+00  0.00000000000E+00 -0.29694503939E+04  0.29694503939E+04  0.25500000920E-02 0. -1.
    10030    2    1    2    0    0  0.00000000000E+00  0.00000000000E+00 -0.17645644811E+04  0.41743363067E+04  0.37830405488E+04 0.  0.
        1    1    3    3  502    0  0.17691969934E+04  0.33509899716E+03 -0.24314746522E+03  0.18169947796E+04  0.50400001928E-02 0.  1.
       -1    1    3    3    0  502 -0.17691969934E+04 -0.33509899716E+03 -0.15214170159E+04  0.23573415271E+04  0.50400001928E-02 0. -1.
</event>
<event>
 5   0  0.2907071E-07  0.2438121E+04  0.7818609E-02  0.8425368E-01
        1   -1    0    0  501    0  0.00000000000E+00  0.00000000000E+00  0.97488647916E+03  0.97488647917E+03  0.50400001928E-02 0.  1.
       -1   -1    0    0    0  501  0.00000000000E+00  0.00000000000E+00 -0.15243916382E+04  0.15243916382E+04  0.50400001928E-02 0. -1.
    10030    2    1    2    0    0  0.00000000000E+00  0.00000000000E+00 -0.54950515903E+03  0.24992781174E+04  0.24381212415E+04 0.  0.
        2    1    3    3  502    0 -0.48816183794E+03 -0.82964777456E+03 -0.10415064752E+04  0.14182218260E+04  0.25500000920E-02 0. -1.
       -2    1    3    3    0  502  0.48816183794E+03  0.82964777456E+03  0.49200131622E+03  0.10810562913E+04  0.25500000920E-02 0.  1.
</event>
<event>
 5   0  0.2529875E-07  0.3486165E+04  0.7818609E-02  0.8117076E-01
       -1   -1    0    0    0  501  0.00000000000E+00  0.00000000000E+00  0.15530454117E+04  0.15530454117E+04  0.50400001928E-02 0. -1.
        1   -1    0    0  501    0  0.00000000000E+00  0.00000000000E+00 -0.19563734369E+04  0.19563734369E+04  0.50400001928E-02 0.  1.
    10030    2    1    2    0    0  0.00000000000E+00  0.00000000000E+00 -0.40332802518E+03  0.35094188486E+04  0.34861651078E+04 0.  0.
        5    1    3    3  502    0  0.15968966217E+04 -0.69078292369E+03 -0.30750730020E+03  0.17668737073E+04  0.46999998093E+01 0. -1.
       -5    1    3    3    0  502 -0.15968966217E+04  0.69078292369E+03 -0.95820724981E+02  0.17425451412E+04  0.46999998093E+01 0.  1.
</event>
<event>
 5   0  0.8421677E-07  0.3803819E+04  0.7818609E-02  0.8045336E-01
       -2   -1    0    0    0  501  0.00000000000E+00  0.00000000000E+00  0.33179596946E+04  0.33179596946E+04  0.25500000920E-02 0. -1.
        2   -1    0    0  501    0  0.00000000000E+00  0.00000000000E+00 -0.10902060113E+04  0.10902060113E+04  0.25500000920E-02 0.  1.
    10030    2    1    2    0    0  0.00000000000E+00  0.00000000000E+00  0.22277536833E+04  0.44081657058E+04  0.38038189253E+04 0.  0.
        3    1    3    3  502    0 -0.18218602499E+04  0.48723706713E+03  0.13993585385E+04  0.23483566720E+04  0.10100000352E+00 0. -1.
       -3    1    3    3    0  502  0.18218602499E+04 -0.48723706713E+03  0.82839514487E+03  0.20598090338E+04  0.10100000352E+00 0.  1.
</event>
<event>
 5   0  0.7551495E-07  0.3810696E+04  0.7818609E-02  0.8043863E-01
       -2   -1    0    0    0  501  0.00000000000E+00  0.00000000000E+00  0.20382117914E+04  0.20382117914E+04  0.25500000920E-02 0.  1.
        2   -1    0    0  501    0  0.00000000000E+00  0.00000000000E+00 -0.17811452925E+04  0.17811452925E+04  0.25500000920E-02 0. -1.
    10030    2    1    2    0    0  0.00000000000E+00  0.00000000000E+00  0.25706649882E+03  0.38193570839E+04  0.38106961765E+04 0.  0.
        1    1    3    3  502    0 -0.47932408868E+03  0.52784986659E+03 -0.16423935070E+04  0.17904841511E+04  0.50400001928E-02 0. -1.
       -1    1    3    3    0  502  0.47932408868E+03 -0.52784986659E+03  0.18994600058E+04  0.20288729328E+04  0.50400001928E-02 0.  1.
</event>
<event>
 5   0  0.2529875E-07  0.3823005E+04  0.7818609E-02  0.8041236E-01
        3   -1    0    0  501    0  0.00000000000E+00  0.00000000000E+00  0.17277826805E+04  0.17277826834E+04  0.10100000352E+00 0. -1.
       -3   -1    0    0    0  501  0.00000000000E+00  0.00000000000E+00 -0.21147576360E+04  0.21147576384E+04  0.10100000352E+00 0.  1.
    10030    2    1    2    0    0  0.00000000000E+00  0.00000000000E+00 -0.38697495551E+03  0.38425403218E+04  0.38230049056E+04 0.  0.
        3    1    3    3  502    0  0.19054325054E+04  0.11312653752E+03 -0.91129125048E+02  0.19109618451E+04  0.10100000352E+00 0. -1.
       -3    1    3    3    0  502 -0.19054325054E+04 -0.11312653752E+03 -0.29584583046E+03  0.19315784767E+04  0.10100000352E+00 0.  1.
</event>
<event>
 5   0  0.2907071E-07  0.3355614E+04  0.7818609E-02  0.8148887E-01
       -1   -1    0    0    0  501  0.00000000000E+00  0.00000000000E+00  0.22783612927E+04  0.22783612927E+04  0.50400001928E-02 0.  1.
        1   -1    0    0  501    0  0.00000000000E+00  0.00000000000E+00 -0.12355533470E+04  0.12355533470E+04  0.50400001928E-02 0. -1.
    10030    2    1    2    0    0  0.00000000000E+00  0.00000000000E+00  0.10428079457E+04  0.35139146397E+04  0.33556143526E+04 0.  0.
        2    1    3    3  502    0 -0.12370379125E+04  0.11334787172E+04  0.52176900981E+03  0.17570656501E+04  0.25500000920E-02 0.  1.
       -2    1    3    3    0  502  0.12370379125E+04 -0.11334787172E+04  0.52103893585E+03  0.17568489895E+04  0.25500000920E-02 0. -1.
</event>
<event>
 5   0  0.2529875E-07  0.3790425E+04  0.7818609E-02  0.8048213E-01
        1   -1    0    0  501    0  0.00000000000E+00  0.00000000000E+00  0.23345142250E+04  0.23345142250E+04  0.50400001928E-02 0.  1.
       -1   -1    0    0    0  501  0.00000000000E+00  0.00000000000E+00 -0.15385770613E+04  0.15385770613E+04  0.50400001928E-02 0. -1.
    10030    2    1    2    0    0  0.00000000000E+00  0.00000000000E+00  0.79593716370E+03  0.38730912862E+04  0.37904247972E+04 0.  0.
        5    1    3    3  502    0 -0.65597834016E+03  0.12832032828E+04 -0.85968303842E+03  0.16780927461E+04  0.46999998093E+01 0. -1.
       -5    1    3    3    0  502  0.65597834016E+03 -0.12832032828E+04  0.16556202021E+04  0.21949985402E+04  0.46999998093E+01 0.  1.
</event>
<event>
 5   0  0.2907071E-07  0.3790584E+04  0.7818609E-02  0.8048179E-01
       -1   -1    0    0    0  501  0.00000000000E+00  0.00000000000E+00  0.16372116893E+04  0.16372116893E+04  0.50400001928E-02 0.  1.
        1   -1    0    0  501    0  0.00000000000E+00  0.00000000000E+00 -0.21940547872E+04  0.21940547872E+04  0.50400001928E-02 0. -1.
    10030    2    1    2    0    0  0.00000000000E+00  0.00000000000E+00 -0.55684309791E+03  0.38312664766E+04  0.37905842002E+04 0.  0.
        2    1    3    3  502    0  0.17020585679E+03  0.13237991514E+04 -0.16384926447E+04  0.21133083953E+04  0.25500000920E-02 0. -1.
       -2    1    3    3    0  502 -0.17020585679E+03 -0.13237991514E+04  0.10816495468E+04  0.17179580813E+04  0.25500000920E-02 0.  1.
</event>
<event>
 5   0  0.2529875E-07  0.3771945E+04  0.7818609E-02  0.8052202E-01
        1   -1    0    0  501    0  0.00000000000E+00  0.00000000000E+00  0.20695806551E+04  0.20695806551E+04  0.50400001928E-02 0. -1.
       -1   -1    0    0    0  501  0.00000000000E+00  0.00000000000E+00 -0.17186533045E+04  0.17186533045E+04  0.50400001928E-02 0.  1.
    10030    2    1    2    0    0  0.00000000000E+00  0.00000000000E+00  0.35092735066E+03  0.37882339596E+04  0.37719446612E+04 0.  0.
        5    1    3    3  502    0 -0.42943365286E+03 -0.16987556805E+04  0.87610483624E+03  0.19590216686E+04  0.46999998093E+01 0. -1.
       -5    1    3    3    0  502  0.42943365286E+03  0.16987556805E+04 -0.52517748558E+03  0.18292122910E+04  0.46999998093E+01 0.  1.
</event>
<event>
 5   0  0.2907071E-07  0.2718680E+04  0.7818609E-02  0.8328969E-01
        1   -1    0    0  501    0  0.00000000000E+00  0.00000000000E+00  0.10765627239E+04  0.10765627239E+04  0.50400001928E-02 0. -1.
       -1   -1    0    0    0  501  0.00000000000E+00  0.00000000000E+00 -0.17163931432E+04  0.17163931432E+04  0.50400001928E-02 0.  1.
    10030    2    1    2    0    0  0.00000000000E+00  0.00000000000E+00 -0.63983041931E+03  0.27929558672E+04  0.27186797366E+04 0.  0.
        2    1    3    3  502    0  0.10662543834E+04  0.81216108307E+03 -0.87230271263E+02  0.13431727942E+04  0.25500000920E-02 0.  1.
       -2    1    3    3    0  502 -0.10662543834E+04 -0.81216108307E+03 -0.55260014805E+03  0.14497830729E+04  0.25500000920E-02 0. -1.
</event>
<event>
 5   0  0.8421677E-07  0.2660037E+04  0.7818609E-02  0.8348089E-01
        2   -1    0    0  501    0  0.00000000000E+00  0.00000000000E+00  0.19860118585E+04  0.19860118585E+04  0.25500000920E-02 0. -1.
       -2   -1    0    0    0  501  0.00000000000E+00  0.00000000000E+00 -0.89070419430E+03  0.89070419431E+03  0.25500000920E-02 0.  1.
    10030    2    1    2    0    0  0.00000000000E+00  0.00000000000E+00  0.10953076642E+04  0.28767160528E+04  0.26600369112E+04 0.  0.
        3    1    3    3  502    0 -0.27250039069E+03 -0.83782613053E+03  0.16251781818E+04  0.18486246835E+04  0.10100000352E+00 0. -1.
       -3    1    3    3    0  502  0.27250039069E+03  0.83782613053E+03 -0.52987051758E+03  0.10280913693E+04  0.10100000352E+00 0.  1.
</event>
<event>
 5   0  0.8038352E-07  0.3796230E+04  0.7818609E-02  0.8046964E-01
       -2   -1    0    0    0  501  0.00000000000E+00  0.00000000000E+00  0.22347196290E+04  0.22347196290E+04  0.25500000920E-02 0. -1.
        2   -1    0    0  501    0  0.00000000000E+00  0.00000000000E+00 -0.16122111316E+04  0.16122111316E+04  0.25500000920E-02 0.  1.
    10030    2    1    2    0    0  0.00000000000E+00  0.00000000000E+00  0.62250849740E+03  0.38469307607E+04  0.37962296358E+04 0.  0.
        2    1    3    3  502    0  0.67579755977E+03 -0.72194480440E+03 -0.13305486722E+04  0.16577896162E+04  0.25500000920E-02 0.  1.
       -2    1    3    3    0  502 -0.67579755977E+03  0.72194480440E+03  0.19530571696E+04  0.21891411444E+04  0.25500000920E-02 0. -1.
</event>
<event>
 5   0  0.7551495E-07  0.3490073E+04  0.7818609E-02  0.8116147E-01
       -2   -1    0    0    0  501  0.00000000000E+00  0.00000000000E+00  0.18945495478E+04  0.18945495478E+04  0.25500000920E-02 0.  1.
        2   -1    0    0  501    0  0.00000000000E+00  0.00000000000E+00 -0.16073227163E+04  0.16073227163E+04  0.25500000920E-02 0. -1.
    10030    2    1    2    0    0  0.00000000000E+00  0.00000000000E+00  0.28722683150E+03  0.35018722640E+04  0.34900730796E+04 0.  0.
        1    1    3    3  502    0 -0.75235100494E+03  0.40723827852E+03  0.16697016503E+04  0.18761073134E+04  0.50400001928E-02 0.  1.
       -1    1    3    3    0  502  0.75235100494E+03 -0.40723827852E+03 -0.13824748188E+04  0.16257649507E+04  0.50400001928E-02 0. -1.
</event>
<event>
 5   0  0.2907071E-07  0.3791515E+04  0.7818609E-02  0.8047978E-01
       -1   -1    0    0    0  501  0.00000000000E+00  0.00000000000E+00  0.30050968905E+04  0.30050968905E+04  0.50400001928E-02 0. -1.
        1   -1    0    0  501    0  0.00000000000E+00  0.00000000000E+00 -0.11959335002E+04  0.11959335002E+04  0.50400001928E-02 0.  1.
    10030    2    1    2    0    0  0.00000000000E+00  0.00000000000E+00  0.18091633903E+04  0.42010303907E+04  0.37915147594E+04 0.  0.
        2    1    3    3  502    0 -0.12731409553E+04 -0.12423813276E+04  0.17843722857E+03  0.17878028694E+04  0.25500000920E-02 0.  1.
       -2    1    3    3    0  502  0.12731409553E+04  0.12423813276E+04  0.16307261617E+04  0.24132275213E+04  0.25500000920E-02 0. -1.
</event>
<event>
 5   0  0.7649458E-07  0.2871901E+04  0.7818609E-02  0.8281287E-01
        2   -1    0    0  501    0  0.00000000000E+00  0.00000000000E+00  0.14414259410E+04  0.14414259410E+04  0.25500000920E-02 0. -1.
       -2   -1    0    0    0  501  0.00000000000E+00  0.00000000000E+00 -0.14304956045E+04  0.14304956046E+04  0.25500000920E-02 0.  1.
    10030    2    1    2    0    0  0.00000000000E+00  0.00000000000E+00  0.10930336468E+02  0.28719215456E+04  0.28719007454E+04 0.  0.
        4    1    3    3  502    0  0.12622779584E+04  0.62122239723E+03  0.29302411318E+03  0.14370552024E+04  0.12699999809E+01 0. -1.
       -4    1    3    3    0  502 -0.12622779584E+04 -0.62122239723E+03 -0.28209377671E+03  0.14348663432E+04  0.12699999809E+01 0.  1.
</event>
<event>
 5   0  0.2529875E-07  0.3733465E+04  0.7818609E-02  0.8060586E-01
        1   -1    0    0  501    0  0.00000000000E+00  0.00000000000E+00  0.19173061614E+04  0.19173061614E+04  0.50400001928E-02 0. -1.
       -1   -1    0    0    0  501  0.00000000000E+00  0.00000000000E+00 -0.18174931422E+04  0.18174931422E+04  0.50400001928E-02 0.  1.
    10030    2    1    2    0    0  0.00000000000E+00  0.00000000000E+00  0.99813019266E+02  0.37347993036E+04  0.37334653071E+04 0.  0.
        1    1    3    3  502    0  0.65847833436E+03 -0.14277751304E+04 -0.95671108263E+03  0.18404976598E+04  0.50400001928E-02 0.  1.
       -1    1    3    3    0  502 -0.65847833436E+03  0.14277751304E+04  0.10565241019E+04  0.18943016438E+04  0.50400001928E-02 0. -1.
</event>
<event>
 5   0  0.2529875E-07  0.3774056E+04  0.7818609E-02  0.8051745E-01
        1   -1    0    0  501    0  0.00000000000E+00  0.00000000000E+00  0.23680850849E+04  0.23680850849E+04  0.50400001928E-02 0. -1.
       -1   -1    0    0    0  501  0.00000000000E+00  0.00000000000E+00 -0.15036938329E+04  0.15036938329E+04  0.50400001928E-02 0.  1.
    10030    2    1    2    0    0  0.00000000000E+00  0.00000000000E+00  0.86439125197E+03  0.38717789178E+04  0.37740561405E+04 0.  0.
        4    1    3    3  502    0  0.97790725131E+03 -0.11744212303E+04 -0.70340176786E+03  0.16823624694E+04  0.12699999809E+01 0. -1.
       -4    1    3    3    0  502 -0.97790725131E+03  0.11744212303E+04  0.15677930198E+04  0.21894164484E+04  0.12699999809E+01 0.  1.
</event>
<event>
 5   0  0.8421677E-07  0.3793027E+04  0.7818609E-02  0.8047653E-01
        2   -1    0    0  501    0  0.00000000000E+00  0.00000000000E+00  0.12158217099E+04  0.12158217099E+04  0.25500000920E-02 0. -1.
       -2   -1    0    0    0  501  0.00000000000E+00  0.00000000000E+00 -0.29582983516E+04  0.29582983516E+04  0.25500000920E-02 0.  1.
    10030    2    1    2    0    0  0.00000000000E+00  0.00000000000E+00 -0.17424766416E+04  0.41741200615E+04  0.37930269497E+04 0.  0.
        3    1    3    3  502    0 -0.12247073925E+04  0.11533347392E+04 -0.18348108573E+04  0.24893011289E+04  0.10100000352E+00 0.  1.
       -3    1    3    3    0  502  0.12247073925E+04 -0.11533347392E+04  0.92334215700E+02  0.16848189326E+04  0.10100000352E+00 0. -1.
</event>
<event>
 5   0  0.2529875E-07  0.3778952E+04  0.7818609E-02  0.8050687E-01
       -1   -1    0    0    0  501  0.00000000000E+00  0.00000000000E+00  0.12266946771E+04  0.12266946771E+04  0.50400001928E-02 0. -1.
        1   -1    0    0  501    0  0.00000000000E+00  0.00000000000E+00 -0.29103578252E+04  0.29103578252E+04  0.50400001928E-02 0.  1.
    10030    2    1    2    0    0  0.00000000000E+00  0.00000000000E+00 -0.16836631481E+04  0.41370525024E+04  0.37789524754E+04 0.  0.
        5    1    3    3  502    0  0.18546061659E+04  0.91698103380E+02 -0.12244124836E+04  0.22242258412E+04  0.46999998093E+01 0.  1.
       -5    1    3    3    0  502 -0.18546061659E+04 -0.91698103380E+02 -0.45925066452E+03  0.19128266611E+04  0.46999998093E+01 0. -1.
</event>
<event>
 5   0  0.8421677E-07  0.3696301E+04  0.7818609E-02  0.8068782E-01
        2   -1    0    0  501    0  0.00000000000E+00  0.00000000000E+00  0.15390021369E+04  0.15390021369E+04  0.25500000920E-02 0. -1.
       -2   -1    0    0    0  501  0.00000000000E+00  0.00000000000E+00 -0.22193998650E+04  0.22193998650E+04  0.25500000920E-02 0.  1.
    10030    2    1    2    0    0  0.00000000000E+00  0.00000000000E+00 -0.68039772811E+03  0.37584020020E+04  0.36963014677E+04 0.  0.
        3    1    3    3  502    0 -0.12570039516E+04  0.12071054027E+04  0.28535982870E+03  0.17659537451E+04  0.10100000352E+00 0. -1.
       -3    1    3    3    0  502  0.12570039516E+04 -0.12071054027E+04 -0.96575755681E+03  0.19924482569E+04  0.10100000352E+00 0.  1.
</event>
<event>
 5   0  0.2529875E-07  0.3881012E+04  0.7818609E-02  0.8028990E-01
        1   -1    0    0  501    0  0.00000000000E+00  0.00000000000E+00  0.14614389833E+04  0.14614389834E+04  0.50400001928E-02 0. -1.
       -1   -1    0    0    0  501  0.00000000000E+00  0.00000000000E+00 -0.25766141747E+04  0.25766141747E+04  0.50400001928E-02 0.  1.
    10030    2    1    2    0    0  0.00000000000E+00  0.00000000000E+00 -0.11151751913E+04  0.40380531580E+04  0.38810124452E+04 0.  0.
        4    1    3    3  502    0  0.99888820609E+03 -0.40258506632E+03 -0.22371265066E+04  0.24828590381E+04  0.12699999809E+01 0.  1.
       -4    1    3    3    0  502 -0.99888820609E+03  0.40258506632E+03  0.11219513153E+04  0.15551941199E+04  0.12699999809E+01 0. -1.
</event>
<event>
 5   0  0.2529875E-07  0.3479794E+04  0.7818609E-02  0.8118595E-01
       -1   -1    0    0    0  501  0.00000000000E+00  0.00000000000E+00  0.17730947007E+04  0.17730947008E+04  0.50400001928E-02 0. -1.
        1   -1    0    0  501    0  0.00000000000E+00  0.00000000000E+00 -0.17073210335E+04  0.17073210335E+04  0.50400001928E-02 0.  1.
    10030    2    1    2    0    0  0.00000000000E+00  0.00000000000E+00  0.65773667236E+02  0.34804157343E+04  0.34797941761E+04 0.  0.
        5    1    3    3  502    0  0.46994228808E+03 -0.99267813240E+03 -0.13167852506E+04  0.17147014652E+04  0.46999998093E+01 0.  1.
       -5    1    3    3    0  502 -0.46994228808E+03  0.99267813240E+03  0.13825589178E+04  0.17657142690E+04  0.46999998093E+01 0. -1.
</event>
<event>
 5   0  0.7638805E-07  0.4082869E+04  0.7818609E-02  0.7988035E-01
       -2   -1    0    0    0  501  0.00000000000E+00  0.00000000000E+00  0.24846437634E+04  0.24846437634E+04  0.25500000920E-02 0. -1.
        2   -1    0    0  501    0  0.00000000000E+00  0.00000000000E+00 -0.16772847567E+04  0.16772847567E+04  0.25500000920E-02 0.  1.
    10030    2    1    2    0    0  0.00000000000E+00  0.00000000000E+00  0.80735900667E+03  0.41619285202E+04  0.40828691433E+04 0.  0.
        5    1    3    3  502    0  0.12792586222E+03 -0.87041023994E+03  0.22814829848E+04  0.24452332633E+04  0.46999998093E+01 0. -1.
       -5    1    3    3    0  502 -0.12792586222E+03  0.87041023994E+03 -0.14741239781E+04  0.17166952569E+04  0.46999998093E+01 0.  1.
</event>
<event>
 5   0  0.2529875E-07  0.2918777E+04  0.7818609E-02  0.8267313E-01
       -1   -1    0    0    0  501  0.00000000000E+00  0.00000000000E+00  0.18860625850E+04  0.18860625850E+04  0.50400001928E-02 0.  1.
        1   -1    0    0  501    0  0.00000000000E+00  0.00000000000E+00 -0.11292384904E+04  0.11292384905E+04  0.50400001928E-02 0. -1.
    10030    2    1    2    0    0  0.00000000000E+00  0.00000000000E+00  0.75682409450E+03  0.30153010754E+04  0.29187767755E+04 0.  0.
        1    1    3    3  502    0  0.38741549532E+03  0.12797278284E+04  0.98257737322E+03  0.16592927334E+04  0.50400001928E-02 0.  1.
       -1    1    3    3    0  502 -0.38741549532E+03 -0.12797278284E+04 -0.22575327872E+03  0.13560083420E+04  0.50400001928E-02 0. -1.
</event>
<event>
 5   0  0.7638805E-07  0.3767470E+04  0.7818609E-02  0.8053172E-01
       -2   -1    0    0    0  501  0.00000000000E+00  0.00000000000E+00  0.25814975298E+04  0.25814975298E+04  0.25500000920E-02 0. -1.
        2   -1    0    0  501    0  0.00000000000E+00  0.00000000000E+00 -0.13745731920E+04  0.13745731920E+04  0.25500000920E-02 0.  1.
    10030    2    1    2    0    0  0.00000000000E+00  0.00000000000E+00  0.12069243378E+04  0.39560707218E+04  0.37674698670E+04 0.  0.
        5    1    3    3  502    0 -0.44569088653E+03 -0.16659823415E+02  0.25252497013E+04  0.25643373530E+04  0.46999998093E+01 0. -1.
       -5    1    3    3    0  502  0.44569088653E+03  0.16659823415E+02 -0.13183253634E+04  0.13917333688E+04  0.46999998093E+01 0.  1.
</event>
<event>
 5   0  0.2907071E-07  0.3262555E+04  0.7818609E-02  0.8172489E-01
       -1   -1    0    0    0  501  0.00000000000E+00  0.00000000000E+00  0.10380138909E+04  0.10380138909E+04  0.50400001928E-02 0.  1.
        1   -1    0    0  501    0  0.00000000000E+00  0.00000000000E+00 -0.25636135323E+04  0.25636135323E+04  0.50400001928E-02 0. -1.
    10030    2    1    2    0    0  0.00000000000E+00  0.00000000000E+00 -0.15255996415E+04  0.36016274232E+04  0.32625551076E+04 0.  0.
        2    1    3    3  502    0 -0.12470639448E+04 -0.20881312167E+03 -0.19005934778E+04  0.22827673929E+04  0.25500000920E-02 0. -1.
       -2    1    3    3    0  502  0.12470639448E+04  0.20881312167E+03  0.37499383635E+03  0.13188600303E+04  0.25500000920E-02 0.  1.
</event>
<event>
 5   0  0.2529875E-07  0.3430549E+04  0.7818609E-02  0.8130449E-01
        1   -1    0    0  501    0  0.00000000000E+00  0.00000000000E+00  0.17792428459E+04  0.17792428459E+04  0.50400001928E-02 0.  1.
       -1   -1    0    0    0  501  0.00000000000E+00  0.00000000000E+00 -0.16536058600E+04  0.16536058600E+04  0.50400001928E-02 0. -1.
    10030    2    1    2    0    0  0.00000000000E+00  0.00000000000E+00  0.12563698594E+03  0.34328487059E+04  0.34305488752E+04 0.  0.
        3    1    3    3  502    0  0.65867005726E+02  0.33014062289E+03 -0.16202231735E+04  0.16548276150E+04  0.10100000352E+00 0. -1.
       -3    1    3    3    0  502 -0.65867005726E+02 -0.33014062289E+03  0.17458601594E+04  0.17780210909E+04  0.10100000352E+00 0.  1.
</event>
<event>
 5   0  0.2529875E-07  0.3858413E+04  0.7818609E-02  0.8033735E-01
        1   -1    0    0  501    0  0.00000000000E+00  0.00000000000E+00  0.34663676292E+04  0.34663676292E+04  0.50400001928E-02 0.  1.
       -1   -1    0    0    0  501  0.00000000000E+00  0.00000000000E+00 -0.10736994849E+04  0.10736994849E+04  0.50400001928E-02 0. -1.
    10030    2    1    2    0    0  0.00000000000E+00  0.00000000000E+00  0.23926681443E+04  0.45400671141E+04  0.38584126985E+04 0.  0.
        5    1    3    3  502    0  0.15056158944E+04  0.98416049114E+03  0.37572883367E+03  0.18375650574E+04  0.46999998093E+01 0. -1.
       -5    1    3    3    0  502 -0.15056158944E+04 -0.98416049114E+03  0.20169393106E+04  0.27025020567E+04  0.46999998093E+01 0.  1.
</event>
<event>
 5   0  0.8038352E-07  0.3756988E+04  0.7818609E-02  0.8055449E-01
       -2   -1    0    0    0  501  0.00000000000E+00  0.00000000000E+00  0.19782195149E+04  0.19782195149E+04  0.25500000920E-02 0. -1.
        2   -1    0    0  501    0  0.00000000000E+00  0.00000000000E+00 -0.17837961595E+04  0.17837961595E+04  0.25500000920E-02 0.  1.
    10030    2    1    2    0    0  0.00000000000E+00  0.00000000000E+00  0.19442335535E+03  0.37620156744E+04  0.37569883541E+04 0.  0.
        2    1    3    3  502    0 -0.15927739794E+04  0.50249056250E+03  0.95819633087E+03  0.19255040700E+04  0.25500000920E-02 0. -1.
       -2    1    3    3    0  502  0.15927739794E+04 -0.50249056250E+03 -0.76377297552E+03  0.18365116044E+04  0.25500000920E-02 0.  1.
</event>
<event>
 5   0  0.7551495E-07  0.3785134E+04  0.7818609E-02  0.8049353E-01
       -2   -1    0    0    0  501  0.00000000000E+00  0.00000000000E+00  0.16346910625E+04  0.16346910625E+04  0.25500000920E-02 0. -1.
        2   -1    0    0  501    0  0.00000000000E+00  0.00000000000E+00 -0.21911237251E+04  0.21911237251E+04  0.25500000920E-02 0.  1.
    10030    2    1    2    0    0  0.00000000000E+00  0.00000000000E+00 -0.55643266256E+03  0.38258147876E+04  0.37851342752E+04 0.  0.
        1    1    3    3  502    0 -0.61368337954E+02 -0.71502452913E+03  0.14918284789E+04  0.16554692267E+04  0.50400001928E-02 0. -1.
       -1    1    3    3    0  502  0.61368337954E+02  0.71502452913E+03 -0.20482611414E+04  0.21703455609E+04  0.50400001928E-02 0.  1.
</event>
<event>
 5   0  0.2529875E-07  0.3375357E+04  0.7818609E-02  0.8143981E-01
        1   -1    0    0  501    0  0.00000000000E+00  0.00000000000E+00  0.20221021210E+04  0.20221021210E+04  0.50400001928E-02 0. -1.
       -1   -1    0    0    0  501  0.00000000000E+00  0.00000000000E+00 -0.14085631921E+04  0.14085631922E+04  0.50400001928E-02 0.  1.
    10030    2    1    2    0    0  0.00000000000E+00  0.00000000000E+00  0.61353892880E+03  0.34306653131E+04  0.33753569402E+04 0.  0.
        1    1    3    3  502    0  0.13017302327E+04 -0.10681866311E+04  0.42146509679E+03  0.17358447815E+04  0.50400001928E-02 0. -1.
       -1    1    3    3    0  502 -0.13017302327E+04  0.10681866311E+04  0.19207383201E+03  0.16948205316E+04  0.50400001928E-02 0.  1.
</event>
<event>
 5   0  0.2529875E-07  0.3861518E+04  0.7818609E-02  0.8033081E-01
       -1   -1    0    0    0  501  0.00000000000E+00  0.00000000000E+00  0.18767984993E+04  0.18767984993E+04  0.50400001928E-02 0. -1.
        1   -1    0    0  501    0  0.00000000000E+00  0.00000000000E+00 -0.19862712373E+04  0.19862712373E+04  0.50400001928E-02 0.  1.
    10030    2    1    2    0    0  0.00000000000E+00  0.00000000000E+00 -0.10947273793E+03  0.38630697366E+04  0.38615182907E+04 0.  0.
        3    1    3    3  502    0 -0.33351536149E+03  0.40607214323E+03  0.18038862208E+04  0.18788647076E+04  0.10100000352E+00 0. -1.
       -3    1    3    3    0  502  0.33351536149E+03 -0.40607214323E+03 -0.19133589587E+04  0.19842050290E+04  0.10100000352E+00 0.  1.
</event>
<event>
 5   0  0.2529875E-07  0.3770720E+04  0.7818609E-02  0.8052468E-01
        1   -1    0    0  501    0  0.00000000000E+00  0.00000000000E+00  0.25390312489E+04  0.25390312489E+04  0.50400001928E-02 0.  1.
       -1   -1    0    0    0  501  0.00000000000E+00  0.00000000000E+00 -0.13999759929E+04  0.13999759929E+04  0.50400001928E-02 0. -1.
    10030    2    1    2    0    0  0.00000000000E+00  0.00000000000E+00  0.11390552560E+04  0.39390072419E+04  0.37707202462E+04 0.  0.
        3    1    3    3  502    0 -0.14578991012E+04  0.11735352511E+04  0.80757495050E+03  0.20383405225E+04  0.10100000352E+00 0. -1.
       -3    1    3    3    0  502  0.14578991012E+04 -0.11735352511E+04  0.33148030550E+03  0.19006667193E+04  0.10100000352E+00 0.  1.
</event>
<event>
 5   0  0.2529875E-07  0.2428069E+04  0.7818609E-02  0.8429069E-01
       -1   -1    0    0    0  501  0.00000000000E+00  0.00000000000E+00  0.79118927456E+03  0.79118927458E+03  0.50400001928E-02 0. -1.
        1   -1    0    0  501    0  0.00000000000E+00  0.00000000000E+00 -0.18628662124E+04  0.18628662124E+04  0.50400001928E-02 0.  1.
    10030    2    1    2    0    0  0.00000000000E+00  0.00000000000E+00 -0.10716769378E+04  0.26540554869E+04  0.24280690000E+04 0.  0.
        4    1    3    3  502    0 -0.25106135103E+03  0.80514145701E+03  0.41870464336E+03  0.94159426456E+03  0.12699999809E+01 0. -1.
       -4    1    3    3    0  502  0.25106135103E+03 -0.80514145701E+03 -0.14903815812E+04  0.17124612224E+04  0.12699999809E+01 0.  1.
</event>
<event>
 5   0  0.7551495E-07  0.3760402E+04  0.7818609E-02  0.8054706E-01
       -2   -1    0    0    0  501  0.00000000000E+00  0.00000000000E+00  0.22306309976E+04  0.22306309976E+04  0.25500000920E-02 0. -1.
        2   -1    0    0  501    0  0.00000000000E+00  0.00000000000E+00 -0.15848228460E+04  0.15848228460E+04  0.25500000920E-02 0.  1.
    10030    2    1    2    0    0  0.00000000000E+00  0.00000000000E+00  0.64580815158E+03  0.38154538437E+04  0.37604015563E+04 0.  0.
        1    1    3    3  502    0 -0.43844964145E+03  0.11031463141E+04 -0.11565179744E+04  0.16573182264E+04  0.50400001928E-02 0.  1.
       -1    1    3    3    0  502  0.43844964145E+03 -0.11031463141E+04  0.18023261260E+04  0.21581356173E+04  0.50400001928E-02 0. -1.
</event>
<event>
 5   0  0.8421677E-07  0.4012064E+04  0.7818609E-02  0.8002117E-01
       -2   -1    0    0    0  501  0.00000000000E+00  0.00000000000E+00  0.26511859064E+04  0.26511859064E+04  0.25500000920E-02 0.  1.
        2   -1    0    0  501    0  0.00000000000E+00  0.00000000000E+00 -0.15178736251E+04  0.15178736252E+04  0.25500000920E-02 0. -1.
    10030    2    1    2    0    0  0.00000000000E+00  0.00000000000E+00  0.11333122812E+04  0.41690595315E+04  0.40120643876E+04 0.  0.
        3    1    3    3  502    0  0.28613224172E+02  0.52111575735E+03  0.25794030220E+04  0.26316725308E+04  0.10100000352E+00 0.  1.
       -3    1    3    3    0  502 -0.28613224172E+02 -0.52111575735E+03 -0.14460907408E+04  0.15373870007E+04  0.10100000352E+00 0. -1.
</event>
<event>
 5   0  0.2529875E-07  0.2842250E+04  0.7818609E-02  0.8290270E-01
       -1   -1    0    0    0  501  0.00000000000E+00  0.00000000000E+00  0.80607875204E+03  0.80607875205E+03  0.50400001928E-02 0. -1.
        1   -1    0    0  501    0  0.00000000000E+00  0.00000000000E+00 -0.25054576984E+04  0.25054576984E+04  0.50400001928E-02 0.  1.
    10030    2    1    2    0    0  0.00000000000E+00  0.00000000000E+00 -0.16993789464E+04  0.33115364505E+04  0.28422499643E+04 0.  0.
        3    1    3    3  502    0 -0.29620980777E+02 -0.14128910578E+04 -0.67508734603E+03  0.15661677684E+04  0.10100000352E+00 0. -1.
       -3    1    3    3    0  502  0.29620980777E+02  0.14128910578E+04 -0.10242916003E+04  0.17453686821E+04  0.10100000352E+00 0.  1.
</event>
<event>
 5   0  0.7649458E-07  0.3809303E+04  0.7818609E-02  0.8044161E-01
       -2   -1    0    0    0  501  0.00000000000E+00  0.00000000000E+00  0.18113432751E+04  0.18113432751E+04  0.25500000920E-02 0. -1.
        2   -1    0    0  501    0  0.00000000000E+00  0.00000000000E+00 -0.20027668363E+04  0.20027668363E+04  0.25500000920E-02 0.  1.
    10030    2    1    2    0    0  0.00000000000E+00  0.00000000000E+00 -0.19142356117E+03  0.38141101114E+04  0.38093034747E+04 0.  0.
        4    1    3    3  502    0 -0.14696984417E+04  0.42175370382E+03 -0.12328414920E+04  0.19641256207E+04  0.12699999809E+01 0.  1.
       -4    1    3    3    0  502  0.14696984417E+04 -0.42175370382E+03  0.10414179309E+04  0.18499844907E+04  0.12699999809E+01 0. -1.
</event>
<event>
 5   0  0.2529875E-07  0.3653996E+04  0.7818609E-02  0.8078234E-01
        1   -1    0    0  501    0  0.00000000000E+00  0.00000000000E+00  0.15546795904E+04  0.15546795904E+04  0.50400001928E-02 0.  1.
       -1   -1    0    0    0  501  0.00000000000E+00  0.00000000000E+00 -0.21470162854E+04  0.21470162854E+04  0.50400001928E-02 0. -1.
    10030    2    1    2    0    0  0.00000000000E+00  0.00000000000E+00 -0.59233669500E+03  0.37016958758E+04  0.36539963871E+04 0.  0.
        3    1    3    3  502    0  0.67248611765E+03  0.84821350161E+03 -0.17871893755E+04  0.20894376270E+04  0.10100000352E+00 0. -1.
       -3    1    3    3    0  502 -0.67248611765E+03 -0.84821350161E+03  0.11948526805E+04  0.16122582489E+04  0.10100000352E+00 0.  1.
</event>
<event>
 5   0  0.2529875E-07  0.3672847E+04  0.7818609E-02  0.8074006E-01
        1   -1    0    0  501    0  0.00000000000E+00  0.00000000000E+00  0.21240329141E+04  0.21240329141E+04  0.50400001928E-02 0. -1.
       -1   -1    0    0    0  501  0.00000000000E+00  0.00000000000E+00 -0.15877586765E+04  0.15877586765E+04  0.50400001928E-02 0.  1.
    10030    2    1    2    0    0  0.00000000000E+00  0.00000000000E+00  0.53627423759E+03  0.37117915907E+04  0.36728472272E+04 0.  0.
        3    1    3    3  502    0  0.13174940240E+04 -0.98601848772E+03 -0.55563087991E+03  0.17368789959E+04  0.10100000352E+00 0. -1.
       -3    1    3    3    0  502 -0.13174940240E+04  0.98601848772E+03  0.10919051175E+04  0.19749125948E+04  0.10100000352E+00 0.  1.
</event>
<event>
 5   0  0.8421677E-07  0.3740618E+04  0.7818609E-02  0.8059020E-01
       -2   -1    0    0    0  501  0.00000000000E+00  0.00000000000E+00  0.17244246965E+04  0.17244246965E+04  0.25500000920E-02 0.  1.
        2   -1    0    0  501    0  0.00000000000E+00  0.00000000000E+00 -0.20285347525E+04  0.20285347525E+04  0.25500000920E-02 0. -1.
    10030    2    1    2    0    0  0.00000000000E+00  0.00000000000E+00 -0.30411005601E+03  0.37529594490E+04  0.37406178233E+04 0.  0.
        3    1    3    3  502    0  0.97016742123E+02 -0.18214643821E+04  0.26272240822E+03  0.18428694521E+04  0.10100000352E+00 0.  1.
       -3    1    3    3    0  502 -0.97016742123E+02  0.18214643821E+04 -0.56683246423E+03  0.19100899969E+04  0.10100000352E+00 0. -1.
</event>
<event>
 5   0  0.2529875E-07  0.3693179E+04  0.7818609E-02  0.8069475E-01
        1   -1    0    0  501    0  0.00000000000E+00  0.00000000000E+00  0.13366903644E+04  0.13366903645E+04  0.50400001928E-02 0. -1.
       -1   -1    0    0    0  501  0.00000000000E+00  0.00000000000E+00 -0.25509965864E+04  0.25509965864E+04  0.50400001928E-02 0.  1.
    10030    2    1    2    0    0  0.00000000000E+00  0.00000000000E+00 -0.12143062220E+04  0.38876869509E+04  0.36931788783E+04 0.  0.
        4    1    3    3  502    0 -0.14957080571E+03  0.23747898835E+03  0.13141075680E+04  0.13437440266E+04  0.12699999809E+01 0. -1.
       -4    1    3    3    0  502  0.14957080571E+03 -0.23747898835E+03 -0.25284137900E+04  0.25439429243E+04  0.12699999809E+01 0.  1.
</event>
<event>
 5   0  0.2529875E-07  0.3788241E+04  0.7818609E-02  0.8048683E-01
       -1   -1    0    0    0  501  0.00000000000E+00  0.00000000000E+00  0.15993548246E+04  0.15993548246E+04  0.50400001928E-02 0.  1.
        1   -1    0    0  501    0  0.00000000000E+00  0.00000000000E+00 -0.22432124190E+04  0.22432124190E+04  0.50400001928E-02 0. -1.
    10030    2    1    2    0    0  0.00000000000E+00  0.00000000000E+00 -0.64385759439E+03  0.38425672436E+04  0.37882410720E+04 0.  0.
        3    1    3    3  502    0  0.11027149054E+04  0.15124026587E+04 -0.61652560295E+03  0.19706460346E+04  0.10100000352E+00 0.  1.
       -3    1    3    3    0  502 -0.11027149054E+04 -0.15124026587E+04 -0.27331991436E+02  0.18719212089E+04  0.10100000352E+00 0. -1.
</event>
<event>
 5   0  0.8038352E-07  0.3804416E+04  0.7818609E-02  0.8045208E-01
       -2   -1    0    0    0  501  0.00000000000E+00  0.00000000000E+00  0.17434291841E+04  0.17434291841E+04  0.25500000920E-02 0.  1.
        2   -1    0    0  501    0  0.00000000000E+00  0.00000000000E+00 -0.20754477383E+04  0.20754477383E+04  0.25500000920E-02 0. -1.
    10030    2    1    2    0    0  0.00000000000E+00  0.00000000000E+00 -0.33201855418E+03  0.38188769224E+04  0.38044164636E+04 0.  0.
        2    1    3    3  502    0  0.25126210395E+03  0.92988025425E+03  0.14805261012E+04  0.17662863495E+04  0.25500000920E-02 0.  1.
       -2    1    3    3    0  502 -0.25126210395E+03 -0.92988025425E+03 -0.18125446554E+04  0.20525905729E+04  0.25500000920E-02 0. -1.
</event>
<event>
 5   0  0.2529875E-07  0.2526158E+04  0.7818609E-02  0.8393725E-01
        1   -1    0    0  501    0  0.00000000000E+00  0.00000000000E+00  0.14297536336E+04  0.14297536336E+04  0.50400001928E-02 0.  1.
       -1   -1    0    0    0  501  0.00000000000E+00  0.00000000000E+00 -0.11158344979E+04  0.11158344979E+04  0.50400001928E-02 0. -1.
    10030    2    1    2    0    0  0.00000000000E+00  0.00000000000E+00  0.31391913574E+03  0.25455881315E+04  0.25261578952E+04 0.  0.
        4    1    3    3  502    0 -0.30263381504E+03 -0.98982008567E+02 -0.10747274095E+04  0.11209037789E+04  0.12699999809E+01 0. -1.
       -4    1    3    3    0  502  0.30263381504E+03  0.98982008567E+02  0.13886465452E+04  0.14246843526E+04  0.12699999809E+01 0.  1.
</event>
<event>
 5   0  0.7551495E-07  0.2327353E+04  0.7818609E-02  0.8467214E-01
       -2   -1    0    0    0  501  0.00000000000E+00  0.00000000000E+00  0.12448779715E+04  0.12448779715E+04  0.25500000920E-02 0.  1.
        2   -1    0    0  501    0  0.00000000000E+00  0.00000000000E+00 -0.10877715968E+04  0.10877715969E+04  0.25500000920E-02 0. -1.
    10030    2    1    2    0    0  0.00000000000E+00  0.00000000000E+00  0.15710637463E+03  0.23326495683E+04  0.23273529160E+04 0.  0.
        1    1    3    3  502    0  0.59051333342E+02  0.11550844868E+04  0.20704661856E+03  0.11749789504E+04  0.50400001928E-02 0.  1.
       -1    1    3    3    0  502 -0.59051333342E+02 -0.11550844868E+04 -0.49940243932E+02  0.11576706179E+04  0.50400001928E-02 0. -1.
</event>
<event>
 5   0  0.2907071E-07  0.3673133E+04  0.7818609E-02  0.8073942E-01
       -1   -1    0    0    0  501  0.00000000000E+00  0.00000000000E+00  0.14555360842E+04  0.14555360842E+04  0.50400001928E-02 0.  1.
        1   -1    0    0  501    0  0.00000000000E+00  0.00000000000E+00 -0.23173435449E+04  0.23173435449E+04  0.50400001928E-02 0. -1.
    10030    2    1    2    0    0  0.00000000000E+00  0.00000000000E+00 -0.86180746068E+03  0.37728796291E+04  0.36731333485E+04 0.  0.
        2    1    3    3  502    0 -0.63625889497E+03  0.17147102053E+04 -0.60253611840E+03  0.19256443710E+04  0.25500000920E-02 0. -1.
       -2    1    3    3    0  502  0.63625889497E+03 -0.17147102053E+04 -0.25927134228E+03  0.18472352580E+04  0.25500000920E-02 0.  1.
</event>
<event>
 5   0  0.2529875E-07  0.2605757E+04  0.7818609E-02  0.8366248E-01
       -1   -1    0    0    0  501  0.00000000000E+00  0.00000000000E+00  0.16323406087E+04  0.16323406087E+04  0.50400001928E-02 0. -1.
        1   -1    0    0  501    0  0.00000000000E+00  0.00000000000E+00 -0.10399132132E+04  0.10399132132E+04  0.50400001928E-02 0.  1.
    10030    2    1    2    0    0  0.00000000000E+00  0.00000000000E+00  0.59242739554E+03  0.26722538219E+04  0.26057571395E+04 0.  0.
        4    1    3    3  502    0  0.11952437810E+04  0.19894023033E+03 -0.19486548088E+03  0.12272567294E+04  0.12699999809E+01 0.  1.
       -4    1    3    3    0  502 -0.11952437810E+04 -0.19894023033E+03  0.78729287642E+03  0.14449970925E+04  0.12699999809E+01 0. -1.
</event>
<event>
 5   0  0.8421677E-07  0.3688264E+04  0.7818609E-02  0.8070568E-01
       -2   -1    0    0    0  501  0.00000000000E+00  0.00000000000E+00  0.13348703522E+04  0.13348703522E+04  0.25500000920E-02 0.  1.
        2   -1    0    0  501    0  0.00000000000E+00  0.00000000000E+00 -0.25476801229E+04  0.25476801229E+04  0.25500000920E-02 0. -1.
    10030    2    1    2    0    0  0.00000000000E+00  0.00000000000E+00 -0.12128097707E+04  0.38825504752E+04  0.36882639076E+04 0.  0.
        3    1    3    3  502    0  0.83557247910E+03  0.91094781681E+03  0.83419243655E+03  0.14912693667E+04  0.10100000352E+00 0.  1.
       -3    1    3    3    0  502 -0.83557247910E+03 -0.91094781681E+03 -0.20470022073E+04  0.23912811084E+04  0.10100000352E+00 0. -1.
</event>
<event>
 5   0  0.2529875E-07  0.3903215E+04  0.7818609E-02  0.8024361E-01
        1   -1    0    0  501    0  0.00000000000E+00  0.00000000000E+00  0.15063816472E+04  0.15063816472E+04  0.50400001928E-02 0. -1.
       -1   -1    0    0    0  501  0.00000000000E+00  0.00000000000E+00 -0.25284242531E+04  0.25284242531E+04  0.50400001928E-02 0.  1.
    10030    2    1    2    0    0  0.00000000000E+00  0.00000000000E+00 -0.10220426059E+04  0.40348059003E+04  0.39032150293E+04 0.  0.
        3    1    3    3  502    0  0.14776054152E+04  0.11704467361E+04 -0.10335412734E+04  0.21497606609E+04  0.10100000352E+00 0. -1.
       -3    1    3    3    0  502 -0.14776054152E+04 -0.11704467361E+04  0.11498667517E+02  0.18850452394E+04  0.10100000352E+00 0.  1.
</event>
<event>
 5   0  0.8038352E-07  0.3743361E+04  0.7818609E-02  0.8058420E-01
       -2   -1    0    0    0  501  0.00000000000E+00  0.00000000000E+00  0.33380379372E+04  0.33380379372E+04  0.25500000920E-02 0.  1.
        2   -1    0    0  501    0  0.00000000000E+00  0.00000000000E+00 -0.10494751755E+04  0.10494751755E+04  0.25500000920E-02 0. -1.
    10030    2    1    2    0    0  0.00000000000E+00  0.00000000000E+00  0.22885627617E+04  0.43875131128E+04  0.37433610299E+04 0.  0.
        2    1    3    3  502    0  0.12743444853E+04  0.51194377826E+02  0.27499062941E+04  0.30312636569E+04  0.25500000920E-02 0.  1.
       -2    1    3    3    0  502 -0.12743444853E+04 -0.51194377826E+02 -0.46134353234E+03  0.13562494558E+04  0.25500000920E-02 0. -1.
</event>
<event>
 5   0  0.8421677E-07  0.3763524E+04  0.7818609E-02  0.8054028E-01
       -2   -1    0    0    0  501  0.00000000000E+00  0.00000000000E+00  0.17589084891E+04  0.17589084891E+04  0.25500000920E-02 0. -1.
        2   -1    0    0  501    0  0.00000000000E+00  0.00000000000E+00 -0.20131965406E+04  0.20131965406E+04  0.25500000920E-02 0.  1.
    10030    2    1    2    0    0  0.00000000000E+00  0.00000000000E+00 -0.25428805151E+03  0.37721050297E+04  0.37635241386E+04 0.  0.
        3    1    3    3  502    0  0.15450771244E+04 -0.25172575875E+03 -0.11737467293E+04  0.19566069029E+04  0.10100000352E+00 0.  1.
       -3    1    3    3    0  502 -0.15450771244E+04  0.25172575875E+03  0.91945867777E+03  0.18154981267E+04  0.10100000352E+00 0. -1.
</event>
<event>
 5   0  0.8038352E-07  0.3890352E+04  0.7818609E-02  0.8027039E-01
        2   -1    0    0  501    0  0.00000000000E+00  0.00000000000E+00  0.18780207492E+04  0.18780207492E+04  0.25500000920E-02 0.  1.
       -2   -1    0    0    0  501  0.00000000000E+00  0.00000000000E+00 -0.20147328139E+04  0.20147328139E+04  0.25500000920E-02 0. -1.
    10030    2    1    2    0    0  0.00000000000E+00  0.00000000000E+00 -0.13671206471E+03  0.38927535630E+04  0.38903521838E+04 0.  0.
        2    1    3    3  502    0 -0.43908035719E+00  0.13134872504E+04 -0.15039754443E+04  0.19967952040E+04  0.25500000920E-02 0. -1.
       -2    1    3    3    0  502  0.43908035719E+00 -0.13134872504E+04  0.13672633796E+04  0.18959583590E+04  0.25500000920E-02 0.  1.
</event>
<event>
 5   0  0.8038352E-07  0.3833010E+04  0.7818609E-02  0.8039108E-01
       -2   -1    0    0    0  501  0.00000000000E+00  0.00000000000E+00  0.19056951408E+04  0.19056951408E+04  0.25500000920E-02 0.  1.
        2   -1    0    0  501    0  0.00000000000E+00  0.00000000000E+00 -0.19273765942E+04  0.19273765942E+04  0.25500000920E-02 0. -1.
    10030    2    1    2    0    0  0.00000000000E+00  0.00000000000E+00 -0.21681453397E+02  0.38330717351E+04  0.38330104149E+04 0.  0.
        2    1    3    3  502    0  0.43863301236E+03 -0.18382577977E+04 -0.32928193706E+03  0.19183371039E+04  0.25500000920E-02 0.  1.
       -2    1    3    3    0  502 -0.43863301236E+03  0.18382577977E+04  0.30760048367E+03  0.19147346312E+04  0.25500000920E-02 0. -1.
</event>
<event>
 5   0  0.2529875E-07  0.3820174E+04  0.7818609E-02  0.8041840E-01
       -1   -1    0    0    0  501  0.00000000000E+00  0.00000000000E+00  0.14619379151E+04  0.14619379151E+04  0.50400001928E-02 0.  1.
        1   -1    0    0  501    0  0.00000000000E+00  0.00000000000E+00 -0.24956131114E+04  0.24956131114E+04  0.50400001928E-02 0. -1.
    10030    2    1    2    0    0  0.00000000000E+00  0.00000000000E+00 -0.10336751963E+04  0.39575510264E+04  0.38201735190E+04 0.  0.
        5    1    3    3  502    0 -0.14404175283E+04 -0.23068624854E+03  0.76054504980E+03  0.16451351506E+04  0.46999998093E+01 0.  1.
       -5    1    3    3    0  502  0.14404175283E+04  0.23068624854E+03 -0.17942202461E+04  0.23124158758E+04  0.46999998093E+01 0. -1.
</event>
<event>
 5   0  0.2529875E-07  0.2565929E+04  0.7818609E-02  0.8379867E-01
        1   -1    0    0  501    0  0.00000000000E+00  0.00000000000E+00  0.20670165776E+04  0.20670165776E+04  0.50400001928E-02 0. -1.
       -1   -1    0    0    0  501  0.00000000000E+00  0.00000000000E+00 -0.79631556399E+03  0.79631556400E+03  0.50400001928E-02 0.  1.
    10030    2    1    2    0    0  0.00000000000E+00  0.00000000000E+00  0.12707010136E+04  0.28633321416E+04  0.25659286598E+04 0.  0.
        1    1    3    3  502    0  0.10025551004E+04  0.85285391175E+02  0.15236045308E+04  0.18258590016E+04  0.50400001928E-02 0. -1.
       -1    1    3    3    0  502 -0.10025551004E+04 -0.85285391175E+02 -0.25290351717E+03  0.10374731401E+04  0.50400001928E-02 0.  1.
</event>
<event>
 5   0  0.8038352E-07  0.3756075E+04  0.7818609E-02  0.8055647E-01
       -2   -1    0    0    0  501  0.00000000000E+00  0.00000000000E+00  0.14133082502E+04  0.14133082502E+04  0.25500000920E-02 0. -1.
        2   -1    0    0  501    0  0.00000000000E+00  0.00000000000E+00 -0.24955806592E+04  0.24955806592E+04  0.25500000920E-02 0.  1.
    10030    2    1    2    0    0  0.00000000000E+00  0.00000000000E+00 -0.10822724090E+04  0.39088889094E+04  0.37560749378E+04 0.  0.
        2    1    3    3  502    0 -0.55577486999E+03 -0.81454563228E+03 -0.22044920209E+04  0.24149855824E+04  0.25500000920E-02 0.  1.
       -2    1    3    3    0  502  0.55577486999E+03  0.81454563228E+03  0.11222196118E+04  0.14939033270E+04  0.25500000920E-02 0. -1.
</event>
<event>
 5   0  0.8038352E-07  0.4025918E+04  0.7818609E-02  0.7999338E-01
       -2   -1    0    0    0  501  0.00000000000E+00  0.00000000000E+00  0.17764465823E+04  0.17764465823E+04  0.25500000920E-02 0.  1.
        2   -1    0    0  501    0  0.00000000000E+00  0.00000000000E+00 -0.22809607466E+04  0.22809607466E+04  0.25500000920E-02 0. -1.
    10030    2    1    2    0    0  0.00000000000E+00  0.00000000000E+00 -0.50451416435E+03  0.40574073289E+04  0.40259184903E+04 0.  0.
        2    1    3    3  502    0 -0.15801605514E+04 -0.11687675155E+04  0.18597733732E+03  0.19742118538E+04  0.25500000920E-02 0.  1.
       -2    1    3    3    0  502  0.15801605514E+04  0.11687675155E+04 -0.69049150167E+03  0.20831954751E+04  0.25500000920E-02 0. -1.
</event>
<event>
 5   0  0.8421677E-07  0.3528437E+04  0.7818609E-02  0.8107084E-01
        2   -1    0    0  501    0  0.00000000000E+00  0.00000000000E+00  0.11936527014E+04  0.11936527014E+04  0.25500000920E-02 0. -1.
       -2   -1    0    0    0  501  0.00000000000E+00  0.00000000000E+00 -0.26075152978E+04  0.26075152978E+04  0.25500000920E-02 0.  1.
    10030    2    1    2    0    0  0.00000000000E+00  0.00000000000E+00 -0.14138625964E+04  0.38011679993E+04  0.35284374328E+04 0.  0.
        3    1    3    3  502    0 -0.10471342816E+04  0.14039264977E+04 -0.93537843921E+03  0.19855560051E+04  0.10100000352E+00 0.  1.
       -3    1    3    3    0  502  0.10471342816E+04 -0.14039264977E+04 -0.47848415717E+03  0.18156119942E+04  0.10100000352E+00 0. -1.
</event>
<event>
 5   0  0.2907071E-07  0.3816562E+04  0.7818609E-02  0.8042610E-01
        1   -1    0    0  501    0  0.00000000000E+00  0.00000000000E+00  0.18258685262E+04  0.18258685262E+04  0.50400001928E-02 0. -1.
       -1   -1    0    0    0  501  0.00000000000E+00  0.00000000000E+00 -0.19944137168E+04  0.19944137168E+04  0.50400001928E-02 0.  1.
    10030    2    1    2    0    0  0.00000000000E+00  0.00000000000E+00 -0.16854519059E+03  0.38202822430E+04  0.38165624500E+04 0.  0.
        2    1    3    3  502    0 -0.69826040477E+03  0.14519481937E+04  0.93937562339E+03  0.18649792792E+04  0.25500000920E-02 0. -1.
       -2    1    3    3    0  502  0.69826040477E+03 -0.14519481937E+04 -0.11079208140E+04  0.19553029638E+04  0.25500000920E-02 0.  1.
</event>
<event>
 5   0  0.2529875E-07  0.2871964E+04  0.7818609E-02  0.8281268E-01
        1   -1    0    0  501    0  0.00000000000E+00  0.00000000000E+00  0.16580451656E+04  0.16580451656E+04  0.50400001928E-02 0.  1.
       -1   -1    0    0    0  501  0.00000000000E+00  0.00000000000E+00 -0.12436597067E+04  0.12436597067E+04  0.50400001928E-02 0. -1.
    10030    2    1    2    0    0  0.00000000000E+00  0.00000000000E+00  0.41438545887E+03  0.29017048723E+04  0.28719637632E+04 0.  0.
        1    1    3    3  502    0 -0.12266330240E+04 -0.66003085169E+03  0.55976873410E+03  0.15012029631E+04  0.50400001928E-02 0.  1.
       -1    1    3    3    0  502  0.12266330240E+04  0.66003085169E+03 -0.14538327523E+03  0.14005019091E+04  0.50400001928E-02 0. -1.
</event>
<event>
 5   0  0.8038352E-07  0.2509551E+04  0.7818609E-02  0.8399591E-01
        2   -1    0    0  501    0  0.00000000000E+00  0.00000000000E+00  0.22036946737E+04  0.22036946737E+04  0.25500000920E-02 0.  1.
       -2   -1    0    0    0  501  0.00000000000E+00  0.00000000000E+00 -0.71446463480E+03  0.71446463480E+03  0.25500000920E-02 0. -1.
    10030    2    1    2    0    0  0.00000000000E+00  0.00000000000E+00  0.14892300389E+04  0.29181593085E+04  0.25095512828E+04 0.  0.
        2    1    3    3  502    0  0.74160685049E+03  0.72197042295E+02  0.19185857863E+04  0.20581944887E+04  0.25500000920E-02 0.  1.
       -2    1    3    3    0  502 -0.74160685049E+03 -0.72197042295E+02 -0.42935574739E+03  0.85996481989E+03  0.25500000920E-02 0. -1.
</event>
<event>
 5   0  0.7638805E-07  0.3848641E+04  0.7818609E-02  0.8035796E-01
        2   -1    0    0  501    0  0.00000000000E+00  0.00000000000E+00  0.18854425971E+04  0.18854425971E+04  0.25500000920E-02 0.  1.
       -2   -1    0    0    0  501  0.00000000000E+00  0.00000000000E+00 -0.19640001813E+04  0.19640001813E+04  0.25500000920E-02 0. -1.
    10030    2    1    2    0    0  0.00000000000E+00  0.00000000000E+00 -0.78557584203E+02  0.38494427784E+04  0.38486411122E+04 0.  0.
        5    1    3    3  502    0 -0.10159353280E+04  0.16199450372E+04 -0.25528904879E+03  0.19291296231E+04  0.46999998093E+01 0.  1.
       -5    1    3    3    0  502  0.10159353280E+04 -0.16199450372E+04  0.17673146459E+03  0.19203131554E+04  0.46999998093E+01 0. -1.
</event>
<event>
 5   0  0.2529875E-07  0.3767520E+04  0.7818609E-02  0.8053161E-01
        4   -1    0    0  501    0  0.00000000000E+00  0.00000000000E+00  0.13281625351E+04  0.13281631423E+04  0.12699999809E+01 0.  1.
       -4   -1    0    0    0  501  0.00000000000E+00  0.00000000000E+00 -0.26717739486E+04  0.26717742504E+04  0.12699999809E+01 0. -1.
    10030    2    1    2    0    0  0.00000000000E+00  0.00000000000E+00 -0.13436114134E+04  0.39999373928E+04  0.37675200750E+04 0.  0.
        5    1    3    3  502    0 -0.18023870673E+04  0.30409144313E+03 -0.11553806654E+04  0.21624054473E+04  0.46999998093E+01 0. -1.
       -5    1    3    3    0  502  0.18023870673E+04 -0.30409144313E+03 -0.18823074801E+03  0.18375319455E+04  0.46999998093E+01 0.  1.
</event>
<event>
 5   0  0.2529875E-07  0.3674133E+04  0.7818609E-02  0.8073719E-01
        1   -1    0    0  501    0  0.00000000000E+00  0.00000000000E+00  0.26093990691E+04  0.26093990691E+04  0.50400001928E-02 0. -1.
       -1   -1    0    0    0  501  0.00000000000E+00  0.00000000000E+00 -0.12933298293E+04  0.12933298293E+04  0.50400001928E-02 0.  1.
    10030    2    1    2    0    0  0.00000000000E+00  0.00000000000E+00  0.13160692398E+04  0.39027288984E+04  0.36741331781E+04 0.  0.
        5    1    3    3  502    0  0.13473454253E+03  0.13759876347E+04  0.19429650417E+04  0.23846657231E+04  0.46999998093E+01 0. -1.
       -5    1    3    3    0  502 -0.13473454253E+03 -0.13759876347E+04 -0.62689580185E+03  0.15180631753E+04  0.46999998093E+01 0.  1.
</event>
<event>
 5   0  0.7649458E-07  0.3731345E+04  0.7818609E-02  0.8061051E-01
        2   -1    0    0  501    0  0.00000000000E+00  0.00000000000E+00  0.24047577184E+04  0.24047577184E+04  0.25500000920E-02 0. -1.
       -2   -1    0    0    0  501  0.00000000000E+00  0.00000000000E+00 -0.14474364415E+04  0.14474364415E+04  0.25500000920E-02 0.  1.
    10030    2    1    2    0    0  0.00000000000E+00  0.00000000000E+00  0.95732127690E+03  0.38521941599E+04  0.37313450414E+04 0.  0.
        4    1    3    3  502    0  0.13569996517E+04  0.11716076911E+04 -0.54415053918E+02  0.17936207090E+04  0.12699999809E+01 0.  1.
       -4    1    3    3    0  502 -0.13569996517E+04 -0.11716076911E+04  0.10117363308E+04  0.20585734509E+04  0.12699999809E+01 0. -1.
</event>
<event>
 5   0  0.2529875E-07  0.3795742E+04  0.7818609E-02  0.8047069E-01
       -1   -1    0    0    0  501  0.00000000000E+00  0.00000000000E+00  0.19258525520E+04  0.19258525520E+04  0.50400001928E-02 0.  1.
        1   -1    0    0  501    0  0.00000000000E+00  0.00000000000E+00 -0.18702956609E+04  0.18702956609E+04  0.50400001928E-02 0. -1.
    10030    2    1    2    0    0  0.00000000000E+00  0.00000000000E+00  0.55556891148E+02  0.37961482129E+04  0.37957416517E+04 0.  0.
        3    1    3    3  502    0 -0.14517568566E+04 -0.11372188459E+04  0.47621133703E+03  0.19046369528E+04  0.10100000352E+00 0.  1.
       -3    1    3    3    0  502  0.14517568566E+04  0.11372188459E+04 -0.42065444588E+03  0.18915112601E+04  0.10100000352E+00 0. -1.
</event>
<event>
 5   0  0.2907071E-07  0.3747201E+04  0.7818609E-02  0.8057581E-01
       -1   -1    0    0    0  501  0.00000000000E+00  0.00000000000E+00  0.11309238295E+04  0.11309238295E+04  0.50400001928E-02 0. -1.
        1   -1    0    0  501    0  0.00000000000E+00  0.00000000000E+00 -0.31039920361E+04  0.31039920361E+04  0.50400001928E-02 0.  1.
    10030    2    1    2    0    0  0.00000000000E+00  0.00000000000E+00 -0.19730682066E+04  0.42349158656E+04  0.37472008541E+04 0.  0.
        2    1    3    3  502    0  0.15768755889E+04 -0.24797484935E+03  0.12214135086E+03  0.16009205659E+04  0.25500000920E-02 0. -1.
       -2    1    3    3    0  502 -0.15768755889E+04  0.24797484935E+03 -0.20952095574E+04  0.26339952996E+04  0.25500000920E-02 0.  1.
</event>
<event>
 5   0  0.8038352E-07  0.2899384E+04  0.7818609E-02  0.8273061E-01
       -2   -1    0    0    0  501  0.00000000000E+00  0.00000000000E+00  0.79749402062E+03  0.79749402063E+03  0.25500000920E-02 0. -1.
        2   -1    0    0  501    0  0.00000000000E+00  0.00000000000E+00 -0.26352638635E+04  0.26352638635E+04  0.25500000920E-02 0.  1.
    10030    2    1    2    0    0  0.00000000000E+00  0.00000000000E+00 -0.18377698429E+04  0.34327578841E+04  0.28993841925E+04 0.  0.
        2    1    3    3  502    0 -0.78282944415E+03  0.11413605853E+04 -0.40815804427E+03  0.14429549243E+04  0.25500000920E-02 0. -1.
       -2    1    3    3    0  502  0.78282944415E+03 -0.11413605853E+04 -0.14296117986E+04  0.19898029599E+04  0.25500000920E-02 0.  1.
</event>
<event>
 5   0  0.8421677E-07  0.3797777E+04  0.7818609E-02  0.8046632E-01
       -2   -1    0    0    0  501  0.00000000000E+00  0.00000000000E+00  0.14007626084E+04  0.14007626085E+04  0.25500000920E-02 0.  1.
        2   -1    0    0  501    0  0.00000000000E+00  0.00000000000E+00 -0.25741530692E+04  0.25741530692E+04  0.25500000920E-02 0. -1.
    10030    2    1    2    0    0  0.00000000000E+00  0.00000000000E+00 -0.11733904607E+04  0.39749156776E+04  0.37977769117E+04 0.  0.
        3    1    3    3  502    0 -0.15445254875E+03 -0.15570266602E+04 -0.17127922422E+04  0.23198803601E+04  0.10100000352E+00 0. -1.
       -3    1    3    3    0  502  0.15445254875E+03  0.15570266602E+04  0.53940178142E+03  0.16550353175E+04  0.10100000352E+00 0.  1.
</event>
<event>
 5   0  0.2529875E-07  0.3619401E+04  0.7818609E-02  0.8086062E-01
       -1   -1    0    0    0  501  0.00000000000E+00  0.00000000000E+00  0.12467782379E+04  0.12467782379E+04  0.50400001928E-02 0.  1.
        1   -1    0    0  501    0  0.00000000000E+00  0.00000000000E+00 -0.26267837232E+04  0.26267837232E+04  0.50400001928E-02 0. -1.
    10030    2    1    2    0    0  0.00000000000E+00  0.00000000000E+00 -0.13800054853E+04  0.38735619611E+04  0.36194014874E+04 0.  0.
        4    1    3    3  502    0  0.67107948151E+03 -0.33267526973E+03 -0.24531080040E+04  0.25649095496E+04  0.12699999809E+01 0. -1.
       -4    1    3    3    0  502 -0.67107948151E+03  0.33267526973E+03  0.10731025187E+04  0.13086524115E+04  0.12699999809E+01 0.  1.
</event>
<event>
 5   0  0.8421677E-07  0.3631473E+04  0.7818609E-02  0.8083320E-01
        2   -1    0    0  501    0  0.00000000000E+00  0.00000000000E+00  0.18181186654E+04  0.18181186654E+04  0.25500000920E-02 0.  1.
       -2   -1    0    0    0  501  0.00000000000E+00  0.00000000000E+00 -0.18133572856E+04  0.18133572856E+04  0.25500000920E-02 0. -1.
    10030    2    1    2    0    0  0.00000000000E+00  0.00000000000E+00  0.47613798373E+01  0.36314759509E+04  0.36314728295E+04 0.  0.
        3    1    3    3  502    0 -0.44843009816E+03  0.93836460175E+03 -0.14860026099E+04  0.18137864939E+04  0.10100000352E+00 0. -1.
       -3    1    3    3    0  502  0.44843009816E+03 -0.93836460175E+03  0.14907639897E+04  0.18176894570E+04  0.10100000352E+00 0.  1.
</event>
<event>
 5   0  0.2529875E-07  0.3751582E+04  0.7818609E-02  0.8056626E-01
        1   -1    0    0  501    0  0.00000000000E+00  0.00000000000E+00  0.19693107789E+04  0.19693107789E+04  0.50400001928E-02 0. -1.
       -1   -1    0    0    0  501  0.00000000000E+00  0.00000000000E+00 -0.17867126287E+04  0.17867126287E+04  0.50400001928E-02 0.  1.
    10030    2    1    2    0    0  0.00000000000E+00  0.00000000000E+00  0.18259815021E+03  0.37560234076E+04  0.37515823001E+04 0.  0.
        3    1    3    3  502    0  0.14243389642E+04  0.12122690971E+04  0.23378613642E+03  0.18849386771E+04  0.10100000352E+00 0. -1.
       -3    1    3    3    0  502 -0.14243389642E+04 -0.12122690971E+04 -0.51187986211E+02  0.18710847305E+04  0.10100000352E+00 0.  1.
</event>
<event>
 5   0  0.8038352E-07  0.3821169E+04  0.7818609E-02  0.8041627E-01
        2   -1    0    0  501    0  0.00000000000E+00  0.00000000000E+00  0.25623042474E+04  0.25623042474E+04  0.25500000920E-02 0. -1.
       -2   -1    0    0    0  501  0.00000000000E+00  0.00000000000E+00 -0.14246294155E+04  0.14246294155E+04  0.25500000920E-02 0.  1.
    10030    2    1    2    0    0  0.00000000000E+00  0.00000000000E+00  0.11376748319E+04  0.39869336629E+04  0.38211694558E+04 0.  0.
        2    1    3    3  502    0  0.85583011323E+03 -0.62657134087E+02  0.23499227247E+04  0.25017010035E+04  0.25500000920E-02 0. -1.
       -2    1    3    3    0  502 -0.85583011323E+03  0.62657134087E+02 -0.12122478927E+04  0.14852326594E+04  0.25500000920E-02 0.  1.
</event>
<event>
 5   0  0.8421677E-07  0.3716759E+04  0.7818609E-02  0.8064258E-01
        2   -1    0    0  501    0  0.00000000000E+00  0.00000000000E+00  0.14813172696E+04  0.14813172696E+04  0.25500000920E-02 0.  1.
       -2   -1    0    0    0  501  0.00000000000E+00  0.00000000000E+00 -0.23314205075E+04  0.23314205075E+04  0.25500000920E-02 0. -1.
    10030    2    1    2    0    0  0.00000000000E+00  0.00000000000E+00 -0.85010323788E+03  0.38127377770E+04  0.37167585127E+04 0.  0.
        3    1    3    3  502    0 -0.10050272266E+04  0.64070019711E+03  0.10376002135E+04  0.15802501960E+04  0.10100000352E+00 0.  1.
       -3    1    3    3    0  502  0.10050272266E+04 -0.64070019711E+03 -0.18877034514E+04  0.22324875810E+04  0.10100000352E+00 0. -1.
</event>
<event>
 5   0  0.7551495E-07  0.3789037E+04  0.7818609E-02  0.8048512E-01
        2   -1    0    0  501    0  0.00000000000E+00  0.00000000000E+00  0.16879292839E+04  0.16879292839E+04  0.25500000920E-02 0. -1.
       -2   -1    0    0    0  501  0.00000000000E+00  0.00000000000E+00 -0.21263920605E+04  0.21263920605E+04  0.25500000920E-02 0.  1.
    10030    2    1    2    0    0  0.00000000000E+00  0.00000000000E+00 -0.43846277652E+03  0.38143213444E+04  0.37890365150E+04 0.  0.
        1    1    3    3  502    0 -0.58334802878E+02 -0.42566068168E+03  0.16382400245E+04  0.16936411495E+04  0.50400001928E-02 0. -1.
       -1    1    3    3    0  502  0.58334802878E+02  0.42566068168E+03 -0.20767028011E+04  0.21206801949E+04  0.50400001928E-02 0.  1.
</event>
<event>
 5   0  0.2529875E-07  0.3815641E+04  0.7818609E-02  0.8042807E-01
       -1   -1    0    0    0  501  0.00000000000E+00  0.00000000000E+00  0.19925128570E+04  0.19925128570E+04  0.50400001928E-02 0.  1.
        1   -1    0    0  501    0  0.00000000000E+00  0.00000000000E+00 -0.18267275445E+04  0.18267275445E+04  0.50400001928E-02 0. -1.
    10030    2    1    2    0    0  0.00000000000E+00  0.00000000000E+00  0.16578531248E+03  0.38192404015E+04  0.38156405064E+04 0.  0.
        1    1    3    3  502    0 -0.10013141734E+04  0.48961570940E+03 -0.14669300345E+04  0.18423456089E+04  0.50400001928E-02 0. -1.
       -1    1    3    3    0  502  0.10013141734E+04 -0.48961570940E+03  0.16327153469E+04  0.19768947926E+04  0.50400001928E-02 0.  1.
</event>
<event>
 5   0  0.7551495E-07  0.3571119E+04  0.7818609E-02  0.8097139E-01
       -2   -1    0    0    0  501  0.00000000000E+00  0.00000000000E+00  0.18736741642E+04  0.18736741642E+04  0.25500000920E-02 0. -1.
        2   -1    0    0  501    0  0.00000000000E+00  0.00000000000E+00 -0.17015890474E+04  0.17015890474E+04  0.25500000920E-02 0.  1.
    10030    2    1    2    0    0  0.00000000000E+00  0.00000000000E+00  0.17208511679E+03  0.35752632115E+04  0.35711193965E+04 0.  0.
        1    1    3    3  502    0 -0.95416939683E+03  0.75320373112E+03  0.13954088893E+04  0.18506542267E+04  0.50400001928E-02 0. -1.
       -1    1    3    3    0  502  0.95416939683E+03 -0.75320373112E+03 -0.12233237725E+04  0.17246089849E+04  0.50400001928E-02 0.  1.
</event>
<event>
 5   0  0.2529875E-07  0.3708469E+04  0.7818609E-02  0.8066088E-01
       -1   -1    0    0    0  501  0.00000000000E+00  0.00000000000E+00  0.10070635469E+04  0.10070635469E+04  0.50400001928E-02 0. -1.
        1   -1    0    0  501    0  0.00000000000E+00  0.00000000000E+00 -0.34140700838E+04  0.34140700838E+04  0.50400001928E-02 0.  1.
    10030    2    1    2    0    0  0.00000000000E+00  0.00000000000E+00 -0.24070065369E+04  0.44211336307E+04  0.37084689714E+04 0.  0.
        4    1    3    3  502    0  0.46352600567E+03  0.57663472671E+03  0.82347696564E+03  0.11070139529E+04  0.12699999809E+01 0. -1.
       -4    1    3    3    0  502 -0.46352600567E+03 -0.57663472671E+03 -0.32304835025E+04  0.33141196778E+04  0.12699999809E+01 0.  1.
</event>
<event>
 5   0  0.7638805E-07  0.4020376E+04  0.7818609E-02  0.8000449E-01
       -2   -1    0    0    0  501  0.00000000000E+00  0.00000000000E+00  0.20465415028E+04  0.20465415028E+04  0.25500000920E-02 0.  1.
        2   -1    0    0  501    0  0.00000000000E+00  0.00000000000E+00 -0.19744806485E+04  0.19744806485E+04  0.25500000920E-02 0. -1.
    10030    2    1    2    0    0  0.00000000000E+00  0.00000000000E+00  0.72060854282E+02  0.40210221513E+04  0.40203763972E+04 0.  0.
        5    1    3    3  502    0  0.85784186382E+02 -0.17617070531E+04 -0.92841893395E+03  0.19932271508E+04  0.46999998093E+01 0. -1.
       -5    1    3    3    0  502 -0.85784186382E+02  0.17617070531E+04  0.10004797882E+04  0.20277950006E+04  0.46999998093E+01 0.  1.
</event>
<event>
 5   0  0.2529875E-07  0.3606995E+04  0.7818609E-02  0.8088891E-01
       -1   -1    0    0    0  501  0.00000000000E+00  0.00000000000E+00  0.16810020684E+04  0.16810020684E+04  0.50400001928E-02 0.  1.
        1   -1    0    0  501    0  0.00000000000E+00  0.00000000000E+00 -0.19349190119E+04  0.19349190119E+04  0.50400001928E-02 0. -1.
    10030    2    1    2    0    0  0.00000000000E+00  0.00000000000E+00 -0.25391694343E+03  0.36159210803E+04  0.36069947941E+04 0.  0.
        4    1    3    3  502    0  0.76099330161E+03  0.11473200013E+04 -0.12948080666E+04  0.18899691883E+04  0.12699999809E+01 0. -1.
       -4    1    3    3    0  502 -0.76099330161E+03 -0.11473200013E+04  0.10408911231E+04  0.17259518920E+04  0.12699999809E+01 0.  1.
</event>
<event>
 5   0  0.2529875E-07  0.3795628E+04  0.7818609E-02  0.8047094E-01
       -1   -1    0    0    0  501  0.00000000000E+00  0.00000000000E+00  0.17294550695E+04  0.17294550695E+04  0.50400001928E-02 0.  1.
        1   -1    0    0  501    0  0.00000000000E+00  0.00000000000E+00 -0.20825621368E+04  0.20825621368E+04  0.50400001928E-02 0. -1.
    10030    2    1    2    0    0  0.00000000000E+00  0.00000000000E+00 -0.35310706733E+03  0.38120172063E+04  0.37956278242E+04 0.  0.
        5    1    3    3  502    0 -0.10864094712E+04  0.13842835752E+04 -0.89036082382E+03  0.19721285562E+04  0.46999998093E+01 0. -1.
       -5    1    3    3    0  502  0.10864094712E+04 -0.13842835752E+04  0.53725375649E+03  0.18398886500E+04  0.46999998093E+01 0.  1.
</event>
<event>
 5   0  0.7551495E-07  0.2382271E+04  0.7818609E-02  0.8446171E-01
        2   -1    0    0  501    0  0.00000000000E+00  0.00000000000E+00  0.14328760718E+04  0.14328760718E+04  0.25500000920E-02 0. -1.
       -2   -1    0    0    0  501  0.00000000000E+00  0.00000000000E+00 -0.99017900586E+03  0.99017900587E+03  0.25500000920E-02 0.  1.
    10030    2    1    2    0    0  0.00000000000E+00  0.00000000000E+00  0.44269706591E+03  0.24230550776E+04  0.23822710209E+04 0.  0.
        1    1    3    3  502    0  0.70213180463E+03 -0.77693011938E+01  0.11999818656E+04  0.13903258290E+04  0.50400001928E-02 0. -1.
       -1    1    3    3    0  502 -0.70213180463E+03  0.77693011938E+01 -0.75728479967E+03  0.10327292486E+04  0.50400001928E-02 0.  1.
</event>
<event>
 5   0  0.7649458E-07  0.2704703E+04  0.7818609E-02  0.8333481E-01
       -2   -1    0    0    0  501  0.00000000000E+00  0.00000000000E+00  0.23672510716E+04  0.23672510716E+04  0.25500000920E-02 0.  1.
        2   -1    0    0  501    0  0.00000000000E+00  0.00000000000E+00 -0.77256468549E+03  0.77256468549E+03  0.25500000920E-02 0. -1.
    10030    2    1    2    0    0  0.00000000000E+00  0.00000000000E+00  0.15946863861E+04  0.31398157571E+04  0.27047030000E+04 0.  0.
        4    1    3    3  502    0  0.72088832333E+03  0.45248235615E+03  0.20173274097E+04  0.21895277454E+04  0.12699999809E+01 0.  1.
       -4    1    3    3    0  502 -0.72088832333E+03 -0.45248235615E+03 -0.42264102358E+03  0.95028801164E+03  0.12699999809E+01 0. -1.
</event>
<event>
 5   0  0.8421677E-07  0.3782610E+04  0.7818609E-02  0.8049897E-01
       -2   -1    0    0    0  501  0.00000000000E+00  0.00000000000E+00  0.12523629516E+04  0.12523629516E+04  0.25500000920E-02 0.  1.
        2   -1    0    0  501    0  0.00000000000E+00  0.00000000000E+00 -0.28562277196E+04  0.28562277196E+04  0.25500000920E-02 0. -1.
    10030    2    1    2    0    0  0.00000000000E+00  0.00000000000E+00 -0.16038647680E+04  0.41085906712E+04  0.37826095635E+04 0.  0.
        3    1    3    3  502    0 -0.15251970636E+04 -0.91001185103E+03 -0.15081041513E+04  0.23299626163E+04  0.10100000352E+00 0. -1.
       -3    1    3    3    0  502  0.15251970636E+04  0.91001185103E+03 -0.95760616646E+02  0.17786280549E+04  0.10100000352E+00 0.  1.
</event>
<event>
 5   0  0.2529875E-07  0.3803724E+04  0.7818609E-02  0.8045356E-01
        1   -1    0    0  501    0  0.00000000000E+00  0.00000000000E+00  0.27532922329E+04  0.27532922329E+04  0.50400001928E-02 0. -1.
       -1   -1    0    0    0  501  0.00000000000E+00  0.00000000000E+00 -0.13137286511E+04  0.13137286511E+04  0.50400001928E-02 0.  1.
    10030    2    1    2    0    0  0.00000000000E+00  0.00000000000E+00  0.14395635817E+04  0.40670208840E+04  0.38037239076E+04 0.  0.
        4    1    3    3  502    0  0.53106842034E+03  0.15704669301E+04 -0.27676256976E+03  0.16807733870E+04  0.12699999809E+01 0.  1.
       -4    1    3    3    0  502 -0.53106842034E+03 -0.15704669301E+04  0.17163261515E+04  0.23862474970E+04  0.12699999809E+01 0. -1.
</event>
<event>
 5   0  0.2907071E-07  0.2355421E+04  0.7818609E-02  0.8456384E-01
        1   -1    0    0  501    0  0.00000000000E+00  0.00000000000E+00  0.10926995785E+04  0.10926995785E+04  0.50400001928E-02 0. -1.
       -1   -1    0    0    0  501  0.00000000000E+00  0.00000000000E+00 -0.12693353757E+04  0.12693353757E+04  0.50400001928E-02 0.  1.
    10030    2    1    2    0    0  0.00000000000E+00  0.00000000000E+00 -0.17663579718E+03  0.23620349542E+04  0.23554211768E+04 0.  0.
        2    1    3    3  502    0 -0.24379821301E+03  0.13889285005E+03  0.10586915798E+04  0.10952427373E+04  0.25500000920E-02 0. -1.
       -2    1    3    3    0  502  0.24379821301E+03 -0.13889285005E+03 -0.12353273770E+04  0.12667922169E+04  0.25500000920E-02 0.  1.
</event>
<event>
 5   0  0.7638805E-07  0.3882664E+04  0.7818609E-02  0.8028645E-01
       -2   -1    0    0    0  501  0.00000000000E+00  0.00000000000E+00  0.15657433622E+04  0.15657433622E+04  0.25500000920E-02 0. -1.
        2   -1    0    0  501    0  0.00000000000E+00  0.00000000000E+00 -0.24070159197E+04  0.24070159197E+04  0.25500000920E-02 0.  1.
    10030    2    1    2    0    0  0.00000000000E+00  0.00000000000E+00 -0.84127255753E+03  0.39727592819E+04  0.38826636213E+04 0.  0.
        5    1    3    3  502    0  0.87194133231E+02 -0.86735740061E+03  0.13542139126E+04  0.16105368944E+04  0.46999998093E+01 0. -1.
       -5    1    3    3    0  502 -0.87194133231E+02  0.86735740061E+03 -0.21954864701E+04  0.23622223875E+04  0.46999998093E+01 0.  1.
</event>
<event>
 5   0  0.2529875E-07  0.3787037E+04  0.7818609E-02  0.8048942E-01
        1   -1    0    0  501    0  0.00000000000E+00  0.00000000000E+00  0.14223300049E+04  0.14223300049E+04  0.50400001928E-02 0. -1.
       -1   -1    0    0    0  501  0.00000000000E+00  0.00000000000E+00 -0.25208026075E+04  0.25208026075E+04  0.50400001928E-02 0.  1.
    10030    2    1    2    0    0  0.00000000000E+00  0.00000000000E+00 -0.10984726026E+04  0.39431326124E+04  0.37870374622E+04 0.  0.
        1    1    3    3  502    0 -0.33234189848E+03 -0.16063985717E+03  0.13845044794E+04  0.14328673891E+04  0.50400001928E-02 0. -1.
       -1    1    3    3    0  502  0.33234189848E+03  0.16063985717E+03 -0.24829770820E+04  0.25102652232E+04  0.50400001928E-02 0.  1.
</event>
<event>
 5   0  0.7551495E-07  0.4292574E+04  0.7818609E-02  0.7947993E-01
       -2   -1    0    0    0  501  0.00000000000E+00  0.00000000000E+00  0.26143894379E+04  0.26143894379E+04  0.25500000920E-02 0. -1.
        2   -1    0    0  501    0  0.00000000000E+00  0.00000000000E+00 -0.17619976772E+04  0.17619976772E+04  0.25500000920E-02 0.  1.
    10030    2    1    2    0    0  0.00000000000E+00  0.00000000000E+00  0.85239176071E+03  0.43763871151E+04  0.42925741074E+04 0.  0.
        1    1    3    3  502    0  0.10148067107E+04 -0.12914954334E+04 -0.98235656923E+03  0.19138488821E+04  0.50400001928E-02 0.  1.
       -1    1    3    3    0  502 -0.10148067107E+04  0.12914954334E+04  0.18347483299E+04  0.24625382330E+04  0.50400001928E-02 0. -1.
</event>
<event>
 5   0  0.2907071E-07  0.3834221E+04  0.7818609E-02  0.8038851E-01
       -1   -1    0    0    0  501  0.00000000000E+00  0.00000000000E+00  0.21305608068E+04  0.21305608068E+04  0.50400001928E-02 0.  1.
        1   -1    0    0  501    0  0.00000000000E+00  0.00000000000E+00 -0.17250444777E+04  0.17250444777E+04  0.50400001928E-02 0. -1.
    10030    2    1    2    0    0  0.00000000000E+00  0.00000000000E+00  0.40551632913E+03  0.38556052846E+04  0.38342207314E+04 0.  0.
        2    1    3    3  502    0 -0.12035417918E+04 -0.94665178401E+03  0.13627296876E+04  0.20498035628E+04  0.25500000920E-02 0. -1.
       -2    1    3    3    0  502  0.12035417918E+04  0.94665178401E+03 -0.95721335846E+03  0.18058017218E+04  0.25500000920E-02 0.  1.
</event>
<event>
 5   0  0.2529875E-07  0.3255241E+04  0.7818609E-02  0.8174379E-01
        1   -1    0    0  501    0  0.00000000000E+00  0.00000000000E+00  0.18249647234E+04  0.18249647234E+04  0.50400001928E-02 0.  1.
       -1   -1    0    0    0  501  0.00000000000E+00  0.00000000000E+00 -0.14516165536E+04  0.14516165536E+04  0.50400001928E-02 0. -1.
    10030    2    1    2    0    0  0.00000000000E+00  0.00000000000E+00  0.37334816984E+03  0.32765812770E+04  0.32552413135E+04 0.  0.
        4    1    3    3  502    0  0.93062646991E+03  0.12685691711E+04 -0.23296908589E+03  0.15904746387E+04  0.12699999809E+01 0.  1.
       -4    1    3    3    0  502 -0.93062646991E+03 -0.12685691711E+04  0.60631725573E+03  0.16861066384E+04  0.12699999809E+01 0. -1.
</event>
<event>
 5   0  0.2529875E-07  0.3537532E+04  0.7818609E-02  0.8104952E-01
       -3   -1    0    0    0  501  0.00000000000E+00  0.00000000000E+00  0.18440924269E+04  0.18440924297E+04  0.10100000352E+00 0. -1.
        3   -1    0    0  501    0  0.00000000000E+00  0.00000000000E+00 -0.16965165890E+04  0.16965165921E+04  0.10100000352E+00 0.  1.
    10030    2    1    2    0    0  0.00000000000E+00  0.00000000000E+00  0.14757583790E+03  0.35406090218E+04  0.35375321365E+04 0.  0.
        5    1    3    3  502    0 -0.67020952665E+03 -0.14077338640E+04  0.90974841414E+03  0.18051481126E+04  0.46999998093E+01 0. -1.
       -5    1    3    3    0  502  0.67020952665E+03  0.14077338640E+04 -0.76217257624E+03  0.17354609092E+04  0.46999998093E+01 0.  1.
</event>
<event>
 5   0  0.7649458E-07  0.3789491E+04  0.7818609E-02  0.8048414E-01
       -2   -1    0    0    0  501  0.00000000000E+00  0.00000000000E+00  0.25187556355E+04  0.25187556355E+04  0.25500000920E-02 0.  1.
        2   -1    0    0  501    0  0.00000000000E+00  0.00000000000E+00 -0.14253308493E+04  0.14253308493E+04  0.25500000920E-02 0. -1.
    10030    2    1    2    0    0  0.00000000000E+00  0.00000000000E+00  0.10934247862E+04  0.39440864847E+04  0.37894907885E+04 0.  0.
        4    1    3    3  502    0  0.10311874802E+04  0.15510439733E+04  0.90871412011E+03  0.20724015034E+04  0.12699999809E+01 0.  1.
       -4    1    3    3    0  502 -0.10311874802E+04 -0.15510439733E+04  0.18471066610E+03  0.18716849813E+04  0.12699999809E+01 0. -1.
</event>
<event>
 5   0  0.2529875E-07  0.3715908E+04  0.7818609E-02  0.8064446E-01
        1   -1    0    0  501    0  0.00000000000E+00  0.00000000000E+00  0.19327356307E+04  0.19327356307E+04  0.50400001928E-02 0.  1.
       -1   -1    0    0    0  501  0.00000000000E+00  0.00000000000E+00 -0.17860656053E+04  0.17860656053E+04  0.50400001928E-02 0. -1.
    10030    2    1    2    0    0  0.00000000000E+00  0.00000000000E+00  0.14667002539E+03  0.37188012360E+04  0.37159077675E+04 0.  0.
        5    1    3    3  502    0  0.69191453609E+03 -0.38169127891E+03  0.17561724204E+04  0.19257719537E+04  0.46999998093E+01 0.  1.
       -5    1    3    3    0  502 -0.69191453609E+03  0.38169127891E+03 -0.16095023950E+04  0.17930292823E+04  0.46999998093E+01 0. -1.
</event>
<event>
 5   0  0.8038352E-07  0.3900685E+04  0.7818609E-02  0.8024887E-01
        2   -1    0    0  501    0  0.00000000000E+00  0.00000000000E+00  0.16391173113E+04  0.16391173113E+04  0.25500000920E-02 0. -1.
       -2   -1    0    0    0  501  0.00000000000E+00  0.00000000000E+00 -0.23206612758E+04  0.23206612758E+04  0.25500000920E-02 0.  1.
    10030    2    1    2    0    0  0.00000000000E+00  0.00000000000E+00 -0.68154396447E+03  0.39597785871E+04  0.39006851043E+04 0.  0.
        2    1    3    3  502    0 -0.49317934966E+03 -0.18825200846E+04 -0.20947452527E+03  0.19572908105E+04  0.25500000920E-02 0.  1.
       -2    1    3    3    0  502  0.49317934966E+03  0.18825200846E+04 -0.47206943920E+03  0.20024877766E+04  0.25500000920E-02 0. -1.
</event>
<event>
 5   0  0.2529875E-07  0.3446925E+04  0.7818609E-02  0.8126485E-01
        1   -1    0    0  501    0  0.00000000000E+00  0.00000000000E+00  0.27253163279E+04  0.27253163279E+04  0.50400001928E-02 0.  1.
       -1   -1    0    0    0  501  0.00000000000E+00  0.00000000000E+00 -0.10899000045E+04  0.10899000045E+04  0.50400001928E-02 0. -1.
    10030    2    1    2    0    0  0.00000000000E+00  0.00000000000E+00  0.16354163234E+04  0.38152163324E+04  0.34469245875E+04 0.  0.
        4    1    3    3  502    0 -0.34533702318E+03 -0.51994804744E+03 -0.96039756548E+03  0.11454120343E+04  0.12699999809E+01 0. -1.
       -4    1    3    3    0  502  0.34533702318E+03  0.51994804744E+03  0.25958138889E+04  0.26698042981E+04  0.12699999809E+01 0.  1.
</event>
<event>
 5   0  0.2529875E-07  0.2884128E+04  0.7818609E-02  0.8277616E-01
        1   -1    0    0  501    0  0.00000000000E+00  0.00000000000E+00  0.15104558561E+04  0.15104558561E+04  0.50400001928E-02 0.  1.
       -1   -1    0    0    0  501  0.00000000000E+00  0.00000000000E+00 -0.13767688594E+04  0.13767688594E+04  0.50400001928E-02 0. -1.
    10030    2    1    2    0    0  0.00000000000E+00  0.00000000000E+00  0.13368699668E+03  0.28872247155E+04  0.28841280042E+04 0.  0.
        1    1    3    3  502    0 -0.11029856675E+04 -0.81588951463E+03 -0.37781300537E+03  0.14230234537E+04  0.50400001928E-02 0. -1.
       -1    1    3    3    0  502  0.11029856675E+04  0.81588951463E+03  0.51150000206E+03  0.14642012618E+04  0.50400001928E-02 0.  1.
</event>
<event>
 5   0  0.8038352E-07  0.3838731E+04  0.7818609E-02  0.8037894E-01
        2   -1    0    0  501    0  0.00000000000E+00  0.00000000000E+00  0.12084108885E+04  0.12084108885E+04  0.25500000920E-02 0.  1.
       -2   -1    0    0    0  501  0.00000000000E+00  0.00000000000E+00 -0.30486017284E+04  0.30486017284E+04  0.25500000920E-02 0. -1.
    10030    2    1    2    0    0  0.00000000000E+00  0.00000000000E+00 -0.18401908399E+04  0.42570126169E+04  0.38387307919E+04 0.  0.
        2    1    3    3  502    0 -0.13430696190E+03  0.87007020117E+03 -0.28114889599E+04  0.29461043238E+04  0.25500000920E-02 0. -1.
       -2    1    3    3    0  502  0.13430696190E+03 -0.87007020117E+03  0.97129811999E+03  0.13109082931E+04  0.25500000920E-02 0.  1.
</event>
<event>
 5   0  0.7649458E-07  0.3763466E+04  0.7818609E-02  0.8054041E-01
        2   -1    0    0  501    0  0.00000000000E+00  0.00000000000E+00  0.18362253009E+04  0.18362253009E+04  0.25500000920E-02 0. -1.
       -2   -1    0    0    0  501  0.00000000000E+00  0.00000000000E+00 -0.19283680923E+04  0.19283680923E+04  0.25500000920E-02 0.  1.
    10030    2    1    2    0    0  0.00000000000E+00  0.00000000000E+00 -0.92142791350E+02  0.37645933932E+04  0.37634655734E+04 0.  0.
        4    1    3    3  502    0  0.13759425969E+04  0.11217047017E+04  0.57819671067E+03  0.18670170104E+04  0.12699999809E+01 0. -1.
       -4    1    3    3    0  502 -0.13759425969E+04 -0.11217047017E+04 -0.67033950202E+03  0.18975763828E+04  0.12699999809E+01 0.  1.
</event>
<event>
 5   0  0.2907071E-07  0.3776026E+04  0.7818609E-02  0.8051319E-01
        1   -1    0    0  501    0  0.00000000000E+00  0.00000000000E+00  0.26433532225E+04  0.26433532225E+04  0.50400001928E-02 0. -1.
       -1   -1    0    0    0  501  0.00000000000E+00  0.00000000000E+00 -0.13485116207E+04  0.13485116207E+04  0.50400001928E-02 0.  1.
    10030    2    1    2    0    0  0.00000000000E+00  0.00000000000E+00  0.12948416018E+04  0.39918648431E+04  0.37760257086E+04 0.  0.
        2    1    3    3  502    0  0.43595553061E+03  0.37410061939E+02 -0.12941704173E+04  0.13661382823E+04  0.25500000920E-02 0.  1.
       -2    1    3    3    0  502 -0.43595553061E+03 -0.37410061939E+02  0.25890120191E+04  0.26257265608E+04  0.25500000920E-02 0. -1.
</event>
<event>
 5   0  0.2529875E-07  0.3896148E+04  0.7818609E-02  0.8025831E-01
        1   -1    0    0  501    0  0.00000000000E+00  0.00000000000E+00  0.21580999625E+04  0.21580999625E+04  0.50400001928E-02 0.  1.
       -1   -1    0    0    0  501  0.00000000000E+00  0.00000000000E+00 -0.17584877176E+04  0.17584877176E+04  0.50400001928E-02 0. -1.
    10030    2    1    2    0    0  0.00000000000E+00  0.00000000000E+00  0.39961224487E+03  0.39165876801E+04  0.38961479836E+04 0.  0.
        1    1    3    3  502    0 -0.28362968218E+03 -0.15959697114E+04  0.12859498693E+04  0.20691138641E+04  0.50400001928E-02 0.  1.
       -1    1    3    3    0  502  0.28362968218E+03  0.15959697114E+04 -0.88633762447E+03  0.18474738160E+04  0.50400001928E-02 0. -1.
</event>
<event>
 5   0  0.2529875E-07  0.3454706E+04  0.7818609E-02  0.8124609E-01
        1   -1    0    0  501    0  0.00000000000E+00  0.00000000000E+00  0.23753006043E+04  0.23753006043E+04  0.50400001928E-02 0.  1.
       -1   -1    0    0    0  501  0.00000000000E+00  0.00000000000E+00 -0.12561560042E+04  0.12561560042E+04  0.50400001928E-02 0. -1.
    10030    2    1    2    0    0  0.00000000000E+00  0.00000000000E+00  0.11191446001E+04  0.36314566086E+04  0.34547058433E+04 0.  0.
        1    1    3    3  502    0  0.13616002276E+04 -0.52855620864E+02  0.16754885256E+04  0.21596320742E+04  0.50400001928E-02 0.  1.
       -1    1    3    3    0  502 -0.13616002276E+04  0.52855620864E+02 -0.55634392547E+03  0.14718245344E+04  0.50400001928E-02 0. -1.
</event>
<event>
 5   0  0.7649458E-07  0.3856549E+04  0.7818609E-02  0.8034127E-01
       -2   -1    0    0    0  501  0.00000000000E+00  0.00000000000E+00  0.18497453402E+04  0.18497453402E+04  0.25500000920E-02 0.  1.
        2   -1    0    0  501    0  0.00000000000E+00  0.00000000000E+00 -0.20101372339E+04  0.20101372339E+04  0.25500000920E-02 0. -1.
    10030    2    1    2    0    0  0.00000000000E+00  0.00000000000E+00 -0.16039189371E+03  0.38598825741E+04  0.38565487066E+04 0.  0.
        4    1    3    3  502    0  0.53659377837E+03 -0.88987010858E+03  0.15455353794E+04  0.18623863496E+04  0.12699999809E+01 0.  1.
       -4    1    3    3    0  502 -0.53659377837E+03  0.88987010858E+03 -0.17059272731E+04  0.19974962246E+04  0.12699999809E+01 0. -1.
</event>
<event>
 5   0  0.2529875E-07  0.3825786E+04  0.7818609E-02  0.8040644E-01
        1   -1    0    0  501    0  0.00000000000E+00  0.00000000000E+00  0.14146561470E+04  0.14146561470E+04  0.50400001928E-02 0.  1.
       -1   -1    0    0    0  501  0.00000000000E+00  0.00000000000E+00 -0.25866069057E+04  0.25866069057E+04  0.50400001928E-02 0. -1.
    10030    2    1    2    0    0  0.00000000000E+00  0.00000000000E+00 -0.11719507587E+04  0.40012630528E+04  0.38257858587E+04 0.  0.
        3    1    3    3  502    0 -0.11073301728E+04  0.12031326471E+04 -0.16242063486E+04  0.23047243981E+04  0.10100000352E+00 0. -1.
       -3    1    3    3    0  502  0.11073301728E+04 -0.12031326471E+04  0.45225558986E+03  0.16965386547E+04  0.10100000352E+00 0.  1.
</event>
<event>
 5   0  0.2529875E-07  0.3749417E+04  0.7818609E-02  0.8057098E-01
       -1   -1    0    0    0  501  0.00000000000E+00  0.00000000000E+00  0.12543858830E+04  0.12543858830E+04  0.50400001928E-02 0. -1.
        1   -1    0    0  501    0  0.00000000000E+00  0.00000000000E+00 -0.28017954871E+04  0.28017954871E+04  0.50400001928E-02 0.  1.
    10030    2    1    2    0    0  0.00000000000E+00  0.00000000000E+00 -0.15474096041E+04  0.40561813700E+04  0.37494173979E+04 0.  0.
        1    1    3    3  502    0 -0.12543703215E+04  0.12714914724E+04 -0.13898628846E+04  0.22631514103E+04  0.50400001928E-02 0.  1.
       -1    1    3    3    0  502  0.12543703215E+04 -0.12714914724E+04 -0.15754671948E+03  0.17930299598E+04  0.50400001928E-02 0. -1.
</event>
<event>
 5   0  0.2529875E-07  0.3841201E+04  0.7818609E-02  0.8037371E-01
       -1   -1    0    0    0  501  0.00000000000E+00  0.00000000000E+00  0.19093464257E+04  0.19093464257E+04  0.50400001928E-02 0.  1.
        1   -1    0    0  501    0  0.00000000000E+00  0.00000000000E+00 -0.19319212567E+04  0.19319212567E+04  0.50400001928E-02 0. -1.
    10030    2    1    2    0    0  0.00000000000E+00  0.00000000000E+00 -0.22574830977E+02  0.38412676824E+04  0.38412013466E+04 0.  0.
        1    1    3    3  502    0  0.17251023816E+04 -0.78494268306E+03  0.29951322756E+03  0.19188072900E+04  0.50400001928E-02 0. -1.
       -1    1    3    3    0  502 -0.17251023816E+04  0.78494268306E+03 -0.32208805854E+03  0.19224603924E+04  0.50400001928E-02 0.  1.
</event>
<event>
 5   0  0.7649458E-07  0.2580938E+04  0.7818609E-02  0.8374705E-01
        2   -1    0    0  501    0  0.00000000000E+00  0.00000000000E+00  0.14456389646E+04  0.14456389646E+04  0.25500000920E-02 0.  1.
       -2   -1    0    0    0  501  0.00000000000E+00  0.00000000000E+00 -0.11519547215E+04  0.11519547215E+04  0.25500000920E-02 0. -1.
    10030    2    1    2    0    0  0.00000000000E+00  0.00000000000E+00  0.29368424304E+03  0.25975936861E+04  0.25809383029E+04 0.  0.
        4    1    3    3  502    0  0.99606096094E+02 -0.58779855019E+03 -0.10050437113E+04  0.11685644974E+04  0.12699999809E+01 0. -1.
       -4    1    3    3    0  502 -0.99606096094E+02  0.58779855019E+03  0.12987279543E+04  0.14290291887E+04  0.12699999809E+01 0.  1.
</event>
<event>
 5   0  0.8421677E-07  0.3792121E+04  0.7818609E-02  0.8047848E-01
       -2   -1    0    0    0  501  0.00000000000E+00  0.00000000000E+00  0.25974220538E+04  0.25974220538E+04  0.25500000920E-02 0. -1.
        2   -1    0    0  501    0  0.00000000000E+00  0.00000000000E+00 -0.13840823272E+04  0.13840823272E+04  0.25500000920E-02 0.  1.
    10030    2    1    2    0    0  0.00000000000E+00  0.00000000000E+00  0.12133397266E+04  0.39815043810E+04  0.37921212855E+04 0.  0.
        3    1    3    3  502    0 -0.69713440732E+03 -0.12512260063E+04  0.19110852441E+04  0.23882650023E+04  0.10100000352E+00 0. -1.
       -3    1    3    3    0  502  0.69713440732E+03  0.12512260063E+04 -0.69774551746E+03  0.15932393788E+04  0.10100000352E+00 0.  1.
</event>
<event>
 5   0  0.7638805E-07  0.3587736E+04  0.7818609E-02  0.8093307E-01
        2   -1    0    0  501    0  0.00000000000E+00  0.00000000000E+00  0.22254573414E+04  0.22254573414E+04  0.25500000920E-02 0.  1.
       -2   -1    0    0    0  501  0.00000000000E+00  0.00000000000E+00 -0.14459776385E+04  0.14459776385E+04  0.25500000920E-02 0. -1.
    10030    2    1    2    0    0  0.00000000000E+00  0.00000000000E+00  0.77947970293E+03  0.36714349799E+04  0.35877355260E+04 0.  0.
        5    1    3    3  502    0  0.16056140345E+03 -0.12138462334E+04 -0.95185106943E+03  0.15508852927E+04  0.46999998093E+01 0. -1.
       -5    1    3    3    0  502 -0.16056140345E+03  0.12138462334E+04  0.17313307724E+04  0.21205496872E+04  0.46999998093E+01 0.  1.
</event>
<event>
 5   0  0.8421677E-07  0.3871781E+04  0.7818609E-02  0.8030924E-01
       -2   -1    0    0    0  501  0.00000000000E+00  0.00000000000E+00  0.21070944971E+04  0.21070944971E+04  0.25500000920E-02 0. -1.
        2   -1    0    0  501    0  0.00000000000E+00  0.00000000000E+00 -0.17785968322E+04  0.17785968322E+04  0.25500000920E-02 0.  1.
    10030    2    1    2    0    0  0.00000000000E+00  0.00000000000E+00  0.32849766491E+03  0.38856913293E+04  0.38717807778E+04 0.  0.
        3    1    3    3  502    0  0.18503947046E+04  0.36542655984E+03 -0.27340791451E+03  0.19058460146E+04  0.10100000352E+00 0.  1.
       -3    1    3    3    0  502 -0.18503947046E+04 -0.36542655984E+03  0.60190557942E+03  0.19798453147E+04  0.10100000352E+00 0. -1.
</event>
<event>
 5   0  0.2529875E-07  0.3485502E+04  0.7818609E-02  0.8117234E-01
       -1   -1    0    0    0  501  0.00000000000E+00  0.00000000000E+00  0.14793270445E+04  0.14793270446E+04  0.50400001928E-02 0. -1.
        1   -1    0    0  501    0  0.00000000000E+00  0.00000000000E+00 -0.20530825143E+04  0.20530825143E+04  0.50400001928E-02 0.  1.
    10030    2    1    2    0    0  0.00000000000E+00  0.00000000000E+00 -0.57375546975E+03  0.35324095589E+04  0.34855016787E+04 0.  0.
        5    1    3    3  502    0 -0.17065996642E+03  0.26850580282E+03  0.14496399497E+04  0.14841490033E+04  0.46999998093E+01 0. -1.
       -5    1    3    3    0  502  0.17065996642E+03 -0.26850580282E+03 -0.20233954194E+04  0.20482605556E+04  0.46999998093E+01 0.  1.
</event>
<event>
 5   0  0.7638805E-07  0.3717793E+04  0.7818609E-02  0.8064030E-01
       -2   -1    0    0    0  501  0.00000000000E+00  0.00000000000E+00  0.13660467341E+04  0.13660467342E+04  0.25500000920E-02 0.  1.
        2   -1    0    0  501    0  0.00000000000E+00  0.00000000000E+00 -0.25295596526E+04  0.25295596526E+04  0.25500000920E-02 0. -1.
    10030    2    1    2    0    0  0.00000000000E+00  0.00000000000E+00 -0.11635129185E+04  0.38956063868E+04  0.37177932715E+04 0.  0.
        5    1    3    3  502    0  0.75577775054E+03  0.16254478601E+04 -0.10974258995E+04  0.21018197946E+04  0.46999998093E+01 0. -1.
       -5    1    3    3    0  502 -0.75577775054E+03 -0.16254478601E+04 -0.66087019030E+02  0.17937865922E+04  0.46999998093E+01 0.  1.
</event>
<event>
 5   0  0.8038352E-07  0.3930065E+04  0.7818609E-02  0.8018805E-01
        2   -1    0    0  501    0  0.00000000000E+00  0.00000000000E+00  0.26415860987E+04  0.26415860987E+04  0.25500000920E-02 0.  1.
       -2   -1    0    0    0  501  0.00000000000E+00  0.00000000000E+00 -0.14617551000E+04  0.14617551000E+04  0.25500000920E-02 0. -1.
    10030    2    1    2    0    0  0.00000000000E+00  0.00000000000E+00  0.11798309987E+04  0.41033411987E+04  0.39300646061E+04 0.  0.
        2    1    3    3  502    0  0.13896165702E+04 -0.10591357113E+04 -0.34892364643E+03  0.17817267967E+04  0.25500000920E-02 0. -1.
       -2    1    3    3    0  502 -0.13896165702E+04  0.10591357113E+04  0.15287546451E+04  0.23216144021E+04  0.25500000920E-02 0.  1.
</event>
<event>
 5   0  0.7638805E-07  0.3192401E+04  0.7818609E-02  0.8190827E-01
       -2   -1    0    0    0  501  0.00000000000E+00  0.00000000000E+00  0.11708566552E+04  0.11708566552E+04  0.25500000920E-02 0.  1.
        2   -1    0    0  501    0  0.00000000000E+00  0.00000000000E+00 -0.21760620761E+04  0.21760620761E+04  0.25500000920E-02 0. -1.
    10030    2    1    2    0    0  0.00000000000E+00  0.00000000000E+00 -0.10052054209E+04  0.33469187312E+04  0.31924014558E+04 0.  0.
        5    1    3    3  502    0  0.20034223413E+03 -0.94597684428E+03 -0.18340419556E+04  0.20733405860E+04  0.46999998093E+01 0. -1.
       -5    1    3    3    0  502 -0.20034223413E+03  0.94597684428E+03  0.82883653470E+03  0.12735781452E+04  0.46999998093E+01 0.  1.
</event>
<event>
 5   0  0.2529875E-07  0.2604436E+04  0.7818609E-02  0.8366696E-01
        1   -1    0    0  501    0  0.00000000000E+00  0.00000000000E+00  0.20781231964E+04  0.20781231964E+04  0.50400001928E-02 0.  1.
       -1   -1    0    0    0  501  0.00000000000E+00  0.00000000000E+00 -0.81601124840E+03  0.81601124842E+03  0.50400001928E-02 0. -1.
    10030    2    1    2    0    0  0.00000000000E+00  0.00000000000E+00  0.12621119480E+04  0.28941344449E+04  0.26044361416E+04 0.  0.
        1    1    3    3  502    0  0.29789748808E+03 -0.87307236583E+02 -0.77429373619E+03  0.83420396600E+03  0.50400001928E-02 0. -1.
       -1    1    3    3    0  502 -0.29789748808E+03  0.87307236583E+02  0.20364056842E+04  0.20599304789E+04  0.50400001928E-02 0.  1.
</event>
<event>
 5   0  0.8038352E-07  0.3763628E+04  0.7818609E-02  0.8054006E-01
        2   -1    0    0  501    0  0.00000000000E+00  0.00000000000E+00  0.25768737555E+04  0.25768737555E+04  0.25500000920E-02 0.  1.
       -2   -1    0    0    0  501  0.00000000000E+00  0.00000000000E+00 -0.13742323969E+04  0.13742323969E+04  0.25500000920E-02 0. -1.
    10030    2    1    2    0    0  0.00000000000E+00  0.00000000000E+00  0.12026413586E+04  0.39511061524E+04  0.37636277168E+04 0.  0.
        2    1    3    3  502    0  0.14371807308E+04  0.53468599403E+03  0.17464575193E+04  0.23241108906E+04  0.25500000920E-02 0.  1.
       -2    1    3    3    0  502 -0.14371807308E+04 -0.53468599403E+03 -0.54381616068E+03  0.16269952618E+04  0.25500000920E-02 0. -1.
</event>
<event>
 5   0  0.2529875E-07  0.3824069E+04  0.7818609E-02  0.8041009E-01
       -1   -1    0    0    0  501  0.00000000000E+00  0.00000000000E+00  0.12378875932E+04  0.12378875932E+04  0.50400001928E-02 0.  1.
        1   -1    0    0  501    0  0.00000000000E+00  0.00000000000E+00 -0.29533187990E+04  0.29533187990E+04  0.50400001928E-02 0. -1.
    10030    2    1    2    0    0  0.00000000000E+00  0.00000000000E+00 -0.17154312058E+04  0.41912063923E+04  0.38240694032E+04 0.  0.
        5    1    3    3  502    0  0.46105874532E+02  0.42319715160E+03  0.11852815149E+04  0.12594188899E+04  0.46999998093E+01 0.  1.
       -5    1    3    3    0  502 -0.46105874532E+02 -0.42319715160E+03 -0.29007127207E+04  0.29317875023E+04  0.46999998093E+01 0. -1.
</event>
<event>
 5   0  0.2529875E-07  0.3582836E+04  0.7818609E-02  0.8094435E-01
       -1   -1    0    0    0  501  0.00000000000E+00  0.00000000000E+00  0.23359960784E+04  0.23359960784E+04  0.50400001928E-02 0. -1.
        1   -1    0    0  501    0  0.00000000000E+00  0.00000000000E+00 -0.13737943240E+04  0.13737943240E+04  0.50400001928E-02 0.  1.
    10030    2    1    2    0    0  0.00000000000E+00  0.00000000000E+00  0.96220175443E+03  0.37097904024E+04  0.35828358341E+04 0.  0.
        3    1    3    3  502    0 -0.12484501831E+03  0.63935612107E+03  0.22090091617E+04  0.23030597071E+04  0.10100000352E+00 0. -1.
       -3    1    3    3    0  502  0.12484501831E+03 -0.63935612107E+03 -0.12468074072E+04  0.14067306953E+04  0.10100000352E+00 0.  1.
</event>
<event>
 5   0  0.7649458E-07  0.3848651E+04  0.7818609E-02  0.8035794E-01
       -2   -1    0    0    0  501  0.00000000000E+00  0.00000000000E+00  0.19323768936E+04  0.19323768936E+04  0.25500000920E-02 0. -1.
        2   -1    0    0  501    0  0.00000000000E+00  0.00000000000E+00 -0.19163076675E+04  0.19163076675E+04  0.25500000920E-02 0.  1.
    10030    2    1    2    0    0  0.00000000000E+00  0.00000000000E+00  0.16069226099E+02  0.38486845612E+04  0.38486510145E+04 0.  0.
        4    1    3    3  502    0 -0.14001909810E+04 -0.85093634121E+03 -0.10011320524E+04  0.19201287559E+04  0.12699999809E+01 0.  1.
       -4    1    3    3    0  502  0.14001909810E+04  0.85093634121E+03  0.10172012785E+04  0.19285558053E+04  0.12699999809E+01 0. -1.
</event>
<event>
 5   0  0.2529875E-07  0.3685121E+04  0.7818609E-02  0.8071267E-01
        1   -1    0    0  501    0  0.00000000000E+00  0.00000000000E+00  0.19795798515E+04  0.19795798515E+04  0.50400001928E-02 0. -1.
       -1   -1    0    0    0  501  0.00000000000E+00  0.00000000000E+00 -0.17150250825E+04  0.17150250825E+04  0.50400001928E-02 0.  1.
    10030    2    1    2    0    0  0.00000000000E+00  0.00000000000E+00  0.26455476901E+03  0.36946049339E+04  0.36851209467E+04 0.  0.
        5    1    3    3  502    0 -0.13960266397E+03  0.43826561867E+03 -0.16565345611E+04  0.17192133371E+04  0.46999998093E+01 0.  1.
       -5    1    3    3    0  502  0.13960266397E+03 -0.43826561867E+03  0.19210893301E+04  0.19753915968E+04  0.46999998093E+01 0. -1.
</event>
<event>
 5   0  0.2529875E-07  0.2381046E+04  0.7818609E-02  0.8446634E-01
        1   -1    0    0  501    0  0.00000000000E+00  0.00000000000E+00  0.10939924968E+04  0.10939924968E+04  0.50400001928E-02 0. -1.
       -1   -1    0    0    0  501  0.00000000000E+00  0.00000000000E+00 -0.12955706890E+04  0.12955706890E+04  0.50400001928E-02 0.  1.
    10030    2    1    2    0    0  0.00000000000E+00  0.00000000000E+00 -0.20157819219E+03  0.23895631858E+04  0.23810456634E+04 0.  0.
        1    1    3    3  502    0  0.76118402150E+03  0.47174483096E+03  0.68649168695E+03  0.11283683514E+04  0.50400001928E-02 0. -1.
       -1    1    3    3    0  502 -0.76118402150E+03 -0.47174483096E+03 -0.88806987914E+03  0.12611948344E+04  0.50400001928E-02 0.  1.
</event>
<event>
 5   0  0.2529875E-07  0.3666271E+04  0.7818609E-02  0.8075478E-01
        1   -1    0    0  501    0  0.00000000000E+00  0.00000000000E+00  0.17833846517E+04  0.17833846517E+04  0.50400001928E-02 0. -1.
       -1   -1    0    0    0  501  0.00000000000E+00  0.00000000000E+00 -0.18842738631E+04  0.18842738631E+04  0.50400001928E-02 0.  1.
    10030    2    1    2    0    0  0.00000000000E+00  0.00000000000E+00 -0.10088921143E+03  0.36676585148E+04  0.36662706321E+04 0.  0.
        5    1    3    3  502    0 -0.18126492075E+04 -0.87967536591E+02 -0.30924615325E+03  0.18409483182E+04  0.46999998093E+01 0. -1.
       -5    1    3    3    0  502  0.18126492075E+04  0.87967536591E+02  0.20835694182E+03  0.18267101966E+04  0.46999998093E+01 0.  1.
</event>
<event>
 5   0  0.7638805E-07  0.3779758E+04  0.7818609E-02  0.8050513E-01
       -2   -1    0    0    0  501  0.00000000000E+00  0.00000000000E+00  0.13961088503E+04  0.13961088503E+04  0.25500000920E-02 0.  1.
        2   -1    0    0  501    0  0.00000000000E+00  0.00000000000E+00 -0.25582836169E+04  0.25582836169E+04  0.25500000920E-02 0. -1.
    10030    2    1    2    0    0  0.00000000000E+00  0.00000000000E+00 -0.11621747666E+04  0.39543924672E+04  0.37797578753E+04 0.  0.
        5    1    3    3  502    0 -0.16489575698E+04  0.90617899674E+03 -0.76647161179E+03  0.20316796654E+04  0.46999998093E+01 0.  1.
       -5    1    3    3    0  502  0.16489575698E+04 -0.90617899674E+03 -0.39570315486E+03  0.19227128017E+04  0.46999998093E+01 0. -1.
</event>
<event>
 5   0  0.2529875E-07  0.3534849E+04  0.7818609E-02  0.8105580E-01
        1   -1    0    0  501    0  0.00000000000E+00  0.00000000000E+00  0.20346611725E+04  0.20346611725E+04  0.50400001928E-02 0. -1.
       -1   -1    0    0    0  501  0.00000000000E+00  0.00000000000E+00 -0.15352873659E+04  0.15352873659E+04  0.50400001928E-02 0.  1.
    10030    2    1    2    0    0  0.00000000000E+00  0.00000000000E+00  0.49937380663E+03  0.35699485384E+04  0.35348491295E+04 0.  0.
        1    1    3    3  502    0  0.12349796175E+04  0.29261065501E+03 -0.99256499095E+03  0.16112048015E+04  0.50400001928E-02 0.  1.
       -1    1    3    3    0  502 -0.12349796175E+04 -0.29261065501E+03  0.14919387976E+04  0.19587437369E+04  0.50400001928E-02 0. -1.
</event>
<event>
 5   0  0.2529875E-07  0.2447082E+04  0.7818609E-02  0.8422084E-01
       -3   -1    0    0    0  501  0.00000000000E+00  0.00000000000E+00  0.84814695412E+03  0.84814696013E+03  0.10100000352E+00 0. -1.
        3   -1    0    0  501    0  0.00000000000E+00  0.00000000000E+00 -0.17650858864E+04  0.17650858893E+04  0.10100000352E+00 0.  1.
    10030    2    1    2    0    0  0.00000000000E+00  0.00000000000E+00 -0.91693893232E+03  0.26132328495E+04  0.24470817150E+04 0.  0.
        1    1    3    3  502    0 -0.61136725180E+03  0.86773955833E+03 -0.11083186461E+04  0.15346374422E+04  0.50400001928E-02 0.  1.
       -1    1    3    3    0  502  0.61136725180E+03 -0.86773955833E+03  0.19137971380E+03  0.10785954073E+04  0.50400001928E-02 0. -1.
</event>
<event>
 5   0  0.7638805E-07  0.3123748E+04  0.7818609E-02  0.8209251E-01
       -2   -1    0    0    0  501  0.00000000000E+00  0.00000000000E+00  0.18276781064E+04  0.18276781064E+04  0.25500000920E-02 0.  1.
        2   -1    0    0  501    0  0.00000000000E+00  0.00000000000E+00 -0.13347264158E+04  0.13347264159E+04  0.25500000920E-02 0. -1.
    10030    2    1    2    0    0  0.00000000000E+00  0.00000000000E+00  0.49295169053E+03  0.31624045222E+04  0.31237479080E+04 0.  0.
        5    1    3    3  502    0 -0.14186488396E+03 -0.64227618285E+03 -0.11876647830E+04  0.13576502006E+04  0.46999998093E+01 0. -1.
       -5    1    3    3    0  502  0.14186488396E+03  0.64227618285E+03  0.16806164735E+04  0.18047543216E+04  0.46999998093E+01 0.  1.
</event>
<event>
 5   0  0.2529875E-07  0.3202251E+04  0.7818609E-02  0.8188223E-01
       -1   -1    0    0    0  501  0.00000000000E+00  0.00000000000E+00  0.22779752269E+04  0.22779752269E+04  0.50400001928E-02 0. -1.
        1   -1    0    0  501    0  0.00000000000E+00  0.00000000000E+00 -0.11253866228E+04  0.11253866229E+04  0.50400001928E-02 0.  1.
    10030    2    1    2    0    0  0.00000000000E+00  0.00000000000E+00  0.11525886041E+04  0.34033618498E+04  0.32022509880E+04 0.  0.
        5    1    3    3  502    0  0.85807816356E+03 -0.41018237070E+03  0.19452212608E+04  0.21652841743E+04  0.46999998093E+01 0. -1.
       -5    1    3    3    0  502 -0.85807816356E+03  0.41018237070E+03 -0.79263265672E+03  0.12380776755E+04  0.46999998093E+01 0.  1.
</event>
<event>
 5   0  0.7649458E-07  0.3750808E+04  0.7818609E-02  0.8056794E-01
       -2   -1    0    0    0  501  0.00000000000E+00  0.00000000000E+00  0.13590182232E+04  0.13590182232E+04  0.25500000920E-02 0.  1.
        2   -1    0    0  501    0  0.00000000000E+00  0.00000000000E+00 -0.25880010951E+04  0.25880010952E+04  0.25500000920E-02 0. -1.
    10030    2    1    2    0    0  0.00000000000E+00  0.00000000000E+00 -0.12289828720E+04  0.39470193183E+04  0.37508082595E+04 0.  0.
        4    1    3    3  502    0 -0.63576971048E+03 -0.39319764986E+03 -0.24244465669E+04  0.25370751438E+04  0.12699999809E+01 0. -1.
       -4    1    3    3    0  502  0.63576971048E+03  0.39319764986E+03  0.11954636949E+04  0.14099441745E+04  0.12699999809E+01 0.  1.
</event>
<event>
 5   0  0.2529875E-07  0.3840433E+04  0.7818609E-02  0.8037533E-01
       -1   -1    0    0    0  501  0.00000000000E+00  0.00000000000E+00  0.15584939219E+04  0.15584939219E+04  0.50400001928E-02 0.  1.
        1   -1    0    0  501    0  0.00000000000E+00  0.00000000000E+00 -0.23658941245E+04  0.23658941245E+04  0.50400001928E-02 0. -1.
    10030    2    1    2    0    0  0.00000000000E+00  0.00000000000E+00 -0.80740020256E+03  0.39243880464E+04  0.38404331073E+04 0.  0.
        4    1    3    3  502    0 -0.38494310884E+03 -0.18317316941E+04 -0.84180056415E+03  0.20523284335E+04  0.12699999809E+01 0. -1.
       -4    1    3    3    0  502  0.38494310884E+03  0.18317316941E+04  0.34400361588E+02  0.18720596129E+04  0.12699999809E+01 0.  1.
</event>
<event>
 5   0  0.2907071E-07  0.4068549E+04  0.7818609E-02  0.7990859E-01
        1   -1    0    0  501    0  0.00000000000E+00  0.00000000000E+00  0.14016434170E+04  0.14016434170E+04  0.50400001928E-02 0.  1.
       -1   -1    0    0    0  501  0.00000000000E+00  0.00000000000E+00 -0.29524432721E+04  0.29524432721E+04  0.50400001928E-02 0. -1.
    10030    2    1    2    0    0  0.00000000000E+00  0.00000000000E+00 -0.15507998551E+04  0.43540866891E+04  0.40685489681E+04 0.  0.
        2    1    3    3  502    0  0.12969452074E+04 -0.99611899932E+03  0.51945481929E+03  0.17158535022E+04  0.25500000920E-02 0.  1.
       -2    1    3    3    0  502 -0.12969452074E+04  0.99611899932E+03 -0.20702546743E+04  0.26382331869E+04  0.25500000920E-02 0. -1.
</event>
<event>
 5   0  0.2529875E-07  0.3874313E+04  0.7818609E-02  0.8030393E-01
        1   -1    0    0  501    0  0.00000000000E+00  0.00000000000E+00  0.14366426364E+04  0.14366426364E+04  0.50400001928E-02 0. -1.
       -1   -1    0    0    0  501  0.00000000000E+00  0.00000000000E+00 -0.26120455206E+04  0.26120455206E+04  0.50400001928E-02 0.  1.
    10030    2    1    2    0    0  0.00000000000E+00  0.00000000000E+00 -0.11754028841E+04  0.40486881570E+04  0.38743133395E+04 0.  0.
        3    1    3    3  502    0  0.32648107276E+03  0.73967513579E+02  0.14061876158E+04  0.14454842458E+04  0.10100000352E+00 0. -1.
       -3    1    3    3    0  502 -0.32648107276E+03 -0.73967513579E+02 -0.25815904999E+04  0.26032039112E+04  0.10100000352E+00 0.  1.
</event>
<event>
 5   0  0.7551495E-07  0.3430129E+04  0.7818609E-02  0.8130551E-01
        2   -1    0    0  501    0  0.00000000000E+00  0.00000000000E+00  0.14753175852E+04  0.14753175852E+04  0.25500000920E-02 0.  1.
       -2   -1    0    0    0  501  0.00000000000E+00  0.00000000000E+00 -0.19937711476E+04  0.19937711476E+04  0.25500000920E-02 0. -1.
    10030    2    1    2    0    0  0.00000000000E+00  0.00000000000E+00 -0.51845356239E+03  0.34690887328E+04  0.34301286477E+04 0.  0.
        1    1    3    3  502    0 -0.36738549468E+03 -0.70322558139E+03  0.12785523620E+04  0.15047240486E+04  0.50400001928E-02 0.  1.
       -1    1    3    3    0  502  0.36738549468E+03  0.70322558139E+03 -0.17970059244E+04  0.19643646842E+04  0.50400001928E-02 0. -1.
</event>
<event>
 5   0  0.2907071E-07  0.3693323E+04  0.7818609E-02  0.8069443E-01
       -1   -1    0    0    0  501  0.00000000000E+00  0.00000000000E+00  0.20382093104E+04  0.20382093104E+04  0.50400001928E-02 0.  1.
        1   -1    0    0  501    0  0.00000000000E+00  0.00000000000E+00 -0.16731146374E+04  0.16731146374E+04  0.50400001928E-02 0. -1.
    10030    2    1    2    0    0  0.00000000000E+00  0.00000000000E+00  0.36509467298E+03  0.37113239478E+04  0.36933225320E+04 0.  0.
        2    1    3    3  502    0 -0.59472345698E+03 -0.34989064368E+03 -0.15387049238E+04  0.16863369460E+04  0.25500000920E-02 0. -1.
       -2    1    3    3    0  502  0.59472345698E+03  0.34989064368E+03  0.19037995968E+04  0.20249870018E+04  0.25500000920E-02 0.  1.
</event>
<event>
 5   0  0.2529875E-07  0.2434725E+04  0.7818609E-02  0.8426616E-01
       -1   -1    0    0    0  501  0.00000000000E+00  0.00000000000E+00  0.78561563877E+03  0.78561563879E+03  0.50400001928E-02 0.  1.
        1   -1    0    0  501    0  0.00000000000E+00  0.00000000000E+00 -0.18863823608E+04  0.18863823608E+04  0.50400001928E-02 0. -1.
    10030    2    1    2    0    0  0.00000000000E+00  0.00000000000E+00 -0.11007667220E+04  0.26719979996E+04  0.24347250221E+04 0.  0.
        4    1    3    3  502    0 -0.15061106000E+03  0.11547731277E+04 -0.93960859315E+03  0.14963457452E+04  0.12699999809E+01 0. -1.
       -4    1    3    3    0  502  0.15061106000E+03 -0.11547731277E+04 -0.16115812886E+03  0.11756522544E+04  0.12699999809E+01 0.  1.
</event>
<event>
 5   0  0.7638805E-07  0.3209125E+04  0.7818609E-02  0.8186412E-01
        2   -1    0    0  501    0  0.00000000000E+00  0.00000000000E+00  0.23869423646E+04  0.23869423646E+04  0.25500000920E-02 0. -1.
       -2   -1    0    0    0  501  0.00000000000E+00  0.00000000000E+00 -0.10786268508E+04  0.10786268508E+04  0.25500000920E-02 0.  1.
    10030    2    1    2    0    0  0.00000000000E+00  0.00000000000E+00  0.13083155137E+04  0.34655692154E+04  0.32091245696E+04 0.  0.
        5    1    3    3  502    0 -0.94872801572E+03 -0.54192476337E+03  0.19231478299E+04  0.22118514784E+04  0.46999998093E+01 0. -1.
       -5    1    3    3    0  502  0.94872801572E+03  0.54192476337E+03 -0.61483231615E+03  0.12537177370E+04  0.46999998093E+01 0.  1.
</event>
<event>
 5   0  0.7649458E-07  0.3805554E+04  0.7818609E-02  0.8044964E-01
        2   -1    0    0  501    0  0.00000000000E+00  0.00000000000E+00  0.15251043274E+04  0.15251043274E+04  0.25500000920E-02 0. -1.
       -2   -1    0    0    0  501  0.00000000000E+00  0.00000000000E+00 -0.23739749984E+04  0.23739749984E+04  0.25500000920E-02 0.  1.
    10030    2    1    2    0    0  0.00000000000E+00  0.00000000000E+00 -0.84887067104E+03  0.38990793259E+04  0.38055535962E+04 0.  0.
        4    1    3    3  502    0 -0.14566600575E+03  0.10382553197E+04 -0.20513400154E+04  0.23037339616E+04  0.12699999809E+01 0.  1.
       -4    1    3    3    0  502  0.14566600575E+03 -0.10382553197E+04  0.12024693444E+04  0.15953453642E+04  0.12699999809E+01 0. -1.
</event>
<event>
 5   0  0.2907071E-07  0.3804460E+04  0.7818609E-02  0.8045198E-01
        1   -1    0    0  501    0  0.00000000000E+00  0.00000000000E+00  0.18436231014E+04  0.18436231014E+04  0.50400001928E-02 0.  1.
       -1   -1    0    0    0  501  0.00000000000E+00  0.00000000000E+00 -0.19626999058E+04  0.19626999058E+04  0.50400001928E-02 0. -1.
    10030    2    1    2    0    0  0.00000000000E+00  0.00000000000E+00 -0.11907680440E+03  0.38063230072E+04  0.38044599550E+04 0.  0.
        2    1    3    3  502    0  0.12624153586E+04 -0.14206560416E+04 -0.14034156565E+03  0.19056893454E+04  0.25500000920E-02 0.  1.
       -2    1    3    3    0  502 -0.12624153586E+04  0.14206560416E+04  0.21264761243E+02  0.19006336618E+04  0.25500000920E-02 0. -1.
</event>
<event>
 5   0  0.2529875E-07  0.3656991E+04  0.7818609E-02  0.8077561E-01
       -1   -1    0    0    0  501  0.00000000000E+00  0.00000000000E+00  0.20510340930E+04  0.20510340930E+04  0.50400001928E-02 0. -1.
        1   -1    0    0  501    0  0.00000000000E+00  0.00000000000E+00 -0.16301022832E+04  0.16301022832E+04  0.50400001928E-02 0.  1.
    10030    2    1    2    0    0  0.00000000000E+00  0.00000000000E+00  0.42093180980E+03  0.36811363763E+04  0.36569907618E+04 0.  0.
        3    1    3    3  502    0  0.91429956284E+03  0.12389046063E+04 -0.78223362507E+03  0.17270546513E+04  0.10100000352E+00 0.  1.
       -3    1    3    3    0  502 -0.91429956284E+03 -0.12389046063E+04  0.12031654349E+04  0.19540817250E+04  0.10100000352E+00 0. -1.
</event>
<event>
 5   0  0.2529875E-07  0.3756605E+04  0.7818609E-02  0.8055532E-01
        1   -1    0    0  501    0  0.00000000000E+00  0.00000000000E+00  0.23804899833E+04  0.23804899833E+04  0.50400001928E-02 0.  1.
       -1   -1    0    0    0  501  0.00000000000E+00  0.00000000000E+00 -0.14820561320E+04  0.14820561320E+04  0.50400001928E-02 0. -1.
    10030    2    1    2    0    0  0.00000000000E+00  0.00000000000E+00  0.89843385131E+03  0.38625461153E+04  0.37566047313E+04 0.  0.
        3    1    3    3  502    0 -0.40566185399E+03 -0.36656924595E+03 -0.13984255147E+04  0.15015087353E+04  0.10100000352E+00 0. -1.
       -3    1    3    3    0  502  0.40566185399E+03  0.36656924595E+03  0.22968593660E+04  0.23610373799E+04  0.10100000352E+00 0.  1.
</event>
<event>
 5   0  0.8038352E-07  0.3846580E+04  0.7818609E-02  0.8036232E-01
       -2   -1    0    0    0  501  0.00000000000E+00  0.00000000000E+00  0.13307951202E+04  0.13307951202E+04  0.25500000920E-02 0.  1.
        2   -1    0    0  501    0  0.00000000000E+00  0.00000000000E+00 -0.27795745673E+04  0.27795745673E+04  0.25500000920E-02 0. -1.
    10030    2    1    2    0    0  0.00000000000E+00  0.00000000000E+00 -0.14487794471E+04  0.41103696874E+04  0.38465799200E+04 0.  0.
        2    1    3    3  502    0  0.69078327146E+03 -0.89836487929E+03  0.93614133506E+03  0.14698984943E+04  0.25500000920E-02 0.  1.
       -2    1    3    3    0  502 -0.69078327146E+03  0.89836487929E+03 -0.23849207821E+04  0.26404711931E+04  0.25500000920E-02 0. -1.
</event>
<event>
 5   0  0.2529875E-07  0.2751339E+04  0.7818609E-02  0.8318537E-01
        1   -1    0    0  501    0  0.00000000000E+00  0.00000000000E+00  0.13993052090E+04  0.13993052090E+04  0.50400001928E-02 0. -1.
       -1   -1    0    0    0  501  0.00000000000E+00  0.00000000000E+00 -0.13524334866E+04  0.13524334866E+04  0.50400001928E-02 0.  1.
    10030    2    1    2    0    0  0.00000000000E+00  0.00000000000E+00  0.46871722444E+02  0.27517386956E+04  0.27513394721E+04 0.  0.
        1    1    3    3  502    0  0.13239616922E+04  0.29599263991E+03  0.25146240221E+03  0.13797534364E+04  0.50400001928E-02 0.  1.
       -1    1    3    3    0  502 -0.13239616922E+04 -0.29599263991E+03 -0.20459067977E+03  0.13719852593E+04  0.50400001928E-02 0. -1.
</event>
<event>
 5   0  0.7638805E-07  0.3789793E+04  0.7818609E-02  0.8048349E-01
       -2   -1    0    0    0  501  0.00000000000E+00  0.00000000000E+00  0.28285861438E+04  0.28285861438E+04  0.25500000920E-02 0. -1.
        2   -1    0    0  501    0  0.00000000000E+00  0.00000000000E+00 -0.12694086890E+04  0.12694086890E+04  0.25500000920E-02 0.  1.
    10030    2    1    2    0    0  0.00000000000E+00  0.00000000000E+00  0.15591774547E+04  0.40979948328E+04  0.37897925160E+04 0.  0.
        5    1    3    3  502    0  0.12895541648E+04  0.65160593239E+03  0.21052894844E+04  0.25533911056E+04  0.46999998093E+01 0. -1.
       -5    1    3    3    0  502 -0.12895541648E+04 -0.65160593239E+03 -0.54611202964E+03  0.15446037272E+04  0.46999998093E+01 0.  1.
</event>
<event>
 5   0  0.2529875E-07  0.3908110E+04  0.7818609E-02  0.8023345E-01
        1   -1    0    0  501    0  0.00000000000E+00  0.00000000000E+00  0.26249700381E+04  0.26249700381E+04  0.50400001928E-02 0.  1.
       -1   -1    0    0    0  501  0.00000000000E+00  0.00000000000E+00 -0.14546187071E+04  0.14546187071E+04  0.50400001928E-02 0. -1.
    10030    2    1    2    0    0  0.00000000000E+00  0.00000000000E+00  0.11703513311E+04  0.40795887452E+04  0.39081097850E+04 0.  0.
        3    1    3    3  502    0 -0.11461448669E+04  0.15816746921E+04  0.64223315966E+03  0.20561630113E+04  0.10100000352E+00 0. -1.
       -3    1    3    3    0  502  0.11461448669E+04 -0.15816746921E+04  0.52811817140E+03  0.20234257339E+04  0.10100000352E+00 0.  1.
</event>
<event>
 5   0  0.8038352E-07  0.3252814E+04  0.7818609E-02  0.8175007E-01
       -2   -1    0    0    0  501  0.00000000000E+00  0.00000000000E+00  0.10111471176E+04  0.10111471176E+04  0.25500000920E-02 0.  1.
        2   -1    0    0  501    0  0.00000000000E+00  0.00000000000E+00 -0.26160386551E+04  0.26160386551E+04  0.25500000920E-02 0. -1.
    10030    2    1    2    0    0  0.00000000000E+00  0.00000000000E+00 -0.16048915375E+04  0.36271857728E+04  0.32528141329E+04 0.  0.
        2    1    3    3  502    0  0.65196705820E+03  0.14871912021E+04 -0.70023845649E+03  0.17683700440E+04  0.25500000920E-02 0. -1.
       -2    1    3    3    0  502 -0.65196705820E+03 -0.14871912021E+04 -0.90465308100E+03  0.18588157288E+04  0.25500000920E-02 0.  1.
</event>
<event>
 5   0  0.7638805E-07  0.3790065E+04  0.7818609E-02  0.8048290E-01
        2   -1    0    0  501    0  0.00000000000E+00  0.00000000000E+00  0.18529611266E+04  0.18529611266E+04  0.25500000920E-02 0. -1.
       -2   -1    0    0    0  501  0.00000000000E+00  0.00000000000E+00 -0.19380587037E+04  0.19380587037E+04  0.25500000920E-02 0.  1.
    10030    2    1    2    0    0  0.00000000000E+00  0.00000000000E+00 -0.85097577146E+02  0.37910198303E+04  0.37900646111E+04 0.  0.
        5    1    3    3  502    0  0.44799799241E+03  0.17847450898E+04 -0.49555156241E+03  0.19056785347E+04  0.46999998093E+01 0.  1.
       -5    1    3    3    0  502 -0.44799799241E+03 -0.17847450898E+04  0.41045398527E+03  0.18853412956E+04  0.46999998093E+01 0. -1.
</event>
<event>
 5   0  0.2529875E-07  0.3990705E+04  0.7818609E-02  0.8006424E-01
        1   -1    0    0  501    0  0.00000000000E+00  0.00000000000E+00  0.12971261623E+04  0.12971261623E+04  0.50400001928E-02 0. -1.
       -1   -1    0    0    0  501  0.00000000000E+00  0.00000000000E+00 -0.30694257534E+04  0.30694257534E+04  0.50400001928E-02 0.  1.
    10030    2    1    2    0    0  0.00000000000E+00  0.00000000000E+00 -0.17722995911E+04  0.43665519158E+04  0.39907054254E+04 0.  0.
        1    1    3    3  502    0  0.10391659223E+04 -0.19859340484E+03  0.96496532867E+03  0.14319438677E+04  0.50400001928E-02 0. -1.
       -1    1    3    3    0  502 -0.10391659223E+04  0.19859340484E+03 -0.27372649198E+04  0.29346080481E+04  0.50400001928E-02 0.  1.
</event>
<event>
 5   0  0.2529875E-07  0.3973184E+04  0.7818609E-02  0.8009978E-01
       -1   -1    0    0    0  501  0.00000000000E+00  0.00000000000E+00  0.13290371182E+04  0.13290371182E+04  0.50400001928E-02 0. -1.
        1   -1    0    0  501    0  0.00000000000E+00  0.00000000000E+00 -0.29694786223E+04  0.29694786223E+04  0.50400001928E-02 0.  1.
    10030    2    1    2    0    0  0.00000000000E+00  0.00000000000E+00 -0.16404415042E+04  0.42985157405E+04  0.39731837665E+04 0.  0.
        4    1    3    3  502    0  0.22377296209E+03 -0.37091536442E+03  0.12773173541E+04  0.13487749190E+04  0.12699999809E+01 0. -1.
       -4    1    3    3    0  502 -0.22377296209E+03  0.37091536442E+03 -0.29177588583E+04  0.29497408215E+04  0.12699999809E+01 0.  1.
</event>
<event>
 5   0  0.8421677E-07  0.2507618E+04  0.7818609E-02  0.8400277E-01
        2   -1    0    0  501    0  0.00000000000E+00  0.00000000000E+00  0.18592117879E+04  0.18592117879E+04  0.25500000920E-02 0. -1.
       -2   -1    0    0    0  501  0.00000000000E+00  0.00000000000E+00 -0.84553934127E+03  0.84553934127E+03  0.25500000920E-02 0.  1.
    10030    2    1    2    0    0  0.00000000000E+00  0.00000000000E+00  0.10136724466E+04  0.27047511291E+04  0.25076177623E+04 0.  0.
        3    1    3    3  502    0 -0.39269240514E+03 -0.34648924474E+03  0.17355920909E+04  0.18128822460E+04  0.10100000352E+00 0. -1.
       -3    1    3    3    0  502  0.39269240514E+03  0.34648924474E+03 -0.72191964426E+03  0.89186888315E+03  0.10100000352E+00 0.  1.
</event>
<event>
 5   0  0.2529875E-07  0.2640692E+04  0.7818609E-02  0.8354509E-01
        1   -1    0    0  501    0  0.00000000000E+00  0.00000000000E+00  0.19403902246E+04  0.19403902246E+04  0.50400001928E-02 0.  1.
       -1   -1    0    0    0  501  0.00000000000E+00  0.00000000000E+00 -0.89843430983E+03  0.89843430984E+03  0.50400001928E-02 0. -1.
    10030    2    1    2    0    0  0.00000000000E+00  0.00000000000E+00  0.10419559148E+04  0.28388245345E+04  0.26406916914E+04 0.  0.
        5    1    3    3  502    0  0.35918889428E+03 -0.10428697094E+04  0.13011696888E+04  0.17057721248E+04  0.46999998093E+01 0.  1.
       -5    1    3    3    0  502 -0.35918889428E+03  0.10428697094E+04 -0.25921377403E+03  0.11330524097E+04  0.46999998093E+01 0. -1.
</event>
<event>
 5   0  0.7551495E-07  0.3810347E+04  0.7818609E-02  0.8043938E-01
       -2   -1    0    0    0  501  0.00000000000E+00  0.00000000000E+00  0.17850322035E+04  0.17850322035E+04  0.25500000920E-02 0. -1.
        2   -1    0    0  501    0  0.00000000000E+00  0.00000000000E+00 -0.20334008537E+04  0.20334008537E+04  0.25500000920E-02 0.  1.
    10030    2    1    2    0    0  0.00000000000E+00  0.00000000000E+00 -0.24836865021E+03  0.38184330572E+04  0.38103469692E+04 0.  0.
        1    1    3    3  502    0 -0.16061684365E+04  0.78507058609E+03  0.53567573049E+03  0.18662961608E+04  0.50400001928E-02 0.  1.
       -1    1    3    3    0  502  0.16061684365E+04 -0.78507058609E+03 -0.78404438070E+03  0.19521368964E+04  0.50400001928E-02 0. -1.
</event>
<event>
 5   0  0.2529875E-07  0.3839627E+04  0.7818609E-02  0.8037704E-01
       -1   -1    0    0    0  501  0.00000000000E+00  0.00000000000E+00  0.16978912625E+04  0.16978912625E+04  0.50400001928E-02 0.  1.
        1   -1    0    0  501    0  0.00000000000E+00  0.00000000000E+00 -0.21707417602E+04  0.21707417602E+04  0.50400001928E-02 0. -1.
    10030    2    1    2    0    0  0.00000000000E+00  0.00000000000E+00 -0.47285049770E+03  0.38686330227E+04  0.38396267880E+04 0.  0.
        1    1    3    3  502    0  0.66044059983E+03  0.60275364341E+03 -0.19481382919E+04  0.21435336585E+04  0.50400001928E-02 0. -1.
       -1    1    3    3    0  502 -0.66044059983E+03 -0.60275364341E+03  0.14752877942E+04  0.17250993642E+04  0.50400001928E-02 0.  1.
</event>
<event>
 5   0  0.8038352E-07  0.3829343E+04  0.7818609E-02  0.8039887E-01
        2   -1    0    0  501    0  0.00000000000E+00  0.00000000000E+00  0.19494841217E+04  0.19494841217E+04  0.25500000920E-02 0. -1.
       -2   -1    0    0    0  501  0.00000000000E+00  0.00000000000E+00 -0.18804801290E+04  0.18804801290E+04  0.25500000920E-02 0.  1.
    10030    2    1    2    0    0  0.00000000000E+00  0.00000000000E+00  0.69003992655E+02  0.38299642507E+04  0.38293425820E+04 0.  0.
        2    1    3    3  502    0  0.54040476795E+02 -0.62429776313E+03  0.18440215363E+04  0.19475840153E+04  0.25500000920E-02 0. -1.
       -2    1    3    3    0  502 -0.54040476795E+02  0.62429776313E+03 -0.17750175437E+04  0.18823802354E+04  0.25500000920E-02 0.  1.
</event>
<event>
 5   0  0.2529875E-07  0.3792794E+04  0.7818609E-02  0.8047703E-01
        1   -1    0    0  501    0  0.00000000000E+00  0.00000000000E+00  0.19439077542E+04  0.19439077543E+04  0.50400001928E-02 0. -1.
       -1   -1    0    0    0  501  0.00000000000E+00  0.00000000000E+00 -0.18500473306E+04  0.18500473306E+04  0.50400001928E-02 0.  1.
    10030    2    1    2    0    0  0.00000000000E+00  0.00000000000E+00  0.93860423630E+02  0.37939550849E+04  0.37927938788E+04 0.  0.
        3    1    3    3  502    0  0.18499895727E+04  0.21570765022E+03 -0.31001251627E+03  0.18881469699E+04  0.10100000352E+00 0. -1.
       -3    1    3    3    0  502 -0.18499895727E+04 -0.21570765022E+03  0.40387293989E+03  0.19058081150E+04  0.10100000352E+00 0.  1.
</event>
<event>
 5   0  0.7649458E-07  0.3822980E+04  0.7818609E-02  0.8041241E-01
        2   -1    0    0  501    0  0.00000000000E+00  0.00000000000E+00  0.17662422931E+04  0.17662422932E+04  0.25500000920E-02 0. -1.
       -2   -1    0    0    0  501  0.00000000000E+00  0.00000000000E+00 -0.20686819664E+04  0.20686819664E+04  0.25500000920E-02 0.  1.
    10030    2    1    2    0    0  0.00000000000E+00  0.00000000000E+00 -0.30243967324E+03  0.38349242595E+04  0.38229797698E+04 0.  0.
        4    1    3    3  502    0  0.13910481466E+04  0.11274029166E+04 -0.82244400537E+03  0.19703979388E+04  0.12699999809E+01 0.  1.
       -4    1    3    3    0  502 -0.13910481466E+04 -0.11274029166E+04  0.52000433213E+03  0.18645263207E+04  0.12699999809E+01 0. -1.
</event>
<event>
 5   0  0.7551495E-07  0.3822720E+04  0.7818609E-02  0.8041297E-01
        2   -1    0    0  501    0  0.00000000000E+00  0.00000000000E+00  0.26015275889E+04  0.26015275889E+04  0.25500000920E-02 0. -1.
       -2   -1    0    0    0  501  0.00000000000E+00  0.00000000000E+00 -0.14042888300E+04  0.14042888300E+04  0.25500000920E-02 0.  1.
    10030    2    1    2    0    0  0.00000000000E+00  0.00000000000E+00  0.11972387589E+04  0.40058164190E+04  0.38227195211E+04 0.  0.
        1    1    3    3  502    0  0.40489204235E+03 -0.14247541375E+04 -0.66731405442E+03  0.16245522354E+04  0.50400001928E-02 0.  1.
       -1    1    3    3    0  502 -0.40489204235E+03  0.14247541375E+04  0.18645528133E+04  0.23812641836E+04  0.50400001928E-02 0. -1.
</event>
<event>
 5   0  0.2529875E-07  0.2386418E+04  0.7818609E-02  0.8444606E-01
        1   -1    0    0  501    0  0.00000000000E+00  0.00000000000E+00  0.18009546812E+04  0.18009546812E+04  0.50400001928E-02 0. -1.
       -1   -1    0    0    0  501  0.00000000000E+00  0.00000000000E+00 -0.79055148344E+03  0.79055148345E+03  0.50400001928E-02 0.  1.
    10030    2    1    2    0    0  0.00000000000E+00  0.00000000000E+00  0.10104031978E+04  0.25915061647E+04  0.23864177295E+04 0.  0.
        3    1    3    3  502    0  0.82874923044E+03 -0.83069477673E+03  0.27010555915E+03  0.12040914095E+04  0.10100000352E+00 0.  1.
       -3    1    3    3    0  502 -0.82874923044E+03  0.83069477673E+03  0.74029763863E+03  0.13874147552E+04  0.10100000352E+00 0. -1.
</event>
<event>
 5   0  0.2529875E-07  0.3798540E+04  0.7818609E-02  0.8046468E-01
        1   -1    0    0  501    0  0.00000000000E+00  0.00000000000E+00  0.21939826121E+04  0.21939826121E+04  0.50400001928E-02 0.  1.
       -1   -1    0    0    0  501  0.00000000000E+00  0.00000000000E+00 -0.16441454364E+04  0.16441454364E+04  0.50400001928E-02 0. -1.
    10030    2    1    2    0    0  0.00000000000E+00  0.00000000000E+00  0.54983717574E+03  0.38381280485E+04  0.37985399823E+04 0.  0.
        5    1    3    3  502    0  0.11344304202E+04  0.85814119883E+02  0.18115932621E+04  0.21392028139E+04  0.46999998093E+01 0.  1.
       -5    1    3    3    0  502 -0.11344304202E+04 -0.85814119883E+02 -0.12617560864E+04  0.16989252347E+04  0.46999998093E+01 0. -1.
</event>
<event>
 5   0  0.2529875E-07  0.3758822E+04  0.7818609E-02  0.8055050E-01
        1   -1    0    0  501    0  0.00000000000E+00  0.00000000000E+00  0.24902420499E+04  0.24902420499E+04  0.50400001928E-02 0. -1.
       -1   -1    0    0    0  501  0.00000000000E+00  0.00000000000E+00 -0.14184107404E+04  0.14184107404E+04  0.50400001928E-02 0.  1.
    10030    2    1    2    0    0  0.00000000000E+00  0.00000000000E+00  0.10718313095E+04  0.39086527903E+04  0.37588221930E+04 0.  0.
        3    1    3    3  502    0  0.31286812374E+03  0.68209360933E+03 -0.12558611632E+04  0.14629851080E+04  0.10100000352E+00 0.  1.
       -3    1    3    3    0  502 -0.31286812374E+03 -0.68209360933E+03  0.23276924727E+04  0.24456676823E+04  0.10100000352E+00 0. -1.
</event>
<event>
 5   0  0.2529875E-07  0.3647328E+04  0.7818609E-02  0.8079736E-01
       -3   -1    0    0    0  501  0.00000000000E+00  0.00000000000E+00  0.13035222479E+04  0.13035222518E+04  0.10100000352E+00 0. -1.
        3   -1    0    0  501    0  0.00000000000E+00  0.00000000000E+00 -0.25513572344E+04  0.25513572364E+04  0.10100000352E+00 0.  1.
    10030    2    1    2    0    0  0.00000000000E+00  0.00000000000E+00 -0.12478349865E+04  0.38548794882E+04  0.36473282982E+04 0.  0.
        4    1    3    3  502    0 -0.16126729045E+04  0.32183183411E+03 -0.14571043899E+04  0.21971446112E+04  0.12699999809E+01 0.  1.
       -4    1    3    3    0  502  0.16126729045E+04 -0.32183183411E+03  0.20926940341E+03  0.16577348770E+04  0.12699999809E+01 0. -1.
</event>
<event>
 5   0  0.8038352E-07  0.3698230E+04  0.7818609E-02  0.8068354E-01
        2   -1    0    0  501    0  0.00000000000E+00  0.00000000000E+00  0.24382592199E+04  0.24382592199E+04  0.25500000920E-02 0. -1.
       -2   -1    0    0    0  501  0.00000000000E+00  0.00000000000E+00 -0.14023223907E+04  0.14023223907E+04  0.25500000920E-02 0.  1.
    10030    2    1    2    0    0  0.00000000000E+00  0.00000000000E+00  0.10359368292E+04  0.38405816106E+04  0.36982295756E+04 0.  0.
        2    1    3    3  502    0 -0.18384678935E+04  0.19078176599E+03  0.57354103593E+03  0.19352806508E+04  0.25500000920E-02 0. -1.
       -2    1    3    3    0  502  0.18384678935E+04 -0.19078176599E+03  0.46239579331E+03  0.19053009598E+04  0.25500000920E-02 0.  1.
</event>
<event>
 5   0  0.2529875E-07  0.3744007E+04  0.7818609E-02  0.8058279E-01
        1   -1    0    0  501    0  0.00000000000E+00  0.00000000000E+00  0.28726610198E+04  0.28726610198E+04  0.50400001928E-02 0. -1.
       -1   -1    0    0    0  501  0.00000000000E+00  0.00000000000E+00 -0.12199130262E+04  0.12199130262E+04  0.50400001928E-02 0.  1.
    10030    2    1    2    0    0  0.00000000000E+00  0.00000000000E+00  0.16527479936E+04  0.40925740460E+04  0.37440067297E+04 0.  0.
        3    1    3    3  502    0 -0.13816896448E+04 -0.10279936813E+04  0.16285629771E+04  0.23702435874E+04  0.10100000352E+00 0.  1.
       -3    1    3    3    0  502  0.13816896448E+04  0.10279936813E+04  0.24185016495E+02  0.17223304586E+04  0.10100000352E+00 0. -1.
</event>
<event>
 5   0  0.7551495E-07  0.3768770E+04  0.7818609E-02  0.8052890E-01
        2   -1    0    0  501    0  0.00000000000E+00  0.00000000000E+00  0.16660701712E+04  0.16660701712E+04  0.25500000920E-02 0. -1.
       -2   -1    0    0    0  501  0.00000000000E+00  0.00000000000E+00 -0.21313072694E+04  0.21313072694E+04  0.25500000920E-02 0.  1.
    10030    2    1    2    0    0  0.00000000000E+00  0.00000000000E+00 -0.46523709816E+03  0.37973774406E+04  0.37687703391E+04 0.  0.
        1    1    3    3  502    0 -0.38495290868E+03  0.12426865974E+04  0.11409786192E+04  0.17304019564E+04  0.50400001928E-02 0. -1.
       -1    1    3    3    0  502  0.38495290868E+03 -0.12426865974E+04 -0.16062157174E+04  0.20669754841E+04  0.50400001928E-02 0.  1.
</event>
<event>
 5   0  0.7649458E-07  0.3820661E+04  0.7818609E-02  0.8041736E-01
        2   -1    0    0  501    0  0.00000000000E+00  0.00000000000E+00  0.27752465619E+04  0.27752465619E+04  0.25500000920E-02 0. -1.
       -2   -1    0    0    0  501  0.00000000000E+00  0.00000000000E+00 -0.13149687370E+04  0.13149687370E+04  0.25500000920E-02 0.  1.
    10030    2    1    2    0    0  0.00000000000E+00  0.00000000000E+00  0.14602778249E+04  0.40902152989E+04  0.38206609200E+04 0.  0.
        4    1    3    3  502    0  0.62753218880E+03 -0.16321321521E+04  0.15536353082E+04  0.23391101500E+04  0.12699999809E+01 0. -1.
       -4    1    3    3    0  502 -0.62753218880E+03  0.16321321521E+04 -0.93357483299E+02  0.17511051489E+04  0.12699999809E+01 0.  1.
</event>
<event>
 5   0  0.2529875E-07  0.3718538E+04  0.7818609E-02  0.8063866E-01
        1   -1    0    0  501    0  0.00000000000E+00  0.00000000000E+00  0.21868135123E+04  0.21868135123E+04  0.50400001928E-02 0.  1.
       -1   -1    0    0    0  501  0.00000000000E+00  0.00000000000E+00 -0.15807844990E+04  0.15807844990E+04  0.50400001928E-02 0. -1.
    10030    2    1    2    0    0  0.00000000000E+00  0.00000000000E+00  0.60602901328E+03  0.37675980112E+04  0.37185378322E+04 0.  0.
        5    1    3    3  502    0 -0.18046425872E+04 -0.13050028211E+03 -0.13052528197E+03  0.18140628794E+04  0.46999998093E+01 0. -1.
       -5    1    3    3    0  502  0.18046425872E+04  0.13050028211E+03  0.73655429524E+03  0.19535351318E+04  0.46999998093E+01 0.  1.
</event>
<event>
 5   0  0.8421677E-07  0.3746822E+04  0.7818609E-02  0.8057664E-01
        2   -1    0    0  501    0  0.00000000000E+00  0.00000000000E+00  0.19841251949E+04  0.19841251949E+04  0.25500000920E-02 0.  1.
       -2   -1    0    0    0  501  0.00000000000E+00  0.00000000000E+00 -0.17688747409E+04  0.17688747410E+04  0.25500000920E-02 0. -1.
    10030    2    1    2    0    0  0.00000000000E+00  0.00000000000E+00  0.21525045395E+03  0.37529999358E+04  0.37468220882E+04 0.  0.
        3    1    3    3  502    0  0.77717158582E+03 -0.92309705875E+03  0.15430145787E+04  0.19588256313E+04  0.10100000352E+00 0.  1.
       -3    1    3    3    0  502 -0.77717158582E+03  0.92309705875E+03 -0.13277641248E+04  0.17941743045E+04  0.10100000352E+00 0. -1.
</event>
<event>
 5   0  0.7551495E-07  0.2339724E+04  0.7818609E-02  0.8462421E-01
        2   -1    0    0  501    0  0.00000000000E+00  0.00000000000E+00  0.73714780644E+03  0.73714780644E+03  0.25500000920E-02 0. -1.
       -2   -1    0    0    0  501  0.00000000000E+00  0.00000000000E+00 -0.18565842510E+04  0.18565842510E+04  0.25500000920E-02 0.  1.
    10030    2    1    2    0    0  0.00000000000E+00  0.00000000000E+00 -0.11194364445E+04  0.25937320574E+04  0.23397239222E+04 0.  0.
        1    1    3    3  502    0  0.96293675766E+03 -0.24234083671E+02 -0.12956761172E+04  0.16145002604E+04  0.50400001928E-02 0.  1.
       -1    1    3    3    0  502 -0.96293675766E+03  0.24234083671E+02  0.17623967266E+03  0.97923179703E+03  0.50400001928E-02 0. -1.
</event>
<event>
 5   0  0.2907071E-07  0.2324939E+04  0.7818609E-02  0.8468152E-01
        1   -1    0    0  501    0  0.00000000000E+00  0.00000000000E+00  0.15197366064E+04  0.15197366064E+04  0.50400001928E-02 0. -1.
       -1   -1    0    0    0  501  0.00000000000E+00  0.00000000000E+00 -0.88919041134E+03  0.88919041136E+03  0.50400001928E-02 0.  1.
    10030    2    1    2    0    0  0.00000000000E+00  0.00000000000E+00  0.63054619501E+03  0.24089270177E+04  0.23249388965E+04 0.  0.
        2    1    3    3  502    0 -0.13130274796E+03 -0.80371519129E+03  0.11747801781E+04  0.14294428940E+04  0.25500000920E-02 0. -1.
       -2    1    3    3    0  502  0.13130274796E+03  0.80371519129E+03 -0.54423398306E+03  0.97948412374E+03  0.25500000920E-02 0.  1.
</event>
<event>
 5   0  0.2529875E-07  0.3759842E+04  0.7818609E-02  0.8054828E-01
       -1   -1    0    0    0  501  0.00000000000E+00  0.00000000000E+00  0.19174306963E+04  0.19174306963E+04  0.50400001928E-02 0. -1.
        1   -1    0    0  501    0  0.00000000000E+00  0.00000000000E+00 -0.18431446386E+04  0.18431446386E+04  0.50400001928E-02 0.  1.
    10030    2    1    2    0    0  0.00000000000E+00  0.00000000000E+00  0.74286057752E+02  0.37605753349E+04  0.37598415434E+04 0.  0.
        5    1    3    3  502    0  0.10978253717E+04  0.56457996206E+03  0.14552028380E+04  0.19082998899E+04  0.46999998093E+01 0. -1.
       -5    1    3    3    0  502 -0.10978253717E+04 -0.56457996206E+03 -0.13809167802E+04  0.18522754450E+04  0.46999998093E+01 0.  1.
</event>
<event>
 5   0  0.2529875E-07  0.3694888E+04  0.7818609E-02  0.8069096E-01
        1   -1    0    0  501    0  0.00000000000E+00  0.00000000000E+00  0.22577847660E+04  0.22577847660E+04  0.50400001928E-02 0. -1.
       -1   -1    0    0    0  501  0.00000000000E+00  0.00000000000E+00 -0.15116807175E+04  0.15116807176E+04  0.50400001928E-02 0.  1.
    10030    2    1    2    0    0  0.00000000000E+00  0.00000000000E+00  0.74610404841E+03  0.37694654835E+04  0.36948881959E+04 0.  0.
        1    1    3    3  502    0  0.48082202595E+03 -0.97239863666E+03 -0.11525581474E+04  0.15827631574E+04  0.50400001928E-02 0.  1.
       -1    1    3    3    0  502 -0.48082202595E+03  0.97239863666E+03  0.18986621958E+04  0.21867023261E+04  0.50400001928E-02 0. -1.
</event>
<event>
 5   0  0.7638805E-07  0.3695194E+04  0.7818609E-02  0.8069028E-01
        2   -1    0    0  501    0  0.00000000000E+00  0.00000000000E+00  0.16695323992E+04  0.16695323992E+04  0.25500000920E-02 0. -1.
       -2   -1    0    0    0  501  0.00000000000E+00  0.00000000000E+00 -0.20446530809E+04  0.20446530809E+04  0.25500000920E-02 0.  1.
    10030    2    1    2    0    0  0.00000000000E+00  0.00000000000E+00 -0.37512068169E+03  0.37141854800E+04  0.36951939400E+04 0.  0.
        5    1    3    3  502    0 -0.16925270824E+03 -0.11486898992E+03  0.16581098812E+04  0.16706860364E+04  0.46999998093E+01 0. -1.
       -5    1    3    3    0  502  0.16925270824E+03  0.11486898992E+03 -0.20332305629E+04  0.20434994436E+04  0.46999998093E+01 0.  1.
</event>
<event>
 5   0  0.8421677E-07  0.3834850E+04  0.7818609E-02  0.8038717E-01
        2   -1    0    0  501    0  0.00000000000E+00  0.00000000000E+00  0.21365680070E+04  0.21365680070E+04  0.25500000920E-02 0.  1.
       -2   -1    0    0    0  501  0.00000000000E+00  0.00000000000E+00 -0.17207588887E+04  0.17207588887E+04  0.25500000920E-02 0. -1.
    10030    2    1    2    0    0  0.00000000000E+00  0.00000000000E+00  0.41580911834E+03  0.38573268957E+04  0.38348498742E+04 0.  0.
        3    1    3    3  502    0 -0.46774387815E+03  0.18086638439E+04 -0.22644718146E+03  0.18818415375E+04  0.10100000352E+00 0. -1.
       -3    1    3    3    0  502  0.46774387815E+03 -0.18086638439E+04  0.64225629979E+03  0.19754853583E+04  0.10100000352E+00 0.  1.
</event>
<event>
 5   0  0.7649458E-07  0.2650178E+04  0.7818609E-02  0.8351354E-01
       -2   -1    0    0    0  501  0.00000000000E+00  0.00000000000E+00  0.10297458683E+04  0.10297458683E+04  0.25500000920E-02 0.  1.
        2   -1    0    0  501    0  0.00000000000E+00  0.00000000000E+00 -0.17051397032E+04  0.17051397032E+04  0.25500000920E-02 0. -1.
    10030    2    1    2    0    0  0.00000000000E+00  0.00000000000E+00 -0.67539383496E+03  0.27348855715E+04  0.26501777784E+04 0.  0.
        4    1    3    3  502    0  0.23996261723E+02 -0.42141366480E+03  0.95851345144E+03  0.10473370742E+04  0.12699999809E+01 0.  1.
       -4    1    3    3    0  502 -0.23996261723E+02  0.42141366480E+03 -0.16339072864E+04  0.16875484973E+04  0.12699999809E+01 0. -1.
</event>
<event>
 5   0  0.8421677E-07  0.3783924E+04  0.7818609E-02  0.8049613E-01
        2   -1    0    0  501    0  0.00000000000E+00  0.00000000000E+00  0.29280736771E+04  0.29280736771E+04  0.25500000920E-02 0. -1.
       -2   -1    0    0    0  501  0.00000000000E+00  0.00000000000E+00 -0.12224832182E+04  0.12224832182E+04  0.25500000920E-02 0.  1.
    10030    2    1    2    0    0  0.00000000000E+00  0.00000000000E+00  0.17055904589E+04  0.41505568953E+04  0.37839243818E+04 0.  0.
        3    1    3    3  502    0 -0.14992395074E+04  0.10438471566E+04  0.31298950638E+03  0.18534558069E+04  0.10100000352E+00 0. -1.
       -3    1    3    3    0  502  0.14992395074E+04 -0.10438471566E+04  0.13926009525E+04  0.22971010883E+04  0.10100000352E+00 0.  1.
</event>
<event>
 5   0  0.2529875E-07  0.3227249E+04  0.7818609E-02  0.8181658E-01
       -1   -1    0    0    0  501  0.00000000000E+00  0.00000000000E+00  0.22109535172E+04  0.22109535172E+04  0.50400001928E-02 0.  1.
        1   -1    0    0  501    0  0.00000000000E+00  0.00000000000E+00 -0.11776745478E+04  0.11776745478E+04  0.50400001928E-02 0. -1.
    10030    2    1    2    0    0  0.00000000000E+00  0.00000000000E+00  0.10332789694E+04  0.33886280650E+04  0.32272487872E+04 0.  0.
        5    1    3    3  502    0  0.74026596638E+02 -0.10972188014E+04 -0.72325287912E+03  0.13162392839E+04  0.46999998093E+01 0. -1.
       -5    1    3    3    0  502 -0.74026596638E+02  0.10972188014E+04  0.17565318485E+04  0.20723887811E+04  0.46999998093E+01 0.  1.
</event>
<event>
 5   0  0.2529875E-07  0.2545823E+04  0.7818609E-02  0.8386840E-01
        1   -1    0    0  501    0  0.00000000000E+00  0.00000000000E+00  0.17956173312E+04  0.17956173312E+04  0.50400001928E-02 0. -1.
       -1   -1    0    0    0  501  0.00000000000E+00  0.00000000000E+00 -0.90236546791E+03  0.90236546792E+03  0.50400001928E-02 0.  1.
    10030    2    1    2    0    0  0.00000000000E+00  0.00000000000E+00  0.89325186329E+03  0.26979827991E+04  0.25458225180E+04 0.  0.
        4    1    3    3  502    0 -0.92538885540E+03 -0.10604848571E+03  0.13660695061E+04  0.16534020453E+04  0.12699999809E+01 0.  1.
       -4    1    3    3    0  502  0.92538885540E+03  0.10604848571E+03 -0.47281764281E+03  0.10445807538E+04  0.12699999809E+01 0. -1.
</event>
<event>
 5   0  0.2529875E-07  0.3676768E+04  0.7818609E-02  0.8073130E-01
        1   -1    0    0  501    0  0.00000000000E+00  0.00000000000E+00  0.17800610216E+04  0.17800610216E+04  0.50400001928E-02 0. -1.
       -1   -1    0    0    0  501  0.00000000000E+00  0.00000000000E+00 -0.18986180885E+04  0.18986180885E+04  0.50400001928E-02 0.  1.
    10030    2    1    2    0    0  0.00000000000E+00  0.00000000000E+00 -0.11855706689E+03  0.36786791101E+04  0.36767681756E+04 0.  0.
        5    1    3    3  502    0 -0.93826834704E+02 -0.11446687091E+04  0.13769340117E+04  0.17930530643E+04  0.46999998093E+01 0.  1.
       -5    1    3    3    0  502  0.93826834704E+02  0.11446687091E+04 -0.14954910786E+04  0.18856260459E+04  0.46999998093E+01 0. -1.
</event>
<event>
 5   0  0.2529875E-07  0.3872243E+04  0.7818609E-02  0.8030827E-01
       -1   -1    0    0    0  501  0.00000000000E+00  0.00000000000E+00  0.19723179305E+04  0.19723179305E+04  0.50400001928E-02 0.  1.
        1   -1    0    0  501    0  0.00000000000E+00  0.00000000000E+00 -0.19005894113E+04  0.19005894113E+04  0.50400001928E-02 0. -1.
    10030    2    1    2    0    0  0.00000000000E+00  0.00000000000E+00  0.71728519163E+02  0.38729073419E+04  0.38722430577E+04 0.  0.
        4    1    3    3  502    0  0.14013011266E+04  0.27412548393E+03 -0.12719438334E+04  0.19122322968E+04  0.12699999809E+01 0. -1.
       -4    1    3    3    0  502 -0.14013011266E+04 -0.27412548393E+03  0.13436723526E+04  0.19606750451E+04  0.12699999809E+01 0.  1.
</event>
<event>
 5   0  0.8421677E-07  0.3844732E+04  0.7818609E-02  0.8036623E-01
        2   -1    0    0  501    0  0.00000000000E+00  0.00000000000E+00  0.26182250802E+04  0.26182250802E+04  0.25500000920E-02 0. -1.
       -2   -1    0    0    0  501  0.00000000000E+00  0.00000000000E+00 -0.14114488535E+04  0.14114488535E+04  0.25500000920E-02 0.  1.
    10030    2    1    2    0    0  0.00000000000E+00  0.00000000000E+00  0.12067762267E+04  0.40296739337E+04  0.38447318698E+04 0.  0.
        3    1    3    3  502    0 -0.14385769973E+04  0.18849749086E+03  0.19251847314E+04  0.24106786060E+04  0.10100000352E+00 0. -1.
       -3    1    3    3    0  502  0.14385769973E+04 -0.18849749086E+03 -0.71840850477E+03  0.16189953277E+04  0.10100000352E+00 0.  1.
</event>
<event>
 5   0  0.2529875E-07  0.3860179E+04  0.7818609E-02  0.8033363E-01
       -1   -1    0    0    0  501  0.00000000000E+00  0.00000000000E+00  0.14755008300E+04  0.14755008300E+04  0.50400001928E-02 0. -1.
        1   -1    0    0  501    0  0.00000000000E+00  0.00000000000E+00 -0.25247331984E+04  0.25247331984E+04  0.50400001928E-02 0.  1.
    10030    2    1    2    0    0  0.00000000000E+00  0.00000000000E+00 -0.10492323684E+04  0.40002340285E+04  0.38601792341E+04 0.  0.
        3    1    3    3  502    0 -0.87090131907E+03 -0.57173048372E+03 -0.22083434915E+04  0.24417464734E+04  0.10100000352E+00 0.  1.
       -3    1    3    3    0  502  0.87090131907E+03  0.57173048372E+03  0.11591111231E+04  0.15584875551E+04  0.10100000352E+00 0. -1.
</event>
<event>
 5   0  0.7638805E-07  0.3278216E+04  0.7818609E-02  0.8168461E-01
        2   -1    0    0  501    0  0.00000000000E+00  0.00000000000E+00  0.22987619812E+04  0.22987619812E+04  0.25500000920E-02 0.  1.
       -2   -1    0    0    0  501  0.00000000000E+00  0.00000000000E+00 -0.11687485775E+04  0.11687485775E+04  0.25500000920E-02 0. -1.
    10030    2    1    2    0    0  0.00000000000E+00  0.00000000000E+00  0.11300134037E+04  0.34675105587E+04  0.32782158535E+04 0.  0.
        5    1    3    3  502    0 -0.10167573958E+04 -0.55391357733E+03 -0.66217457660E+03  0.13338339900E+04  0.46999998093E+01 0. -1.
       -5    1    3    3    0  502  0.10167573958E+04  0.55391357733E+03  0.17921879803E+04  0.21336765687E+04  0.46999998093E+01 0.  1.
</event>
<event>
 5   0  0.8421677E-07  0.3778294E+04  0.7818609E-02  0.8050829E-01
       -2   -1    0    0    0  501  0.00000000000E+00  0.00000000000E+00  0.28958822480E+04  0.28958822480E+04  0.25500000920E-02 0. -1.
        2   -1    0    0  501    0  0.00000000000E+00  0.00000000000E+00 -0.12323970775E+04  0.12323970775E+04  0.25500000920E-02 0.  1.
    10030    2    1    2    0    0  0.00000000000E+00  0.00000000000E+00  0.16634851705E+04  0.41282793254E+04  0.37782942284E+04 0.  0.
        3    1    3    3  502    0 -0.54826877344E+03 -0.98277277791E+03 -0.82619076258E+03  0.13960774217E+04  0.10100000352E+00 0.  1.
       -3    1    3    3    0  502  0.54826877344E+03  0.98277277791E+03  0.24896759331E+04  0.27322019038E+04  0.10100000352E+00 0. -1.
</event>
<event>
 5   0  0.2529875E-07  0.2981935E+04  0.7818609E-02  0.8248908E-01
       -1   -1    0    0    0  501  0.00000000000E+00  0.00000000000E+00  0.11425932209E+04  0.11425932209E+04  0.50400001928E-02 0. -1.
        1   -1    0    0  501    0  0.00000000000E+00  0.00000000000E+00 -0.19455608359E+04  0.19455608359E+04  0.50400001928E-02 0.  1.
    10030    2    1    2    0    0  0.00000000000E+00  0.00000000000E+00 -0.80296761497E+03  0.30881540568E+04  0.29819353594E+04 0.  0.
        3    1    3    3  502    0 -0.36084476657E+03 -0.15216314862E+03 -0.18913465279E+04  0.19314642809E+04  0.10100000352E+00 0.  1.
       -3    1    3    3    0  502  0.36084476657E+03  0.15216314862E+03  0.10883789130E+04  0.11566897759E+04  0.10100000352E+00 0. -1.
</event>
<event>
 5   0  0.7649458E-07  0.3815004E+04  0.7818609E-02  0.8042943E-01
       -2   -1    0    0    0  501  0.00000000000E+00  0.00000000000E+00  0.12624815353E+04  0.12624815353E+04  0.25500000920E-02 0. -1.
        2   -1    0    0  501    0  0.00000000000E+00  0.00000000000E+00 -0.28820723254E+04  0.28820723254E+04  0.25500000920E-02 0.  1.
    10030    2    1    2    0    0  0.00000000000E+00  0.00000000000E+00 -0.16195907901E+04  0.41445538607E+04  0.38150035881E+04 0.  0.
        4    1    3    3  502    0  0.45518365671E+03 -0.17910693206E+04 -0.29626836602E+03  0.18716030642E+04  0.12699999809E+01 0. -1.
       -4    1    3    3    0  502 -0.45518365671E+03  0.17910693206E+04 -0.13233224241E+04  0.22729507965E+04  0.12699999809E+01 0.  1.
</event>
<event>
 5   0  0.7638805E-07  0.3875289E+04  0.7818609E-02  0.8030188E-01
        2   -1    0    0  501    0  0.00000000000E+00  0.00000000000E+00  0.18835964287E+04  0.18835964287E+04  0.25500000920E-02 0. -1.
       -2   -1    0    0    0  501  0.00000000000E+00  0.00000000000E+00 -0.19932436514E+04  0.19932436514E+04  0.25500000920E-02 0.  1.
    10030    2    1    2    0    0  0.00000000000E+00  0.00000000000E+00 -0.10964722275E+03  0.38768400801E+04  0.38752892141E+04 0.  0.
        5    1    3    3  502    0 -0.11781883802E+04  0.11713745414E+04 -0.10523176017E+04  0.19666317907E+04  0.46999998093E+01 0.  1.
       -5    1    3    3    0  502  0.11781883802E+04 -0.11713745414E+04  0.94267037891E+03  0.19102082894E+04  0.46999998093E+01 0. -1.
</event>
<event>
 5   0  0.2907071E-07  0.3554274E+04  0.7818609E-02  0.8101047E-01
       -1   -1    0    0    0  501  0.00000000000E+00  0.00000000000E+00  0.14352493150E+04  0.14352493150E+04  0.50400001928E-02 0. -1.
        1   -1    0    0  501    0  0.00000000000E+00  0.00000000000E+00 -0.22004646795E+04  0.22004646795E+04  0.50400001928E-02 0.  1.
    10030    2    1    2    0    0  0.00000000000E+00  0.00000000000E+00 -0.76521536450E+03  0.36357139945E+04  0.35542737227E+04 0.  0.
        2    1    3    3  502    0  0.37371540464E+03  0.28877104120E+03  0.13698800667E+04  0.14490077001E+04  0.25500000920E-02 0. -1.
       -2    1    3    3    0  502 -0.37371540464E+03 -0.28877104120E+03 -0.21350954312E+04  0.21867062944E+04  0.25500000920E-02 0.  1.
</event>
<event>
 5   0  0.2529875E-07  0.3112679E+04  0.7818609E-02  0.8212267E-01
       -1   -1    0    0    0  501  0.00000000000E+00  0.00000000000E+00  0.10956397335E+04  0.10956397335E+04  0.50400001928E-02 0. -1.
        1   -1    0    0  501    0  0.00000000000E+00  0.00000000000E+00 -0.22107565171E+04  0.22107565171E+04  0.50400001928E-02 0.  1.
    10030    2    1    2    0    0  0.00000000000E+00  0.00000000000E+00 -0.11151167836E+04  0.33063962507E+04  0.31126790271E+04 0.  0.
        4    1    3    3  502    0  0.31450522097E+03  0.74352467572E+03  0.85583227977E+03  0.11765173103E+04  0.12699999809E+01 0. -1.
       -4    1    3    3    0  502 -0.31450522097E+03 -0.74352467572E+03 -0.19709490634E+04  0.21298789404E+04  0.12699999809E+01 0.  1.
</event>
<event>
 5   0  0.2529875E-07  0.2455064E+04  0.7818609E-02  0.8419171E-01
       -1   -1    0    0    0  501  0.00000000000E+00  0.00000000000E+00  0.14107269082E+04  0.14107269082E+04  0.50400001928E-02 0.  1.
        1   -1    0    0  501    0  0.00000000000E+00  0.00000000000E+00 -0.10681263338E+04  0.10681263338E+04  0.50400001928E-02 0. -1.
    10030    2    1    2    0    0  0.00000000000E+00  0.00000000000E+00  0.34260057444E+03  0.24788532420E+04  0.24550637959E+04 0.  0.
        3    1    3    3  502    0 -0.10893688226E+04  0.56426250040E+03  0.21315006830E+03  0.12452106500E+04  0.10100000352E+00 0. -1.
       -3    1    3    3    0  502  0.10893688226E+04 -0.56426250040E+03  0.12945050614E+03  0.12336425920E+04  0.10100000352E+00 0.  1.
</event>
<event>
 5   0  0.2529875E-07  0.3737095E+04  0.7818609E-02  0.8059790E-01
        1   -1    0    0  501    0  0.00000000000E+00  0.00000000000E+00  0.17909378778E+04  0.17909378778E+04  0.50400001928E-02 0.  1.
       -1   -1    0    0    0  501  0.00000000000E+00  0.00000000000E+00 -0.19495203187E+04  0.19495203187E+04  0.50400001928E-02 0. -1.
    10030    2    1    2    0    0  0.00000000000E+00  0.00000000000E+00 -0.15858244082E+03  0.37404581965E+04  0.37370950121E+04 0.  0.
        5    1    3    3  502    0  0.56632345945E+02  0.14765269648E+04 -0.12240462623E+04  0.19187627375E+04  0.46999998093E+01 0. -1.
       -5    1    3    3    0  502 -0.56632345945E+02 -0.14765269648E+04  0.10654638215E+04  0.18216954590E+04  0.46999998093E+01 0.  1.
</event>
<event>
 5   0  0.7551495E-07  0.3869403E+04  0.7818609E-02  0.8031423E-01
       -2   -1    0    0    0  501  0.00000000000E+00  0.00000000000E+00  0.23986431619E+04  0.23986431620E+04  0.25500000920E-02 0.  1.
        2   -1    0    0  501    0  0.00000000000E+00  0.00000000000E+00 -0.15604949264E+04  0.15604949264E+04  0.25500000920E-02 0. -1.
    10030    2    1    2    0    0  0.00000000000E+00  0.00000000000E+00  0.83814823558E+03  0.39591380883E+04  0.38694033051E+04 0.  0.
        1    1    3    3  502    0  0.11938304084E+03  0.15698740671E+04  0.15695673118E+04  0.22231280762E+04  0.50400001928E-02 0.  1.
       -1    1    3    3    0  502 -0.11938304084E+03 -0.15698740671E+04 -0.73141907619E+03  0.17360100121E+04  0.50400001928E-02 0. -1.
</event>
<event>
 5   0  0.2529875E-07  0.3344679E+04  0.7818609E-02  0.8151619E-01
       -1   -1    0    0    0  501  0.00000000000E+00  0.00000000000E+00  0.13834109750E+04  0.13834109751E+04  0.50400001928E-02 0.  1.
        1   -1    0    0  501    0  0.00000000000E+00  0.00000000000E+00 -0.20216112271E+04  0.20216112271E+04  0.50400001928E-02 0. -1.
    10030    2    1    2    0    0  0.00000000000E+00  0.00000000000E+00 -0.63820025208E+03  0.34050222022E+04  0.33446788539E+04 0.  0.
        1    1    3    3  502    0 -0.10073214695E+03 -0.41931380808E+02 -0.20179836977E+04  0.20209313226E+04  0.50400001928E-02 0. -1.
       -1    1    3    3    0  502  0.10073214695E+03  0.41931380808E+02  0.13797834457E+04  0.13840908796E+04  0.50400001928E-02 0.  1.
</event>
<event>
 5   0  0.7551495E-07  0.3787181E+04  0.7818609E-02  0.8048911E-01
        2   -1    0    0  501    0  0.00000000000E+00  0.00000000000E+00  0.19902894441E+04  0.19902894441E+04  0.25500000920E-02 0. -1.
       -2   -1    0    0    0  501  0.00000000000E+00  0.00000000000E+00 -0.18015900358E+04  0.18015900358E+04  0.25500000920E-02 0.  1.
    10030    2    1    2    0    0  0.00000000000E+00  0.00000000000E+00  0.18869940831E+03  0.37918794799E+04  0.37871813428E+04 0.  0.
        1    1    3    3  502    0  0.96525981675E+03  0.17693439751E+03  0.17158195210E+04  0.19766306999E+04  0.50400001928E-02 0. -1.
       -1    1    3    3    0  502 -0.96525981675E+03 -0.17693439751E+03 -0.15271201127E+04  0.18152487801E+04  0.50400001928E-02 0.  1.
</event>
<event>
 5   0  0.2529875E-07  0.2494063E+04  0.7818609E-02  0.8405104E-01
       -1   -1    0    0    0  501  0.00000000000E+00  0.00000000000E+00  0.10661630641E+04  0.10661630641E+04  0.50400001928E-02 0.  1.
        1   -1    0    0  501    0  0.00000000000E+00  0.00000000000E+00 -0.14585827507E+04  0.14585827507E+04  0.50400001928E-02 0. -1.
    10030    2    1    2    0    0  0.00000000000E+00  0.00000000000E+00 -0.39241968663E+03  0.25247458148E+04  0.24940625932E+04 0.  0.
        3    1    3    3  502    0  0.22266328099E+03 -0.65836604066E+03  0.85193262262E+03  0.10994607696E+04  0.10100000352E+00 0.  1.
       -3    1    3    3    0  502 -0.22266328099E+03  0.65836604066E+03 -0.12443523093E+04  0.14252850452E+04  0.10100000352E+00 0. -1.
</event>
<event>
 5   0  0.2907071E-07  0.3619372E+04  0.7818609E-02  0.8086069E-01
        1   -1    0    0  501    0  0.00000000000E+00  0.00000000000E+00  0.12443451855E+04  0.12443451855E+04  0.50400001928E-02 0. -1.
       -1   -1    0    0    0  501  0.00000000000E+00  0.00000000000E+00 -0.26318768905E+04  0.26318768905E+04  0.50400001928E-02 0.  1.
    10030    2    1    2    0    0  0.00000000000E+00  0.00000000000E+00 -0.13875317050E+04  0.38762220760E+04  0.36193719552E+04 0.  0.
        2    1    3    3  502    0  0.73557583903E+03  0.54694989828E+03 -0.23648622043E+04  0.25362963651E+04  0.25500000920E-02 0.  1.
       -2    1    3    3    0  502 -0.73557583903E+03 -0.54694989828E+03  0.97733049925E+03  0.13399257110E+04  0.25500000920E-02 0. -1.
</event>
<event>
 5   0  0.2529875E-07  0.3803795E+04  0.7818609E-02  0.8045341E-01
       -1   -1    0    0    0  501  0.00000000000E+00  0.00000000000E+00  0.19227818896E+04  0.19227818896E+04  0.50400001928E-02 0.  1.
        1   -1    0    0  501    0  0.00000000000E+00  0.00000000000E+00 -0.18812401220E+04  0.18812401220E+04  0.50400001928E-02 0. -1.
    10030    2    1    2    0    0  0.00000000000E+00  0.00000000000E+00  0.41541767620E+02  0.38040220116E+04  0.38037951767E+04 0.  0.
        5    1    3    3  502    0  0.18778365244E+04 -0.11043635897E+02  0.32211985443E+03  0.19053018829E+04  0.46999998093E+01 0. -1.
       -5    1    3    3    0  502 -0.18778365244E+04  0.11043635897E+02 -0.28057808681E+03  0.18987201287E+04  0.46999998093E+01 0.  1.
</event>
<event>
 5   0  0.7638805E-07  0.3620030E+04  0.7818609E-02  0.8085919E-01
        2   -1    0    0  501    0  0.00000000000E+00  0.00000000000E+00  0.12270233099E+04  0.12270233099E+04  0.25500000920E-02 0. -1.
       -2   -1    0    0    0  501  0.00000000000E+00  0.00000000000E+00 -0.26700020732E+04  0.26700020732E+04  0.25500000920E-02 0.  1.
    10030    2    1    2    0    0  0.00000000000E+00  0.00000000000E+00 -0.14429787633E+04  0.38970253831E+04  0.36200302658E+04 0.  0.
        5    1    3    3  502    0 -0.24504791809E+03  0.17692399531E+04 -0.10369552509E+04  0.20653224387E+04  0.46999998093E+01 0.  1.
       -5    1    3    3    0  502  0.24504791809E+03 -0.17692399531E+04 -0.40602351247E+03  0.18317029444E+04  0.46999998093E+01 0. -1.
</event>
<event>
 5   0  0.7638805E-07  0.3726969E+04  0.7818609E-02  0.8062011E-01
        2   -1    0    0  501    0  0.00000000000E+00  0.00000000000E+00  0.14814926921E+04  0.14814926921E+04  0.25500000920E-02 0. -1.
       -2   -1    0    0    0  501  0.00000000000E+00  0.00000000000E+00 -0.23439700701E+04  0.23439700701E+04  0.25500000920E-02 0.  1.
    10030    2    1    2    0    0  0.00000000000E+00  0.00000000000E+00 -0.86247737799E+03  0.38254627622E+04  0.37269690255E+04 0.  0.
        5    1    3    3  502    0  0.68531679664E+03 -0.63108311130E+03  0.12252977774E+04  0.15392536303E+04  0.46999998093E+01 0. -1.
       -5    1    3    3    0  502 -0.68531679664E+03  0.63108311130E+03 -0.20877751554E+04  0.22862091319E+04  0.46999998093E+01 0.  1.
</event>
<event>
 5   0  0.7638805E-07  0.4020987E+04  0.7818609E-02  0.8000326E-01
        2   -1    0    0  501    0  0.00000000000E+00  0.00000000000E+00  0.19293790252E+04  0.19293790252E+04  0.25500000920E-02 0.  1.
       -2   -1    0    0    0  501  0.00000000000E+00  0.00000000000E+00 -0.20950179347E+04  0.20950179347E+04  0.25500000920E-02 0. -1.
    10030    2    1    2    0    0  0.00000000000E+00  0.00000000000E+00 -0.16563890949E+03  0.40243969600E+04  0.40209867748E+04 0.  0.
        5    1    3    3  502    0 -0.51133056621E+03  0.10210358164E+04 -0.17389398553E+04  0.20803622272E+04  0.46999998093E+01 0. -1.
       -5    1    3    3    0  502  0.51133056621E+03 -0.10210358164E+04  0.15733009458E+04  0.19440347328E+04  0.46999998093E+01 0.  1.
</event>
<event>
 5   0  0.2529875E-07  0.3571715E+04  0.7818609E-02  0.8097002E-01
        1   -1    0    0  501    0  0.00000000000E+00  0.00000000000E+00  0.17677585986E+04  0.17677585986E+04  0.50400001928E-02 0.  1.
       -1   -1    0    0    0  501  0.00000000000E+00  0.00000000000E+00 -0.18041416782E+04  0.18041416782E+04  0.50400001928E-02 0. -1.
    10030    2    1    2    0    0  0.00000000000E+00  0.00000000000E+00 -0.36383079609E+02  0.35719002767E+04  0.35717149744E+04 0.  0.
        4    1    3    3  502    0  0.66293932687E+03  0.12779564529E+04  0.10385676428E+04  0.17751860771E+04  0.12699999809E+01 0.  1.
       -4    1    3    3    0  502 -0.66293932687E+03 -0.12779564529E+04 -0.10749507224E+04  0.17967141996E+04  0.12699999809E+01 0. -1.
</event>
<event>
 5   0  0.8038352E-07  0.3816791E+04  0.7818609E-02  0.8042561E-01
        2   -1    0    0  501    0  0.00000000000E+00  0.00000000000E+00  0.15411901803E+04  0.15411901803E+04  0.25500000920E-02 0. -1.
       -2   -1    0    0    0  501  0.00000000000E+00  0.00000000000E+00 -0.23630913832E+04  0.23630913832E+04  0.25500000920E-02 0.  1.
    10030    2    1    2    0    0  0.00000000000E+00  0.00000000000E+00 -0.82190120298E+03  0.39042815635E+04  0.38167909217E+04 0.  0.
        2    1    3    3  502    0 -0.14589319122E+04  0.30428254869E+03 -0.16302910517E+04  0.22088275413E+04  0.25500000920E-02 0.  1.
       -2    1    3    3    0  502  0.14589319122E+04 -0.30428254869E+03  0.80838984870E+03  0.16954540222E+04  0.25500000920E-02 0. -1.
</event>
<event>
 5   0  0.8421677E-07  0.3824155E+04  0.7818609E-02  0.8040991E-01
        2   -1    0    0  501    0  0.00000000000E+00  0.00000000000E+00  0.16377994081E+04  0.16377994081E+04  0.25500000920E-02 0.  1.
       -2   -1    0    0    0  501  0.00000000000E+00  0.00000000000E+00 -0.22322876796E+04  0.22322876796E+04  0.25500000920E-02 0. -1.
    10030    2    1    2    0    0  0.00000000000E+00  0.00000000000E+00 -0.59448827155E+03  0.38700870877E+04  0.38241545159E+04 0.  0.
        3    1    3    3  502    0 -0.17296345935E+04 -0.81486331477E+03 -0.27696899652E+03  0.19319290577E+04  0.10100000352E+00 0.  1.
       -3    1    3    3    0  502  0.17296345935E+04  0.81486331477E+03 -0.31751927504E+03  0.19381580300E+04  0.10100000352E+00 0. -1.
</event>
<event>
 5   0  0.2529875E-07  0.3733027E+04  0.7818609E-02  0.8060682E-01
        1   -1    0    0  501    0  0.00000000000E+00  0.00000000000E+00  0.11874970485E+04  0.11874970485E+04  0.50400001928E-02 0.  1.
       -1   -1    0    0    0  501  0.00000000000E+00  0.00000000000E+00 -0.29337945466E+04  0.29337945466E+04  0.50400001928E-02 0. -1.
    10030    2    1    2    0    0  0.00000000000E+00  0.00000000000E+00 -0.17462974981E+04  0.41212915951E+04  0.37330268496E+04 0.  0.
        3    1    3    3  502    0  0.72732876705E+03 -0.17171586365E+04 -0.96029853438E+03  0.20975734084E+04  0.10100000352E+00 0. -1.
       -3    1    3    3    0  502 -0.72732876705E+03  0.17171586365E+04 -0.78599896368E+03  0.20237181867E+04  0.10100000352E+00 0.  1.
</event>
<event>
 5   0  0.8421677E-07  0.3727269E+04  0.7818609E-02  0.8061945E-01
       -2   -1    0    0    0  501  0.00000000000E+00  0.00000000000E+00  0.26632897275E+04  0.26632897275E+04  0.25500000920E-02 0.  1.
        2   -1    0    0  501    0  0.00000000000E+00  0.00000000000E+00 -0.13040765475E+04  0.13040765475E+04  0.25500000920E-02 0. -1.
    10030    2    1    2    0    0  0.00000000000E+00  0.00000000000E+00  0.13592131800E+04  0.39673662750E+04  0.37272690661E+04 0.  0.
        3    1    3    3  502    0  0.87476284806E+03  0.49410590464E+03  0.23503616204E+04  0.25560810711E+04  0.10100000352E+00 0.  1.
       -3    1    3    3    0  502 -0.87476284806E+03 -0.49410590464E+03 -0.99114844043E+03  0.14112852038E+04  0.10100000352E+00 0. -1.
</event>
<event>
 5   0  0.2529875E-07  0.2369023E+04  0.7818609E-02  0.8451193E-01
       -1   -1    0    0    0  501  0.00000000000E+00  0.00000000000E+00  0.55994799693E+03  0.55994799695E+03  0.50400001928E-02 0.  1.
        1   -1    0    0  501    0  0.00000000000E+00  0.00000000000E+00 -0.25057096449E+04  0.25057096449E+04  0.50400001928E-02 0. -1.
    10030    2    1    2    0    0  0.00000000000E+00  0.00000000000E+00 -0.19457616480E+04  0.30656576419E+04  0.23690226648E+04 0.  0.
        4    1    3    3  502    0  0.74528560700E+03  0.37352171919E+03 -0.20618124782E+04  0.22239697432E+04  0.12699999809E+01 0. -1.
       -4    1    3    3    0  502 -0.74528560700E+03 -0.37352171919E+03  0.11605083015E+03  0.84168789868E+03  0.12699999809E+01 0.  1.
</event>
<event>
 5   0  0.7638805E-07  0.4079267E+04  0.7818609E-02  0.7988744E-01
        2   -1    0    0  501    0  0.00000000000E+00  0.00000000000E+00  0.19097740778E+04  0.19097740778E+04  0.25500000920E-02 0. -1.
       -2   -1    0    0    0  501  0.00000000000E+00  0.00000000000E+00 -0.21783235221E+04  0.21783235221E+04  0.25500000920E-02 0.  1.
    10030    2    1    2    0    0  0.00000000000E+00  0.00000000000E+00 -0.26854944434E+03  0.40880975998E+04  0.40792674810E+04 0.  0.
        5    1    3    3  502    0 -0.28346673319E+03 -0.19726079055E+04 -0.56943621804E+03  0.20726348048E+04  0.46999998093E+01 0.  1.
       -5    1    3    3    0  502  0.28346673319E+03  0.19726079055E+04  0.30088677369E+03  0.20154627950E+04  0.46999998093E+01 0. -1.
</event>
<event>
 5   0  0.2529875E-07  0.3572103E+04  0.7818609E-02  0.8096912E-01
        1   -1    0    0  501    0  0.00000000000E+00  0.00000000000E+00  0.25417556923E+04  0.25417556923E+04  0.50400001928E-02 0. -1.
       -1   -1    0    0    0  501  0.00000000000E+00  0.00000000000E+00 -0.12550299909E+04  0.12550299909E+04  0.50400001928E-02 0.  1.
    10030    2    1    2    0    0  0.00000000000E+00  0.00000000000E+00  0.12867257013E+04  0.37967856832E+04  0.35721028112E+04 0.  0.
        3    1    3    3  502    0 -0.50632770550E+03 -0.12863841239E+04  0.18453453919E+04  0.23057431525E+04  0.10100000352E+00 0. -1.
       -3    1    3    3    0  502  0.50632770550E+03  0.12863841239E+04 -0.55861969055E+03  0.14910425307E+04  0.10100000352E+00 0.  1.
</event>
<event>
 5   0  0.8038352E-07  0.3805120E+04  0.7818609E-02  0.8045057E-01
       -2   -1    0    0    0  501  0.00000000000E+00  0.00000000000E+00  0.16745803355E+04  0.16745803355E+04  0.25500000920E-02 0.  1.
        2   -1    0    0  501    0  0.00000000000E+00  0.00000000000E+00 -0.21615772939E+04  0.21615772939E+04  0.25500000920E-02 0. -1.
    10030    2    1    2    0    0  0.00000000000E+00  0.00000000000E+00 -0.48699695831E+03  0.38361576294E+04  0.38051201453E+04 0.  0.
        2    1    3    3  502    0 -0.13963660943E+04  0.85097004138E+03  0.73692895006E+03  0.17936143839E+04  0.25500000920E-02 0.  1.
       -2    1    3    3    0  502  0.13963660943E+04 -0.85097004138E+03 -0.12239259084E+04  0.20425432455E+04  0.25500000920E-02 0. -1.
</event>
<event>
 5   0  0.2529875E-07  0.3800656E+04  0.7818609E-02  0.8046014E-01
       -1   -1    0    0    0  501  0.00000000000E+00  0.00000000000E+00  0.22176641186E+04  0.22176641186E+04  0.50400001928E-02 0.  1.
        1   -1    0    0  501    0  0.00000000000E+00  0.00000000000E+00 -0.16284013432E+04  0.16284013432E+04  0.50400001928E-02 0. -1.
    10030    2    1    2    0    0  0.00000000000E+00  0.00000000000E+00  0.58926277540E+03  0.38460654618E+04  0.38006563799E+04 0.  0.
        5    1    3    3  502    0  0.13726610869E+04 -0.74918693343E+03  0.13872282810E+04  0.20904315139E+04  0.46999998093E+01 0.  1.
       -5    1    3    3    0  502 -0.13726610869E+04  0.74918693343E+03 -0.79796550563E+03  0.17556339479E+04  0.46999998093E+01 0. -1.
</event>
<event>
 5   0  0.2907071E-07  0.2361834E+04  0.7818609E-02  0.8453932E-01
       -1   -1    0    0    0  501  0.00000000000E+00  0.00000000000E+00  0.10298919160E+04  0.10298919160E+04  0.50400001928E-02 0. -1.
        1   -1    0    0  501    0  0.00000000000E+00  0.00000000000E+00 -0.13540889044E+04  0.13540889044E+04  0.50400001928E-02 0.  1.
    10030    2    1    2    0    0  0.00000000000E+00  0.00000000000E+00 -0.32419698839E+03  0.23839808203E+04  0.23618342161E+04 0.  0.
        2    1    3    3  502    0 -0.66857358787E+03 -0.81912682346E+03 -0.69296338593E+03  0.12641826013E+04  0.25500000920E-02 0.  1.
       -2    1    3    3    0  502  0.66857358787E+03  0.81912682346E+03  0.36876639754E+03  0.11197982190E+04  0.25500000920E-02 0. -1.
</event>
<event>
 5   0  0.2529875E-07  0.3776603E+04  0.7818609E-02  0.8051195E-01
       -1   -1    0    0    0  501  0.00000000000E+00  0.00000000000E+00  0.16192698093E+04  0.16192698093E+04  0.50400001928E-02 0.  1.
        1   -1    0    0  501    0  0.00000000000E+00  0.00000000000E+00 -0.22020307671E+04  0.22020307671E+04  0.50400001928E-02 0. -1.
    10030    2    1    2    0    0  0.00000000000E+00  0.00000000000E+00 -0.58276095773E+03  0.38213005764E+04  0.37766026745E+04 0.  0.
        5    1    3    3  502    0  0.89744236755E+03 -0.10275702681E+04  0.10295808695E+04  0.17091993201E+04  0.46999998093E+01 0.  1.
       -5    1    3    3    0  502 -0.89744236755E+03  0.10275702681E+04 -0.16123418272E+04  0.21121012563E+04  0.46999998093E+01 0. -1.
</event>
<event>
 5   0  0.7638805E-07  0.3719331E+04  0.7818609E-02  0.8063691E-01
        2   -1    0    0  501    0  0.00000000000E+00  0.00000000000E+00  0.16973442860E+04  0.16973442860E+04  0.25500000920E-02 0.  1.
       -2   -1    0    0    0  501  0.00000000000E+00  0.00000000000E+00 -0.20375093767E+04  0.20375093767E+04  0.25500000920E-02 0. -1.
    10030    2    1    2    0    0  0.00000000000E+00  0.00000000000E+00 -0.34016509063E+03  0.37348536627E+04  0.37193305302E+04 0.  0.
        5    1    3    3  502    0 -0.48699519694E+03  0.31698342395E+03 -0.19440029507E+04  0.20289929461E+04  0.46999998093E+01 0. -1.
       -5    1    3    3    0  502  0.48699519694E+03 -0.31698342395E+03  0.16038378601E+04  0.17058607166E+04  0.46999998093E+01 0.  1.
</event>
<event>
 5   0  0.2529875E-07  0.3603009E+04  0.7818609E-02  0.8089803E-01
        1   -1    0    0  501    0  0.00000000000E+00  0.00000000000E+00  0.25720162819E+04  0.25720162819E+04  0.50400001928E-02 0. -1.
       -1   -1    0    0    0  501  0.00000000000E+00  0.00000000000E+00 -0.12618186247E+04  0.12618186247E+04  0.50400001928E-02 0.  1.
    10030    2    1    2    0    0  0.00000000000E+00  0.00000000000E+00  0.13101976572E+04  0.38338349066E+04  0.36030087691E+04 0.  0.
        5    1    3    3  502    0  0.13098957784E+04 -0.56967407045E+03  0.18231689168E+04  0.23161007072E+04  0.46999998093E+01 0. -1.
       -5    1    3    3    0  502 -0.13098957784E+04  0.56967407045E+03 -0.51297125953E+03  0.15177341994E+04  0.46999998093E+01 0.  1.
</event>
<event>
 5   0  0.7551495E-07  0.2500885E+04  0.7818609E-02  0.8402670E-01
       -2   -1    0    0    0  501  0.00000000000E+00  0.00000000000E+00  0.14906716385E+04  0.14906716385E+04  0.25500000920E-02 0. -1.
        2   -1    0    0  501    0  0.00000000000E+00  0.00000000000E+00 -0.10489276099E+04  0.10489276099E+04  0.25500000920E-02 0.  1.
    10030    2    1    2    0    0  0.00000000000E+00  0.00000000000E+00  0.44174402860E+03  0.25395992484E+04  0.25008851544E+04 0.  0.
        1    1    3    3  502    0 -0.45745430483E+03 -0.63844560226E+03 -0.76719039248E+03  0.10979336621E+04  0.50400001928E-02 0.  1.
       -1    1    3    3    0  502  0.45745430483E+03  0.63844560226E+03  0.12089344211E+04  0.14416655862E+04  0.50400001928E-02 0. -1.
</event>
<event>
 5   0  0.7638805E-07  0.3821533E+04  0.7818609E-02  0.8041550E-01
       -2   -1    0    0    0  501  0.00000000000E+00  0.00000000000E+00  0.16785999646E+04  0.16785999646E+04  0.25500000920E-02 0.  1.
        2   -1    0    0  501    0  0.00000000000E+00  0.00000000000E+00 -0.21750444222E+04  0.21750444222E+04  0.25500000920E-02 0. -1.
    10030    2    1    2    0    0  0.00000000000E+00  0.00000000000E+00 -0.49644445757E+03  0.38536443868E+04  0.38215334567E+04 0.  0.
        5    1    3    3  502    0  0.81556028022E+03  0.93172307036E+02 -0.19881734822E+04  0.21509708355E+04  0.46999998093E+01 0. -1.
       -5    1    3    3    0  502 -0.81556028022E+03 -0.93172307036E+02  0.14917290247E+04  0.17026735514E+04  0.46999998093E+01 0.  1.
</event>
<event>
 5   0  0.7638805E-07  0.3859958E+04  0.7818609E-02  0.8033409E-01
       -2   -1    0    0    0  501  0.00000000000E+00  0.00000000000E+00  0.14996429252E+04  0.14996429252E+04  0.25500000920E-02 0. -1.
        2   -1    0    0  501    0  0.00000000000E+00  0.00000000000E+00 -0.24838041906E+04  0.24838041906E+04  0.25500000920E-02 0.  1.
    10030    2    1    2    0    0  0.00000000000E+00  0.00000000000E+00 -0.98416126533E+03  0.39834471158E+04  0.38599582288E+04 0.  0.
        5    1    3    3  502    0  0.12462877053E+04 -0.72774272354E+03 -0.18144629905E+04  0.23184349354E+04  0.46999998093E+01 0.  1.
       -5    1    3    3    0  502 -0.12462877053E+04  0.72774272354E+03  0.83030172514E+03  0.16650121804E+04  0.46999998093E+01 0. -1.
</event>
<event>
 5   0  0.2529875E-07  0.3726486E+04  0.7818609E-02  0.8062118E-01
       -1   -1    0    0    0  501  0.00000000000E+00  0.00000000000E+00  0.13038589196E+04  0.13038589196E+04  0.50400001928E-02 0.  1.
        1   -1    0    0  501    0  0.00000000000E+00  0.00000000000E+00 -0.26626146012E+04  0.26626146013E+04  0.50400001928E-02 0. -1.
    10030    2    1    2    0    0  0.00000000000E+00  0.00000000000E+00 -0.13587556817E+04  0.39664735209E+04  0.37264856352E+04 0.  0.
        5    1    3    3  502    0  0.10037041206E+03 -0.69203014856E+03  0.11588859771E+04  0.13535208695E+04  0.46999998093E+01 0.  1.
       -5    1    3    3    0  502 -0.10037041206E+03  0.69203014856E+03 -0.25176416588E+04  0.26129526514E+04  0.46999998093E+01 0. -1.
</event>
<event>
 5   0  0.2529875E-07  0.3701107E+04  0.7818609E-02  0.8067717E-01
        1   -1    0    0  501    0  0.00000000000E+00  0.00000000000E+00  0.25268934138E+04  0.25268934138E+04  0.50400001928E-02 0.  1.
       -1   -1    0    0    0  501  0.00000000000E+00  0.00000000000E+00 -0.13552401424E+04  0.13552401424E+04  0.50400001928E-02 0. -1.
    10030    2    1    2    0    0  0.00000000000E+00  0.00000000000E+00  0.11716532713E+04  0.38821335562E+04  0.37011065318E+04 0.  0.
        5    1    3    3  502    0  0.39923259663E+03 -0.17665942249E+03  0.24720981203E+04  0.25103558362E+04  0.46999998093E+01 0.  1.
       -5    1    3    3    0  502 -0.39923259663E+03  0.17665942249E+03 -0.13004448490E+04  0.13717777200E+04  0.46999998093E+01 0. -1.
</event>
<event>
 5   0  0.7638805E-07  0.3676587E+04  0.7818609E-02  0.8073170E-01
       -2   -1    0    0    0  501  0.00000000000E+00  0.00000000000E+00  0.16803313995E+04  0.16803313995E+04  0.25500000920E-02 0.  1.
        2   -1    0    0  501    0  0.00000000000E+00  0.00000000000E+00 -0.20111052977E+04  0.20111052977E+04  0.25500000920E-02 0. -1.
    10030    2    1    2    0    0  0.00000000000E+00  0.00000000000E+00 -0.33077389814E+03  0.36914366972E+04  0.36765872107E+04 0.  0.
        5    1    3    3  502    0  0.11146609905E+04 -0.72786665629E+03  0.11074248916E+04  0.17316671082E+04  0.46999998093E+01 0.  1.
       -5    1    3    3    0  502 -0.11146609905E+04  0.72786665629E+03 -0.14381987897E+04  0.19597695890E+04  0.46999998093E+01 0. -1.
</event>
<event>
 5   0  0.2529875E-07  0.3857310E+04  0.7818609E-02  0.8033967E-01
        1   -1    0    0  501    0  0.00000000000E+00  0.00000000000E+00  0.15094937076E+04  0.15094937076E+04  0.50400001928E-02 0.  1.
       -1   -1    0    0    0  501  0.00000000000E+00  0.00000000000E+00 -0.24642100141E+04  0.24642100141E+04  0.50400001928E-02 0. -1.
    10030    2    1    2    0    0  0.00000000000E+00  0.00000000000E+00 -0.95471630646E+03  0.39737037217E+04  0.38573096897E+04 0.  0.
        4    1    3    3  502    0 -0.13894321689E+03  0.10288524712E+04  0.11970691921E+04  0.15845563697E+04  0.12699999809E+01 0.  1.
       -4    1    3    3    0  502  0.13894321689E+03 -0.10288524712E+04 -0.21517854986E+04  0.23891473521E+04  0.12699999809E+01 0. -1.
</event>
<event>
 5   0  0.7551495E-07  0.2769701E+04  0.7818609E-02  0.8312737E-01
       -2   -1    0    0    0  501  0.00000000000E+00  0.00000000000E+00  0.12140819020E+04  0.12140819020E+04  0.25500000920E-02 0. -1.
        2   -1    0    0  501    0  0.00000000000E+00  0.00000000000E+00 -0.15796391244E+04  0.15796391244E+04  0.25500000920E-02 0.  1.
    10030    2    1    2    0    0  0.00000000000E+00  0.00000000000E+00 -0.36555722248E+03  0.27937210264E+04  0.27697012638E+04 0.  0.
        1    1    3    3  502    0 -0.13233268331E+04  0.62820541610E+02  0.22404401764E+03  0.13436279431E+04  0.50400001928E-02 0. -1.
       -1    1    3    3    0  502  0.13233268331E+04 -0.62820541610E+02 -0.58960124012E+03  0.14500930833E+04  0.50400001928E-02 0.  1.
</event>
<event>
 5   0  0.2529875E-07  0.3770766E+04  0.7818609E-02  0.8052458E-01
       -1   -1    0    0    0  501  0.00000000000E+00  0.00000000000E+00  0.15646886849E+04  0.15646886849E+04  0.50400001928E-02 0.  1.
        1   -1    0    0  501    0  0.00000000000E+00  0.00000000000E+00 -0.22718059322E+04  0.22718059322E+04  0.50400001928E-02 0. -1.
    10030    2    1    2    0    0  0.00000000000E+00  0.00000000000E+00 -0.70711724727E+03  0.38364946171E+04  0.37707659893E+04 0.  0.
        5    1    3    3  502    0  0.43382478991E+03 -0.16062376314E+04  0.54871616476E+03  0.17519460027E+04  0.46999998093E+01 0.  1.
       -5    1    3    3    0  502 -0.43382478991E+03  0.16062376314E+04 -0.12558334120E+04  0.20845486144E+04  0.46999998093E+01 0. -1.
</event>
<event>
 5   0  0.2529875E-07  0.3811529E+04  0.7818609E-02  0.8043685E-01
       -1   -1    0    0    0  501  0.00000000000E+00  0.00000000000E+00  0.17049002755E+04  0.17049002756E+04  0.50400001928E-02 0.  1.
        1   -1    0    0  501    0  0.00000000000E+00  0.00000000000E+00 -0.21302934266E+04  0.21302934266E+04  0.50400001928E-02 0. -1.
    10030    2    1    2    0    0  0.00000000000E+00  0.00000000000E+00 -0.42539315107E+03  0.38351937022E+04  0.38115287484E+04 0.  0.
        1    1    3    3  502    0  0.55213917915E+03 -0.17952235187E+04 -0.53758313782E+03  0.19536327150E+04  0.50400001928E-02 0. -1.
       -1    1    3    3    0  502 -0.55213917915E+03  0.17952235187E+04  0.11218998675E+03  0.18815609871E+04  0.50400001928E-02 0.  1.
</event>
<event>
 5   0  0.2529875E-07  0.3771989E+04  0.7818609E-02  0.8052193E-01
       -1   -1    0    0    0  501  0.00000000000E+00  0.00000000000E+00  0.17764695505E+04  0.17764695505E+04  0.50400001928E-02 0.  1.
        1   -1    0    0  501    0  0.00000000000E+00  0.00000000000E+00 -0.20022718057E+04  0.20022718057E+04  0.50400001928E-02 0. -1.
    10030    2    1    2    0    0  0.00000000000E+00  0.00000000000E+00 -0.22580225526E+03  0.37787413562E+04  0.37719888095E+04 0.  0.
        1    1    3    3  502    0 -0.33320160351E+03  0.18393305217E+04 -0.36397864389E+03  0.19043740520E+04  0.50400001928E-02 0. -1.
       -1    1    3    3    0  502  0.33320160351E+03 -0.18393305217E+04  0.13817638864E+03  0.18743673042E+04  0.50400001928E-02 0.  1.
</event>
<event>
 5   0  0.2529875E-07  0.3314974E+04  0.7818609E-02  0.8159096E-01
        1   -1    0    0  501    0  0.00000000000E+00  0.00000000000E+00  0.16950211491E+04  0.16950211491E+04  0.50400001928E-02 0. -1.
       -1   -1    0    0    0  501  0.00000000000E+00  0.00000000000E+00 -0.16207837791E+04  0.16207837791E+04  0.50400001928E-02 0.  1.
    10030    2    1    2    0    0  0.00000000000E+00  0.00000000000E+00  0.74237370034E+02  0.33158049282E+04  0.33149737759E+04 0.  0.
        4    1    3    3  502    0  0.32173279824E+03  0.69149229675E+03 -0.14348438342E+04  0.16249467780E+04  0.12699999809E+01 0.  1.
       -4    1    3    3    0  502 -0.32173279824E+03 -0.69149229675E+03  0.15090812043E+04  0.16908581501E+04  0.12699999809E+01 0. -1.
</event>
<event>
 5   0  0.7649458E-07  0.3683299E+04  0.7818609E-02  0.8071673E-01
       -2   -1    0    0    0  501  0.00000000000E+00  0.00000000000E+00  0.16328443327E+04  0.16328443327E+04  0.25500000920E-02 0.  1.
        2   -1    0    0  501    0  0.00000000000E+00  0.00000000000E+00 -0.20771558538E+04  0.20771558538E+04  0.25500000920E-02 0. -1.
    10030    2    1    2    0    0  0.00000000000E+00  0.00000000000E+00 -0.44431152117E+03  0.37100001865E+04  0.36832986108E+04 0.  0.
        4    1    3    3  502    0  0.74040636539E+03 -0.10765691291E+04 -0.15294350133E+04  0.20115605256E+04  0.12699999809E+01 0. -1.
       -4    1    3    3    0  502 -0.74040636539E+03  0.10765691291E+04  0.10851234921E+04  0.16984396609E+04  0.12699999809E+01 0.  1.
</event>
<event>
 5   0  0.7551495E-07  0.3126257E+04  0.7818609E-02  0.8208569E-01
       -2   -1    0    0    0  501  0.00000000000E+00  0.00000000000E+00  0.14356773549E+04  0.14356773549E+04  0.25500000920E-02 0.  1.
        2   -1    0    0  501    0  0.00000000000E+00  0.00000000000E+00 -0.17018939888E+04  0.17018939888E+04  0.25500000920E-02 0. -1.
    10030    2    1    2    0    0  0.00000000000E+00  0.00000000000E+00 -0.26621663389E+03  0.31375713437E+04  0.31262569697E+04 0.  0.
        1    1    3    3  502    0  0.14156829623E+04  0.47640443278E+03 -0.59548299457E+03  0.16080172356E+04  0.50400001928E-02 0. -1.
       -1    1    3    3    0  502 -0.14156829623E+04 -0.47640443278E+03  0.32926636068E+03  0.15295541081E+04  0.50400001928E-02 0.  1.
</event>
<event>
 5   0  0.2529875E-07  0.3845335E+04  0.7818609E-02  0.8036495E-01
       -1   -1    0    0    0  501  0.00000000000E+00  0.00000000000E+00  0.23623453924E+04  0.23623453924E+04  0.50400001928E-02 0.  1.
        1   -1    0    0  501    0  0.00000000000E+00  0.00000000000E+00 -0.15648222125E+04  0.15648222125E+04  0.50400001928E-02 0. -1.
    10030    2    1    2    0    0  0.00000000000E+00  0.00000000000E+00  0.79752317987E+03  0.39271676049E+04  0.38453351186E+04 0.  0.
        4    1    3    3  502    0 -0.14423582588E+04  0.20367094292E+03  0.16803653462E+04  0.22238499296E+04  0.12699999809E+01 0.  1.
       -4    1    3    3    0  502  0.14423582588E+04 -0.20367094292E+03 -0.88284216633E+03  0.17033176753E+04  0.12699999809E+01 0. -1.
</event>
<event>
 5   0  0.7638805E-07  0.3812497E+04  0.7818609E-02  0.8043478E-01
        2   -1    0    0  501    0  0.00000000000E+00  0.00000000000E+00  0.15179539481E+04  0.15179539481E+04  0.25500000920E-02 0. -1.
       -2   -1    0    0    0  501  0.00000000000E+00  0.00000000000E+00 -0.23938697266E+04  0.23938697266E+04  0.25500000920E-02 0.  1.
    10030    2    1    2    0    0  0.00000000000E+00  0.00000000000E+00 -0.87591577853E+03  0.39118236747E+04  0.38124973457E+04 0.  0.
        5    1    3    3  502    0  0.36207314819E+03 -0.33213654347E+03 -0.23277762514E+04  0.23790704098E+04  0.46999998093E+01 0.  1.
       -5    1    3    3    0  502 -0.36207314819E+03  0.33213654347E+03  0.14518604729E+04  0.15327532649E+04  0.46999998093E+01 0. -1.
</event>
<event>
 5   0  0.8421677E-07  0.3738011E+04  0.7818609E-02  0.8059590E-01
       -2   -1    0    0    0  501  0.00000000000E+00  0.00000000000E+00  0.16266474577E+04  0.16266474577E+04  0.25500000920E-02 0. -1.
        2   -1    0    0  501    0  0.00000000000E+00  0.00000000000E+00 -0.21474726025E+04  0.21474726025E+04  0.25500000920E-02 0.  1.
    10030    2    1    2    0    0  0.00000000000E+00  0.00000000000E+00 -0.52082514474E+03  0.37741200602E+04  0.37380106203E+04 0.  0.
        3    1    3    3  502    0 -0.14847905039E+04 -0.34870803474E+03 -0.13511168551E+04  0.20375762317E+04  0.10100000352E+00 0.  1.
       -3    1    3    3    0  502  0.14847905039E+04  0.34870803474E+03  0.83029171031E+03  0.17365438285E+04  0.10100000352E+00 0. -1.
</event>
<event>
 5   0  0.7649458E-07  0.3443884E+04  0.7818609E-02  0.8127219E-01
       -2   -1    0    0    0  501  0.00000000000E+00  0.00000000000E+00  0.11644480249E+04  0.11644480249E+04  0.25500000920E-02 0.  1.
        2   -1    0    0  501    0  0.00000000000E+00  0.00000000000E+00 -0.25463425957E+04  0.25463425957E+04  0.25500000920E-02 0. -1.
    10030    2    1    2    0    0  0.00000000000E+00  0.00000000000E+00 -0.13818945707E+04  0.37107906206E+04  0.34438836254E+04 0.  0.
        4    1    3    3  502    0 -0.80456564232E+03  0.12555437673E+04  0.23680985619E+03  0.15098995149E+04  0.12699999809E+01 0.  1.
       -4    1    3    3    0  502  0.80456564232E+03 -0.12555437673E+04 -0.16187044269E+04  0.22008911057E+04  0.12699999809E+01 0. -1.
</event>
<event>
 5   0  0.8038352E-07  0.3755680E+04  0.7818609E-02  0.8055733E-01
       -2   -1    0    0    0  501  0.00000000000E+00  0.00000000000E+00  0.16142847557E+04  0.16142847557E+04  0.25500000920E-02 0. -1.
        2   -1    0    0  501    0  0.00000000000E+00  0.00000000000E+00 -0.21844249978E+04  0.21844249978E+04  0.25500000920E-02 0.  1.
    10030    2    1    2    0    0  0.00000000000E+00  0.00000000000E+00 -0.57014024214E+03  0.37987097535E+04  0.37556804837E+04 0.  0.
        2    1    3    3  502    0 -0.46732802178E+03 -0.18097614824E+04 -0.10230155371E+03  0.18719235324E+04  0.25500000920E-02 0. -1.
       -2    1    3    3    0  502  0.46732802178E+03  0.18097614824E+04 -0.46783868843E+03  0.19267862211E+04  0.25500000920E-02 0.  1.
</event>
<event>
 5   0  0.8038352E-07  0.3774436E+04  0.7818609E-02  0.8051663E-01
        2   -1    0    0  501    0  0.00000000000E+00  0.00000000000E+00  0.20348617759E+04  0.20348617759E+04  0.25500000920E-02 0.  1.
       -2   -1    0    0    0  501  0.00000000000E+00  0.00000000000E+00 -0.17502871678E+04  0.17502871678E+04  0.25500000920E-02 0. -1.
    10030    2    1    2    0    0  0.00000000000E+00  0.00000000000E+00  0.28457460815E+03  0.37851489437E+04  0.37744363577E+04 0.  0.
        2    1    3    3  502    0  0.75890878355E+03 -0.28759431863E+03  0.18509244863E+04  0.20210330250E+04  0.25500000920E-02 0.  1.
       -2    1    3    3    0  502 -0.75890878355E+03  0.28759431863E+03 -0.15663498782E+04  0.17641159187E+04  0.25500000920E-02 0. -1.
</event>
<event>
 5   0  0.8038352E-07  0.3667738E+04  0.7818609E-02  0.8075149E-01
       -2   -1    0    0    0  501  0.00000000000E+00  0.00000000000E+00  0.27298077826E+04  0.27298077826E+04  0.25500000920E-02 0.  1.
        2   -1    0    0  501    0  0.00000000000E+00  0.00000000000E+00 -0.12319825035E+04  0.12319825035E+04  0.25500000920E-02 0. -1.
    10030    2    1    2    0    0  0.00000000000E+00  0.00000000000E+00  0.14978252790E+04  0.39617902861E+04  0.36677379547E+04 0.  0.
        2    1    3    3  502    0  0.77984765858E+03 -0.16537908401E+04  0.90124729153E+03  0.20384879676E+04  0.25500000920E-02 0. -1.
       -2    1    3    3    0  502 -0.77984765858E+03  0.16537908401E+04  0.59657798751E+03  0.19233023186E+04  0.25500000920E-02 0.  1.
</event>
<event>
 5   0  0.8421677E-07  0.3827300E+04  0.7818609E-02  0.8040322E-01
        2   -1    0    0  501    0  0.00000000000E+00  0.00000000000E+00  0.23302281631E+04  0.23302281631E+04  0.25500000920E-02 0. -1.
       -2   -1    0    0    0  501  0.00000000000E+00  0.00000000000E+00 -0.15715442992E+04  0.15715442992E+04  0.25500000920E-02 0.  1.
    10030    2    1    2    0    0  0.00000000000E+00  0.00000000000E+00  0.75868386385E+03  0.39017724623E+04  0.38273002420E+04 0.  0.
        3    1    3    3  502    0  0.26665852412E+03  0.68911050008E+03 -0.14202476805E+04  0.16009633144E+04  0.10100000352E+00 0.  1.
       -3    1    3    3    0  502 -0.26665852412E+03 -0.68911050008E+03  0.21789315444E+04  0.23008091479E+04  0.10100000352E+00 0. -1.
</event>
<event>
 5   0  0.7649458E-07  0.3811747E+04  0.7818609E-02  0.8043639E-01
       -2   -1    0    0    0  501  0.00000000000E+00  0.00000000000E+00  0.16157979730E+04  0.16157979730E+04  0.25500000920E-02 0.  1.
        2   -1    0    0  501    0  0.00000000000E+00  0.00000000000E+00 -0.22480248572E+04  0.22480248572E+04  0.25500000920E-02 0. -1.
    10030    2    1    2    0    0  0.00000000000E+00  0.00000000000E+00 -0.63222688417E+03  0.38638228302E+04  0.38117471099E+04 0.  0.
        4    1    3    3  502    0  0.12844188055E+03 -0.82995068928E+03  0.14181186780E+04  0.16481437016E+04  0.12699999809E+01 0.  1.
       -4    1    3    3    0  502 -0.12844188055E+03  0.82995068928E+03 -0.20503455622E+04  0.22156791285E+04  0.12699999809E+01 0. -1.
</event>
<event>
 5   0  0.7551495E-07  0.3758283E+04  0.7818609E-02  0.8055167E-01
        2   -1    0    0  501    0  0.00000000000E+00  0.00000000000E+00  0.23302371965E+04  0.23302371965E+04  0.25500000920E-02 0. -1.
       -2   -1    0    0    0  501  0.00000000000E+00  0.00000000000E+00 -0.15153704602E+04  0.15153704602E+04  0.25500000920E-02 0.  1.
    10030    2    1    2    0    0  0.00000000000E+00  0.00000000000E+00  0.81486673639E+03  0.38456076567E+04  0.37582829126E+04 0.  0.
        1    1    3    3  502    0 -0.54406925747E+03  0.25974785617E+03  0.22285887406E+04  0.23086983520E+04  0.50400001928E-02 0. -1.
       -1    1    3    3    0  502  0.54406925747E+03 -0.25974785617E+03 -0.14137220042E+04  0.15369093047E+04  0.50400001928E-02 0.  1.
</event>
<event>
 5   0  0.2529875E-07  0.2421404E+04  0.7818609E-02  0.8431533E-01
       -1   -1    0    0    0  501  0.00000000000E+00  0.00000000000E+00  0.17974141205E+04  0.17974141205E+04  0.50400001928E-02 0. -1.
        1   -1    0    0  501    0  0.00000000000E+00  0.00000000000E+00 -0.81550481074E+03  0.81550481076E+03  0.50400001928E-02 0.  1.
    10030    2    1    2    0    0  0.00000000000E+00  0.00000000000E+00  0.98190930979E+03  0.26129189313E+04  0.24214044373E+04 0.  0.
        1    1    3    3  502    0  0.12046028852E+04 -0.11628554961E+03  0.52848197371E+03  0.13205618640E+04  0.50400001928E-02 0. -1.
       -1    1    3    3    0  502 -0.12046028852E+04  0.11628554961E+03  0.45342733608E+03  0.12923570673E+04  0.50400001928E-02 0.  1.
</event>
<event>
 5   0  0.2529875E-07  0.3698592E+04  0.7818609E-02  0.8068274E-01
       -1   -1    0    0    0  501  0.00000000000E+00  0.00000000000E+00  0.29857028662E+04  0.29857028662E+04  0.50400001928E-02 0. -1.
        1   -1    0    0  501    0  0.00000000000E+00  0.00000000000E+00 -0.11454241535E+04  0.11454241535E+04  0.50400001928E-02 0.  1.
    10030    2    1    2    0    0  0.00000000000E+00  0.00000000000E+00  0.18402787126E+04  0.41311270197E+04  0.36985922610E+04 0.  0.
        3    1    3    3  502    0 -0.17778978793E+04 -0.12774641509E+03  0.36993028655E+03  0.18204637989E+04  0.10100000352E+00 0.  1.
       -3    1    3    3    0  502  0.17778978793E+04  0.12774641509E+03  0.14703484261E+04  0.23106632209E+04  0.10100000352E+00 0. -1.
</event>
<event>
 5   0  0.2529875E-07  0.2876020E+04  0.7818609E-02  0.8280048E-01
        1   -1    0    0  501    0  0.00000000000E+00  0.00000000000E+00  0.15916337156E+04  0.15916337156E+04  0.50400001928E-02 0.  1.
       -1   -1    0    0    0  501  0.00000000000E+00  0.00000000000E+00 -0.12992138467E+04  0.12992138467E+04  0.50400001928E-02 0. -1.
    10030    2    1    2    0    0  0.00000000000E+00  0.00000000000E+00  0.29241986892E+03  0.28908475622E+04  0.28760198623E+04 0.  0.
        1    1    3    3  502    0  0.12849162354E+04  0.45093055111E+03 -0.31825949496E+03  0.13984409891E+04  0.50400001928E-02 0.  1.
       -1    1    3    3    0  502 -0.12849162354E+04 -0.45093055111E+03  0.61067936388E+03  0.14924065731E+04  0.50400001928E-02 0. -1.
</event>
<event>
 5   0  0.7649458E-07  0.3757057E+04  0.7818609E-02  0.8055434E-01
        2   -1    0    0  501    0  0.00000000000E+00  0.00000000000E+00  0.24919352677E+04  0.24919352677E+04  0.25500000920E-02 0. -1.
       -2   -1    0    0    0  501  0.00000000000E+00  0.00000000000E+00 -0.14161162490E+04  0.14161162490E+04  0.25500000920E-02 0.  1.
    10030    2    1    2    0    0  0.00000000000E+00  0.00000000000E+00  0.10758190187E+04  0.39080515167E+04  0.37570573719E+04 0.  0.
        4    1    3    3  502    0  0.14333066382E+04 -0.10521946261E+04 -0.92574857127E+02  0.17804643123E+04  0.12699999809E+01 0. -1.
       -4    1    3    3    0  502 -0.14333066382E+04  0.10521946261E+04  0.11683938758E+04  0.21275872044E+04  0.12699999809E+01 0.  1.
</event>
<event>
 5   0  0.8038352E-07  0.3747711E+04  0.7818609E-02  0.8057470E-01
       -2   -1    0    0    0  501  0.00000000000E+00  0.00000000000E+00  0.15155260738E+04  0.15155260738E+04  0.25500000920E-02 0.  1.
        2   -1    0    0  501    0  0.00000000000E+00  0.00000000000E+00 -0.23169077197E+04  0.23169077197E+04  0.25500000920E-02 0. -1.
    10030    2    1    2    0    0  0.00000000000E+00  0.00000000000E+00 -0.80138164592E+03  0.38324337934E+04  0.37477107998E+04 0.  0.
        2    1    3    3  502    0  0.17139291298E+04 -0.12751838292E+03  0.36286156503E+03  0.17565541596E+04  0.25500000920E-02 0.  1.
       -2    1    3    3    0  502 -0.17139291298E+04  0.12751838292E+03 -0.11642432109E+04  0.20758796339E+04  0.25500000920E-02 0. -1.
</event>
<event>
 5   0  0.8038352E-07  0.3295034E+04  0.7818609E-02  0.8164160E-01
       -2   -1    0    0    0  501  0.00000000000E+00  0.00000000000E+00  0.14952638403E+04  0.14952638403E+04  0.25500000920E-02 0. -1.
        2   -1    0    0  501    0  0.00000000000E+00  0.00000000000E+00 -0.18152732276E+04  0.18152732276E+04  0.25500000920E-02 0.  1.
    10030    2    1    2    0    0  0.00000000000E+00  0.00000000000E+00 -0.32000938726E+03  0.33105370678E+04  0.32950340923E+04 0.  0.
        2    1    3    3  502    0  0.33448258635E+03  0.80603584077E+03  0.12439747797E+04  0.15195544181E+04  0.25500000920E-02 0. -1.
       -2    1    3    3    0  502 -0.33448258635E+03 -0.80603584077E+03 -0.15639841669E+04  0.17909826497E+04  0.25500000920E-02 0.  1.
</event>
<event>
 5   0  0.7551495E-07  0.3813574E+04  0.7818609E-02  0.8043248E-01
       -2   -1    0    0    0  501  0.00000000000E+00  0.00000000000E+00  0.17768994489E+04  0.17768994489E+04  0.25500000920E-02 0.  1.
        2   -1    0    0  501    0  0.00000000000E+00  0.00000000000E+00 -0.20461691946E+04  0.20461691946E+04  0.25500000920E-02 0. -1.
    10030    2    1    2    0    0  0.00000000000E+00  0.00000000000E+00 -0.26926974572E+03  0.38230686434E+04  0.38135741315E+04 0.  0.
        1    1    3    3  502    0 -0.73843137468E+03  0.68857141239E+03 -0.17561988335E+04  0.20257457461E+04  0.50400001928E-02 0. -1.
       -1    1    3    3    0  502  0.73843137468E+03 -0.68857141239E+03  0.14869290878E+04  0.17973228973E+04  0.50400001928E-02 0.  1.
</event>
<event>
 5   0  0.7638805E-07  0.3841666E+04  0.7818609E-02  0.8037272E-01
       -2   -1    0    0    0  501  0.00000000000E+00  0.00000000000E+00  0.13982465437E+04  0.13982465437E+04  0.25500000920E-02 0. -1.
        2   -1    0    0  501    0  0.00000000000E+00  0.00000000000E+00 -0.26387335056E+04  0.26387335056E+04  0.25500000920E-02 0.  1.
    10030    2    1    2    0    0  0.00000000000E+00  0.00000000000E+00 -0.12404869619E+04  0.40369800493E+04  0.38416663072E+04 0.  0.
        5    1    3    3  502    0  0.16351561807E+04  0.98101890956E+03 -0.37731034374E+03  0.19438413057E+04  0.46999998093E+01 0. -1.
       -5    1    3    3    0  502 -0.16351561807E+04 -0.98101890956E+03 -0.86317661820E+03  0.20931387437E+04  0.46999998093E+01 0.  1.
</event>
<event>
 5   0  0.2907071E-07  0.3831587E+04  0.7818609E-02  0.8039410E-01
        1   -1    0    0  501    0  0.00000000000E+00  0.00000000000E+00  0.29735254035E+04  0.29735254035E+04  0.50400001928E-02 0. -1.
       -1   -1    0    0    0  501  0.00000000000E+00  0.00000000000E+00 -0.12343139573E+04  0.12343139573E+04  0.50400001928E-02 0.  1.
    10030    2    1    2    0    0  0.00000000000E+00  0.00000000000E+00  0.17392114462E+04  0.42078393608E+04  0.38315865685E+04 0.  0.
        2    1    3    3  502    0  0.12091615570E+04  0.15832250935E+03 -0.75302588821E+03  0.14332430625E+04  0.25500000920E-02 0.  1.
       -2    1    3    3    0  502 -0.12091615570E+04 -0.15832250935E+03  0.24922373344E+04  0.27745962983E+04  0.25500000920E-02 0. -1.
</event>
<event>
 5   0  0.2529875E-07  0.3766609E+04  0.7818609E-02  0.8053359E-01
        1   -1    0    0  501    0  0.00000000000E+00  0.00000000000E+00  0.16451199836E+04  0.16451199837E+04  0.50400001928E-02 0.  1.
       -1   -1    0    0    0  501  0.00000000000E+00  0.00000000000E+00 -0.21559744665E+04  0.21559744665E+04  0.50400001928E-02 0. -1.
    10030    2    1    2    0    0  0.00000000000E+00  0.00000000000E+00 -0.51085448288E+03  0.38010944502E+04  0.37666094457E+04 0.  0.
        3    1    3    3  502    0 -0.55150820310E+03 -0.22785502952E+03 -0.20580504837E+04  0.21428138081E+04  0.10100000352E+00 0. -1.
       -3    1    3    3    0  502  0.55150820310E+03  0.22785502952E+03  0.15471960008E+04  0.16582806421E+04  0.10100000352E+00 0.  1.
</event>
<event>
 5   0  0.2529875E-07  0.3731232E+04  0.7818609E-02  0.8061075E-01
        1   -1    0    0  501    0  0.00000000000E+00  0.00000000000E+00  0.22109055901E+04  0.22109055901E+04  0.50400001928E-02 0.  1.
       -1   -1    0    0    0  501  0.00000000000E+00  0.00000000000E+00 -0.15742523638E+04  0.15742523638E+04  0.50400001928E-02 0. -1.
    10030    2    1    2    0    0  0.00000000000E+00  0.00000000000E+00  0.63665322629E+03  0.37851579539E+04  0.37312321565E+04 0.  0.
        1    1    3    3  502    0  0.40778201229E+03  0.16481017041E+03  0.21575586723E+04  0.22019327843E+04  0.50400001928E-02 0.  1.
       -1    1    3    3    0  502 -0.40778201229E+03 -0.16481017041E+03 -0.15209054461E+04  0.15832251696E+04  0.50400001928E-02 0. -1.
</event>
<event>
 5   0  0.2907071E-07  0.3138652E+04  0.7818609E-02  0.8205210E-01
        1   -1    0    0  501    0  0.00000000000E+00  0.00000000000E+00  0.23988706377E+04  0.23988706377E+04  0.50400001928E-02 0.  1.
       -1   -1    0    0    0  501  0.00000000000E+00  0.00000000000E+00 -0.10266432541E+04  0.10266432541E+04  0.50400001928E-02 0. -1.
    10030    2    1    2    0    0  0.00000000000E+00  0.00000000000E+00  0.13722273837E+04  0.34255138918E+04  0.31386521678E+04 0.  0.
        2    1    3    3  502    0 -0.23076729103E+02  0.15613903493E+04  0.51593981948E+03  0.16445869559E+04  0.25500000920E-02 0.  1.
       -2    1    3    3    0  502  0.23076729103E+02 -0.15613903493E+04  0.85628756420E+03  0.17809269359E+04  0.25500000920E-02 0. -1.
</event>
<event>
 5   0  0.8421677E-07  0.3716297E+04  0.7818609E-02  0.8064360E-01
        2   -1    0    0  501    0  0.00000000000E+00  0.00000000000E+00  0.24340796232E+04  0.24340796232E+04  0.25500000920E-02 0. -1.
       -2   -1    0    0    0  501  0.00000000000E+00  0.00000000000E+00 -0.14184894437E+04  0.14184894437E+04  0.25500000920E-02 0.  1.
    10030    2    1    2    0    0  0.00000000000E+00  0.00000000000E+00  0.10155901795E+04  0.38525690668E+04  0.37162972166E+04 0.  0.
        3    1    3    3  502    0 -0.31050926857E+03  0.17003904712E+04 -0.19909780728E+03  0.17399378459E+04  0.10100000352E+00 0.  1.
       -3    1    3    3    0  502  0.31050926857E+03 -0.17003904712E+04  0.12146879868E+04  0.21126312210E+04  0.10100000352E+00 0. -1.
</event>
<event>
 5   0  0.2907071E-07  0.3673611E+04  0.7818609E-02  0.8073835E-01
       -1   -1    0    0    0  501  0.00000000000E+00  0.00000000000E+00  0.22749399459E+04  0.22749399459E+04  0.50400001928E-02 0. -1.
        1   -1    0    0  501    0  0.00000000000E+00  0.00000000000E+00 -0.14830523247E+04  0.14830523247E+04  0.50400001928E-02 0.  1.
    10030    2    1    2    0    0  0.00000000000E+00  0.00000000000E+00  0.79188762119E+03  0.37579922707E+04  0.36736112889E+04 0.  0.
        2    1    3    3  502    0 -0.13192894706E+04  0.54769654769E+03  0.15771784955E+04  0.21279070051E+04  0.25500000920E-02 0. -1.
       -2    1    3    3    0  502  0.13192894706E+04 -0.54769654769E+03 -0.78529087435E+03  0.16300852655E+04  0.25500000920E-02 0.  1.
</event>
<event>
 5   0  0.7638805E-07  0.3700851E+04  0.7818609E-02  0.8067773E-01
       -2   -1    0    0    0  501  0.00000000000E+00  0.00000000000E+00  0.18533141474E+04  0.18533141474E+04  0.25500000920E-02 0. -1.
        2   -1    0    0  501    0  0.00000000000E+00  0.00000000000E+00 -0.18475414035E+04  0.18475414035E+04  0.25500000920E-02 0.  1.
    10030    2    1    2    0    0  0.00000000000E+00  0.00000000000E+00  0.57727438647E+01  0.37008555509E+04  0.37008510486E+04 0.  0.
        5    1    3    3  502    0 -0.59155570602E+03  0.17353984818E+04  0.25289964992E+03  0.18508177563E+04  0.46999998093E+01 0. -1.
       -5    1    3    3    0  502  0.59155570602E+03 -0.17353984818E+04 -0.24712690605E+03  0.18500377947E+04  0.46999998093E+01 0.  1.
</event>
<event>
 5   0  0.7649458E-07  0.3825868E+04  0.7818609E-02  0.8040626E-01
        2   -1    0    0  501    0  0.00000000000E+00  0.00000000000E+00  0.23953858383E+04  0.23953858383E+04  0.25500000920E-02 0.  1.
       -2   -1    0    0    0  501  0.00000000000E+00  0.00000000000E+00 -0.15276523345E+04  0.15276523345E+04  0.25500000920E-02 0. -1.
    10030    2    1    2    0    0  0.00000000000E+00  0.00000000000E+00  0.86773350383E+03  0.39230381728E+04  0.38258681461E+04 0.  0.
        4    1    3    3  502    0 -0.54267440840E+03  0.97085411710E+03  0.20297572421E+04  0.23145127576E+04  0.12699999809E+01 0.  1.
       -4    1    3    3    0  502  0.54267440840E+03 -0.97085411710E+03 -0.11620237383E+04  0.16085254152E+04  0.12699999809E+01 0. -1.
</event>
<event>
 5   0  0.2529875E-07  0.3770026E+04  0.7818609E-02  0.8052618E-01
       -1   -1    0    0    0  501  0.00000000000E+00  0.00000000000E+00  0.18501247607E+04  0.18501247607E+04  0.50400001928E-02 0. -1.
        1   -1    0    0  501    0  0.00000000000E+00  0.00000000000E+00 -0.19205590622E+04  0.19205590622E+04  0.50400001928E-02 0.  1.
    10030    2    1    2    0    0  0.00000000000E+00  0.00000000000E+00 -0.70434301517E+02  0.37706838229E+04  0.37700259285E+04 0.  0.
        5    1    3    3  502    0 -0.31094900378E+03 -0.10451639955E+04 -0.15730792811E+04  0.19140683309E+04  0.46999998093E+01 0.  1.
       -5    1    3    3    0  502  0.31094900378E+03  0.10451639955E+04  0.15026449796E+04  0.18566154920E+04  0.46999998093E+01 0. -1.
</event>
<event>
 5   0  0.2529875E-07  0.3425474E+04  0.7818609E-02  0.8131682E-01
       -1   -1    0    0    0  501  0.00000000000E+00  0.00000000000E+00  0.20790792329E+04  0.20790792329E+04  0.50400001928E-02 0. -1.
        1   -1    0    0  501    0  0.00000000000E+00  0.00000000000E+00 -0.14109459677E+04  0.14109459677E+04  0.50400001928E-02 0.  1.
    10030    2    1    2    0    0  0.00000000000E+00  0.00000000000E+00  0.66813326517E+03  0.34900252006E+04  0.34254742505E+04 0.  0.
        3    1    3    3  502    0 -0.79555553203E+03  0.14732883996E+04  0.70138954684E+03  0.18153331980E+04  0.10100000352E+00 0. -1.
       -3    1    3    3    0  502  0.79555553203E+03 -0.14732883996E+04 -0.33256281671E+02  0.16746920026E+04  0.10100000352E+00 0.  1.
</event>
<event>
 5   0  0.2529875E-07  0.3774493E+04  0.7818609E-02  0.8051651E-01
        1   -1    0    0  501    0  0.00000000000E+00  0.00000000000E+00  0.19729798321E+04  0.19729798321E+04  0.50400001928E-02 0. -1.
       -1   -1    0    0    0  501  0.00000000000E+00  0.00000000000E+00 -0.18052384947E+04  0.18052384947E+04  0.50400001928E-02 0.  1.
    10030    2    1    2    0    0  0.00000000000E+00  0.00000000000E+00  0.16774133735E+03  0.37782183268E+04  0.37744928890E+04 0.  0.
        1    1    3    3  502    0  0.49655582464E+03 -0.16492522940E+04  0.85605823273E+03  0.19233919294E+04  0.50400001928E-02 0. -1.
       -1    1    3    3    0  502 -0.49655582464E+03  0.16492522940E+04 -0.68831689538E+03  0.18548263974E+04  0.50400001928E-02 0.  1.
</event>
<event>
 5   0  0.2529875E-07  0.3838906E+04  0.7818609E-02  0.8037857E-01
       -1   -1    0    0    0  501  0.00000000000E+00  0.00000000000E+00  0.23724825862E+04  0.23724825862E+04  0.50400001928E-02 0.  1.
        1   -1    0    0  501    0  0.00000000000E+00  0.00000000000E+00 -0.15529302488E+04  0.15529302488E+04  0.50400001928E-02 0. -1.
    10030    2    1    2    0    0  0.00000000000E+00  0.00000000000E+00  0.81955233741E+03  0.39254128350E+04  0.38389060800E+04 0.  0.
        5    1    3    3  502    0 -0.42475255001E+03  0.79644906206E+03 -0.13223654255E+04  0.16010678455E+04  0.46999998093E+01 0. -1.
       -5    1    3    3    0  502  0.42475255001E+03 -0.79644906206E+03  0.21419177629E+04  0.23243449895E+04  0.46999998093E+01 0.  1.
</event>
<event>
 5   0  0.8038352E-07  0.3862188E+04  0.7818609E-02  0.8032940E-01
       -2   -1    0    0    0  501  0.00000000000E+00  0.00000000000E+00  0.28104300269E+04  0.28104300269E+04  0.25500000920E-02 0. -1.
        2   -1    0    0  501    0  0.00000000000E+00  0.00000000000E+00 -0.13268874338E+04  0.13268874338E+04  0.25500000920E-02 0.  1.
    10030    2    1    2    0    0  0.00000000000E+00  0.00000000000E+00  0.14835425931E+04  0.41373174607E+04  0.38621881292E+04 0.  0.
        2    1    3    3  502    0  0.19089050796E+04 -0.11518434846E+03  0.10290909633E+04  0.21716846566E+04  0.25500000920E-02 0. -1.
       -2    1    3    3    0  502 -0.19089050796E+04  0.11518434846E+03  0.45445162977E+03  0.19656328041E+04  0.25500000920E-02 0.  1.
</event>
<event>
 5   0  0.2907071E-07  0.3205081E+04  0.7818609E-02  0.8187477E-01
        1   -1    0    0  501    0  0.00000000000E+00  0.00000000000E+00  0.10301786371E+04  0.10301786371E+04  0.50400001928E-02 0.  1.
       -1   -1    0    0    0  501  0.00000000000E+00  0.00000000000E+00 -0.24929038549E+04  0.24929038549E+04  0.50400001928E-02 0. -1.
    10030    2    1    2    0    0  0.00000000000E+00  0.00000000000E+00 -0.14627252178E+04  0.35230824920E+04  0.32050811507E+04 0.  0.
        2    1    3    3  502    0 -0.22641888005E+03 -0.58899603371E+02  0.10113056770E+04  0.10380143761E+04  0.25500000920E-02 0.  1.
       -2    1    3    3    0  502  0.22641888005E+03  0.58899603371E+02 -0.24740308948E+04  0.24850681160E+04  0.25500000920E-02 0. -1.
</event>
<event>
 5   0  0.7638805E-07  0.3777764E+04  0.7818609E-02  0.8050944E-01
        2   -1    0    0  501    0  0.00000000000E+00  0.00000000000E+00  0.14153477768E+04  0.14153477768E+04  0.25500000920E-02 0.  1.
       -2   -1    0    0    0  501  0.00000000000E+00  0.00000000000E+00 -0.25208464127E+04  0.25208464127E+04  0.25500000920E-02 0. -1.
    10030    2    1    2    0    0  0.00000000000E+00  0.00000000000E+00 -0.11054986360E+04  0.39361941895E+04  0.37777635532E+04 0.  0.
        5    1    3    3  502    0 -0.18705176219E+04 -0.75360734989E+02 -0.29052678184E+03  0.18944506632E+04  0.46999998093E+01 0. -1.
       -5    1    3    3    0  502  0.18705176219E+04  0.75360734989E+02 -0.81497185412E+03  0.20417435263E+04  0.46999998093E+01 0.  1.
</event>
<event>
 5   0  0.2529875E-07  0.3664380E+04  0.7818609E-02  0.8075902E-01
       -1   -1    0    0    0  501  0.00000000000E+00  0.00000000000E+00  0.20019524650E+04  0.20019524651E+04  0.50400001928E-02 0. -1.
        1   -1    0    0  501    0  0.00000000000E+00  0.00000000000E+00 -0.16768227915E+04  0.16768227915E+04  0.50400001928E-02 0.  1.
    10030    2    1    2    0    0  0.00000000000E+00  0.00000000000E+00  0.32512967355E+03  0.36787752566E+04  0.36643796315E+04 0.  0.
        1    1    3    3  502    0  0.35235893176E+03 -0.16362955202E+04 -0.58554696469E+03  0.17732696056E+04  0.50400001928E-02 0.  1.
       -1    1    3    3    0  502 -0.35235893176E+03  0.16362955202E+04  0.91067663824E+03  0.19055056509E+04  0.50400001928E-02 0. -1.
</event>
<event>
 5   0  0.8421677E-07  0.3773410E+04  0.7818609E-02  0.8051885E-01
       -2   -1    0    0    0  501  0.00000000000E+00  0.00000000000E+00  0.15442200269E+04  0.15442200269E+04  0.25500000920E-02 0.  1.
        2   -1    0    0  501    0  0.00000000000E+00  0.00000000000E+00 -0.23051479733E+04  0.23051479733E+04  0.25500000920E-02 0. -1.
    10030    2    1    2    0    0  0.00000000000E+00  0.00000000000E+00 -0.76092794636E+03  0.38493680002E+04  0.37734099514E+04 0.  0.
        3    1    3    3  502    0 -0.15555398042E+04 -0.43919209878E+03  0.61229682090E+03  0.17284389458E+04  0.10100000352E+00 0.  1.
       -3    1    3    3    0  502  0.15555398042E+04  0.43919209878E+03 -0.13732247673E+04  0.21209290544E+04  0.10100000352E+00 0. -1.
</event>
<event>
 5   0  0.7638805E-07  0.3748091E+04  0.7818609E-02  0.8057387E-01
       -2   -1    0    0    0  501  0.00000000000E+00  0.00000000000E+00  0.15050408272E+04  0.15050408272E+04  0.25500000920E-02 0.  1.
        2   -1    0    0  501    0  0.00000000000E+00  0.00000000000E+00 -0.23335219913E+04  0.23335219913E+04  0.25500000920E-02 0. -1.
    10030    2    1    2    0    0  0.00000000000E+00  0.00000000000E+00 -0.82848116405E+03  0.38385628185E+04  0.37480906435E+04 0.  0.
        5    1    3    3  502    0  0.14862430852E+04 -0.45436341066E+03  0.65825226024E+03  0.16878041193E+04  0.46999998093E+01 0.  1.
       -5    1    3    3    0  502 -0.14862430852E+04  0.45436341066E+03 -0.14867334243E+04  0.21507586992E+04  0.46999998093E+01 0. -1.
</event>
<event>
 5   0  0.7638805E-07  0.3838235E+04  0.7818609E-02  0.8037999E-01
       -2   -1    0    0    0  501  0.00000000000E+00  0.00000000000E+00  0.18189963500E+04  0.18189963500E+04  0.25500000920E-02 0. -1.
        2   -1    0    0  501    0  0.00000000000E+00  0.00000000000E+00 -0.20247496739E+04  0.20247496739E+04  0.25500000920E-02 0.  1.
    10030    2    1    2    0    0  0.00000000000E+00  0.00000000000E+00 -0.20575332394E+03  0.38437460239E+04  0.38382351500E+04 0.  0.
        5    1    3    3  502    0  0.62294196474E+03  0.17851218598E+04 -0.43239838871E+03  0.19395121042E+04  0.46999998093E+01 0.  1.
       -5    1    3    3    0  502 -0.62294196474E+03 -0.17851218598E+04  0.22664506477E+03  0.19042339198E+04  0.46999998093E+01 0. -1.
</event>
<event>
 5   0  0.8421677E-07  0.3755382E+04  0.7818609E-02  0.8055798E-01
       -2   -1    0    0    0  501  0.00000000000E+00  0.00000000000E+00  0.12453754445E+04  0.12453754445E+04  0.25500000920E-02 0. -1.
        2   -1    0    0  501    0  0.00000000000E+00  0.00000000000E+00 -0.28310520226E+04  0.28310520226E+04  0.25500000920E-02 0.  1.
    10030    2    1    2    0    0  0.00000000000E+00  0.00000000000E+00 -0.15856765781E+04  0.40764274671E+04  0.37553815631E+04 0.  0.
        3    1    3    3  502    0 -0.14596150941E+04 -0.88810065453E+03  0.52536953078E+02  0.17093739021E+04  0.10100000352E+00 0. -1.
       -3    1    3    3    0  502  0.14596150941E+04  0.88810065453E+03 -0.16382135312E+04  0.23670535650E+04  0.10100000352E+00 0.  1.
</event>
<event>
 5   0  0.2529875E-07  0.3798326E+04  0.7818609E-02  0.8046514E-01
       -1   -1    0    0    0  501  0.00000000000E+00  0.00000000000E+00  0.14232923126E+04  0.14232923126E+04  0.50400001928E-02 0. -1.
        1   -1    0    0  501    0  0.00000000000E+00  0.00000000000E+00 -0.25341390739E+04  0.25341390739E+04  0.50400001928E-02 0.  1.
    10030    2    1    2    0    0  0.00000000000E+00  0.00000000000E+00 -0.11108467614E+04  0.39574313865E+04  0.37983262961E+04 0.  0.
        1    1    3    3  502    0  0.77013876656E+03  0.88625686903E+03  0.99983889269E+03  0.15421552351E+04  0.50400001928E-02 0. -1.
       -1    1    3    3    0  502 -0.77013876656E+03 -0.88625686903E+03 -0.21106856540E+04  0.24152761515E+04  0.50400001928E-02 0.  1.
</event>
<event>
 5   0  0.2529875E-07  0.2432559E+04  0.7818609E-02  0.8427414E-01
       -1   -1    0    0    0  501  0.00000000000E+00  0.00000000000E+00  0.16682133502E+04  0.16682133502E+04  0.50400001928E-02 0.  1.
        1   -1    0    0  501    0  0.00000000000E+00  0.00000000000E+00 -0.88677873025E+03  0.88677873026E+03  0.50400001928E-02 0. -1.
    10030    2    1    2    0    0  0.00000000000E+00  0.00000000000E+00  0.78143461999E+03  0.25549920805E+04  0.24325592421E+04 0.  0.
        4    1    3    3  502    0  0.75676817320E+03 -0.53794603492E+03  0.12159128223E+04  0.15298789523E+04  0.12699999809E+01 0.  1.
       -4    1    3    3    0  502 -0.75676817320E+03  0.53794603492E+03 -0.43447820229E+03  0.10251131282E+04  0.12699999809E+01 0. -1.
</event>
<event>
 5   0  0.2529875E-07  0.3681873E+04  0.7818609E-02  0.8071991E-01
        1   -1    0    0  501    0  0.00000000000E+00  0.00000000000E+00  0.18602532433E+04  0.18602532433E+04  0.50400001928E-02 0.  1.
       -1   -1    0    0    0  501  0.00000000000E+00  0.00000000000E+00 -0.18218199014E+04  0.18218199014E+04  0.50400001928E-02 0. -1.
    10030    2    1    2    0    0  0.00000000000E+00  0.00000000000E+00  0.38433341900E+02  0.36820731447E+04  0.36818725563E+04 0.  0.
        5    1    3    3  502    0 -0.30896032340E+03 -0.82350783966E+03 -0.15980920902E+04  0.18241551639E+04  0.46999998093E+01 0. -1.
       -5    1    3    3    0  502  0.30896032340E+03  0.82350783966E+03  0.16365254321E+04  0.18579179808E+04  0.46999998093E+01 0.  1.
</event>
<event>
 5   0  0.8038352E-07  0.2922990E+04  0.7818609E-02  0.8266070E-01
       -2   -1    0    0    0  501  0.00000000000E+00  0.00000000000E+00  0.87915849772E+03  0.87915849772E+03  0.25500000920E-02 0. -1.
        2   -1    0    0  501    0  0.00000000000E+00  0.00000000000E+00 -0.24295599815E+04  0.24295599815E+04  0.25500000920E-02 0.  1.
    10030    2    1    2    0    0  0.00000000000E+00  0.00000000000E+00 -0.15504014838E+04  0.33087184792E+04  0.29229904574E+04 0.  0.
        2    1    3    3  502    0  0.60662241584E+03 -0.11099422940E+04  0.53536974106E+02  0.12660287749E+04  0.25500000920E-02 0. -1.
       -2    1    3    3    0  502 -0.60662241584E+03  0.11099422940E+04 -0.16039384579E+04  0.20426897043E+04  0.25500000920E-02 0.  1.
</event>
<event>
 5   0  0.2529875E-07  0.3756816E+04  0.7818609E-02  0.8055486E-01
       -1   -1    0    0    0  501  0.00000000000E+00  0.00000000000E+00  0.18377225758E+04  0.18377225758E+04  0.50400001928E-02 0. -1.
        1   -1    0    0  501    0  0.00000000000E+00  0.00000000000E+00 -0.19199937446E+04  0.19199937447E+04  0.50400001928E-02 0.  1.
    10030    2    1    2    0    0  0.00000000000E+00  0.00000000000E+00 -0.82271168892E+02  0.37577163204E+04  0.37568155930E+04 0.  0.
        3    1    3    3  502    0 -0.15002532544E+04  0.19426031021E+02  0.10893029106E+04  0.18541084217E+04  0.10100000352E+00 0. -1.
       -3    1    3    3    0  502  0.15002532544E+04 -0.19426031021E+02 -0.11715740795E+04  0.19036078987E+04  0.10100000352E+00 0.  1.
</event>
<event>
 5   0  0.2529875E-07  0.3799460E+04  0.7818609E-02  0.8046271E-01
        1   -1    0    0  501    0  0.00000000000E+00  0.00000000000E+00  0.24202059178E+04  0.24202059178E+04  0.50400001928E-02 0.  1.
       -1   -1    0    0    0  501  0.00000000000E+00  0.00000000000E+00 -0.14911847193E+04  0.14911847193E+04  0.50400001928E-02 0. -1.
    10030    2    1    2    0    0  0.00000000000E+00  0.00000000000E+00  0.92902119848E+03  0.39113906371E+04  0.37994600049E+04 0.  0.
        4    1    3    3  502    0  0.32564646223E+03  0.15990106121E+04 -0.53681652314E+03  0.17178632507E+04  0.12699999809E+01 0. -1.
       -4    1    3    3    0  502 -0.32564646223E+03 -0.15990106121E+04  0.14658377216E+04  0.21935273864E+04  0.12699999809E+01 0.  1.
</event>
<event>
 5   0  0.7649458E-07  0.3786643E+04  0.7818609E-02  0.8049027E-01
        2   -1    0    0  501    0  0.00000000000E+00  0.00000000000E+00  0.26318079391E+04  0.26318079391E+04  0.25500000920E-02 0.  1.
       -2   -1    0    0    0  501  0.00000000000E+00  0.00000000000E+00 -0.13620547106E+04  0.13620547106E+04  0.25500000920E-02 0. -1.
    10030    2    1    2    0    0  0.00000000000E+00  0.00000000000E+00  0.12697532285E+04  0.39938626497E+04  0.37866430520E+04 0.  0.
        4    1    3    3  502    0  0.15133867768E+04  0.72519005291E+03  0.15594457633E+04  0.22908760007E+04  0.12699999809E+01 0.  1.
       -4    1    3    3    0  502 -0.15133867768E+04 -0.72519005291E+03 -0.28969253485E+03  0.17029866490E+04  0.12699999809E+01 0. -1.
</event>
<event>
 5   0  0.2529875E-07  0.3720715E+04  0.7818609E-02  0.8063387E-01
       -1   -1    0    0    0  501  0.00000000000E+00  0.00000000000E+00  0.20070161862E+04  0.20070161862E+04  0.50400001928E-02 0.  1.
        1   -1    0    0  501    0  0.00000000000E+00  0.00000000000E+00 -0.17244154134E+04  0.17244154134E+04  0.50400001928E-02 0. -1.
    10030    2    1    2    0    0  0.00000000000E+00  0.00000000000E+00  0.28260077275E+03  0.37314315996E+04  0.37207147950E+04 0.  0.
        4    1    3    3  502    0  0.33643412124E+02  0.17850939315E+04  0.66552560855E+03  0.19054181095E+04  0.12699999809E+01 0.  1.
       -4    1    3    3    0  502 -0.33643412124E+02 -0.17850939315E+04 -0.38292483580E+03  0.18260134902E+04  0.12699999809E+01 0. -1.
</event>
<event>
 5   0  0.2529875E-07  0.2557151E+04  0.7818609E-02  0.8382903E-01
       -1   -1    0    0    0  501  0.00000000000E+00  0.00000000000E+00  0.11430950756E+04  0.11430950756E+04  0.50400001928E-02 0. -1.
        1   -1    0    0  501    0  0.00000000000E+00  0.00000000000E+00 -0.14301132722E+04  0.14301132722E+04  0.50400001928E-02 0.  1.
    10030    2    1    2    0    0  0.00000000000E+00  0.00000000000E+00 -0.28701819655E+03  0.25732083478E+04  0.25571511016E+04 0.  0.
        4    1    3    3  502    0 -0.60866776724E+03 -0.99294577781E+03 -0.67439757187E+03  0.13458199978E+04  0.12699999809E+01 0.  1.
       -4    1    3    3    0  502  0.60866776724E+03  0.99294577781E+03  0.38737937531E+03  0.12273883501E+04  0.12699999809E+01 0. -1.
</event>
<event>
 5   0  0.2529875E-07  0.3776534E+04  0.7818609E-02  0.8051209E-01
       -1   -1    0    0    0  501  0.00000000000E+00  0.00000000000E+00  0.26275561150E+04  0.26275561150E+04  0.50400001928E-02 0.  1.
        1   -1    0    0  501    0  0.00000000000E+00  0.00000000000E+00 -0.13569840565E+04  0.13569840565E+04  0.50400001928E-02 0. -1.
    10030    2    1    2    0    0  0.00000000000E+00  0.00000000000E+00  0.12705720585E+04  0.39845401715E+04  0.37765337311E+04 0.  0.
        1    1    3    3  502    0  0.15458381288E+04  0.35098191788E+03 -0.44726166500E+03  0.16470721976E+04  0.50400001928E-02 0. -1.
       -1    1    3    3    0  502 -0.15458381288E+04 -0.35098191788E+03  0.17178337235E+04  0.23374679739E+04  0.50400001928E-02 0.  1.
</event>
<event>
 5   0  0.7551495E-07  0.3705136E+04  0.7818609E-02  0.8066824E-01
        2   -1    0    0  501    0  0.00000000000E+00  0.00000000000E+00  0.16123015184E+04  0.16123015184E+04  0.25500000920E-02 0.  1.
       -2   -1    0    0    0  501  0.00000000000E+00  0.00000000000E+00 -0.21286397579E+04  0.21286397579E+04  0.25500000920E-02 0. -1.
    10030    2    1    2    0    0  0.00000000000E+00  0.00000000000E+00 -0.51633823958E+03  0.37409412763E+04  0.37051364961E+04 0.  0.
        1    1    3    3  502    0 -0.23092182434E+03  0.17760862247E+04  0.21990624927E+03  0.18044849473E+04  0.50400001928E-02 0.  1.
       -1    1    3    3    0  502  0.23092182434E+03 -0.17760862247E+04 -0.73624448885E+03  0.19364563290E+04  0.50400001928E-02 0. -1.
</event>
<event>
 5   0  0.2529875E-07  0.3068303E+04  0.7818609E-02  0.8224491E-01
       -1   -1    0    0    0  501  0.00000000000E+00  0.00000000000E+00  0.15383948073E+04  0.15383948073E+04  0.50400001928E-02 0. -1.
        1   -1    0    0  501    0  0.00000000000E+00  0.00000000000E+00 -0.15299195383E+04  0.15299195383E+04  0.50400001928E-02 0.  1.
    10030    2    1    2    0    0  0.00000000000E+00  0.00000000000E+00  0.84752690252E+01  0.30683143456E+04  0.30683026404E+04 0.  0.
        3    1    3    3  502    0 -0.18088974263E+03  0.11296748678E+04  0.10263637658E+04  0.15369804800E+04  0.10100000352E+00 0. -1.
       -3    1    3    3    0  502  0.18088974263E+03 -0.11296748678E+04 -0.10178884968E+04  0.15313338656E+04  0.10100000352E+00 0.  1.
</event>
<event>
 5   0  0.8038352E-07  0.3855557E+04  0.7818609E-02  0.8034337E-01
       -2   -1    0    0    0  501  0.00000000000E+00  0.00000000000E+00  0.19312993154E+04  0.19312993154E+04  0.25500000920E-02 0.  1.
        2   -1    0    0  501    0  0.00000000000E+00  0.00000000000E+00 -0.19242636081E+04  0.19242636081E+04  0.25500000920E-02 0. -1.
    10030    2    1    2    0    0  0.00000000000E+00  0.00000000000E+00  0.70357073005E+01  0.38555629235E+04  0.38555565040E+04 0.  0.
        2    1    3    3  502    0  0.14559611810E+04 -0.67821152448E+03 -0.10625679502E+04  0.19258360473E+04  0.25500000920E-02 0. -1.
       -2    1    3    3    0  502 -0.14559611810E+04  0.67821152448E+03  0.10696036575E+04  0.19297268761E+04  0.25500000920E-02 0.  1.
</event>
<event>
 5   0  0.8421677E-07  0.3023537E+04  0.7818609E-02  0.8237041E-01
       -2   -1    0    0    0  501  0.00000000000E+00  0.00000000000E+00  0.14259333232E+04  0.14259333232E+04  0.25500000920E-02 0. -1.
        2   -1    0    0  501    0  0.00000000000E+00  0.00000000000E+00 -0.16027708645E+04  0.16027708645E+04  0.25500000920E-02 0.  1.
    10030    2    1    2    0    0  0.00000000000E+00  0.00000000000E+00 -0.17683754125E+03  0.30287041877E+04  0.30235372563E+04 0.  0.
        3    1    3    3  502    0  0.12586874355E+04  0.17023525763E+03  0.73284220000E+03  0.14664009696E+04  0.10100000352E+00 0. -1.
       -3    1    3    3    0  502 -0.12586874355E+04 -0.17023525763E+03 -0.90967974126E+03  0.15623032181E+04  0.10100000352E+00 0.  1.
</event>
<event>
 5   0  0.2529875E-07  0.3822463E+04  0.7818609E-02  0.8041352E-01
        1   -1    0    0  501    0  0.00000000000E+00  0.00000000000E+00  0.25152499651E+04  0.25152499651E+04  0.50400001928E-02 0. -1.
       -1   -1    0    0    0  501  0.00000000000E+00  0.00000000000E+00 -0.14522635158E+04  0.14522635158E+04  0.50400001928E-02 0.  1.
    10030    2    1    2    0    0  0.00000000000E+00  0.00000000000E+00  0.10629864494E+04  0.39675134809E+04  0.38224629534E+04 0.  0.
        5    1    3    3  502    0  0.16771681064E+04 -0.80578758296E+03  0.98463422938E+03  0.21051634477E+04  0.46999998093E+01 0.  1.
       -5    1    3    3    0  502 -0.16771681064E+04  0.80578758296E+03  0.78352219993E+02  0.18623500332E+04  0.46999998093E+01 0. -1.
</event>
<event>
 5   0  0.7649458E-07  0.2639385E+04  0.7818609E-02  0.8354945E-01
       -2   -1    0    0    0  501  0.00000000000E+00  0.00000000000E+00  0.15496710848E+04  0.15496710848E+04  0.25500000920E-02 0.  1.
        2   -1    0    0  501    0  0.00000000000E+00  0.00000000000E+00 -0.11238434608E+04  0.11238434608E+04  0.25500000920E-02 0. -1.
    10030    2    1    2    0    0  0.00000000000E+00  0.00000000000E+00  0.42582762396E+03  0.26735145456E+04  0.26393845609E+04 0.  0.
        4    1    3    3  502    0  0.35182826731E+03  0.11021633885E+04 -0.43014890045E+03  0.12343325946E+04  0.12699999809E+01 0. -1.
       -4    1    3    3    0  502 -0.35182826731E+03 -0.11021633885E+04  0.85597652441E+03  0.14391819510E+04  0.12699999809E+01 0.  1.
</event>
<event>
 5   0  0.7649458E-07  0.2491203E+04  0.7818609E-02  0.8406126E-01
        2   -1    0    0  501    0  0.00000000000E+00  0.00000000000E+00  0.15172103191E+04  0.15172103191E+04  0.25500000920E-02 0.  1.
       -2   -1    0    0    0  501  0.00000000000E+00  0.00000000000E+00 -0.10226153775E+04  0.10226153776E+04  0.25500000920E-02 0. -1.
    10030    2    1    2    0    0  0.00000000000E+00  0.00000000000E+00  0.49459494152E+03  0.25398256966E+04  0.24912026038E+04 0.  0.
        4    1    3    3  502    0  0.54897554006E+03 -0.10781437423E+04 -0.54715535569E+02  0.12111001095E+04  0.12699999809E+01 0. -1.
       -4    1    3    3    0  502 -0.54897554006E+03  0.10781437423E+04  0.54931047709E+03  0.13287255871E+04  0.12699999809E+01 0.  1.
</event>
<event>
 5   0  0.8038352E-07  0.3704799E+04  0.7818609E-02  0.8066899E-01
        2   -1    0    0  501    0  0.00000000000E+00  0.00000000000E+00  0.25729359111E+04  0.25729359111E+04  0.25500000920E-02 0. -1.
       -2   -1    0    0    0  501  0.00000000000E+00  0.00000000000E+00 -0.13336453419E+04  0.13336453420E+04  0.25500000920E-02 0.  1.
    10030    2    1    2    0    0  0.00000000000E+00  0.00000000000E+00  0.12392905692E+04  0.39065812531E+04  0.37047990461E+04 0.  0.
        2    1    3    3  502    0  0.13282500352E+04 -0.62824147105E+03 -0.56982147802E+03  0.15759543200E+04  0.25500000920E-02 0.  1.
       -2    1    3    3    0  502 -0.13282500352E+04  0.62824147105E+03  0.18091120472E+04  0.23306269331E+04  0.25500000920E-02 0. -1.
</event>
<event>
 5   0  0.2529875E-07  0.3752786E+04  0.7818609E-02  0.8056364E-01
        1   -1    0    0  501    0  0.00000000000E+00  0.00000000000E+00  0.12012850754E+04  0.12012850754E+04  0.50400001928E-02 0. -1.
       -1   -1    0    0    0  501  0.00000000000E+00  0.00000000000E+00 -0.29309031328E+04  0.29309031328E+04  0.50400001928E-02 0.  1.
    10030    2    1    2    0    0  0.00000000000E+00  0.00000000000E+00 -0.17296180574E+04  0.41321882082E+04  0.37527857338E+04 0.  0.
        5    1    3    3  502    0  0.11966768410E+04  0.16313894053E+03  0.71640054066E+03  0.14042441385E+04  0.46999998093E+01 0. -1.
       -5    1    3    3    0  502 -0.11966768410E+04 -0.16313894053E+03 -0.24460185980E+04  0.27279440697E+04  0.46999998093E+01 0.  1.
</event>
<event>
 5   0  0.8421677E-07  0.3811850E+04  0.7818609E-02  0.8043617E-01
        2   -1    0    0  501    0  0.00000000000E+00  0.00000000000E+00  0.16406699913E+04  0.16406699913E+04  0.25500000920E-02 0. -1.
       -2   -1    0    0    0  501  0.00000000000E+00  0.00000000000E+00 -0.22140649242E+04  0.22140649242E+04  0.25500000920E-02 0.  1.
    10030    2    1    2    0    0  0.00000000000E+00  0.00000000000E+00 -0.57339493291E+03  0.38547349155E+04  0.38118498816E+04 0.  0.
        3    1    3    3  502    0 -0.69387101855E+03  0.22836004499E+03 -0.20668844973E+04  0.21921717168E+04  0.10100000352E+00 0.  1.
       -3    1    3    3    0  502  0.69387101855E+03 -0.22836004499E+03  0.14934895644E+04  0.16625631987E+04  0.10100000352E+00 0. -1.
</event>
<event>
 5   0  0.2529875E-07  0.3760182E+04  0.7818609E-02  0.8054754E-01
       -3   -1    0    0    0  501  0.00000000000E+00  0.00000000000E+00  0.26542916747E+04  0.26542916767E+04  0.10100000352E+00 0.  1.
        3   -1    0    0  501    0  0.00000000000E+00  0.00000000000E+00 -0.13317082326E+04  0.13317082364E+04  0.10100000352E+00 0. -1.
    10030    2    1    2    0    0  0.00000000000E+00  0.00000000000E+00  0.13225834422E+04  0.39859999131E+04  0.37601819564E+04 0.  0.
        5    1    3    3  502    0 -0.35659257749E+02 -0.18503435266E+04  0.31022739968E+03  0.18765142895E+04  0.46999998093E+01 0.  1.
       -5    1    3    3    0  502  0.35659257749E+02  0.18503435266E+04  0.10123560425E+04  0.21094856235E+04  0.46999998093E+01 0. -1.
</event>
<event>
 5   0  0.2529875E-07  0.3815593E+04  0.7818609E-02  0.8042817E-01
        1   -1    0    0  501    0  0.00000000000E+00  0.00000000000E+00  0.19415123231E+04  0.19415123231E+04  0.50400001928E-02 0. -1.
       -1   -1    0    0    0  501  0.00000000000E+00  0.00000000000E+00 -0.18746664163E+04  0.18746664163E+04  0.50400001928E-02 0.  1.
    10030    2    1    2    0    0  0.00000000000E+00  0.00000000000E+00  0.66845906835E+02  0.38161787394E+04  0.38155932429E+04 0.  0.
        3    1    3    3  502    0  0.90593562648E+03 -0.15552295025E+04  0.66615718879E+03  0.19191726277E+04  0.10100000352E+00 0.  1.
       -3    1    3    3    0  502 -0.90593562648E+03  0.15552295025E+04 -0.59931128196E+03  0.18970061116E+04  0.10100000352E+00 0. -1.
</event>
<event>
 5   0  0.7649458E-07  0.3786556E+04  0.7818609E-02  0.8049046E-01
       -2   -1    0    0    0  501  0.00000000000E+00  0.00000000000E+00  0.19832827932E+04  0.19832827932E+04  0.25500000920E-02 0. -1.
        2   -1    0    0  501    0  0.00000000000E+00  0.00000000000E+00 -0.18073578106E+04  0.18073578106E+04  0.25500000920E-02 0.  1.
    10030    2    1    2    0    0  0.00000000000E+00  0.00000000000E+00  0.17592498262E+03  0.37906406037E+04  0.37865560325E+04 0.  0.
        4    1    3    3  502    0 -0.20971966406E+03  0.76985471847E+03 -0.16308174634E+04  0.18155511110E+04  0.12699999809E+01 0.  1.
       -4    1    3    3    0  502  0.20971966406E+03 -0.76985471847E+03  0.18067424460E+04  0.19750894927E+04  0.12699999809E+01 0. -1.
</event>
<event>
 5   0  0.2529875E-07  0.3891553E+04  0.7818609E-02  0.8026788E-01
        1   -1    0    0  501    0  0.00000000000E+00  0.00000000000E+00  0.21455052294E+04  0.21455052294E+04  0.50400001928E-02 0. -1.
       -1   -1    0    0    0  501  0.00000000000E+00  0.00000000000E+00 -0.17646412406E+04  0.17646412406E+04  0.50400001928E-02 0.  1.
    10030    2    1    2    0    0  0.00000000000E+00  0.00000000000E+00  0.38086398882E+03  0.39101464700E+04  0.38915534223E+04 0.  0.
        4    1    3    3  502    0  0.67049514541E+03 -0.25416576638E+03 -0.16270445174E+04  0.17780437147E+04  0.12699999809E+01 0.  1.
       -4    1    3    3    0  502 -0.67049514541E+03  0.25416576638E+03  0.20079085062E+04  0.21321027553E+04  0.12699999809E+01 0. -1.
</event>
<event>
 5   0  0.2529875E-07  0.3605553E+04  0.7818609E-02  0.8089221E-01
        1   -1    0    0  501    0  0.00000000000E+00  0.00000000000E+00  0.11147598280E+04  0.11147598280E+04  0.50400001928E-02 0.  1.
       -1   -1    0    0    0  501  0.00000000000E+00  0.00000000000E+00 -0.29154287381E+04  0.29154287381E+04  0.50400001928E-02 0. -1.
    10030    2    1    2    0    0  0.00000000000E+00  0.00000000000E+00 -0.18006689101E+04  0.40301885660E+04  0.36055528500E+04 0.  0.
        3    1    3    3  502    0 -0.69674437413E+03  0.13907874396E+04 -0.19188335884E+04  0.24701548079E+04  0.10100000352E+00 0. -1.
       -3    1    3    3    0  502  0.69674437413E+03 -0.13907874396E+04  0.11816467832E+03  0.15600337581E+04  0.10100000352E+00 0.  1.
</event>
<event>
 5   0  0.8038352E-07  0.3749684E+04  0.7818609E-02  0.8057040E-01
        2   -1    0    0  501    0  0.00000000000E+00  0.00000000000E+00  0.17669602416E+04  0.17669602416E+04  0.25500000920E-02 0. -1.
       -2   -1    0    0    0  501  0.00000000000E+00  0.00000000000E+00 -0.19893107975E+04  0.19893107975E+04  0.25500000920E-02 0.  1.
    10030    2    1    2    0    0  0.00000000000E+00  0.00000000000E+00 -0.22235055587E+03  0.37562710391E+04  0.37496842999E+04 0.  0.
        2    1    3    3  502    0 -0.94718130421E+03  0.10734612231E+04 -0.13239056826E+04  0.19499224797E+04  0.25500000920E-02 0.  1.
       -2    1    3    3    0  502  0.94718130421E+03 -0.10734612231E+04  0.11015551267E+04  0.18063485593E+04  0.25500000920E-02 0. -1.
</event>
<event>
 5   0  0.2529875E-07  0.3526210E+04  0.7818609E-02  0.8107606E-01
        1   -1    0    0  501    0  0.00000000000E+00  0.00000000000E+00  0.12290603491E+04  0.12290603491E+04  0.50400001928E-02 0.  1.
       -1   -1    0    0    0  501  0.00000000000E+00  0.00000000000E+00 -0.25292003821E+04  0.25292003821E+04  0.50400001928E-02 0. -1.
    10030    2    1    2    0    0  0.00000000000E+00  0.00000000000E+00 -0.13001400331E+04  0.37582607312E+04  0.35262103763E+04 0.  0.
        3    1    3    3  502    0 -0.27790150942E+03 -0.10736091700E+04 -0.21109158933E+04  0.23844982318E+04  0.10100000352E+00 0. -1.
       -3    1    3    3    0  502  0.27790150942E+03  0.10736091700E+04  0.81077586025E+03  0.13737624993E+04  0.10100000352E+00 0.  1.
</event>
<event>
 5   0  0.7649458E-07  0.3743228E+04  0.7818609E-02  0.8058449E-01
        2   -1    0    0  501    0  0.00000000000E+00  0.00000000000E+00  0.19835785645E+04  0.19835785645E+04  0.25500000920E-02 0.  1.
       -2   -1    0    0    0  501  0.00000000000E+00  0.00000000000E+00 -0.17659690026E+04  0.17659690026E+04  0.25500000920E-02 0. -1.
    10030    2    1    2    0    0  0.00000000000E+00  0.00000000000E+00  0.21760956189E+03  0.37495475671E+04  0.37432276229E+04 0.  0.
        4    1    3    3  502    0  0.61844740896E+03  0.17081003621E+03 -0.16523683047E+04  0.17725619575E+04  0.12699999809E+01 0. -1.
       -4    1    3    3    0  502 -0.61844740896E+03 -0.17081003621E+03  0.18699778666E+04  0.19769856096E+04  0.12699999809E+01 0.  1.
</event>
<event>
 5   0  0.7551495E-07  0.3314832E+04  0.7818609E-02  0.8159132E-01
        2   -1    0    0  501    0  0.00000000000E+00  0.00000000000E+00  0.14809119825E+04  0.14809119825E+04  0.25500000920E-02 0.  1.
       -2   -1    0    0    0  501  0.00000000000E+00  0.00000000000E+00 -0.18549572336E+04  0.18549572336E+04  0.25500000920E-02 0. -1.
    10030    2    1    2    0    0  0.00000000000E+00  0.00000000000E+00 -0.37404525107E+03  0.33358692161E+04  0.33148323604E+04 0.  0.
        1    1    3    3  502    0 -0.92447908336E+03  0.13522243018E+04  0.67279021577E+02  0.16394202038E+04  0.50400001928E-02 0.  1.
       -1    1    3    3    0  502  0.92447908336E+03 -0.13522243018E+04 -0.44132427265E+03  0.16964490123E+04  0.50400001928E-02 0. -1.
</event>
<event>
 5   0  0.7551495E-07  0.3770614E+04  0.7818609E-02  0.8052491E-01
       -2   -1    0    0    0  501  0.00000000000E+00  0.00000000000E+00  0.14394984596E+04  0.14394984596E+04  0.25500000920E-02 0.  1.
        2   -1    0    0  501    0  0.00000000000E+00  0.00000000000E+00 -0.24691805333E+04  0.24691805333E+04  0.25500000920E-02 0. -1.
    10030    2    1    2    0    0  0.00000000000E+00  0.00000000000E+00 -0.10296820737E+04  0.39086789929E+04  0.37706135173E+04 0.  0.
        1    1    3    3  502    0  0.18422162587E+04  0.12871316960E+03 -0.12139944432E+03  0.18506932887E+04  0.50400001928E-02 0.  1.
       -1    1    3    3    0  502 -0.18422162587E+04 -0.12871316960E+03 -0.90828262935E+03  0.20579857042E+04  0.50400001928E-02 0. -1.
</event>
<event>
 5   0  0.8421677E-07  0.3876310E+04  0.7818609E-02  0.8029974E-01
        2   -1    0    0  501    0  0.00000000000E+00  0.00000000000E+00  0.19460544367E+04  0.19460544367E+04  0.25500000920E-02 0.  1.
       -2   -1    0    0    0  501  0.00000000000E+00  0.00000000000E+00 -0.19302877093E+04  0.19302877093E+04  0.25500000920E-02 0. -1.
    10030    2    1    2    0    0  0.00000000000E+00  0.00000000000E+00  0.15766727425E+02  0.38763421460E+04  0.38763100809E+04 0.  0.
        3    1    3    3  502    0  0.98679523187E+03  0.14149250292E+04  0.89144445288E+03  0.19417648907E+04  0.10100000352E+00 0.  1.
       -3    1    3    3    0  502 -0.98679523187E+03 -0.14149250292E+04 -0.87567772545E+03  0.19345772554E+04  0.10100000352E+00 0. -1.
</event>
<event>
 5   0  0.7638805E-07  0.3417526E+04  0.7818609E-02  0.8133618E-01
       -2   -1    0    0    0  501  0.00000000000E+00  0.00000000000E+00  0.13422850614E+04  0.13422850614E+04  0.25500000920E-02 0.  1.
        2   -1    0    0  501    0  0.00000000000E+00  0.00000000000E+00 -0.21752982266E+04  0.21752982266E+04  0.25500000920E-02 0. -1.
    10030    2    1    2    0    0  0.00000000000E+00  0.00000000000E+00 -0.83301316518E+03  0.35175832881E+04  0.34175256042E+04 0.  0.
        5    1    3    3  502    0 -0.10090091552E+04 -0.72404236915E+02  0.10009500021E+04  0.14231180013E+04  0.46999998093E+01 0.  1.
       -5    1    3    3    0  502  0.10090091552E+04  0.72404236915E+02 -0.18339631672E+04  0.20944652868E+04  0.46999998093E+01 0. -1.
</event>
<event>
 5   0  0.2529875E-07  0.3806894E+04  0.7818609E-02  0.8044677E-01
       -1   -1    0    0    0  501  0.00000000000E+00  0.00000000000E+00  0.11451002045E+04  0.11451002045E+04  0.50400001928E-02 0.  1.
        1   -1    0    0  501    0  0.00000000000E+00  0.00000000000E+00 -0.31640113620E+04  0.31640113620E+04  0.50400001928E-02 0. -1.
    10030    2    1    2    0    0  0.00000000000E+00  0.00000000000E+00 -0.20189111575E+04  0.43091115665E+04  0.38068937771E+04 0.  0.
        3    1    3    3  502    0  0.80469198516E+03 -0.17127375842E+04 -0.77717449182E+03  0.20457271138E+04  0.10100000352E+00 0.  1.
       -3    1    3    3    0  502 -0.80469198516E+03  0.17127375842E+04 -0.12417366657E+04  0.22633844526E+04  0.10100000352E+00 0. -1.
</event>
<event>
 5   0  0.2529875E-07  0.3866445E+04  0.7818609E-02  0.8032044E-01
        1   -1    0    0  501    0  0.00000000000E+00  0.00000000000E+00  0.13217990014E+04  0.13217990015E+04  0.50400001928E-02 0. -1.
       -1   -1    0    0    0  501  0.00000000000E+00  0.00000000000E+00 -0.28274718885E+04  0.28274718885E+04  0.50400001928E-02 0.  1.
    10030    2    1    2    0    0  0.00000000000E+00  0.00000000000E+00 -0.15056728871E+04  0.41492708900E+04  0.38664451471E+04 0.  0.
        4    1    3    3  502    0 -0.54748253031E+03 -0.17679913839E+04 -0.15358373537E+03  0.18571807212E+04  0.12699999809E+01 0. -1.
       -4    1    3    3    0  502  0.54748253031E+03  0.17679913839E+04 -0.13520891517E+04  0.22920901687E+04  0.12699999809E+01 0.  1.
</event>
<event>
 5   0  0.7649458E-07  0.3814621E+04  0.7818609E-02  0.8043025E-01
       -2   -1    0    0    0  501  0.00000000000E+00  0.00000000000E+00  0.18103792081E+04  0.18103792081E+04  0.25500000920E-02 0.  1.
        2   -1    0    0  501    0  0.00000000000E+00  0.00000000000E+00 -0.20094313449E+04  0.20094313449E+04  0.25500000920E-02 0. -1.
    10030    2    1    2    0    0  0.00000000000E+00  0.00000000000E+00 -0.19905213684E+03  0.38198105530E+04  0.38146206767E+04 0.  0.
        4    1    3    3  502    0 -0.26975065456E+03  0.84097435205E+03 -0.17923371636E+04  0.19981184643E+04  0.12699999809E+01 0. -1.
       -4    1    3    3    0  502  0.26975065456E+03 -0.84097435205E+03  0.15932850268E+04  0.18216920887E+04  0.12699999809E+01 0.  1.
</event>
<event>
 5   0  0.2529875E-07  0.3536610E+04  0.7818609E-02  0.8105168E-01
       -1   -1    0    0    0  501  0.00000000000E+00  0.00000000000E+00  0.87469902630E+03  0.87469902631E+03  0.50400001928E-02 0.  1.
        1   -1    0    0  501    0  0.00000000000E+00  0.00000000000E+00 -0.35748321709E+04  0.35748321709E+04  0.50400001928E-02 0. -1.
    10030    2    1    2    0    0  0.00000000000E+00  0.00000000000E+00 -0.27001331446E+04  0.44495311972E+04  0.35366097999E+04 0.  0.
        3    1    3    3  502    0  0.11982852046E+04 -0.67601122879E+03  0.47552575855E+02  0.13766407921E+04  0.10100000352E+00 0.  1.
       -3    1    3    3    0  502 -0.11982852046E+04  0.67601122879E+03 -0.27476857205E+04  0.30728904051E+04  0.10100000352E+00 0. -1.
</event>
<event>
 5   0  0.2529875E-07  0.2615211E+04  0.7818609E-02  0.8363053E-01
        1   -1    0    0  501    0  0.00000000000E+00  0.00000000000E+00  0.12162261226E+04  0.12162261226E+04  0.50400001928E-02 0.  1.
       -1   -1    0    0    0  501  0.00000000000E+00  0.00000000000E+00 -0.14058501018E+04  0.14058501019E+04  0.50400001928E-02 0. -1.
    10030    2    1    2    0    0  0.00000000000E+00  0.00000000000E+00 -0.18962397928E+03  0.26220762244E+04  0.26152105982E+04 0.  0.
        4    1    3    3  502    0 -0.90074043946E+03  0.52374750997E+02  0.85411525186E+03  0.12424133492E+04  0.12699999809E+01 0.  1.
       -4    1    3    3    0  502  0.90074043946E+03 -0.52374750997E+02 -0.10437392311E+04  0.13796628753E+04  0.12699999809E+01 0. -1.
</event>
<event>
 5   0  0.2529875E-07  0.3834998E+04  0.7818609E-02  0.8038686E-01
        1   -1    0    0  501    0  0.00000000000E+00  0.00000000000E+00  0.13953260052E+04  0.13953260052E+04  0.50400001928E-02 0.  1.
       -1   -1    0    0    0  501  0.00000000000E+00  0.00000000000E+00 -0.26350852570E+04  0.26350852570E+04  0.50400001928E-02 0. -1.
    10030    2    1    2    0    0  0.00000000000E+00  0.00000000000E+00 -0.12397592518E+04  0.40304112621E+04  0.38349982972E+04 0.  0.
        5    1    3    3  502    0  0.46000471705E+03  0.10746706677E+04  0.97752365350E+03  0.15238425007E+04  0.46999998093E+01 0.  1.
       -5    1    3    3    0  502 -0.46000471705E+03 -0.10746706677E+04 -0.22172829053E+04  0.25065687614E+04  0.46999998093E+01 0. -1.
</event>
<event>
 5   0  0.2529875E-07  0.3876495E+04  0.7818609E-02  0.8029936E-01
        1   -1    0    0  501    0  0.00000000000E+00  0.00000000000E+00  0.18210057444E+04  0.18210057444E+04  0.50400001928E-02 0. -1.
       -1   -1    0    0    0  501  0.00000000000E+00  0.00000000000E+00 -0.20630380243E+04  0.20630380243E+04  0.50400001928E-02 0.  1.
    10030    2    1    2    0    0  0.00000000000E+00  0.00000000000E+00 -0.24203227989E+03  0.38840437687E+04  0.38764953724E+04 0.  0.
        3    1    3    3  502    0  0.56296645469E+03  0.17880579762E+04  0.37261095923E+03  0.19112617541E+04  0.10100000352E+00 0. -1.
       -3    1    3    3    0  502 -0.56296645469E+03 -0.17880579762E+04 -0.61464323912E+03  0.19727820146E+04  0.10100000352E+00 0.  1.
</event>
<event>
 5   0  0.2529875E-07  0.3831472E+04  0.7818609E-02  0.8039435E-01
        1   -1    0    0  501    0  0.00000000000E+00  0.00000000000E+00  0.28941993896E+04  0.28941993896E+04  0.50400001928E-02 0. -1.
       -1   -1    0    0    0  501  0.00000000000E+00  0.00000000000E+00 -0.12680690223E+04  0.12680690223E+04  0.50400001928E-02 0.  1.
    10030    2    1    2    0    0  0.00000000000E+00  0.00000000000E+00  0.16261303673E+04  0.41622684120E+04  0.38314720881E+04 0.  0.
        5    1    3    3  502    0 -0.71465726636E+02  0.10098875934E+03 -0.12637184818E+04  0.12697687076E+04  0.46999998093E+01 0.  1.
       -5    1    3    3    0  502  0.71465726636E+02 -0.10098875934E+03  0.28898488491E+04  0.28924997044E+04  0.46999998093E+01 0. -1.
</event>
<event>
 5   0  0.2907071E-07  0.2971523E+04  0.7818609E-02  0.8251910E-01
        1   -1    0    0  501    0  0.00000000000E+00  0.00000000000E+00  0.25175214165E+04  0.25175214165E+04  0.50400001928E-02 0.  1.
       -1   -1    0    0    0  501  0.00000000000E+00  0.00000000000E+00 -0.87684946578E+03  0.87684946580E+03  0.50400001928E-02 0. -1.
    10030    2    1    2    0    0  0.00000000000E+00  0.00000000000E+00  0.16406719507E+04  0.33943708823E+04  0.29715230500E+04 0.  0.
        2    1    3    3  502    0 -0.79270299815E+03 -0.12556015670E+04  0.87828978643E+03  0.17251974633E+04  0.25500000920E-02 0. -1.
       -2    1    3    3    0  502  0.79270299815E+03  0.12556015670E+04  0.76238216432E+03  0.16691734190E+04  0.25500000920E-02 0.  1.
</event>
<event>
 5   0  0.2907071E-07  0.3906864E+04  0.7818609E-02  0.8023603E-01
       -1   -1    0    0    0  501  0.00000000000E+00  0.00000000000E+00  0.17672767277E+04  0.17672767277E+04  0.50400001928E-02 0.  1.
        1   -1    0    0  501    0  0.00000000000E+00  0.00000000000E+00 -0.21591954278E+04  0.21591954278E+04  0.50400001928E-02 0. -1.
    10030    2    1    2    0    0  0.00000000000E+00  0.00000000000E+00 -0.39191870007E+03  0.39264721555E+04  0.39068636168E+04 0.  0.
        2    1    3    3  502    0 -0.35275355844E+03  0.16809054878E+04 -0.11312306438E+04  0.20565896774E+04  0.25500000920E-02 0. -1.
       -2    1    3    3    0  502  0.35275355844E+03 -0.16809054878E+04  0.73931194371E+03  0.18698824781E+04  0.25500000920E-02 0.  1.
</event>
<event>
 5   0  0.7638805E-07  0.3786162E+04  0.7818609E-02  0.8049131E-01
        2   -1    0    0  501    0  0.00000000000E+00  0.00000000000E+00  0.27878806266E+04  0.27878806266E+04  0.25500000920E-02 0. -1.
       -2   -1    0    0    0  501  0.00000000000E+00  0.00000000000E+00 -0.12854767842E+04  0.12854767842E+04  0.25500000920E-02 0.  1.
    10030    2    1    2    0    0  0.00000000000E+00  0.00000000000E+00  0.15024038425E+04  0.40733574108E+04  0.37861620792E+04 0.  0.
        5    1    3    3  502    0 -0.18614543105E+04  0.31652291923E+03  0.89767153951E+03  0.20907020810E+04  0.46999998093E+01 0.  1.
       -5    1    3    3    0  502  0.18614543105E+04 -0.31652291923E+03  0.60473230298E+03  0.19826553298E+04  0.46999998093E+01 0. -1.
</event>
<event>
 5   0  0.2529875E-07  0.3774467E+04  0.7818609E-02  0.8051656E-01
       -1   -1    0    0    0  501  0.00000000000E+00  0.00000000000E+00  0.15947195313E+04  0.15947195313E+04  0.50400001928E-02 0.  1.
        1   -1    0    0  501    0  0.00000000000E+00  0.00000000000E+00 -0.22334023127E+04  0.22334023127E+04  0.50400001928E-02 0. -1.
    10030    2    1    2    0    0  0.00000000000E+00  0.00000000000E+00 -0.63868278146E+03  0.38281218440E+04  0.37744670030E+04 0.  0.
        3    1    3    3  502    0  0.72579145816E+03 -0.80324833093E+03 -0.18871715284E+04  0.21756372652E+04  0.10100000352E+00 0. -1.
       -3    1    3    3    0  502 -0.72579145816E+03  0.80324833093E+03  0.12484887469E+04  0.16524845788E+04  0.10100000352E+00 0.  1.
</event>
<event>
 5   0  0.7638805E-07  0.3733345E+04  0.7818609E-02  0.8060612E-01
        2   -1    0    0  501    0  0.00000000000E+00  0.00000000000E+00  0.20630980885E+04  0.20630980885E+04  0.25500000920E-02 0. -1.
       -2   -1    0    0    0  501  0.00000000000E+00  0.00000000000E+00 -0.16889482144E+04  0.16889482144E+04  0.25500000920E-02 0.  1.
    10030    2    1    2    0    0  0.00000000000E+00  0.00000000000E+00  0.37414987410E+03  0.37520463030E+04  0.37333447914E+04 0.  0.
        5    1    3    3  502    0  0.50291379441E+02 -0.39684076990E+03  0.20195109163E+04  0.20587516243E+04  0.46999998093E+01 0. -1.
       -5    1    3    3    0  502 -0.50291379441E+02  0.39684076990E+03 -0.16453610422E+04  0.16932946787E+04  0.46999998093E+01 0.  1.
</event>
<event>
 5   0  0.2529875E-07  0.3862387E+04  0.7818609E-02  0.8032898E-01
        1   -1    0    0  501    0  0.00000000000E+00  0.00000000000E+00  0.22013433520E+04  0.22013433520E+04  0.50400001928E-02 0. -1.
       -1   -1    0    0    0  501  0.00000000000E+00  0.00000000000E+00 -0.16941967015E+04  0.16941967015E+04  0.50400001928E-02 0.  1.
    10030    2    1    2    0    0  0.00000000000E+00  0.00000000000E+00  0.50714665055E+03  0.38955400535E+04  0.38623871612E+04 0.  0.
        3    1    3    3  502    0  0.50120386111E+03 -0.56733390300E+02  0.21337322613E+04  0.21925413021E+04  0.10100000352E+00 0. -1.
       -3    1    3    3    0  502 -0.50120386111E+03  0.56733390300E+02 -0.16265856108E+04  0.17029987514E+04  0.10100000352E+00 0.  1.
</event>
<event>
 5   0  0.7649458E-07  0.3623576E+04  0.7818609E-02  0.8085112E-01
        2   -1    0    0  501    0  0.00000000000E+00  0.00000000000E+00  0.21764607365E+04  0.21764607366E+04  0.25500000920E-02 0.  1.
       -2   -1    0    0    0  501  0.00000000000E+00  0.00000000000E+00 -0.15082176552E+04  0.15082176552E+04  0.25500000920E-02 0. -1.
    10030    2    1    2    0    0  0.00000000000E+00  0.00000000000E+00  0.66824308139E+03  0.36846783917E+04  0.36235764149E+04 0.  0.
        4    1    3    3  502    0  0.10340410099E+03  0.18085630959E+04  0.36598708689E+03  0.18481182432E+04  0.12699999809E+01 0. -1.
       -4    1    3    3    0  502 -0.10340410099E+03 -0.18085630959E+04  0.30225599450E+03  0.18365601485E+04  0.12699999809E+01 0.  1.
</event>
<event>
 5   0  0.2529875E-07  0.3793226E+04  0.7818609E-02  0.8047610E-01
        1   -1    0    0  501    0  0.00000000000E+00  0.00000000000E+00  0.17271867792E+04  0.17271867792E+04  0.50400001928E-02 0. -1.
       -1   -1    0    0    0  501  0.00000000000E+00  0.00000000000E+00 -0.20826592156E+04  0.20826592156E+04  0.50400001928E-02 0.  1.
    10030    2    1    2    0    0  0.00000000000E+00  0.00000000000E+00 -0.35547243641E+03  0.38098459948E+04  0.37932263116E+04 0.  0.
        4    1    3    3  502    0 -0.15365212739E+04  0.49653766901E+03 -0.11769279248E+04  0.19981512042E+04  0.12699999809E+01 0.  1.
       -4    1    3    3    0  502  0.15365212739E+04 -0.49653766901E+03  0.82145548839E+03  0.18116947906E+04  0.12699999809E+01 0. -1.
</event>
<event>
 5   0  0.7649458E-07  0.3789635E+04  0.7818609E-02  0.8048383E-01
        2   -1    0    0  501    0  0.00000000000E+00  0.00000000000E+00  0.16923521105E+04  0.16923521105E+04  0.25500000920E-02 0. -1.
       -2   -1    0    0    0  501  0.00000000000E+00  0.00000000000E+00 -0.21215053022E+04  0.21215053023E+04  0.25500000920E-02 0.  1.
    10030    2    1    2    0    0  0.00000000000E+00  0.00000000000E+00 -0.42915319179E+03  0.38138574127E+04  0.37896353258E+04 0.  0.
        4    1    3    3  502    0 -0.16836376904E+04  0.51950025399E+03 -0.91603662438E+03  0.19858602912E+04  0.12699999809E+01 0.  1.
       -4    1    3    3    0  502  0.16836376904E+04 -0.51950025399E+03  0.48688343259E+03  0.18279971215E+04  0.12699999809E+01 0. -1.
</event>
<event>
 5   0  0.8038352E-07  0.3507726E+04  0.7818609E-02  0.8111961E-01
        2   -1    0    0  501    0  0.00000000000E+00  0.00000000000E+00  0.10196288844E+04  0.10196288844E+04  0.25500000920E-02 0. -1.
       -2   -1    0    0    0  501  0.00000000000E+00  0.00000000000E+00 -0.30168183503E+04  0.30168183503E+04  0.25500000920E-02 0.  1.
    10030    2    1    2    0    0  0.00000000000E+00  0.00000000000E+00 -0.19971894659E+04  0.40364472347E+04  0.35077258324E+04 0.  0.
        2    1    3    3  502    0  0.93521269907E+03  0.14827933841E+04 -0.93840243510E+03  0.19884411338E+04  0.25500000920E-02 0.  1.
       -2    1    3    3    0  502 -0.93521269907E+03 -0.14827933841E+04 -0.10587870308E+04  0.20480061008E+04  0.25500000920E-02 0. -1.
</event>
<event>
 5   0  0.2529875E-07  0.2579928E+04  0.7818609E-02  0.8375051E-01
       -1   -1    0    0    0  501  0.00000000000E+00  0.00000000000E+00  0.11603450763E+04  0.11603450763E+04  0.50400001928E-02 0.  1.
        1   -1    0    0  501    0  0.00000000000E+00  0.00000000000E+00 -0.14340627492E+04  0.14340627492E+04  0.50400001928E-02 0. -1.
    10030    2    1    2    0    0  0.00000000000E+00  0.00000000000E+00 -0.27371767293E+03  0.25944078255E+04  0.25799284100E+04 0.  0.
        1    1    3    3  502    0  0.83538851041E+03 -0.18649784779E+03  0.83362335917E+03  0.11948151805E+04  0.50400001928E-02 0.  1.
       -1    1    3    3    0  502 -0.83538851041E+03  0.18649784779E+03 -0.11073410321E+04  0.13995926450E+04  0.50400001928E-02 0. -1.
</event>
<event>
 5   0  0.2529875E-07  0.3889830E+04  0.7818609E-02  0.8027148E-01
        1   -1    0    0  501    0  0.00000000000E+00  0.00000000000E+00  0.12971609508E+04  0.12971609508E+04  0.50400001928E-02 0. -1.
       -1   -1    0    0    0  501  0.00000000000E+00  0.00000000000E+00 -0.29161332647E+04  0.29161332647E+04  0.50400001928E-02 0.  1.
    10030    2    1    2    0    0  0.00000000000E+00  0.00000000000E+00 -0.16189723138E+04  0.42132942155E+04  0.38898299183E+04 0.  0.
        1    1    3    3  502    0  0.18094262055E+04 -0.22884754282E+03 -0.15411579580E+04  0.23877944305E+04  0.50400001928E-02 0.  1.
       -1    1    3    3    0  502 -0.18094262055E+04  0.22884754282E+03 -0.77814355836E+02  0.18254997850E+04  0.50400001928E-02 0. -1.
</event>
<event>
 5   0  0.7638805E-07  0.3915097E+04  0.7818609E-02  0.8021897E-01
       -2   -1    0    0    0  501  0.00000000000E+00  0.00000000000E+00  0.24646645646E+04  0.24646645646E+04  0.25500000920E-02 0. -1.
        2   -1    0    0  501    0  0.00000000000E+00  0.00000000000E+00 -0.15547738190E+04  0.15547738190E+04  0.25500000920E-02 0.  1.
    10030    2    1    2    0    0  0.00000000000E+00  0.00000000000E+00  0.90989074569E+03  0.40194383836E+04  0.39150969018E+04 0.  0.
        5    1    3    3  502    0 -0.15739420497E+04 -0.11634405011E+04  0.48878551333E+03  0.20173796726E+04  0.46999998093E+01 0. -1.
       -5    1    3    3    0  502  0.15739420497E+04  0.11634405011E+04  0.42110523236E+03  0.20020587110E+04  0.46999998093E+01 0.  1.
</event>
<event>
 5   0  0.8421677E-07  0.3794768E+04  0.7818609E-02  0.8047279E-01
        2   -1    0    0  501    0  0.00000000000E+00  0.00000000000E+00  0.24431868548E+04  0.24431868548E+04  0.25500000920E-02 0.  1.
       -2   -1    0    0    0  501  0.00000000000E+00  0.00000000000E+00 -0.14735120526E+04  0.14735120527E+04  0.25500000920E-02 0. -1.
    10030    2    1    2    0    0  0.00000000000E+00  0.00000000000E+00  0.96967480212E+03  0.39166989074E+04  0.37947675962E+04 0.  0.
        3    1    3    3  502    0 -0.40358938320E+03  0.73127540569E+03  0.22432262452E+04  0.23936817054E+04  0.10100000352E+00 0.  1.
       -3    1    3    3    0  502  0.40358938320E+03 -0.73127540569E+03 -0.12735514431E+04  0.15230172020E+04  0.10100000352E+00 0. -1.
</event>
<event>
 5   0  0.8421677E-07  0.3184010E+04  0.7818609E-02  0.8193053E-01
       -2   -1    0    0    0  501  0.00000000000E+00  0.00000000000E+00  0.12201990473E+04  0.12201990473E+04  0.25500000920E-02 0. -1.
        2   -1    0    0  501    0  0.00000000000E+00  0.00000000000E+00 -0.20771032845E+04  0.20771032845E+04  0.25500000920E-02 0.  1.
    10030    2    1    2    0    0  0.00000000000E+00  0.00000000000E+00 -0.85690423717E+03  0.32973023318E+04  0.31840097041E+04 0.  0.
        3    1    3    3  502    0 -0.12226497217E+04 -0.11265222937E+03 -0.14778784771E+04  0.19213765040E+04  0.10100000352E+00 0.  1.
       -3    1    3    3    0  502  0.12226497217E+04  0.11265222937E+03  0.62097423990E+03  0.13759258278E+04  0.10100000352E+00 0. -1.
</event>
<event>
 5   0  0.2907071E-07  0.3329911E+04  0.7818609E-02  0.8155326E-01
        1   -1    0    0  501    0  0.00000000000E+00  0.00000000000E+00  0.25269603048E+04  0.25269603048E+04  0.50400001928E-02 0. -1.
       -1   -1    0    0    0  501  0.00000000000E+00  0.00000000000E+00 -0.10970005004E+04  0.10970005004E+04  0.50400001928E-02 0.  1.
    10030    2    1    2    0    0  0.00000000000E+00  0.00000000000E+00  0.14299598045E+04  0.36239608052E+04  0.33299109410E+04 0.  0.
        2    1    3    3  502    0  0.61640514823E+02  0.12478120483E+04  0.19127304568E+04  0.22845945507E+04  0.25500000920E-02 0. -1.
       -2    1    3    3    0  502 -0.61640514823E+02 -0.12478120483E+04 -0.48277065228E+03  0.13393662545E+04  0.25500000920E-02 0.  1.
</event>
<event>
 5   0  0.7649458E-07  0.3769399E+04  0.7818609E-02  0.8052754E-01
        2   -1    0    0  501    0  0.00000000000E+00  0.00000000000E+00  0.23036701027E+04  0.23036701027E+04  0.25500000920E-02 0.  1.
       -2   -1    0    0    0  501  0.00000000000E+00  0.00000000000E+00 -0.15419278628E+04  0.15419278628E+04  0.25500000920E-02 0. -1.
    10030    2    1    2    0    0  0.00000000000E+00  0.00000000000E+00  0.76174223991E+03  0.38455979655E+04  0.37693994843E+04 0.  0.
        4    1    3    3  502    0 -0.70444830893E+03  0.89000269896E+03  0.19158588773E+04  0.22268518305E+04  0.12699999809E+01 0.  1.
       -4    1    3    3    0  502  0.70444830893E+03 -0.89000269896E+03 -0.11541166374E+04  0.16187461351E+04  0.12699999809E+01 0. -1.
</event>
<event>
 5   0  0.2529875E-07  0.3801120E+04  0.7818609E-02  0.8045915E-01
        1   -1    0    0  501    0  0.00000000000E+00  0.00000000000E+00  0.22416157932E+04  0.22416157932E+04  0.50400001928E-02 0.  1.
       -1   -1    0    0    0  501  0.00000000000E+00  0.00000000000E+00 -0.16113949221E+04  0.16113949221E+04  0.50400001928E-02 0. -1.
    10030    2    1    2    0    0  0.00000000000E+00  0.00000000000E+00  0.63022087114E+03  0.38530107154E+04  0.38011199963E+04 0.  0.
        1    1    3    3  502    0 -0.14825139683E+04  0.78650382580E+03  0.12193036308E+04  0.20744004624E+04  0.50400001928E-02 0.  1.
       -1    1    3    3    0  502  0.14825139683E+04 -0.78650382580E+03 -0.58908275963E+03  0.17786102530E+04  0.50400001928E-02 0. -1.
</event>
<event>
 5   0  0.8421677E-07  0.3724472E+04  0.7818609E-02  0.8062560E-01
        2   -1    0    0  501    0  0.00000000000E+00  0.00000000000E+00  0.15973745733E+04  0.15973745733E+04  0.25500000920E-02 0.  1.
       -2   -1    0    0    0  501  0.00000000000E+00  0.00000000000E+00 -0.21710138954E+04  0.21710138955E+04  0.25500000920E-02 0. -1.
    10030    2    1    2    0    0  0.00000000000E+00  0.00000000000E+00 -0.57363932220E+03  0.37683884687E+04  0.37244717181E+04 0.  0.
        3    1    3    3  502    0  0.26436780200E+03 -0.67501197741E+03  0.14487464774E+04  0.16199993427E+04  0.10100000352E+00 0.  1.
       -3    1    3    3    0  502 -0.26436780200E+03  0.67501197741E+03 -0.20223857996E+04  0.21483891260E+04  0.10100000352E+00 0. -1.
</event>
<event>
 5   0  0.2529875E-07  0.3878046E+04  0.7818609E-02  0.8029611E-01
        1   -1    0    0  501    0  0.00000000000E+00  0.00000000000E+00  0.20265382776E+04  0.20265382776E+04  0.50400001928E-02 0. -1.
       -1   -1    0    0    0  501  0.00000000000E+00  0.00000000000E+00 -0.18552867312E+04  0.18552867312E+04  0.50400001928E-02 0.  1.
    10030    2    1    2    0    0  0.00000000000E+00  0.00000000000E+00  0.17125154635E+03  0.38818250088E+04  0.38780456814E+04 0.  0.
        1    1    3    3  502    0 -0.16688101108E+04 -0.78405796324E+03 -0.51507197040E+03  0.19144119751E+04  0.50400001928E-02 0.  1.
       -1    1    3    3    0  502  0.16688101108E+04  0.78405796324E+03  0.68632351675E+03  0.19674130337E+04  0.50400001928E-02 0. -1.
</event>
<event>
 5   0  0.7638805E-07  0.3832504E+04  0.7818609E-02  0.8039215E-01
       -2   -1    0    0    0  501  0.00000000000E+00  0.00000000000E+00  0.14028413326E+04  0.14028413326E+04  0.25500000920E-02 0.  1.
        2   -1    0    0  501    0  0.00000000000E+00  0.00000000000E+00 -0.26175606674E+04  0.26175606675E+04  0.25500000920E-02 0. -1.
    10030    2    1    2    0    0  0.00000000000E+00  0.00000000000E+00 -0.12147193349E+04  0.40204020000E+04  0.38325042961E+04 0.  0.
        5    1    3    3  502    0  0.13649450080E+04  0.86089951737E+03  0.47663509134E+03  0.16826841516E+04  0.46999998093E+01 0.  1.
       -5    1    3    3    0  502 -0.13649450080E+04 -0.86089951737E+03 -0.16913544262E+04  0.23377178484E+04  0.46999998093E+01 0. -1.
</event>
<event>
 5   0  0.2529875E-07  0.3690920E+04  0.7818609E-02  0.8069977E-01
        1   -1    0    0  501    0  0.00000000000E+00  0.00000000000E+00  0.29288732967E+04  0.29288732968E+04  0.50400001928E-02 0.  1.
       -1   -1    0    0    0  501  0.00000000000E+00  0.00000000000E+00 -0.11628096469E+04  0.11628096469E+04  0.50400001928E-02 0. -1.
    10030    2    1    2    0    0  0.00000000000E+00  0.00000000000E+00  0.17660636499E+04  0.40916829436E+04  0.36909197357E+04 0.  0.
        4    1    3    3  502    0  0.59981345925E+03  0.43505133466E+03  0.27567219334E+04  0.28545688432E+04  0.12699999809E+01 0.  1.
       -4    1    3    3    0  502 -0.59981345925E+03 -0.43505133466E+03 -0.99065828355E+03  0.12371141004E+04  0.12699999809E+01 0. -1.
</event>
<event>
 5   0  0.8038352E-07  0.3918745E+04  0.7818609E-02  0.8021142E-01
        2   -1    0    0  501    0  0.00000000000E+00  0.00000000000E+00  0.19220214083E+04  0.19220214083E+04  0.25500000920E-02 0. -1.
       -2   -1    0    0    0  501  0.00000000000E+00  0.00000000000E+00 -0.19974494111E+04  0.19974494111E+04  0.25500000920E-02 0.  1.
    10030    2    1    2    0    0  0.00000000000E+00  0.00000000000E+00 -0.75428002731E+02  0.39194708194E+04  0.39187449675E+04 0.  0.
        2    1    3    3  502    0 -0.39123646946E+03 -0.25660609301E+03  0.18653280660E+04  0.19231124397E+04  0.25500000920E-02 0. -1.
       -2    1    3    3    0  502  0.39123646946E+03  0.25660609301E+03 -0.19407560687E+04  0.19963583797E+04  0.25500000920E-02 0.  1.
</event>
<event>
 5   0  0.8421677E-07  0.3878133E+04  0.7818609E-02  0.8029593E-01
        2   -1    0    0  501    0  0.00000000000E+00  0.00000000000E+00  0.12648004574E+04  0.12648004574E+04  0.25500000920E-02 0. -1.
       -2   -1    0    0    0  501  0.00000000000E+00  0.00000000000E+00 -0.29727840522E+04  0.29727840522E+04  0.25500000920E-02 0.  1.
    10030    2    1    2    0    0  0.00000000000E+00  0.00000000000E+00 -0.17079835947E+04  0.42375845096E+04  0.38781328646E+04 0.  0.
        3    1    3    3  502    0 -0.18039227212E+04 -0.53132906805E+02 -0.79016974397E+02  0.18064340514E+04  0.10100000352E+00 0. -1.
       -3    1    3    3    0  502  0.18039227212E+04  0.53132906805E+02 -0.16289666203E+04  0.24311504581E+04  0.10100000352E+00 0.  1.
</event>
<event>
 5   0  0.2529875E-07  0.3456442E+04  0.7818609E-02  0.8124191E-01
        1   -1    0    0  501    0  0.00000000000E+00  0.00000000000E+00  0.19855290122E+04  0.19855290122E+04  0.50400001928E-02 0. -1.
       -1   -1    0    0    0  501  0.00000000000E+00  0.00000000000E+00 -0.15042581061E+04  0.15042581061E+04  0.50400001928E-02 0.  1.
    10030    2    1    2    0    0  0.00000000000E+00  0.00000000000E+00  0.48127090618E+03  0.34897871183E+04  0.34564421659E+04 0.  0.
        5    1    3    3  502    0 -0.16004058862E+04 -0.23124058734E+03  0.85640007198E+03  0.18298126634E+04  0.46999998093E+01 0. -1.
       -5    1    3    3    0  502  0.16004058862E+04  0.23124058734E+03 -0.37512916581E+03  0.16599744549E+04  0.46999998093E+01 0.  1.
</event>
<event>
 5   0  0.7638805E-07  0.3798843E+04  0.7818609E-02  0.8046403E-01
       -2   -1    0    0    0  501  0.00000000000E+00  0.00000000000E+00  0.13329056577E+04  0.13329056577E+04  0.25500000920E-02 0. -1.
        2   -1    0    0  501    0  0.00000000000E+00  0.00000000000E+00 -0.27067195738E+04  0.27067195738E+04  0.25500000920E-02 0.  1.
    10030    2    1    2    0    0  0.00000000000E+00  0.00000000000E+00 -0.13738139160E+04  0.40396252315E+04  0.37988428942E+04 0.  0.
        5    1    3    3  502    0  0.48397572580E+03  0.18365611378E+04 -0.66106811492E+03  0.20110252258E+04  0.46999998093E+01 0. -1.
       -5    1    3    3    0  502 -0.48397572580E+03 -0.18365611378E+04 -0.71274580112E+03  0.20286000057E+04  0.46999998093E+01 0.  1.
</event>
<event>
 5   0  0.7649458E-07  0.3800480E+04  0.7818609E-02  0.8046052E-01
       -2   -1    0    0    0  501  0.00000000000E+00  0.00000000000E+00  0.23805867346E+04  0.23805867346E+04  0.25500000920E-02 0. -1.
        2   -1    0    0  501    0  0.00000000000E+00  0.00000000000E+00 -0.15168158704E+04  0.15168158704E+04  0.25500000920E-02 0.  1.
    10030    2    1    2    0    0  0.00000000000E+00  0.00000000000E+00  0.86377086413E+03  0.38974026050E+04  0.38004798329E+04 0.  0.
        4    1    3    3  502    0 -0.15391477138E+04  0.18432133132E+03 -0.69521633726E+03  0.16989047667E+04  0.12699999809E+01 0.  1.
       -4    1    3    3    0  502  0.15391477138E+04 -0.18432133132E+03  0.15589872014E+04  0.21984978383E+04  0.12699999809E+01 0. -1.
</event>
<event>
 5   0  0.8038352E-07  0.2518219E+04  0.7818609E-02  0.8396524E-01
       -2   -1    0    0    0  501  0.00000000000E+00  0.00000000000E+00  0.15625832665E+04  0.15625832665E+04  0.25500000920E-02 0.  1.
        2   -1    0    0  501    0  0.00000000000E+00  0.00000000000E+00 -0.10145740170E+04  0.10145740170E+04  0.25500000920E-02 0. -1.
    10030    2    1    2    0    0  0.00000000000E+00  0.00000000000E+00  0.54800924945E+03  0.25771572835E+04  0.25182187209E+04 0.  0.
        2    1    3    3  502    0 -0.11595149671E+04 -0.43875505792E+03  0.49909652010E+03  0.13364424029E+04  0.25500000920E-02 0.  1.
       -2    1    3    3    0  502  0.11595149671E+04  0.43875505792E+03  0.48912729350E+02  0.12407148806E+04  0.25500000920E-02 0. -1.
</event>
<event>
 5   0  0.2907071E-07  0.3824574E+04  0.7818609E-02  0.8040902E-01
       -1   -1    0    0    0  501  0.00000000000E+00  0.00000000000E+00  0.15034221603E+04  0.15034221603E+04  0.50400001928E-02 0.  1.
        1   -1    0    0  501    0  0.00000000000E+00  0.00000000000E+00 -0.24323450819E+04  0.24323450820E+04  0.50400001928E-02 0. -1.
    10030    2    1    2    0    0  0.00000000000E+00  0.00000000000E+00 -0.92892292163E+03  0.39357672423E+04  0.38245739620E+04 0.  0.
        2    1    3    3  502    0  0.17626038900E+04 -0.59081701055E+03 -0.92583108760E+03  0.20767764482E+04  0.25500000920E-02 0. -1.
       -2    1    3    3    0  502 -0.17626038900E+04  0.59081701055E+03 -0.30918340320E+01  0.18589907941E+04  0.25500000920E-02 0.  1.
</event>
<event>
 5   0  0.8038352E-07  0.3752964E+04  0.7818609E-02  0.8056325E-01
        2   -1    0    0  501    0  0.00000000000E+00  0.00000000000E+00  0.19385781929E+04  0.19385781929E+04  0.25500000920E-02 0.  1.
       -2   -1    0    0    0  501  0.00000000000E+00  0.00000000000E+00 -0.18163750564E+04  0.18163750564E+04  0.25500000920E-02 0. -1.
    10030    2    1    2    0    0  0.00000000000E+00  0.00000000000E+00  0.12220313651E+03  0.37549532492E+04  0.37529642015E+04 0.  0.
        2    1    3    3  502    0  0.14114834165E+04 -0.10859127417E+04  0.65276357083E+03  0.18967319782E+04  0.25500000920E-02 0.  1.
       -2    1    3    3    0  502 -0.14114834165E+04  0.10859127417E+04 -0.53056043431E+03  0.18582212710E+04  0.25500000920E-02 0. -1.
</event>
<event>
 5   0  0.7638805E-07  0.3781243E+04  0.7818609E-02  0.8050192E-01
        2   -1    0    0  501    0  0.00000000000E+00  0.00000000000E+00  0.16729645780E+04  0.16729645780E+04  0.25500000920E-02 0.  1.
       -2   -1    0    0    0  501  0.00000000000E+00  0.00000000000E+00 -0.21365956537E+04  0.21365956537E+04  0.25500000920E-02 0. -1.
    10030    2    1    2    0    0  0.00000000000E+00  0.00000000000E+00 -0.46363107568E+03  0.38095602317E+04  0.37812425715E+04 0.  0.
        5    1    3    3  502    0  0.22026274191E+02 -0.15681838861E+04  0.83190433569E+03  0.17753232864E+04  0.46999998093E+01 0.  1.
       -5    1    3    3    0  502 -0.22026274191E+02  0.15681838861E+04 -0.12955354114E+04  0.20342369453E+04  0.46999998093E+01 0. -1.
</event>
<event>
 5   0  0.7649458E-07  0.3817848E+04  0.7818609E-02  0.8042336E-01
        2   -1    0    0  501    0  0.00000000000E+00  0.00000000000E+00  0.21357290720E+04  0.21357290720E+04  0.25500000920E-02 0. -1.
       -2   -1    0    0    0  501  0.00000000000E+00  0.00000000000E+00 -0.17062047425E+04  0.17062047425E+04  0.25500000920E-02 0.  1.
    10030    2    1    2    0    0  0.00000000000E+00  0.00000000000E+00  0.42952432949E+03  0.38419338145E+04  0.38178481223E+04 0.  0.
        4    1    3    3  502    0 -0.16174550233E+04 -0.42838574897E+03 -0.70990049075E+03  0.18175905540E+04  0.12699999809E+01 0.  1.
       -4    1    3    3    0  502  0.16174550233E+04  0.42838574897E+03  0.11394248202E+04  0.20243432605E+04  0.12699999809E+01 0. -1.
</event>
<event>
 5   0  0.8038352E-07  0.3289525E+04  0.7818609E-02  0.8165566E-01
        2   -1    0    0  501    0  0.00000000000E+00  0.00000000000E+00  0.11010062897E+04  0.11010062897E+04  0.25500000920E-02 0. -1.
       -2   -1    0    0    0  501  0.00000000000E+00  0.00000000000E+00 -0.24570646176E+04  0.24570646176E+04  0.25500000920E-02 0.  1.
    10030    2    1    2    0    0  0.00000000000E+00  0.00000000000E+00 -0.13560583280E+04  0.35580709073E+04  0.32895249494E+04 0.  0.
        2    1    3    3  502    0 -0.93605627339E+03 -0.20742986713E+03 -0.21235487397E+04  0.23299544516E+04  0.25500000920E-02 0.  1.
       -2    1    3    3    0  502  0.93605627339E+03  0.20742986713E+03  0.76749041173E+03  0.12281164557E+04  0.25500000920E-02 0. -1.
</event>
<event>
 5   0  0.7638805E-07  0.3782913E+04  0.7818609E-02  0.8049832E-01
       -2   -1    0    0    0  501  0.00000000000E+00  0.00000000000E+00  0.18741216842E+04  0.18741216842E+04  0.25500000920E-02 0.  1.
        2   -1    0    0  501    0  0.00000000000E+00  0.00000000000E+00 -0.19089515742E+04  0.19089515742E+04  0.25500000920E-02 0. -1.
    10030    2    1    2    0    0  0.00000000000E+00  0.00000000000E+00 -0.34829889979E+02  0.37830732583E+04  0.37829129195E+04 0.  0.
        5    1    3    3  502    0  0.31553816720E+03 -0.67963247714E+03 -0.17541868046E+04  0.19075266903E+04  0.46999998093E+01 0. -1.
       -5    1    3    3    0  502 -0.31553816720E+03  0.67963247714E+03  0.17193569146E+04  0.18755465680E+04  0.46999998093E+01 0.  1.
</event>
<event>
 5   0  0.2529875E-07  0.2977621E+04  0.7818609E-02  0.8250150E-01
       -1   -1    0    0    0  501  0.00000000000E+00  0.00000000000E+00  0.10562377443E+04  0.10562377443E+04  0.50400001928E-02 0. -1.
        1   -1    0    0  501    0  0.00000000000E+00  0.00000000000E+00 -0.20985400884E+04  0.20985400884E+04  0.50400001928E-02 0.  1.
    10030    2    1    2    0    0  0.00000000000E+00  0.00000000000E+00 -0.10423023441E+04  0.31547778327E+04  0.29776213656E+04 0.  0.
        1    1    3    3  502    0 -0.63503584165E+03 -0.12848040534E+04 -0.93968922979E+02  0.14362528100E+04  0.50400001928E-02 0. -1.
       -1    1    3    3    0  502  0.63503584165E+03  0.12848040534E+04 -0.94833342112E+03  0.17185250227E+04  0.50400001928E-02 0.  1.
</event>
<event>
 5   0  0.8421677E-07  0.3787175E+04  0.7818609E-02  0.8048913E-01
       -2   -1    0    0    0  501  0.00000000000E+00  0.00000000000E+00  0.22785563240E+04  0.22785563240E+04  0.25500000920E-02 0.  1.
        2   -1    0    0  501    0  0.00000000000E+00  0.00000000000E+00 -0.15736605707E+04  0.15736605707E+04  0.25500000920E-02 0. -1.
    10030    2    1    2    0    0  0.00000000000E+00  0.00000000000E+00  0.70489575331E+03  0.38522168948E+04  0.37871753302E+04 0.  0.
        3    1    3    3  502    0 -0.42409983288E+03  0.18214448084E+04  0.65445162491E+03  0.19813704343E+04  0.10100000352E+00 0.  1.
       -3    1    3    3    0  502  0.42409983288E+03 -0.18214448084E+04  0.50444128400E+02  0.18708464605E+04  0.10100000352E+00 0. -1.
</event>
<event>
 5   0  0.2529875E-07  0.2645176E+04  0.7818609E-02  0.8353016E-01
        1   -1    0    0  501    0  0.00000000000E+00  0.00000000000E+00  0.14625522278E+04  0.14625522278E+04  0.50400001928E-02 0. -1.
       -1   -1    0    0    0  501  0.00000000000E+00  0.00000000000E+00 -0.11960183008E+04  0.11960183008E+04  0.50400001928E-02 0.  1.
    10030    2    1    2    0    0  0.00000000000E+00  0.00000000000E+00  0.26653392697E+03  0.26585705286E+04  0.26451761608E+04 0.  0.
        1    1    3    3  502    0 -0.45287039628E+03 -0.24140459578E+03 -0.10918687668E+04  0.12064597708E+04  0.50400001928E-02 0.  1.
       -1    1    3    3    0  502  0.45287039628E+03  0.24140459578E+03  0.13584026937E+04  0.14521107578E+04  0.50400001928E-02 0. -1.
</event>
<event>
 5   0  0.8038352E-07  0.3669974E+04  0.7818609E-02  0.8074649E-01
        2   -1    0    0  501    0  0.00000000000E+00  0.00000000000E+00  0.15539588200E+04  0.15539588200E+04  0.25500000920E-02 0.  1.
       -2   -1    0    0    0  501  0.00000000000E+00  0.00000000000E+00 -0.21668380940E+04  0.21668380940E+04  0.25500000920E-02 0. -1.
    10030    2    1    2    0    0  0.00000000000E+00  0.00000000000E+00 -0.61287927399E+03  0.37207969140E+04  0.36699739332E+04 0.  0.
        2    1    3    3  502    0 -0.31562530611E+03 -0.17824190328E+04 -0.61150561167E+03  0.19106480722E+04  0.25500000920E-02 0. -1.
       -2    1    3    3    0  502  0.31562530611E+03  0.17824190328E+04 -0.13736623163E+01  0.18101488418E+04  0.25500000920E-02 0.  1.
</event>
<event>
 5   0  0.7638805E-07  0.3752891E+04  0.7818609E-02  0.8056341E-01
       -2   -1    0    0    0  501  0.00000000000E+00  0.00000000000E+00  0.15259037872E+04  0.15259037872E+04  0.25500000920E-02 0.  1.
        2   -1    0    0  501    0  0.00000000000E+00  0.00000000000E+00 -0.23075162474E+04  0.23075162474E+04  0.25500000920E-02 0. -1.
    10030    2    1    2    0    0  0.00000000000E+00  0.00000000000E+00 -0.78161246020E+03  0.38334200346E+04  0.37528910354E+04 0.  0.
        5    1    3    3  502    0 -0.42697143143E+03 -0.18067022351E+04 -0.66969999490E+03  0.19735748638E+04  0.46999998093E+01 0.  1.
       -5    1    3    3    0  502  0.42697143143E+03  0.18067022351E+04 -0.11191246530E+03  0.18598451709E+04  0.46999998093E+01 0. -1.
</event>
<event>
 5   0  0.2529875E-07  0.3752160E+04  0.7818609E-02  0.8056500E-01
        1   -1    0    0  501    0  0.00000000000E+00  0.00000000000E+00  0.19183156217E+04  0.19183156217E+04  0.50400001928E-02 0.  1.
       -1   -1    0    0    0  501  0.00000000000E+00  0.00000000000E+00 -0.18347740516E+04  0.18347740517E+04  0.50400001928E-02 0. -1.
    10030    2    1    2    0    0  0.00000000000E+00  0.00000000000E+00  0.83541570024E+02  0.37530896733E+04  0.37521597650E+04 0.  0.
        3    1    3    3  502    0 -0.13850170120E+03 -0.12274757471E+04  0.14541392437E+04  0.19079833283E+04  0.10100000352E+00 0.  1.
       -3    1    3    3    0  502  0.13850170120E+03  0.12274757471E+04 -0.13705976737E+04  0.18451063450E+04  0.10100000352E+00 0. -1.
</event>
<event>
 5   0  0.2529875E-07  0.4624180E+04  0.7818609E-02  0.7889250E-01
        1   -1    0    0  501    0  0.00000000000E+00  0.00000000000E+00  0.23522848098E+04  0.23522848098E+04  0.50400001928E-02 0. -1.
       -1   -1    0    0    0  501  0.00000000000E+00  0.00000000000E+00 -0.22725821863E+04  0.22725821863E+04  0.50400001928E-02 0.  1.
    10030    2    1    2    0    0  0.00000000000E+00  0.00000000000E+00  0.79702623500E+02  0.46248669962E+04  0.46241801678E+04 0.  0.
        1    1    3    3  502    0  0.12208931785E+04  0.37334796763E+03  0.19677765155E+04  0.23456583880E+04  0.50400001928E-02 0. -1.
       -1    1    3    3    0  502 -0.12208931785E+04 -0.37334796763E+03 -0.18880738920E+04  0.22792086082E+04  0.50400001928E-02 0.  1.
</event>
<event>
 5   0  0.2529875E-07  0.3899342E+04  0.7818609E-02  0.8025166E-01
        1   -1    0    0  501    0  0.00000000000E+00  0.00000000000E+00  0.35319204011E+04  0.35319204011E+04  0.50400001928E-02 0.  1.
       -1   -1    0    0    0  501  0.00000000000E+00  0.00000000000E+00 -0.10762464890E+04  0.10762464890E+04  0.50400001928E-02 0. -1.
    10030    2    1    2    0    0  0.00000000000E+00  0.00000000000E+00  0.24556739122E+04  0.46081668901E+04  0.38993419604E+04 0.  0.
        5    1    3    3  502    0  0.14715278924E+04 -0.11494242947E+04  0.56495987616E+03  0.19508388706E+04  0.46999998093E+01 0. -1.
       -5    1    3    3    0  502 -0.14715278924E+04  0.11494242947E+04  0.18907140360E+04  0.26573280195E+04  0.46999998093E+01 0.  1.
</event>
<event>
 5   0  0.2529875E-07  0.3812361E+04  0.7818609E-02  0.8043507E-01
        3   -1    0    0  501    0  0.00000000000E+00  0.00000000000E+00  0.23293877460E+04  0.23293877482E+04  0.10100000352E+00 0. -1.
       -3   -1    0    0    0  501  0.00000000000E+00  0.00000000000E+00 -0.15598624385E+04  0.15598624417E+04  0.10100000352E+00 0.  1.
    10030    2    1    2    0    0  0.00000000000E+00  0.00000000000E+00  0.76952530751E+03  0.38892501899E+04  0.38123611897E+04 0.  0.
        5    1    3    3  502    0 -0.54644612638E+03 -0.16679837787E+04 -0.37368919224E+03  0.17945581511E+04  0.46999998093E+01 0.  1.
       -5    1    3    3    0  502  0.54644612638E+03  0.16679837787E+04  0.11432144998E+04  0.20946920389E+04  0.46999998093E+01 0. -1.
</event>
<event>
 5   0  0.2529875E-07  0.2890112E+04  0.7818609E-02  0.8275826E-01
        1   -1    0    0  501    0  0.00000000000E+00  0.00000000000E+00  0.17322377374E+04  0.17322377374E+04  0.50400001928E-02 0. -1.
       -1   -1    0    0    0  501  0.00000000000E+00  0.00000000000E+00 -0.12054850090E+04  0.12054850090E+04  0.50400001928E-02 0.  1.
    10030    2    1    2    0    0  0.00000000000E+00  0.00000000000E+00  0.52675272834E+03  0.29377227464E+04  0.28901118487E+04 0.  0.
        3    1    3    3  502    0 -0.37680881483E+03 -0.10236607888E+04  0.12267877341E+04  0.16416072759E+04  0.10100000352E+00 0. -1.
       -3    1    3    3    0  502  0.37680881483E+03  0.10236607888E+04 -0.70003500577E+03  0.12961154705E+04  0.10100000352E+00 0.  1.
</event>
<event>
 5   0  0.7638805E-07  0.3778713E+04  0.7818609E-02  0.8050738E-01
        2   -1    0    0  501    0  0.00000000000E+00  0.00000000000E+00  0.16208641946E+04  0.16208641946E+04  0.25500000920E-02 0.  1.
       -2   -1    0    0    0  501  0.00000000000E+00  0.00000000000E+00 -0.22023241632E+04  0.22023241632E+04  0.25500000920E-02 0. -1.
    10030    2    1    2    0    0  0.00000000000E+00  0.00000000000E+00 -0.58145996862E+03  0.38231883579E+04  0.37787132102E+04 0.  0.
        5    1    3    3  502    0 -0.18550205146E+04  0.34371407920E+03 -0.39393950842E+03  0.19272910793E+04  0.46999998093E+01 0. -1.
       -5    1    3    3    0  502  0.18550205146E+04 -0.34371407920E+03 -0.18752046020E+03  0.18958972786E+04  0.46999998093E+01 0.  1.
</event>
<event>
 5   0  0.2529875E-07  0.3805424E+04  0.7818609E-02  0.8044992E-01
       -3   -1    0    0    0  501  0.00000000000E+00  0.00000000000E+00  0.11733835712E+04  0.11733835756E+04  0.10100000352E+00 0.  1.
        3   -1    0    0  501    0  0.00000000000E+00  0.00000000000E+00 -0.30853623636E+04  0.30853623652E+04  0.10100000352E+00 0. -1.
    10030    2    1    2    0    0  0.00000000000E+00  0.00000000000E+00 -0.19119787923E+04  0.42587459408E+04  0.38054242978E+04 0.  0.
        5    1    3    3  502    0 -0.15552902878E+04 -0.83573564895E+03 -0.16234938284E+03  0.17730655279E+04  0.46999998093E+01 0.  1.
       -5    1    3    3    0  502  0.15552902878E+04  0.83573564895E+03 -0.17496294095E+04  0.24856804129E+04  0.46999998093E+01 0. -1.
</event>
<event>
 5   0  0.7638805E-07  0.3657345E+04  0.7818609E-02  0.8077481E-01
       -2   -1    0    0    0  501  0.00000000000E+00  0.00000000000E+00  0.25384012545E+04  0.25384012545E+04  0.25500000920E-02 0. -1.
        2   -1    0    0  501    0  0.00000000000E+00  0.00000000000E+00 -0.13173814104E+04  0.13173814104E+04  0.25500000920E-02 0.  1.
    10030    2    1    2    0    0  0.00000000000E+00  0.00000000000E+00  0.12210198440E+04  0.38557826649E+04  0.36573447335E+04 0.  0.
        5    1    3    3  502    0 -0.15065467839E+04  0.92681327723E+03  0.12126807655E+03  0.17729619566E+04  0.46999998093E+01 0.  1.
       -5    1    3    3    0  502  0.15065467839E+04 -0.92681327723E+03  0.10997517675E+04  0.20828207084E+04  0.46999998093E+01 0. -1.
</event>
<event>
 5   0  0.2529875E-07  0.3736814E+04  0.7818609E-02  0.8059852E-01
        1   -1    0    0  501    0  0.00000000000E+00  0.00000000000E+00  0.25804041041E+04  0.25804041041E+04  0.50400001928E-02 0.  1.
       -1   -1    0    0    0  501  0.00000000000E+00  0.00000000000E+00 -0.13528672634E+04  0.13528672634E+04  0.50400001928E-02 0. -1.
    10030    2    1    2    0    0  0.00000000000E+00  0.00000000000E+00  0.12275368407E+04  0.39332713675E+04  0.37368137437E+04 0.  0.
        1    1    3    3  502    0 -0.97031140314E+03  0.12616470052E+03  0.22891542614E+04  0.24895077793E+04  0.50400001928E-02 0.  1.
       -1    1    3    3    0  502  0.97031140314E+03 -0.12616470052E+03 -0.10616174207E+04  0.14437635882E+04  0.50400001928E-02 0. -1.
</event>
<event>
 5   0  0.2529875E-07  0.3636479E+04  0.7818609E-02  0.8082186E-01
        1   -1    0    0  501    0  0.00000000000E+00  0.00000000000E+00  0.21114260926E+04  0.21114260926E+04  0.50400001928E-02 0. -1.
       -1   -1    0    0    0  501  0.00000000000E+00  0.00000000000E+00 -0.15657642628E+04  0.15657642628E+04  0.50400001928E-02 0.  1.
    10030    2    1    2    0    0  0.00000000000E+00  0.00000000000E+00  0.54566182983E+03  0.36771903554E+04  0.36364793520E+04 0.  0.
        5    1    3    3  502    0  0.13346896085E+04 -0.63066054686E+03  0.13462441671E+04  0.19978800074E+04  0.46999998093E+01 0. -1.
       -5    1    3    3    0  502 -0.13346896085E+04  0.63066054686E+03 -0.80058233727E+03  0.16793103481E+04  0.46999998093E+01 0.  1.
</event>
<event>
 5   0  0.8421677E-07  0.3811783E+04  0.7818609E-02  0.8043631E-01
       -2   -1    0    0    0  501  0.00000000000E+00  0.00000000000E+00  0.13099827931E+04  0.13099827931E+04  0.25500000920E-02 0.  1.
        2   -1    0    0  501    0  0.00000000000E+00  0.00000000000E+00 -0.27728777463E+04  0.27728777464E+04  0.25500000920E-02 0. -1.
    10030    2    1    2    0    0  0.00000000000E+00  0.00000000000E+00 -0.14628949532E+04  0.40828605395E+04  0.38117828559E+04 0.  0.
        3    1    3    3  502    0  0.17296772521E+04  0.57403663380E+03 -0.13399849224E+03  0.18273634174E+04  0.10100000352E+00 0.  1.
       -3    1    3    3    0  502 -0.17296772521E+04 -0.57403663380E+03 -0.13288964610E+04  0.22554971220E+04  0.10100000352E+00 0. -1.
</event>
<event>
 5   0  0.7638805E-07  0.3670707E+04  0.7818609E-02  0.8074485E-01
       -2   -1    0    0    0  501  0.00000000000E+00  0.00000000000E+00  0.15780141034E+04  0.15780141034E+04  0.25500000920E-02 0. -1.
        2   -1    0    0  501    0  0.00000000000E+00  0.00000000000E+00 -0.21346590310E+04  0.21346590310E+04  0.25500000920E-02 0.  1.
    10030    2    1    2    0    0  0.00000000000E+00  0.00000000000E+00 -0.55664492753E+03  0.37126731344E+04  0.36707067750E+04 0.  0.
        5    1    3    3  502    0  0.50436405775E+03  0.17091090976E+04 -0.72273520185E+03  0.19229678292E+04  0.46999998093E+01 0.  1.
       -5    1    3    3    0  502 -0.50436405775E+03 -0.17091090976E+04  0.16609027431E+03  0.17897053052E+04  0.46999998093E+01 0. -1.
</event>
<event>
 5   0  0.7649458E-07  0.3841711E+04  0.7818609E-02  0.8037263E-01
        2   -1    0    0  501    0  0.00000000000E+00  0.00000000000E+00  0.26631954033E+04  0.26631954033E+04  0.25500000920E-02 0.  1.
       -2   -1    0    0    0  501  0.00000000000E+00  0.00000000000E+00 -0.13854358006E+04  0.13854358006E+04  0.25500000920E-02 0. -1.
    10030    2    1    2    0    0  0.00000000000E+00  0.00000000000E+00  0.12777596027E+04  0.40486312039E+04  0.38417112102E+04 0.  0.
        4    1    3    3  502    0  0.30583308723E+03  0.18887223601E+04  0.81796993550E+03  0.20808369612E+04  0.12699999809E+01 0.  1.
       -4    1    3    3    0  502 -0.30583308723E+03 -0.18887223601E+04  0.45978966717E+03  0.19677942427E+04  0.12699999809E+01 0. -1.
</event>
<event>
 5   0  0.2529875E-07  0.3290036E+04  0.7818609E-02  0.8165435E-01
       -1   -1    0    0    0  501  0.00000000000E+00  0.00000000000E+00  0.16878723756E+04  0.16878723756E+04  0.50400001928E-02 0. -1.
        1   -1    0    0  501    0  0.00000000000E+00  0.00000000000E+00 -0.16032513493E+04  0.16032513494E+04  0.50400001928E-02 0.  1.
    10030    2    1    2    0    0  0.00000000000E+00  0.00000000000E+00  0.84621026295E+02  0.32911237250E+04  0.32900356617E+04 0.  0.
        3    1    3    3  502    0 -0.13578838974E+04  0.88395830702E+03 -0.24212959217E+03  0.16382483685E+04  0.10100000352E+00 0.  1.
       -3    1    3    3    0  502  0.13578838974E+04 -0.88395830702E+03  0.32675061847E+03  0.16528753565E+04  0.10100000352E+00 0. -1.
</event>
<event>
 5   0  0.2529875E-07  0.3795376E+04  0.7818609E-02  0.8047148E-01
       -1   -1    0    0    0  501  0.00000000000E+00  0.00000000000E+00  0.14002020532E+04  0.14002020532E+04  0.50400001928E-02 0. -1.
        1   -1    0    0  501    0  0.00000000000E+00  0.00000000000E+00 -0.25719289204E+04  0.25719289204E+04  0.50400001928E-02 0.  1.
    10030    2    1    2    0    0  0.00000000000E+00  0.00000000000E+00 -0.11717268672E+04  0.39721309736E+04  0.37953762159E+04 0.  0.
        4    1    3    3  502    0 -0.14079799432E+03  0.79024582718E+03 -0.23855111001E+04  0.25169380931E+04  0.12699999809E+01 0.  1.
       -4    1    3    3    0  502  0.14079799432E+03 -0.79024582718E+03  0.12137842329E+04  0.14551928806E+04  0.12699999809E+01 0. -1.
</event>
<event>
 5   0  0.2529875E-07  0.3827467E+04  0.7818609E-02  0.8040286E-01
       -1   -1    0    0    0  501  0.00000000000E+00  0.00000000000E+00  0.16127493680E+04  0.16127493680E+04  0.50400001928E-02 0.  1.
        1   -1    0    0  501    0  0.00000000000E+00  0.00000000000E+00 -0.22708892843E+04  0.22708892843E+04  0.50400001928E-02 0. -1.
    10030    2    1    2    0    0  0.00000000000E+00  0.00000000000E+00 -0.65813991626E+03  0.38836386523E+04  0.38274666599E+04 0.  0.
        4    1    3    3  502    0  0.13062851292E+00 -0.10605037155E+04 -0.19454668575E+04  0.22157416488E+04  0.12699999809E+01 0. -1.
       -4    1    3    3    0  502 -0.13062851292E+00  0.10605037155E+04  0.12873269413E+04  0.16678970035E+04  0.12699999809E+01 0.  1.
</event>
<event>
 5   0  0.2529875E-07  0.3642174E+04  0.7818609E-02  0.8080899E-01
        1   -1    0    0  501    0  0.00000000000E+00  0.00000000000E+00  0.17360178658E+04  0.17360178658E+04  0.50400001928E-02 0. -1.
       -1   -1    0    0    0  501  0.00000000000E+00  0.00000000000E+00 -0.19103250371E+04  0.19103250371E+04  0.50400001928E-02 0.  1.
    10030    2    1    2    0    0  0.00000000000E+00  0.00000000000E+00 -0.17430717132E+03  0.36463429030E+04  0.36421742924E+04 0.  0.
        4    1    3    3  502    0 -0.51992748134E+03  0.47299479110E+03  0.15947418640E+04  0.17427713229E+04  0.12699999809E+01 0. -1.
       -4    1    3    3    0  502  0.51992748134E+03 -0.47299479110E+03 -0.17690490353E+04  0.19035715801E+04  0.12699999809E+01 0.  1.
</event>
<event>
 5   0  0.2529875E-07  0.3821591E+04  0.7818609E-02  0.8041537E-01
        1   -1    0    0  501    0  0.00000000000E+00  0.00000000000E+00  0.25417473097E+04  0.25417473097E+04  0.50400001928E-02 0.  1.
       -1   -1    0    0    0  501  0.00000000000E+00  0.00000000000E+00 -0.14364680233E+04  0.14364680233E+04  0.50400001928E-02 0. -1.
    10030    2    1    2    0    0  0.00000000000E+00  0.00000000000E+00  0.11052792865E+04  0.39782153330E+04  0.38215906288E+04 0.  0.
        1    1    3    3  502    0 -0.18723085333E+04  0.54755353844E+02  0.94574225429E+03  0.20983245231E+04  0.50400001928E-02 0.  1.
       -1    1    3    3    0  502  0.18723085333E+04 -0.54755353844E+02  0.15953703218E+03  0.18798908099E+04  0.50400001928E-02 0. -1.
</event>
<event>
 5   0  0.2529875E-07  0.3758576E+04  0.7818609E-02  0.8055103E-01
        1   -1    0    0  501    0  0.00000000000E+00  0.00000000000E+00  0.18919650849E+04  0.18919650849E+04  0.50400001928E-02 0.  1.
       -1   -1    0    0    0  501  0.00000000000E+00  0.00000000000E+00 -0.18666961517E+04  0.18666961517E+04  0.50400001928E-02 0. -1.
    10030    2    1    2    0    0  0.00000000000E+00  0.00000000000E+00  0.25268933249E+02  0.37586612366E+04  0.37585762959E+04 0.  0.
        5    1    3    3  502    0  0.71160993381E+03 -0.51519601210E+03  0.16739625402E+04  0.18904994855E+04  0.46999998093E+01 0.  1.
       -5    1    3    3    0  502 -0.71160993381E+03  0.51519601210E+03 -0.16486936069E+04  0.18681617511E+04  0.46999998093E+01 0. -1.
</event>
<event>
 5   0  0.7649458E-07  0.3390199E+04  0.7818609E-02  0.8140316E-01
       -2   -1    0    0    0  501  0.00000000000E+00  0.00000000000E+00  0.12250952724E+04  0.12250952724E+04  0.25500000920E-02 0.  1.
        2   -1    0    0  501    0  0.00000000000E+00  0.00000000000E+00 -0.23454191099E+04  0.23454191099E+04  0.25500000920E-02 0. -1.
    10030    2    1    2    0    0  0.00000000000E+00  0.00000000000E+00 -0.11203238375E+04  0.35705143823E+04  0.33901987336E+04 0.  0.
        4    1    3    3  502    0  0.12491445208E+04  0.62774833168E+03  0.44943241214E+03  0.14684757770E+04  0.12699999809E+01 0.  1.
       -4    1    3    3    0  502 -0.12491445208E+04 -0.62774833168E+03 -0.15697562497E+04  0.21020386053E+04  0.12699999809E+01 0. -1.
</event>
<event>
 5   0  0.2529875E-07  0.3737598E+04  0.7818609E-02  0.8059680E-01
        1   -1    0    0  501    0  0.00000000000E+00  0.00000000000E+00  0.24279328881E+04  0.24279328881E+04  0.50400001928E-02 0.  1.
       -1   -1    0    0    0  501  0.00000000000E+00  0.00000000000E+00 -0.14384289969E+04  0.14384289969E+04  0.50400001928E-02 0. -1.
    10030    2    1    2    0    0  0.00000000000E+00  0.00000000000E+00  0.98950389121E+03  0.38663618851E+04  0.37375976610E+04 0.  0.
        5    1    3    3  502    0  0.59934280071E+03 -0.16791220451E+04 -0.84655486040E+02  0.17848953125E+04  0.46999998093E+01 0. -1.
       -5    1    3    3    0  502 -0.59934280071E+03  0.16791220451E+04  0.10741593773E+04  0.20814665726E+04  0.46999998093E+01 0.  1.
</event>
<event>
 5   0  0.7649458E-07  0.3337065E+04  0.7818609E-02  0.8153528E-01
        2   -1    0    0  501    0  0.00000000000E+00  0.00000000000E+00  0.22766618830E+04  0.22766618830E+04  0.25500000920E-02 0.  1.
       -2   -1    0    0    0  501  0.00000000000E+00  0.00000000000E+00 -0.12228433880E+04  0.12228433880E+04  0.25500000920E-02 0. -1.
    10030    2    1    2    0    0  0.00000000000E+00  0.00000000000E+00  0.10538184950E+04  0.34995052710E+04  0.33370651359E+04 0.  0.
        4    1    3    3  502    0 -0.11619237156E+04 -0.90340204071E+03  0.13511706974E+04  0.19979654237E+04  0.12699999809E+01 0.  1.
       -4    1    3    3    0  502  0.11619237156E+04  0.90340204071E+03 -0.29735220230E+03  0.15015398473E+04  0.12699999809E+01 0. -1.
</event>
<event>
 5   0  0.2529875E-07  0.3862373E+04  0.7818609E-02  0.8032901E-01
       -1   -1    0    0    0  501  0.00000000000E+00  0.00000000000E+00  0.19093785184E+04  0.19093785185E+04  0.50400001928E-02 0.  1.
        1   -1    0    0  501    0  0.00000000000E+00  0.00000000000E+00 -0.19532434035E+04  0.19532434035E+04  0.50400001928E-02 0. -1.
    10030    2    1    2    0    0  0.00000000000E+00  0.00000000000E+00 -0.43864885045E+02  0.38626219219E+04  0.38623728437E+04 0.  0.
        1    1    3    3  502    0 -0.14838825552E+04  0.42167189051E+03  0.11399369431E+04  0.19181164863E+04  0.50400001928E-02 0.  1.
       -1    1    3    3    0  502  0.14838825552E+04 -0.42167189051E+03 -0.11838018281E+04  0.19445054356E+04  0.50400001928E-02 0. -1.
</event>
<event>
 5   0  0.7551495E-07  0.3796632E+04  0.7818609E-02  0.8046878E-01
        2   -1    0    0  501    0  0.00000000000E+00  0.00000000000E+00  0.24726118535E+04  0.24726118535E+04  0.25500000920E-02 0.  1.
       -2   -1    0    0    0  501  0.00000000000E+00  0.00000000000E+00 -0.14574078421E+04  0.14574078421E+04  0.25500000920E-02 0. -1.
    10030    2    1    2    0    0  0.00000000000E+00  0.00000000000E+00  0.10152040114E+04  0.39300196956E+04  0.37966321422E+04 0.  0.
        1    1    3    3  502    0 -0.15925422418E+04 -0.10327448994E+04  0.47740366888E+03  0.19572090033E+04  0.50400001928E-02 0. -1.
       -1    1    3    3    0  502  0.15925422418E+04  0.10327448994E+04  0.53780034257E+03  0.19728106923E+04  0.50400001928E-02 0.  1.
</event>
<event>
 5   0  0.2529875E-07  0.3447401E+04  0.7818609E-02  0.8126370E-01
       -1   -1    0    0    0  501  0.00000000000E+00  0.00000000000E+00  0.20916188829E+04  0.20916188829E+04  0.50400001928E-02 0.  1.
        1   -1    0    0  501    0  0.00000000000E+00  0.00000000000E+00 -0.14204996024E+04  0.14204996024E+04  0.50400001928E-02 0. -1.
    10030    2    1    2    0    0  0.00000000000E+00  0.00000000000E+00  0.67111928050E+03  0.35121184854E+04  0.34474012193E+04 0.  0.
        3    1    3    3  502    0  0.90462145317E+03  0.14002507917E+04  0.78208151344E+03  0.18413836529E+04  0.10100000352E+00 0.  1.
       -3    1    3    3    0  502 -0.90462145317E+03 -0.14002507917E+04 -0.11096223294E+03  0.16707348325E+04  0.10100000352E+00 0. -1.
</event>
<event>
 5   0  0.8038352E-07  0.2765785E+04  0.7818609E-02  0.8313970E-01
        2   -1    0    0  501    0  0.00000000000E+00  0.00000000000E+00  0.18307356406E+04  0.18307356406E+04  0.25500000920E-02 0.  1.
       -2   -1    0    0    0  501  0.00000000000E+00  0.00000000000E+00 -0.10446029689E+04  0.10446029689E+04  0.25500000920E-02 0. -1.
    10030    2    1    2    0    0  0.00000000000E+00  0.00000000000E+00  0.78613267165E+03  0.28753386095E+04  0.27657851583E+04 0.  0.
        2    1    3    3  502    0  0.10877455369E+04  0.47495853630E+03  0.11308351271E+04  0.16393791657E+04  0.25500000920E-02 0.  1.
       -2    1    3    3    0  502 -0.10877455369E+04 -0.47495853630E+03 -0.34470245542E+03  0.12359594439E+04  0.25500000920E-02 0. -1.
</event>
<event>
 5   0  0.2529875E-07  0.2474394E+04  0.7818609E-02  0.8412165E-01
       -1   -1    0    0    0  501  0.00000000000E+00  0.00000000000E+00  0.13223163245E+04  0.13223163246E+04  0.50400001928E-02 0. -1.
        1   -1    0    0  501    0  0.00000000000E+00  0.00000000000E+00 -0.11575571025E+04  0.11575571025E+04  0.50400001928E-02 0.  1.
    10030    2    1    2    0    0  0.00000000000E+00  0.00000000000E+00  0.16475922201E+03  0.24798734271E+04  0.24743941911E+04 0.  0.
        1    1    3    3  502    0 -0.23471328983E+03 -0.11303040094E+04 -0.36355417573E+03  0.12103095144E+04  0.50400001928E-02 0.  1.
       -1    1    3    3    0  502  0.23471328983E+03  0.11303040094E+04  0.52831339775E+03  0.12695639126E+04  0.50400001928E-02 0. -1.
</event>
<event>
 5   0  0.2529875E-07  0.3771440E+04  0.7818609E-02  0.8052312E-01
        1   -1    0    0  501    0  0.00000000000E+00  0.00000000000E+00  0.10312160572E+04  0.10312160572E+04  0.50400001928E-02 0.  1.
       -1   -1    0    0    0  501  0.00000000000E+00  0.00000000000E+00 -0.34482985633E+04  0.34482985633E+04  0.50400001928E-02 0. -1.
    10030    2    1    2    0    0  0.00000000000E+00  0.00000000000E+00 -0.24170825061E+04  0.44795146205E+04  0.37714404932E+04 0.  0.
        3    1    3    3  502    0 -0.18519728583E+04 -0.22222987441E+03 -0.87948781236E+03  0.20622047443E+04  0.10100000352E+00 0. -1.
       -3    1    3    3    0  502  0.18519728583E+04  0.22222987441E+03 -0.15375946937E+04  0.24173098762E+04  0.10100000352E+00 0.  1.
</event>
<event>
 5   0  0.2529875E-07  0.3579679E+04  0.7818609E-02  0.8095162E-01
        1   -1    0    0  501    0  0.00000000000E+00  0.00000000000E+00  0.17729744203E+04  0.17729744203E+04  0.50400001928E-02 0. -1.
       -1   -1    0    0    0  501  0.00000000000E+00  0.00000000000E+00 -0.18068651647E+04  0.18068651647E+04  0.50400001928E-02 0.  1.
    10030    2    1    2    0    0  0.00000000000E+00  0.00000000000E+00 -0.33890744374E+02  0.35798395851E+04  0.35796791577E+04 0.  0.
        1    1    3    3  502    0  0.71553131019E+03  0.13294520108E+04 -0.97828862199E+03  0.17990209373E+04  0.50400001928E-02 0.  1.
       -1    1    3    3    0  502 -0.71553131019E+03 -0.13294520108E+04  0.94439787761E+03  0.17808186478E+04  0.50400001928E-02 0. -1.
</event>
<event>
 5   0  0.7638805E-07  0.3834378E+04  0.7818609E-02  0.8038818E-01
       -2   -1    0    0    0  501  0.00000000000E+00  0.00000000000E+00  0.19287275221E+04  0.19287275221E+04  0.25500000920E-02 0. -1.
        2   -1    0    0  501    0  0.00000000000E+00  0.00000000000E+00 -0.19057192319E+04  0.19057192319E+04  0.25500000920E-02 0.  1.
    10030    2    1    2    0    0  0.00000000000E+00  0.00000000000E+00  0.23008290135E+02  0.38344467540E+04  0.38343777237E+04 0.  0.
        5    1    3    3  502    0  0.11106469093E+04 -0.78454596764E+03 -0.13400164343E+04  0.19091136862E+04  0.46999998093E+01 0.  1.
       -5    1    3    3    0  502 -0.11106469093E+04  0.78454596764E+03  0.13630247245E+04  0.19253330678E+04  0.46999998093E+01 0. -1.
</event>
<event>
 5   0  0.7551495E-07  0.3776425E+04  0.7818609E-02  0.8051233E-01
        2   -1    0    0  501    0  0.00000000000E+00  0.00000000000E+00  0.10873560250E+04  0.10873560250E+04  0.25500000920E-02 0. -1.
       -2   -1    0    0    0  501  0.00000000000E+00  0.00000000000E+00 -0.32789127310E+04  0.32789127310E+04  0.25500000920E-02 0.  1.
    10030    2    1    2    0    0  0.00000000000E+00  0.00000000000E+00 -0.21915567061E+04  0.43662687560E+04  0.37764245066E+04 0.  0.
        1    1    3    3  502    0 -0.18056422950E+04  0.50892316154E+03 -0.84780665691E+03  0.20586702041E+04  0.50400001928E-02 0. -1.
       -1    1    3    3    0  502  0.18056422950E+04 -0.50892316154E+03 -0.13437500492E+04  0.23075985519E+04  0.50400001928E-02 0.  1.
</event>
<event>
 5   0  0.7551495E-07  0.3883807E+04  0.7818609E-02  0.8028406E-01
        2   -1    0    0  501    0  0.00000000000E+00  0.00000000000E+00  0.21675138576E+04  0.21675138576E+04  0.25500000920E-02 0. -1.
       -2   -1    0    0    0  501  0.00000000000E+00  0.00000000000E+00 -0.17397760492E+04  0.17397760492E+04  0.25500000920E-02 0.  1.
    10030    2    1    2    0    0  0.00000000000E+00  0.00000000000E+00  0.42773780846E+03  0.39072899068E+04  0.38838067386E+04 0.  0.
        1    1    3    3  502    0 -0.10218435342E+04 -0.14721650626E+04  0.96642560503E+03  0.20360286417E+04  0.50400001928E-02 0.  1.
       -1    1    3    3    0  502  0.10218435342E+04  0.14721650626E+04 -0.53868779657E+03  0.18712612650E+04  0.50400001928E-02 0. -1.
</event>
<event>
 5   0  0.2907071E-07  0.2784541E+04  0.7818609E-02  0.8308084E-01
        1   -1    0    0  501    0  0.00000000000E+00  0.00000000000E+00  0.14454883859E+04  0.14454883859E+04  0.50400001928E-02 0.  1.
       -1   -1    0    0    0  501  0.00000000000E+00  0.00000000000E+00 -0.13410119033E+04  0.13410119033E+04  0.50400001928E-02 0. -1.
    10030    2    1    2    0    0  0.00000000000E+00  0.00000000000E+00  0.10447648267E+03  0.27865002892E+04  0.27845409902E+04 0.  0.
        2    1    3    3  502    0  0.19203475833E+03  0.55658602147E+02 -0.13265708322E+04  0.13415533539E+04  0.25500000920E-02 0. -1.
       -2    1    3    3    0  502 -0.19203475833E+03 -0.55658602147E+02  0.14310473149E+04  0.14449469353E+04  0.25500000920E-02 0.  1.
</event>
<event>
 5   0  0.2529875E-07  0.3697350E+04  0.7818609E-02  0.8068549E-01
       -1   -1    0    0    0  501  0.00000000000E+00  0.00000000000E+00  0.22046741717E+04  0.22046741717E+04  0.50400001928E-02 0. -1.
        1   -1    0    0  501    0  0.00000000000E+00  0.00000000000E+00 -0.15501606824E+04  0.15501606824E+04  0.50400001928E-02 0.  1.
    10030    2    1    2    0    0  0.00000000000E+00  0.00000000000E+00  0.65451348926E+03  0.37548348541E+04  0.36973499799E+04 0.  0.
        1    1    3    3  502    0 -0.16155273368E+04 -0.82617333374E+03  0.68646249445E+03  0.19400313682E+04  0.50400001928E-02 0. -1.
       -1    1    3    3    0  502  0.16155273368E+04  0.82617333374E+03 -0.31949005192E+02  0.18148034859E+04  0.50400001928E-02 0.  1.
</event>
<event>
 5   0  0.7638805E-07  0.2750371E+04  0.7818609E-02  0.8318844E-01
        2   -1    0    0  501    0  0.00000000000E+00  0.00000000000E+00  0.24088972356E+04  0.24088972356E+04  0.25500000920E-02 0. -1.
       -2   -1    0    0    0  501  0.00000000000E+00  0.00000000000E+00 -0.78506264923E+03  0.78506264923E+03  0.25500000920E-02 0.  1.
    10030    2    1    2    0    0  0.00000000000E+00  0.00000000000E+00  0.16238345864E+04  0.31939598848E+04  0.27503710626E+04 0.  0.
        5    1    3    3  502    0  0.38703285137E+03 -0.23535957680E+03 -0.69592958316E+03  0.83037860832E+03  0.46999998093E+01 0.  1.
       -5    1    3    3    0  502 -0.38703285137E+03  0.23535957680E+03  0.23197641695E+04  0.23635812765E+04  0.46999998093E+01 0. -1.
</event>
<event>
 5   0  0.2529875E-07  0.3749574E+04  0.7818609E-02  0.8057064E-01
        1   -1    0    0  501    0  0.00000000000E+00  0.00000000000E+00  0.17025110234E+04  0.17025110234E+04  0.50400001928E-02 0.  1.
       -1   -1    0    0    0  501  0.00000000000E+00  0.00000000000E+00 -0.20644958008E+04  0.20644958008E+04  0.50400001928E-02 0. -1.
    10030    2    1    2    0    0  0.00000000000E+00  0.00000000000E+00 -0.36198477747E+03  0.37670068242E+04  0.37495743005E+04 0.  0.
        5    1    3    3  502    0 -0.15088358585E+04 -0.39643535885E+03 -0.12255657977E+04  0.19838801013E+04  0.46999998093E+01 0. -1.
       -5    1    3    3    0  502  0.15088358585E+04  0.39643535885E+03  0.86358102019E+03  0.17831267230E+04  0.46999998093E+01 0.  1.
</event>
<event>
 5   0  0.2529875E-07  0.3563887E+04  0.7818609E-02  0.8098814E-01
        1   -1    0    0  501    0  0.00000000000E+00  0.00000000000E+00  0.15002889337E+04  0.15002889338E+04  0.50400001928E-02 0.  1.
       -1   -1    0    0    0  501  0.00000000000E+00  0.00000000000E+00 -0.21164735161E+04  0.21164735161E+04  0.50400001928E-02 0. -1.
    10030    2    1    2    0    0  0.00000000000E+00  0.00000000000E+00 -0.61618458230E+03  0.36167624498E+04  0.35638865272E+04 0.  0.
        4    1    3    3  502    0 -0.24454424459E+03 -0.10983936508E+04  0.10940908227E+04  0.15694925425E+04  0.12699999809E+01 0.  1.
       -4    1    3    3    0  502  0.24454424459E+03  0.10983936508E+04 -0.17102754050E+04  0.20472699073E+04  0.12699999809E+01 0. -1.
</event>
<event>
 5   0  0.8421677E-07  0.3841209E+04  0.7818609E-02  0.8037369E-01
       -2   -1    0    0    0  501  0.00000000000E+00  0.00000000000E+00  0.17359691359E+04  0.17359691359E+04  0.25500000920E-02 0. -1.
        2   -1    0    0  501    0  0.00000000000E+00  0.00000000000E+00 -0.21248773925E+04  0.21248773925E+04  0.25500000920E-02 0.  1.
    10030    2    1    2    0    0  0.00000000000E+00  0.00000000000E+00 -0.38890825657E+03  0.38608465284E+04  0.38412089612E+04 0.  0.
        3    1    3    3  502    0  0.88866420053E+03  0.73895207504E+03 -0.17362280941E+04  0.20857282266E+04  0.10100000352E+00 0.  1.
       -3    1    3    3    0  502 -0.88866420053E+03 -0.73895207504E+03  0.13473198375E+04  0.17751183017E+04  0.10100000352E+00 0. -1.
</event>
<event>
 5   0  0.2529875E-07  0.3636950E+04  0.7818609E-02  0.8082080E-01
        3   -1    0    0  501    0  0.00000000000E+00  0.00000000000E+00  0.15855265712E+04  0.15855265744E+04  0.10100000352E+00 0. -1.
       -3   -1    0    0    0  501  0.00000000000E+00  0.00000000000E+00 -0.20856488682E+04  0.20856488706E+04  0.10100000352E+00 0.  1.
    10030    2    1    2    0    0  0.00000000000E+00  0.00000000000E+00 -0.50012229698E+03  0.36711754451E+04  0.36369502109E+04 0.  0.
        1    1    3    3  502    0 -0.55382178199E+03 -0.58023424522E+03 -0.18974305111E+04  0.20600079830E+04  0.50400001928E-02 0.  1.
       -1    1    3    3    0  502  0.55382178199E+03  0.58023424522E+03  0.13973082141E+04  0.16111674621E+04  0.50400001928E-02 0. -1.
</event>
<event>
 5   0  0.7638805E-07  0.3214353E+04  0.7818609E-02  0.8185037E-01
       -2   -1    0    0    0  501  0.00000000000E+00  0.00000000000E+00  0.80206186646E+03  0.80206186647E+03  0.25500000920E-02 0. -1.
        2   -1    0    0  501    0  0.00000000000E+00  0.00000000000E+00 -0.32204699256E+04  0.32204699256E+04  0.25500000920E-02 0.  1.
    10030    2    1    2    0    0  0.00000000000E+00  0.00000000000E+00 -0.24184080591E+04  0.40225317920E+04  0.32143528863E+04 0.  0.
        5    1    3    3  502    0 -0.85932413166E+03 -0.89315098737E+03 -0.24896036663E+04  0.27810618754E+04  0.46999998093E+01 0.  1.
       -5    1    3    3    0  502  0.85932413166E+03  0.89315098737E+03  0.71195607175E+02  0.12414699167E+04  0.46999998093E+01 0. -1.
</event>
<event>
 5   0  0.7649458E-07  0.3693367E+04  0.7818609E-02  0.8069433E-01
       -2   -1    0    0    0  501  0.00000000000E+00  0.00000000000E+00  0.14715068198E+04  0.14715068198E+04  0.25500000920E-02 0. -1.
        2   -1    0    0  501    0  0.00000000000E+00  0.00000000000E+00 -0.23175157506E+04  0.23175157506E+04  0.25500000920E-02 0.  1.
    10030    2    1    2    0    0  0.00000000000E+00  0.00000000000E+00 -0.84600893075E+03  0.37890225704E+04  0.36933671531E+04 0.  0.
        4    1    3    3  502    0 -0.13131256574E+04  0.12708348176E+04 -0.14980209699E+03  0.18335109509E+04  0.12699999809E+01 0.  1.
       -4    1    3    3    0  502  0.13131256574E+04 -0.12708348176E+04 -0.69620683377E+03  0.19555116195E+04  0.12699999809E+01 0. -1.
</event>
<event>
 5   0  0.7551495E-07  0.3645930E+04  0.7818609E-02  0.8080051E-01
       -2   -1    0    0    0  501  0.00000000000E+00  0.00000000000E+00  0.20844973372E+04  0.20844973372E+04  0.25500000920E-02 0. -1.
        2   -1    0    0  501    0  0.00000000000E+00  0.00000000000E+00 -0.15942459847E+04  0.15942459847E+04  0.25500000920E-02 0.  1.
    10030    2    1    2    0    0  0.00000000000E+00  0.00000000000E+00  0.49025135250E+03  0.36787433220E+04  0.36459300652E+04 0.  0.
        1    1    3    3  502    0 -0.10709729973E+04 -0.65730985565E+03 -0.10874275827E+04  0.16617876383E+04  0.50400001928E-02 0.  1.
       -1    1    3    3    0  502  0.10709729973E+04  0.65730985565E+03  0.15776789352E+04  0.20169556836E+04  0.50400001928E-02 0. -1.
</event>
<event>
 5   0  0.7551495E-07  0.3762640E+04  0.7818609E-02  0.8054220E-01
        2   -1    0    0  501    0  0.00000000000E+00  0.00000000000E+00  0.24447879630E+04  0.24447879630E+04  0.25500000920E-02 0. -1.
       -2   -1    0    0    0  501  0.00000000000E+00  0.00000000000E+00 -0.14477184910E+04  0.14477184910E+04  0.25500000920E-02 0.  1.
    10030    2    1    2    0    0  0.00000000000E+00  0.00000000000E+00  0.99706947201E+03  0.38925064541E+04  0.37626398928E+04 0.  0.
        1    1    3    3  502    0 -0.28683881294E+03  0.84474878109E+03 -0.12149813939E+04  0.15073343343E+04  0.50400001928E-02 0.  1.
       -1    1    3    3    0  502  0.28683881294E+03 -0.84474878109E+03  0.22120508659E+04  0.23851721198E+04  0.50400001928E-02 0. -1.
</event>
<event>
 5   0  0.2907071E-07  0.3904199E+04  0.7818609E-02  0.8024156E-01
        1   -1    0    0  501    0  0.00000000000E+00  0.00000000000E+00  0.20294750132E+04  0.20294750132E+04  0.50400001928E-02 0.  1.
       -1   -1    0    0    0  501  0.00000000000E+00  0.00000000000E+00 -0.18776738882E+04  0.18776738882E+04  0.50400001928E-02 0. -1.
    10030    2    1    2    0    0  0.00000000000E+00  0.00000000000E+00  0.15180112498E+03  0.39071489014E+04  0.39041988879E+04 0.  0.
        2    1    3    3  502    0 -0.18314395037E+04 -0.16095946064E+03  0.73260797442E+03  0.19790889439E+04  0.25500000920E-02 0.  1.
       -2    1    3    3    0  502  0.18314395037E+04  0.16095946064E+03 -0.58080684944E+03  0.19280599575E+04  0.25500000920E-02 0. -1.
</event>
<event>
 5   0  0.7551495E-07  0.3736705E+04  0.7818609E-02  0.8059876E-01
       -2   -1    0    0    0  501  0.00000000000E+00  0.00000000000E+00  0.19645091766E+04  0.19645091766E+04  0.25500000920E-02 0. -1.
        2   -1    0    0  501    0  0.00000000000E+00  0.00000000000E+00 -0.17769019953E+04  0.17769019953E+04  0.25500000920E-02 0.  1.
    10030    2    1    2    0    0  0.00000000000E+00  0.00000000000E+00  0.18760718130E+03  0.37414111718E+04  0.37367045778E+04 0.  0.
        1    1    3    3  502    0  0.12573841936E+04 -0.42440560292E+03 -0.12229974450E+04  0.18046766681E+04  0.50400001928E-02 0.  1.
       -1    1    3    3    0  502 -0.12573841936E+04  0.42440560292E+03  0.14106046263E+04  0.19367345037E+04  0.50400001928E-02 0. -1.
</event>
<event>
 5   0  0.2529875E-07  0.2930559E+04  0.7818609E-02  0.8263843E-01
       -1   -1    0    0    0  501  0.00000000000E+00  0.00000000000E+00  0.10580076002E+04  0.10580076002E+04  0.50400001928E-02 0. -1.
        1   -1    0    0  501    0  0.00000000000E+00  0.00000000000E+00 -0.20293269600E+04  0.20293269600E+04  0.50400001928E-02 0.  1.
    10030    2    1    2    0    0  0.00000000000E+00  0.00000000000E+00 -0.97131935987E+03  0.30873345602E+04  0.29305585454E+04 0.  0.
        5    1    3    3  502    0  0.10206130453E+04  0.41854282508E+03 -0.15017203311E+04  0.18633344111E+04  0.46999998093E+01 0.  1.
       -5    1    3    3    0  502 -0.10206130453E+04 -0.41854282508E+03  0.53040097125E+03  0.12240001491E+04  0.46999998093E+01 0. -1.
</event>
<event>
 5   0  0.2529875E-07  0.3793129E+04  0.7818609E-02  0.8047631E-01
        1   -1    0    0  501    0  0.00000000000E+00  0.00000000000E+00  0.27118214874E+04  0.27118214874E+04  0.50400001928E-02 0. -1.
       -1   -1    0    0    0  501  0.00000000000E+00  0.00000000000E+00 -0.13263985603E+04  0.13263985603E+04  0.50400001928E-02 0.  1.
    10030    2    1    2    0    0  0.00000000000E+00  0.00000000000E+00  0.13854229271E+04  0.40382200477E+04  0.37931285856E+04 0.  0.
        3    1    3    3  502    0 -0.15178456853E+04  0.97403919465E+03  0.67982929788E+02  0.18047796447E+04  0.10100000352E+00 0.  1.
       -3    1    3    3    0  502  0.15178456853E+04 -0.97403919465E+03  0.13174399973E+04  0.22334404030E+04  0.10100000352E+00 0. -1.
</event>
<event>
 5   0  0.7649458E-07  0.3825822E+04  0.7818609E-02  0.8040636E-01
        2   -1    0    0  501    0  0.00000000000E+00  0.00000000000E+00  0.21298230459E+04  0.21298230459E+04  0.25500000920E-02 0.  1.
       -2   -1    0    0    0  501  0.00000000000E+00  0.00000000000E+00 -0.17180901783E+04  0.17180901783E+04  0.25500000920E-02 0. -1.
    10030    2    1    2    0    0  0.00000000000E+00  0.00000000000E+00  0.41173286758E+03  0.38479132242E+04  0.38258217714E+04 0.  0.
        4    1    3    3  502    0  0.59258678506E+03 -0.15856004745E+04  0.11020437797E+04  0.20198490210E+04  0.12699999809E+01 0.  1.
       -4    1    3    3    0  502 -0.59258678506E+03  0.15856004745E+04 -0.69031091215E+03  0.18280642031E+04  0.12699999809E+01 0. -1.
</event>
<event>
 5   0  0.2529875E-07  0.3783032E+04  0.7818609E-02  0.8049806E-01
       -1   -1    0    0    0  501  0.00000000000E+00  0.00000000000E+00  0.22121224891E+04  0.22121224891E+04  0.50400001928E-02 0.  1.
        1   -1    0    0  501    0  0.00000000000E+00  0.00000000000E+00 -0.16173755958E+04  0.16173755958E+04  0.50400001928E-02 0. -1.
    10030    2    1    2    0    0  0.00000000000E+00  0.00000000000E+00  0.59474689330E+03  0.38294980850E+04  0.37830320797E+04 0.  0.
        1    1    3    3  502    0  0.16478656098E+04  0.90529082957E+03  0.87900923236E+02  0.18822165461E+04  0.50400001928E-02 0.  1.
       -1    1    3    3    0  502 -0.16478656098E+04 -0.90529082957E+03  0.50684597006E+03  0.19472815388E+04  0.50400001928E-02 0. -1.
</event>
<event>
 5   0  0.7551495E-07  0.2391492E+04  0.7818609E-02  0.8442696E-01
       -2   -1    0    0    0  501  0.00000000000E+00  0.00000000000E+00  0.53787608785E+03  0.53787608785E+03  0.25500000920E-02 0. -1.
        2   -1    0    0  501    0  0.00000000000E+00  0.00000000000E+00 -0.26582497347E+04  0.26582497347E+04  0.25500000920E-02 0.  1.
    10030    2    1    2    0    0  0.00000000000E+00  0.00000000000E+00 -0.21203736469E+04  0.31961258226E+04  0.23914923942E+04 0.  0.
        1    1    3    3  502    0 -0.62124673310E+03  0.15894510098E+03  0.28864019361E+03  0.70322415339E+03  0.50400001928E-02 0. -1.
       -1    1    3    3    0  502  0.62124673310E+03 -0.15894510098E+03 -0.24090138405E+04  0.24929016692E+04  0.50400001928E-02 0.  1.
</event>
<event>
 5   0  0.8421677E-07  0.3887438E+04  0.7818609E-02  0.8027647E-01
        2   -1    0    0  501    0  0.00000000000E+00  0.00000000000E+00  0.34970481471E+04  0.34970481472E+04  0.25500000920E-02 0. -1.
       -2   -1    0    0    0  501  0.00000000000E+00  0.00000000000E+00 -0.10803519969E+04  0.10803519969E+04  0.25500000920E-02 0.  1.
    10030    2    1    2    0    0  0.00000000000E+00  0.00000000000E+00  0.24166961503E+04  0.45774001440E+04  0.38874376902E+04 0.  0.
        3    1    3    3  502    0  0.49188854820E+03 -0.18659139012E+04  0.14831184870E+04  0.24337685772E+04  0.10100000352E+00 0. -1.
       -3    1    3    3    0  502 -0.49188854820E+03  0.18659139012E+04  0.93357766332E+03  0.21436315668E+04  0.10100000352E+00 0.  1.
</event>
<event>
 5   0  0.8421677E-07  0.3747869E+04  0.7818609E-02  0.8057436E-01
        2   -1    0    0  501    0  0.00000000000E+00  0.00000000000E+00  0.16547097837E+04  0.16547097837E+04  0.25500000920E-02 0.  1.
       -2   -1    0    0    0  501  0.00000000000E+00  0.00000000000E+00 -0.21222029991E+04  0.21222029991E+04  0.25500000920E-02 0. -1.
    10030    2    1    2    0    0  0.00000000000E+00  0.00000000000E+00 -0.46749321540E+03  0.37769127828E+04  0.37478687627E+04 0.  0.
        3    1    3    3  502    0  0.26611512280E+03 -0.17896746979E+04 -0.72525287057E+03  0.19492933385E+04  0.10100000352E+00 0.  1.
       -3    1    3    3    0  502 -0.26611512280E+03  0.17896746979E+04  0.25775965517E+03  0.18276194443E+04  0.10100000352E+00 0. -1.
</event>
<event>
 5   0  0.2907071E-07  0.3788364E+04  0.7818609E-02  0.8048657E-01
        1   -1    0    0  501    0  0.00000000000E+00  0.00000000000E+00  0.22945085476E+04  0.22945085476E+04  0.50400001928E-02 0.  1.
       -1   -1    0    0    0  501  0.00000000000E+00  0.00000000000E+00 -0.15637007949E+04  0.15637007950E+04  0.50400001928E-02 0. -1.
    10030    2    1    2    0    0  0.00000000000E+00  0.00000000000E+00  0.73080775264E+03  0.38582093425E+04  0.37883636784E+04 0.  0.
        2    1    3    3  502    0  0.16238130842E+04  0.97336884712E+03  0.30337952386E+03  0.19173562477E+04  0.25500000920E-02 0. -1.
       -2    1    3    3    0  502 -0.16238130842E+04 -0.97336884712E+03  0.42742822878E+03  0.19408530949E+04  0.25500000920E-02 0.  1.
</event>
<event>
 5   0  0.7638805E-07  0.3717107E+04  0.7818609E-02  0.8064181E-01
       -2   -1    0    0    0  501  0.00000000000E+00  0.00000000000E+00  0.15538227737E+04  0.15538227737E+04  0.25500000920E-02 0. -1.
        2   -1    0    0  501    0  0.00000000000E+00  0.00000000000E+00 -0.22230467595E+04  0.22230467595E+04  0.25500000920E-02 0.  1.
    10030    2    1    2    0    0  0.00000000000E+00  0.00000000000E+00 -0.66922398583E+03  0.37768695331E+04  0.37171067683E+04 0.  0.
        5    1    3    3  502    0 -0.88791506087E+03 -0.12827110865E+04 -0.13610304474E+04  0.20703059811E+04  0.46999998093E+01 0.  1.
       -5    1    3    3    0  502  0.88791506087E+03  0.12827110865E+04  0.69180646155E+03  0.17065635520E+04  0.46999998093E+01 0. -1.
</event>
<event>
 5   0  0.7638805E-07  0.3753133E+04  0.7818609E-02  0.8056288E-01
       -2   -1    0    0    0  501  0.00000000000E+00  0.00000000000E+00  0.29264387602E+04  0.29264387602E+04  0.25500000920E-02 0. -1.
        2   -1    0    0  501    0  0.00000000000E+00  0.00000000000E+00 -0.12033405500E+04  0.12033405500E+04  0.25500000920E-02 0.  1.
    10030    2    1    2    0    0  0.00000000000E+00  0.00000000000E+00  0.17230982101E+04  0.41297793102E+04  0.37531333189E+04 0.  0.
        5    1    3    3  502    0 -0.97178610601E+03  0.16052269553E+04  0.84071419853E+03  0.20561965537E+04  0.46999998093E+01 0.  1.
       -5    1    3    3    0  502  0.97178610601E+03 -0.16052269553E+04  0.88238401161E+03  0.20735827565E+04  0.46999998093E+01 0. -1.
</event>
<event>
 5   0  0.7649458E-07  0.3188542E+04  0.7818609E-02  0.8191850E-01
       -2   -1    0    0    0  501  0.00000000000E+00  0.00000000000E+00  0.96716704336E+03  0.96716704337E+03  0.25500000920E-02 0.  1.
        2   -1    0    0  501    0  0.00000000000E+00  0.00000000000E+00 -0.26279842541E+04  0.26279842541E+04  0.25500000920E-02 0. -1.
    10030    2    1    2    0    0  0.00000000000E+00  0.00000000000E+00 -0.16608172108E+04  0.35951512975E+04  0.31885418367E+04 0.  0.
        4    1    3    3  502    0 -0.45144708723E+03  0.13729205727E+04 -0.71541204704E+02  0.14470090285E+04  0.12699999809E+01 0.  1.
       -4    1    3    3    0  502  0.45144708723E+03 -0.13729205727E+04 -0.15892760061E+04  0.21481422690E+04  0.12699999809E+01 0. -1.
</event>
<event>
 5   0  0.7649458E-07  0.3732030E+04  0.7818609E-02  0.8060901E-01
       -2   -1    0    0    0  501  0.00000000000E+00  0.00000000000E+00  0.19336498366E+04  0.19336498366E+04  0.25500000920E-02 0. -1.
        2   -1    0    0  501    0  0.00000000000E+00  0.00000000000E+00 -0.18007455928E+04  0.18007455928E+04  0.25500000920E-02 0.  1.
    10030    2    1    2    0    0  0.00000000000E+00  0.00000000000E+00  0.13290424383E+03  0.37343954293E+04  0.37320297004E+04 0.  0.
        4    1    3    3  502    0  0.80267701736E+03 -0.15662718186E+04 -0.55403127196E+03  0.18451151908E+04  0.12699999809E+01 0.  1.
       -4    1    3    3    0  502 -0.80267701736E+03  0.15662718186E+04  0.68693551579E+03  0.18892802386E+04  0.12699999809E+01 0. -1.
</event>
<event>
 5   0  0.2529875E-07  0.3906824E+04  0.7818609E-02  0.8023611E-01
       -1   -1    0    0    0  501  0.00000000000E+00  0.00000000000E+00  0.21100476345E+04  0.21100476345E+04  0.50400001928E-02 0. -1.
        1   -1    0    0  501    0  0.00000000000E+00  0.00000000000E+00 -0.18084041282E+04  0.18084041282E+04  0.50400001928E-02 0.  1.
    10030    2    1    2    0    0  0.00000000000E+00  0.00000000000E+00  0.30164350629E+03  0.39184517627E+04  0.39068242105E+04 0.  0.
        4    1    3    3  502    0  0.17019234302E+04  0.77603305456E+03 -0.41392295229E+03  0.19157516769E+04  0.12699999809E+01 0. -1.
       -4    1    3    3    0  502 -0.17019234302E+04 -0.77603305456E+03  0.71556645858E+03  0.20027000858E+04  0.12699999809E+01 0.  1.
</event>
<event>
 5   0  0.8421677E-07  0.3811485E+04  0.7818609E-02  0.8043695E-01
        2   -1    0    0  501    0  0.00000000000E+00  0.00000000000E+00  0.19497187214E+04  0.19497187214E+04  0.25500000920E-02 0.  1.
       -2   -1    0    0    0  501  0.00000000000E+00  0.00000000000E+00 -0.18627581908E+04  0.18627581908E+04  0.25500000920E-02 0. -1.
    10030    2    1    2    0    0  0.00000000000E+00  0.00000000000E+00  0.86960530631E+02  0.38124769122E+04  0.38114850219E+04 0.  0.
        3    1    3    3  502    0 -0.88667808237E+03  0.16851693115E+04  0.12005655711E+03  0.19079851198E+04  0.10100000352E+00 0.  1.
       -3    1    3    3    0  502  0.88667808237E+03 -0.16851693115E+04 -0.33096026474E+02  0.19044917924E+04  0.10100000352E+00 0. -1.
</event>
<event>
 5   0  0.2529875E-07  0.3889932E+04  0.7818609E-02  0.8027126E-01
       -1   -1    0    0    0  501  0.00000000000E+00  0.00000000000E+00  0.18513838894E+04  0.18513838894E+04  0.50400001928E-02 0.  1.
        1   -1    0    0  501    0  0.00000000000E+00  0.00000000000E+00 -0.20432781741E+04  0.20432781741E+04  0.50400001928E-02 0. -1.
    10030    2    1    2    0    0  0.00000000000E+00  0.00000000000E+00 -0.19189428478E+03  0.38946620635E+04  0.38899317696E+04 0.  0.
        4    1    3    3  502    0  0.12965776509E+03  0.14599965379E+04 -0.13759734172E+04  0.20103993346E+04  0.12699999809E+01 0. -1.
       -4    1    3    3    0  502 -0.12965776509E+03 -0.14599965379E+04  0.11840791324E+04  0.18842627289E+04  0.12699999809E+01 0.  1.
</event>
<event>
 5   0  0.7551495E-07  0.3599950E+04  0.7818609E-02  0.8090503E-01
       -2   -1    0    0    0  501  0.00000000000E+00  0.00000000000E+00  0.17377748326E+04  0.17377748326E+04  0.25500000920E-02 0. -1.
        2   -1    0    0  501    0  0.00000000000E+00  0.00000000000E+00 -0.18644016126E+04  0.18644016126E+04  0.25500000920E-02 0.  1.
    10030    2    1    2    0    0  0.00000000000E+00  0.00000000000E+00 -0.12662678002E+03  0.36021764452E+04  0.35999501109E+04 0.  0.
        1    1    3    3  502    0  0.39514348177E+03  0.28418533044E+03 -0.17973047417E+04  0.18620429661E+04  0.50400001928E-02 0.  1.
       -1    1    3    3    0  502 -0.39514348177E+03 -0.28418533044E+03  0.16706779617E+04  0.17401334790E+04  0.50400001928E-02 0. -1.
</event>
<event>
 5   0  0.8038352E-07  0.3642785E+04  0.7818609E-02  0.8080761E-01
        2   -1    0    0  501    0  0.00000000000E+00  0.00000000000E+00  0.23061076191E+04  0.23061076191E+04  0.25500000920E-02 0.  1.
       -2   -1    0    0    0  501  0.00000000000E+00  0.00000000000E+00 -0.14385586368E+04  0.14385586368E+04  0.25500000920E-02 0. -1.
    10030    2    1    2    0    0  0.00000000000E+00  0.00000000000E+00  0.86754898225E+03  0.37446662559E+04  0.36427852162E+04 0.  0.
        2    1    3    3  502    0 -0.66246263425E+03  0.42137310878E+03 -0.12556803463E+04  0.14809271321E+04  0.25500000920E-02 0. -1.
       -2    1    3    3    0  502  0.66246263425E+03 -0.42137310878E+03  0.21232293286E+04  0.22637391237E+04  0.25500000920E-02 0.  1.
</event>
<event>
 5   0  0.2529875E-07  0.3933449E+04  0.7818609E-02  0.8018108E-01
        1   -1    0    0  501    0  0.00000000000E+00  0.00000000000E+00  0.19226491724E+04  0.19226491724E+04  0.50400001928E-02 0. -1.
       -1   -1    0    0    0  501  0.00000000000E+00  0.00000000000E+00 -0.20118103829E+04  0.20118103829E+04  0.50400001928E-02 0.  1.
    10030    2    1    2    0    0  0.00000000000E+00  0.00000000000E+00 -0.89161210481E+02  0.39344595553E+04  0.39334491570E+04 0.  0.
        4    1    3    3  502    0 -0.15820110102E+04  0.11660189667E+04 -0.11973237321E+03  0.19689328382E+04  0.12699999809E+01 0. -1.
       -4    1    3    3    0  502  0.15820110102E+04 -0.11660189667E+04  0.30571162729E+02  0.19655267172E+04  0.12699999809E+01 0.  1.
</event>
<event>
 5   0  0.2907071E-07  0.3778176E+04  0.7818609E-02  0.8050855E-01
       -1   -1    0    0    0  501  0.00000000000E+00  0.00000000000E+00  0.29516442279E+04  0.29516442279E+04  0.50400001928E-02 0. -1.
        1   -1    0    0  501    0  0.00000000000E+00  0.00000000000E+00 -0.12090389661E+04  0.12090389661E+04  0.50400001928E-02 0.  1.
    10030    2    1    2    0    0  0.00000000000E+00  0.00000000000E+00  0.17426052618E+04  0.41606831940E+04  0.37781756897E+04 0.  0.
        2    1    3    3  502    0  0.10775640101E+04 -0.37317055096E+03 -0.78724592979E+03  0.13856971567E+04  0.25500000920E-02 0.  1.
       -2    1    3    3    0  502 -0.10775640101E+04  0.37317055096E+03  0.25298511915E+04  0.27749860373E+04  0.25500000920E-02 0. -1.
</event>
<event>
 5   0  0.7649458E-07  0.3803560E+04  0.7818609E-02  0.8045391E-01
       -2   -1    0    0    0  501  0.00000000000E+00  0.00000000000E+00  0.21226572124E+04  0.21226572124E+04  0.25500000920E-02 0.  1.
        2   -1    0    0  501    0  0.00000000000E+00  0.00000000000E+00 -0.17038865023E+04  0.17038865023E+04  0.25500000920E-02 0. -1.
    10030    2    1    2    0    0  0.00000000000E+00  0.00000000000E+00  0.41877071008E+03  0.38265437147E+04  0.38035598974E+04 0.  0.
        4    1    3    3  502    0  0.84080696737E+03 -0.64941865627E+03 -0.13775061273E+04  0.17396050388E+04  0.12699999809E+01 0. -1.
       -4    1    3    3    0  502 -0.84080696737E+03  0.64941865627E+03  0.17962768374E+04  0.20869386759E+04  0.12699999809E+01 0.  1.
</event>
<event>
 5   0  0.7649458E-07  0.3856349E+04  0.7818609E-02  0.8034170E-01
       -2   -1    0    0    0  501  0.00000000000E+00  0.00000000000E+00  0.19591516604E+04  0.19591516604E+04  0.25500000920E-02 0.  1.
        2   -1    0    0  501    0  0.00000000000E+00  0.00000000000E+00 -0.18976870377E+04  0.18976870377E+04  0.25500000920E-02 0. -1.
    10030    2    1    2    0    0  0.00000000000E+00  0.00000000000E+00  0.61464622712E+02  0.38568386981E+04  0.38563489006E+04 0.  0.
        4    1    3    3  502    0  0.83293419565E+03  0.33403032638E+03 -0.16760891054E+04  0.19012185396E+04  0.12699999809E+01 0. -1.
       -4    1    3    3    0  502 -0.83293419565E+03 -0.33403032638E+03  0.17375537281E+04  0.19556201585E+04  0.12699999809E+01 0.  1.
</event>
<event>
 5   0  0.2529875E-07  0.2613453E+04  0.7818609E-02  0.8363646E-01
        1   -1    0    0  501    0  0.00000000000E+00  0.00000000000E+00  0.20877261358E+04  0.20877261358E+04  0.50400001928E-02 0.  1.
       -1   -1    0    0    0  501  0.00000000000E+00  0.00000000000E+00 -0.81789153049E+03  0.81789153050E+03  0.50400001928E-02 0. -1.
    10030    2    1    2    0    0  0.00000000000E+00  0.00000000000E+00  0.12698346053E+04  0.29056176663E+04  0.26134525245E+04 0.  0.
        4    1    3    3  502    0 -0.10656333330E+04 -0.63202220738E+03  0.10966868092E+04  0.16546147713E+04  0.12699999809E+01 0. -1.
       -4    1    3    3    0  502  0.10656333330E+04  0.63202220738E+03  0.17314779603E+03  0.12510028949E+04  0.12699999809E+01 0.  1.
</event>
<event>
 5   0  0.2907071E-07  0.2341784E+04  0.7818609E-02  0.8461626E-01
        1   -1    0    0  501    0  0.00000000000E+00  0.00000000000E+00  0.15213268554E+04  0.15213268554E+04  0.50400001928E-02 0.  1.
       -1   -1    0    0    0  501  0.00000000000E+00  0.00000000000E+00 -0.90117927319E+03  0.90117927321E+03  0.50400001928E-02 0. -1.
    10030    2    1    2    0    0  0.00000000000E+00  0.00000000000E+00  0.62014758217E+03  0.24225061286E+04  0.23417841317E+04 0.  0.
        2    1    3    3  502    0  0.80889415848E+03 -0.45843431057E+03  0.10463059847E+04  0.13997242551E+04  0.25500000920E-02 0.  1.
       -2    1    3    3    0  502 -0.80889415848E+03  0.45843431057E+03 -0.42615840250E+03  0.10227818735E+04  0.25500000920E-02 0. -1.
</event>
<event>
 5   0  0.7638805E-07  0.3740021E+04  0.7818609E-02  0.8059150E-01
       -2   -1    0    0    0  501  0.00000000000E+00  0.00000000000E+00  0.16170032493E+04  0.16170032493E+04  0.25500000920E-02 0. -1.
        2   -1    0    0  501    0  0.00000000000E+00  0.00000000000E+00 -0.21626047100E+04  0.21626047100E+04  0.25500000920E-02 0.  1.
    10030    2    1    2    0    0  0.00000000000E+00  0.00000000000E+00 -0.54560146069E+03  0.37796079594E+04  0.37400207717E+04 0.  0.
        5    1    3    3  502    0  0.45948058008E+03  0.12755394808E+04 -0.15743747996E+04  0.20776913799E+04  0.46999998093E+01 0.  1.
       -5    1    3    3    0  502 -0.45948058008E+03 -0.12755394808E+04  0.10287733389E+04  0.17019165795E+04  0.46999998093E+01 0. -1.
</event>
<event>
 5   0  0.7638805E-07  0.3773683E+04  0.7818609E-02  0.8051826E-01
        2   -1    0    0  501    0  0.00000000000E+00  0.00000000000E+00  0.14080211972E+04  0.14080211972E+04  0.25500000920E-02 0. -1.
       -2   -1    0    0    0  501  0.00000000000E+00  0.00000000000E+00 -0.25284925468E+04  0.25284925468E+04  0.25500000920E-02 0.  1.
    10030    2    1    2    0    0  0.00000000000E+00  0.00000000000E+00 -0.11204713495E+04  0.39365137440E+04  0.37736831361E+04 0.  0.
        5    1    3    3  502    0  0.71537608180E+03 -0.17443530755E+04 -0.48204525633E+03  0.19460011073E+04  0.46999998093E+01 0.  1.
       -5    1    3    3    0  502 -0.71537608180E+03  0.17443530755E+04 -0.63842609320E+03  0.19905126367E+04  0.46999998093E+01 0. -1.
</event>
<event>
 5   0  0.2764009E-07  0.2512899E+04  0.7818609E-02  0.8398405E-01
       -1   -1    0    0    0  501  0.00000000000E+00  0.00000000000E+00  0.91693626536E+03  0.91693626538E+03  0.50400001928E-02 0. -1.
        1   -1    0    0  501    0  0.00000000000E+00  0.00000000000E+00 -0.17216736953E+04  0.17216736953E+04  0.50400001928E-02 0.  1.
    10030    2    1    2    0    0  0.00000000000E+00  0.00000000000E+00 -0.80473742996E+03  0.26386099607E+04  0.25128987631E+04 0.  0.
        5    1    3    3  502    0 -0.20867178625E+03 -0.71747501262E+03  0.65827676563E+03  0.99582362810E+03  0.46999998093E+01 0. -1.
       -5    1    3    3    0  502  0.20867178625E+03  0.71747501262E+03 -0.14630141956E+04  0.16427863326E+04  0.46999998093E+01 0.  1.
</event>
<event>
 5   0  0.8038352E-07  0.3791714E+04  0.7818609E-02  0.8047935E-01
        2   -1    0    0  501    0  0.00000000000E+00  0.00000000000E+00  0.17450556000E+04  0.17450556000E+04  0.25500000920E-02 0.  1.
       -2   -1    0    0    0  501  0.00000000000E+00  0.00000000000E+00 -0.20596898604E+04  0.20596898604E+04  0.25500000920E-02 0. -1.
    10030    2    1    2    0    0  0.00000000000E+00  0.00000000000E+00 -0.31463426037E+03  0.38047454604E+04  0.37917137682E+04 0.  0.
        2    1    3    3  502    0 -0.51603970381E+02  0.18935031313E+04 -0.77948843653E+02  0.18958093523E+04  0.25500000920E-02 0.  1.
       -2    1    3    3    0  502  0.51603970381E+02 -0.18935031313E+04 -0.23668541671E+03  0.19089361080E+04  0.25500000920E-02 0. -1.
</event>
<event>
 5   0  0.2529875E-07  0.3102346E+04  0.7818609E-02  0.8215094E-01
        1   -1    0    0  501    0  0.00000000000E+00  0.00000000000E+00  0.18939386504E+04  0.18939386504E+04  0.50400001928E-02 0.  1.
       -1   -1    0    0    0  501  0.00000000000E+00  0.00000000000E+00 -0.12704410849E+04  0.12704410849E+04  0.50400001928E-02 0. -1.
    10030    2    1    2    0    0  0.00000000000E+00  0.00000000000E+00  0.62349756554E+03  0.31643797353E+04  0.31023458696E+04 0.  0.
        4    1    3    3  502    0 -0.10982708000E+04 -0.52116854512E+03 -0.67101092211E+03  0.13885505655E+04  0.12699999809E+01 0. -1.
       -4    1    3    3    0  502  0.10982708000E+04  0.52116854512E+03  0.12945084877E+04  0.17758291697E+04  0.12699999809E+01 0.  1.
</event>
<event>
 5   0  0.8421677E-07  0.2902660E+04  0.7818609E-02  0.8272087E-01
        2   -1    0    0  501    0  0.00000000000E+00  0.00000000000E+00  0.14020975466E+04  0.14020975466E+04  0.25500000920E-02 0. -1.
       -2   -1    0    0    0  501  0.00000000000E+00  0.00000000000E+00 -0.15022908484E+04  0.15022908485E+04  0.25500000920E-02 0.  1.
    10030    2    1    2    0    0  0.00000000000E+00  0.00000000000E+00 -0.10019330182E+03  0.29043883951E+04  0.29026596858E+04 0.  0.
        3    1    3    3  502    0 -0.10444947702E+04 -0.84992649776E+03  0.49153333820E+03  0.14335094731E+04  0.10100000352E+00 0. -1.
       -3    1    3    3    0  502  0.10444947702E+04  0.84992649776E+03 -0.59172664002E+03  0.14708789220E+04  0.10100000352E+00 0.  1.
</event>
<event>
 5   0  0.7638805E-07  0.3536315E+04  0.7818609E-02  0.8105237E-01
       -2   -1    0    0    0  501  0.00000000000E+00  0.00000000000E+00  0.12463385626E+04  0.12463385626E+04  0.25500000920E-02 0. -1.
        2   -1    0    0  501    0  0.00000000000E+00  0.00000000000E+00 -0.25084519348E+04  0.25084519348E+04  0.25500000920E-02 0.  1.
    10030    2    1    2    0    0  0.00000000000E+00  0.00000000000E+00 -0.12621133722E+04  0.37547904974E+04  0.35363146798E+04 0.  0.
        5    1    3    3  502    0  0.84449625272E+03  0.41003400220E+03  0.95986368305E+03  0.13426325573E+04  0.46999998093E+01 0. -1.
       -5    1    3    3    0  502 -0.84449625272E+03 -0.41003400220E+03 -0.22219770553E+04  0.24121579401E+04  0.46999998093E+01 0.  1.
</event>
<event>
 5   0  0.8038352E-07  0.3771071E+04  0.7818609E-02  0.8052392E-01
        2   -1    0    0  501    0  0.00000000000E+00  0.00000000000E+00  0.22241311552E+04  0.22241311552E+04  0.25500000920E-02 0. -1.
       -2   -1    0    0    0  501  0.00000000000E+00  0.00000000000E+00 -0.15984867236E+04  0.15984867236E+04  0.25500000920E-02 0.  1.
    10030    2    1    2    0    0  0.00000000000E+00  0.00000000000E+00  0.62564443159E+03  0.38226178788E+04  0.37710710007E+04 0.  0.
        2    1    3    3  502    0  0.73019794880E+03  0.14173149037E+04 -0.70755212501E+03  0.17443051884E+04  0.25500000920E-02 0.  1.
       -2    1    3    3    0  502 -0.73019794880E+03 -0.14173149037E+04  0.13331965566E+04  0.20783126904E+04  0.25500000920E-02 0. -1.
</event>
<event>
 5   0  0.2529875E-07  0.2692741E+04  0.7818609E-02  0.8337364E-01
        1   -1    0    0  501    0  0.00000000000E+00  0.00000000000E+00  0.11240790641E+04  0.11240790641E+04  0.50400001928E-02 0.  1.
       -1   -1    0    0    0  501  0.00000000000E+00  0.00000000000E+00 -0.16126211409E+04  0.16126211409E+04  0.50400001928E-02 0. -1.
    10030    2    1    2    0    0  0.00000000000E+00  0.00000000000E+00 -0.48854207684E+03  0.27367002050E+04  0.26927411037E+04 0.  0.
        3    1    3    3  502    0  0.15424903054E+03  0.12652652547E+04  0.19642597319E+03  0.12896790691E+04  0.10100000352E+00 0. -1.
       -3    1    3    3    0  502 -0.15424903054E+03 -0.12652652547E+04 -0.68496805004E+03  0.14470211359E+04  0.10100000352E+00 0.  1.
</event>
<event>
 5   0  0.8038352E-07  0.3397858E+04  0.7818609E-02  0.8138432E-01
       -2   -1    0    0    0  501  0.00000000000E+00  0.00000000000E+00  0.88953967250E+03  0.88953967251E+03  0.25500000920E-02 0. -1.
        2   -1    0    0  501    0  0.00000000000E+00  0.00000000000E+00 -0.32447785388E+04  0.32447785388E+04  0.25500000920E-02 0.  1.
    10030    2    1    2    0    0  0.00000000000E+00  0.00000000000E+00 -0.23552388663E+04  0.41343182113E+04  0.33978577008E+04 0.  0.
        2    1    3    3  502    0 -0.16977077253E+03 -0.78837215268E+03  0.64181010688E+03  0.10306662795E+04  0.25500000920E-02 0. -1.
       -2    1    3    3    0  502  0.16977077253E+03  0.78837215268E+03 -0.29970489732E+04  0.31036519318E+04  0.25500000920E-02 0.  1.
</event>
<event>
 5   0  0.2529875E-07  0.3526313E+04  0.7818609E-02  0.8107582E-01
       -1   -1    0    0    0  501  0.00000000000E+00  0.00000000000E+00  0.23769858901E+04  0.23769858901E+04  0.50400001928E-02 0.  1.
        1   -1    0    0  501    0  0.00000000000E+00  0.00000000000E+00 -0.13078415578E+04  0.13078415578E+04  0.50400001928E-02 0. -1.
    10030    2    1    2    0    0  0.00000000000E+00  0.00000000000E+00  0.10691443323E+04  0.36848274479E+04  0.35263130488E+04 0.  0.
        5    1    3    3  502    0  0.14961015517E+04  0.28116504835E+03  0.14641243813E+04  0.21121211923E+04  0.46999998093E+01 0. -1.
       -5    1    3    3    0  502 -0.14961015517E+04 -0.28116504835E+03 -0.39498004899E+03  0.15727062556E+04  0.46999998093E+01 0.  1.
</event>
<event>
 5   0  0.2529875E-07  0.3411128E+04  0.7818609E-02  0.8135181E-01
       -1   -1    0    0    0  501  0.00000000000E+00  0.00000000000E+00  0.12185710711E+04  0.12185710711E+04  0.50400001928E-02 0. -1.
        1   -1    0    0  501    0  0.00000000000E+00  0.00000000000E+00 -0.23871801483E+04  0.23871801484E+04  0.50400001928E-02 0.  1.
    10030    2    1    2    0    0  0.00000000000E+00  0.00000000000E+00 -0.11686090773E+04  0.36057512194E+04  0.34111280657E+04 0.  0.
        4    1    3    3  502    0  0.16916460170E+04  0.81554592867E+02 -0.79737307512E+03  0.18719302423E+04  0.12699999809E+01 0.  1.
       -4    1    3    3    0  502 -0.16916460170E+04 -0.81554592867E+02 -0.37123600216E+03  0.17338209771E+04  0.12699999809E+01 0. -1.
</event>
<event>
 5   0  0.8421677E-07  0.3836984E+04  0.7818609E-02  0.8038264E-01
       -2   -1    0    0    0  501  0.00000000000E+00  0.00000000000E+00  0.36216962148E+04  0.36216962148E+04  0.25500000920E-02 0. -1.
        2   -1    0    0  501    0  0.00000000000E+00  0.00000000000E+00 -0.10162673360E+04  0.10162673360E+04  0.25500000920E-02 0.  1.
    10030    2    1    2    0    0  0.00000000000E+00  0.00000000000E+00  0.26054288788E+04  0.46379635508E+04  0.38369840053E+04 0.  0.
        3    1    3    3  502    0 -0.16756900399E+03  0.14671813340E+04  0.27830838560E+04  0.31505961655E+04  0.10100000352E+00 0. -1.
       -3    1    3    3    0  502  0.16756900399E+03 -0.14671813340E+04 -0.17765497724E+03  0.14873673854E+04  0.10100000352E+00 0.  1.
</event>
<event>
 5   0  0.2529875E-07  0.3277305E+04  0.7818609E-02  0.8168694E-01
       -1   -1    0    0    0  501  0.00000000000E+00  0.00000000000E+00  0.14929853618E+04  0.14929853618E+04  0.50400001928E-02 0.  1.
        1   -1    0    0  501    0  0.00000000000E+00  0.00000000000E+00 -0.17985320245E+04  0.17985320245E+04  0.50400001928E-02 0. -1.
    10030    2    1    2    0    0  0.00000000000E+00  0.00000000000E+00 -0.30554666268E+03  0.32915173864E+04  0.32773049815E+04 0.  0.
        3    1    3    3  502    0 -0.10574490296E+04 -0.79931113561E+03 -0.11203229069E+04  0.17355748810E+04  0.10100000352E+00 0. -1.
       -3    1    3    3    0  502  0.10574490296E+04  0.79931113561E+03  0.81477624419E+03  0.15559425054E+04  0.10100000352E+00 0.  1.
</event>
<event>
 5   0  0.2907071E-07  0.3796714E+04  0.7818609E-02  0.8046860E-01
        1   -1    0    0  501    0  0.00000000000E+00  0.00000000000E+00  0.28965663197E+04  0.28965663197E+04  0.50400001928E-02 0.  1.
       -1   -1    0    0    0  501  0.00000000000E+00  0.00000000000E+00 -0.12441487890E+04  0.12441487890E+04  0.50400001928E-02 0. -1.
    10030    2    1    2    0    0  0.00000000000E+00  0.00000000000E+00  0.16524175307E+04  0.41407151087E+04  0.37967140945E+04 0.  0.
        2    1    3    3  502    0  0.17770602345E+04 -0.57999189493E+02  0.10076996374E+03  0.17808597836E+04  0.25500000920E-02 0. -1.
       -2    1    3    3    0  502 -0.17770602345E+04  0.57999189493E+02  0.15516475670E+04  0.23598553251E+04  0.25500000920E-02 0.  1.
</event>
<event>
 5   0  0.2907071E-07  0.3864359E+04  0.7818609E-02  0.8032483E-01
       -1   -1    0    0    0  501  0.00000000000E+00  0.00000000000E+00  0.21179505959E+04  0.21179505959E+04  0.50400001928E-02 0. -1.
        1   -1    0    0  501    0  0.00000000000E+00  0.00000000000E+00 -0.17627028327E+04  0.17627028327E+04  0.50400001928E-02 0.  1.
    10030    2    1    2    0    0  0.00000000000E+00  0.00000000000E+00  0.35524776317E+03  0.38806534286E+04  0.38643589455E+04 0.  0.
        2    1    3    3  502    0  0.65381432678E+02 -0.34842366828E+03  0.20850126478E+04  0.21149353479E+04  0.25500000920E-02 0. -1.
       -2    1    3    3    0  502 -0.65381432678E+02  0.34842366828E+03 -0.17297648846E+04  0.17657180807E+04  0.25500000920E-02 0.  1.
</event>
<event>
 5   0  0.7649458E-07  0.3722493E+04  0.7818609E-02  0.8062995E-01
        2   -1    0    0  501    0  0.00000000000E+00  0.00000000000E+00  0.13908921882E+04  0.13908921882E+04  0.25500000920E-02 0. -1.
       -2   -1    0    0    0  501  0.00000000000E+00  0.00000000000E+00 -0.24906586391E+04  0.24906586391E+04  0.25500000920E-02 0.  1.
    10030    2    1    2    0    0  0.00000000000E+00  0.00000000000E+00 -0.10997664509E+04  0.38815508272E+04  0.37224925222E+04 0.  0.
        4    1    3    3  502    0 -0.54020574935E+03 -0.42579855257E+02  0.13068188440E+04  0.14147128329E+04  0.12699999809E+01 0. -1.
       -4    1    3    3    0  502  0.54020574935E+03  0.42579855257E+02 -0.24065852949E+04  0.24668379943E+04  0.12699999809E+01 0.  1.
</event>
<event>
 5   0  0.2529875E-07  0.2565698E+04  0.7818609E-02  0.8379947E-01
        1   -1    0    0  501    0  0.00000000000E+00  0.00000000000E+00  0.12086578598E+04  0.12086578598E+04  0.50400001928E-02 0.  1.
       -1   -1    0    0    0  501  0.00000000000E+00  0.00000000000E+00 -0.13615944532E+04  0.13615944532E+04  0.50400001928E-02 0. -1.
    10030    2    1    2    0    0  0.00000000000E+00  0.00000000000E+00 -0.15293659336E+03  0.25702523130E+04  0.25656982190E+04 0.  0.
        1    1    3    3  502    0 -0.41950569238E+03 -0.55016200670E+03 -0.11586814104E+04  0.13495206076E+04  0.50400001928E-02 0. -1.
       -1    1    3    3    0  502  0.41950569238E+03  0.55016200670E+03  0.10057448170E+04  0.12207317054E+04  0.50400001928E-02 0.  1.
</event>
<event>
 5   0  0.2529875E-07  0.3814170E+04  0.7818609E-02  0.8043121E-01
        1   -1    0    0  501    0  0.00000000000E+00  0.00000000000E+00  0.19838536712E+04  0.19838536712E+04  0.50400001928E-02 0.  1.
       -1   -1    0    0    0  501  0.00000000000E+00  0.00000000000E+00 -0.18332874649E+04  0.18332874649E+04  0.50400001928E-02 0. -1.
    10030    2    1    2    0    0  0.00000000000E+00  0.00000000000E+00  0.15056620626E+03  0.38171411362E+04  0.38141704564E+04 0.  0.
        1    1    3    3  502    0 -0.80974147975E+03 -0.97546740406E+03 -0.13505216323E+04  0.18523300461E+04  0.50400001928E-02 0. -1.
       -1    1    3    3    0  502  0.80974147975E+03  0.97546740406E+03  0.15010878386E+04  0.19648110900E+04  0.50400001928E-02 0.  1.
</event>
<event>
 5   0  0.7638805E-07  0.3355380E+04  0.7818609E-02  0.8148945E-01
        2   -1    0    0  501    0  0.00000000000E+00  0.00000000000E+00  0.23273438070E+04  0.23273438070E+04  0.25500000920E-02 0. -1.
       -2   -1    0    0    0  501  0.00000000000E+00  0.00000000000E+00 -0.12093803659E+04  0.12093803659E+04  0.25500000920E-02 0.  1.
    10030    2    1    2    0    0  0.00000000000E+00  0.00000000000E+00  0.11179634410E+04  0.35367241729E+04  0.33553801006E+04 0.  0.
        5    1    3    3  502    0 -0.23215368821E+03  0.13388694004E+03  0.23046294075E+04  0.23201637536E+04  0.46999998093E+01 0. -1.
       -5    1    3    3    0  502  0.23215368821E+03 -0.13388694004E+03 -0.11866659665E+04  0.12165604192E+04  0.46999998093E+01 0.  1.
</event>
<event>
 5   0  0.7551495E-07  0.3776046E+04  0.7818609E-02  0.8051315E-01
        2   -1    0    0  501    0  0.00000000000E+00  0.00000000000E+00  0.14757375103E+04  0.14757375103E+04  0.25500000920E-02 0.  1.
       -2   -1    0    0    0  501  0.00000000000E+00  0.00000000000E+00 -0.24154915869E+04  0.24154915869E+04  0.25500000920E-02 0. -1.
    10030    2    1    2    0    0  0.00000000000E+00  0.00000000000E+00 -0.93975407652E+03  0.38912290972E+04  0.37760463666E+04 0.  0.
        1    1    3    3  502    0  0.17147075218E+04 -0.74314433620E+03 -0.19308342513E+03  0.18787673084E+04  0.50400001928E-02 0. -1.
       -1    1    3    3    0  502 -0.17147075218E+04  0.74314433620E+03 -0.74667065139E+03  0.20124617888E+04  0.50400001928E-02 0.  1.
</event>
<event>
 5   0  0.7551495E-07  0.3696057E+04  0.7818609E-02  0.8068836E-01
        2   -1    0    0  501    0  0.00000000000E+00  0.00000000000E+00  0.20058634039E+04  0.20058634039E+04  0.25500000920E-02 0. -1.
       -2   -1    0    0    0  501  0.00000000000E+00  0.00000000000E+00 -0.17026127043E+04  0.17026127043E+04  0.25500000920E-02 0.  1.
    10030    2    1    2    0    0  0.00000000000E+00  0.00000000000E+00  0.30325069955E+03  0.37084761082E+04  0.36960565550E+04 0.  0.
        1    1    3    3  502    0 -0.52631799819E+03  0.93956603882E+03  0.16584751642E+04  0.19774566611E+04  0.50400001928E-02 0. -1.
       -1    1    3    3    0  502  0.52631799819E+03 -0.93956603882E+03 -0.13552244646E+04  0.17310194470E+04  0.50400001928E-02 0.  1.
</event>
<event>
 5   0  0.2529875E-07  0.3756679E+04  0.7818609E-02  0.8055516E-01
       -1   -1    0    0    0  501  0.00000000000E+00  0.00000000000E+00  0.13433798507E+04  0.13433798507E+04  0.50400001928E-02 0.  1.
        1   -1    0    0  501    0  0.00000000000E+00  0.00000000000E+00 -0.26263303442E+04  0.26263303442E+04  0.50400001928E-02 0. -1.
    10030    2    1    2    0    0  0.00000000000E+00  0.00000000000E+00 -0.12829504935E+04  0.39697101950E+04  0.37566789939E+04 0.  0.
        3    1    3    3  502    0 -0.84531484990E+03 -0.11412724451E+04  0.65750101194E+03  0.15650455521E+04  0.10100000352E+00 0.  1.
       -3    1    3    3    0  502  0.84531484990E+03  0.11412724451E+04 -0.19404515054E+04  0.24046646428E+04  0.10100000352E+00 0. -1.
</event>
<event>
 5   0  0.7638805E-07  0.3801306E+04  0.7818609E-02  0.8045875E-01
       -2   -1    0    0    0  501  0.00000000000E+00  0.00000000000E+00  0.18025818687E+04  0.18025818687E+04  0.25500000920E-02 0.  1.
        2   -1    0    0  501    0  0.00000000000E+00  0.00000000000E+00 -0.20040599911E+04  0.20040599911E+04  0.25500000920E-02 0. -1.
    10030    2    1    2    0    0  0.00000000000E+00  0.00000000000E+00 -0.20147812239E+03  0.38066418597E+04  0.38013061985E+04 0.  0.
        5    1    3    3  502    0  0.42495365958E+03  0.18518165169E+04 -0.49187791793E+02  0.19005924218E+04  0.46999998093E+01 0.  1.
       -5    1    3    3    0  502 -0.42495365958E+03 -0.18518165169E+04 -0.15229033060E+03  0.19060494379E+04  0.46999998093E+01 0. -1.
</event>
<event>
 5   0  0.8038352E-07  0.3813315E+04  0.7818609E-02  0.8043304E-01
       -2   -1    0    0    0  501  0.00000000000E+00  0.00000000000E+00  0.19116512332E+04  0.19116512332E+04  0.25500000920E-02 0.  1.
        2   -1    0    0  501    0  0.00000000000E+00  0.00000000000E+00 -0.19016768686E+04  0.19016768686E+04  0.25500000920E-02 0. -1.
    10030    2    1    2    0    0  0.00000000000E+00  0.00000000000E+00  0.99743645853E+01  0.38133281017E+04  0.38133150569E+04 0.  0.
        2    1    3    3  502    0 -0.83842881752E+02 -0.15314981778E+04 -0.11276360605E+04  0.19037014951E+04  0.25500000920E-02 0. -1.
       -2    1    3    3    0  502  0.83842881752E+02  0.15314981778E+04  0.11376104251E+04  0.19096266066E+04  0.25500000920E-02 0.  1.
</event>
<event>
 5   0  0.2529875E-07  0.3624403E+04  0.7818609E-02  0.8084925E-01
        1   -1    0    0  501    0  0.00000000000E+00  0.00000000000E+00  0.16841601492E+04  0.16841601492E+04  0.50400001928E-02 0. -1.
       -1   -1    0    0    0  501  0.00000000000E+00  0.00000000000E+00 -0.19499769481E+04  0.19499769482E+04  0.50400001928E-02 0.  1.
    10030    2    1    2    0    0  0.00000000000E+00  0.00000000000E+00 -0.26581679894E+03  0.36341370974E+04  0.36244025538E+04 0.  0.
        5    1    3    3  502    0  0.14059887869E+04  0.10841866502E+04  0.23109033545E+03  0.17904440775E+04  0.46999998093E+01 0.  1.
       -5    1    3    3    0  502 -0.14059887869E+04 -0.10841866502E+04 -0.49690713439E+03  0.18436930199E+04  0.46999998093E+01 0. -1.
</event>
<event>
 5   0  0.7551495E-07  0.2772744E+04  0.7818609E-02  0.8311781E-01
       -2   -1    0    0    0  501  0.00000000000E+00  0.00000000000E+00  0.70390576172E+03  0.70390576173E+03  0.25500000920E-02 0.  1.
        2   -1    0    0  501    0  0.00000000000E+00  0.00000000000E+00 -0.27305172054E+04  0.27305172054E+04  0.25500000920E-02 0. -1.
    10030    2    1    2    0    0  0.00000000000E+00  0.00000000000E+00 -0.20266114436E+04  0.34344229671E+04  0.27727436184E+04 0.  0.
        1    1    3    3  502    0 -0.31084124546E+03  0.99148366122E+03 -0.21501320822E+04  0.23880389656E+04  0.50400001928E-02 0. -1.
       -1    1    3    3    0  502  0.31084124546E+03 -0.99148366122E+03  0.12352063858E+03  0.10463840015E+04  0.50400001928E-02 0.  1.
</event>
<event>
 5   0  0.7649458E-07  0.3777425E+04  0.7818609E-02  0.8051017E-01
       -2   -1    0    0    0  501  0.00000000000E+00  0.00000000000E+00  0.15866627885E+04  0.15866627885E+04  0.25500000920E-02 0. -1.
        2   -1    0    0  501    0  0.00000000000E+00  0.00000000000E+00 -0.22482623799E+04  0.22482623799E+04  0.25500000920E-02 0.  1.
    10030    2    1    2    0    0  0.00000000000E+00  0.00000000000E+00 -0.66159959139E+03  0.38349251684E+04  0.37774246555E+04 0.  0.
        4    1    3    3  502    0 -0.18211960439E+04 -0.39093861816E+03 -0.13561782029E+02  0.18627328226E+04  0.12699999809E+01 0. -1.
       -4    1    3    3    0  502  0.18211960439E+04  0.39093861816E+03 -0.64803780937E+03  0.19721923458E+04  0.12699999809E+01 0.  1.
</event>
<event>
 5   0  0.7551495E-07  0.4172619E+04  0.7818609E-02  0.7970601E-01
       -2   -1    0    0    0  501  0.00000000000E+00  0.00000000000E+00  0.17264240555E+04  0.17264240555E+04  0.25500000920E-02 0.  1.
        2   -1    0    0  501    0  0.00000000000E+00  0.00000000000E+00 -0.25212156747E+04  0.25212156747E+04  0.25500000920E-02 0. -1.
    10030    2    1    2    0    0  0.00000000000E+00  0.00000000000E+00 -0.79479161918E+03  0.42476397302E+04  0.41726190288E+04 0.  0.
        1    1    3    3  502    0  0.42168383276E+03 -0.19355450052E+04  0.26900026092E+03  0.19991280255E+04  0.50400001928E-02 0. -1.
       -1    1    3    3    0  502 -0.42168383276E+03  0.19355450052E+04 -0.10637918801E+04  0.22485117047E+04  0.50400001928E-02 0.  1.
</event>
<event>
 5   0  0.8038352E-07  0.2927789E+04  0.7818609E-02  0.8264657E-01
        2   -1    0    0  501    0  0.00000000000E+00  0.00000000000E+00  0.23380883781E+04  0.23380883781E+04  0.25500000920E-02 0. -1.
       -2   -1    0    0    0  501  0.00000000000E+00  0.00000000000E+00 -0.91655529216E+03  0.91655529216E+03  0.25500000920E-02 0.  1.
    10030    2    1    2    0    0  0.00000000000E+00  0.00000000000E+00  0.14215330859E+04  0.32546436702E+04  0.29277891157E+04 0.  0.
        2    1    3    3  502    0 -0.96038783979E+02 -0.26257405840E+03  0.23081332081E+04  0.23250048367E+04  0.25500000920E-02 0. -1.
       -2    1    3    3    0  502  0.96038783979E+02  0.26257405840E+03 -0.88660012220E+03  0.92963883356E+03  0.25500000920E-02 0.  1.
</event>
<event>
 5   0  0.2907071E-07  0.3797290E+04  0.7818609E-02  0.8046737E-01
        1   -1    0    0  501    0  0.00000000000E+00  0.00000000000E+00  0.27297546963E+04  0.27297546963E+04  0.50400001928E-02 0. -1.
       -1   -1    0    0    0  501  0.00000000000E+00  0.00000000000E+00 -0.13205775900E+04  0.13205775900E+04  0.50400001928E-02 0.  1.
    10030    2    1    2    0    0  0.00000000000E+00  0.00000000000E+00  0.14091771063E+04  0.40503322863E+04  0.37972900221E+04 0.  0.
        2    1    3    3  502    0 -0.35663724324E+03  0.37711243038E+03  0.26526113551E+04  0.27029152612E+04  0.25500000920E-02 0. -1.
       -2    1    3    3    0  502  0.35663724324E+03 -0.37711243038E+03 -0.12434342487E+04  0.13474170250E+04  0.25500000920E-02 0.  1.
</event>
<event>
 5   0  0.2907071E-07  0.3691581E+04  0.7818609E-02  0.8069830E-01
       -1   -1    0    0    0  501  0.00000000000E+00  0.00000000000E+00  0.14203691121E+04  0.14203691121E+04  0.50400001928E-02 0.  1.
        1   -1    0    0  501    0  0.00000000000E+00  0.00000000000E+00 -0.23986321690E+04  0.23986321690E+04  0.50400001928E-02 0. -1.
    10030    2    1    2    0    0  0.00000000000E+00  0.00000000000E+00 -0.97826305688E+03  0.38190012811E+04  0.36915812570E+04 0.  0.
        2    1    3    3  502    0  0.15280156880E+04  0.76494142977E+03  0.23279170976E+03  0.17245751111E+04  0.25500000920E-02 0.  1.
       -2    1    3    3    0  502 -0.15280156880E+04 -0.76494142977E+03 -0.12110547666E+04  0.20944261700E+04  0.25500000920E-02 0. -1.
</event>
<event>
 5   0  0.7551495E-07  0.3800771E+04  0.7818609E-02  0.8045989E-01
        2   -1    0    0  501    0  0.00000000000E+00  0.00000000000E+00  0.29930704433E+04  0.29930704433E+04  0.25500000920E-02 0.  1.
       -2   -1    0    0    0  501  0.00000000000E+00  0.00000000000E+00 -0.12066089643E+04  0.12066089643E+04  0.25500000920E-02 0. -1.
    10030    2    1    2    0    0  0.00000000000E+00  0.00000000000E+00  0.17864614790E+04  0.41996794076E+04  0.38007713047E+04 0.  0.
        1    1    3    3  502    0  0.18833659164E+04 -0.24077495957E+03  0.98180558770E+03  0.21375177118E+04  0.50400001928E-02 0. -1.
       -1    1    3    3    0  502 -0.18833659164E+04  0.24077495957E+03  0.80465589131E+03  0.20621616958E+04  0.50400001928E-02 0.  1.
</event>
<event>
 5   0  0.2529875E-07  0.2731136E+04  0.7818609E-02  0.8324972E-01
        1   -1    0    0  501    0  0.00000000000E+00  0.00000000000E+00  0.11595118974E+04  0.11595118974E+04  0.50400001928E-02 0. -1.
       -1   -1    0    0    0  501  0.00000000000E+00  0.00000000000E+00 -0.16082427164E+04  0.16082427164E+04  0.50400001928E-02 0.  1.
    10030    2    1    2    0    0  0.00000000000E+00  0.00000000000E+00 -0.44873081898E+03  0.27677546139E+04  0.27311364401E+04 0.  0.
        1    1    3    3  502    0 -0.50505864913E+03  0.20799960123E+03 -0.14927164611E+04  0.15895126632E+04  0.50400001928E-02 0.  1.
       -1    1    3    3    0  502  0.50505864913E+03 -0.20799960123E+03  0.10439856422E+04  0.11782419506E+04  0.50400001928E-02 0. -1.
</event>
<event>
 5   0  0.2529875E-07  0.3743172E+04  0.7818609E-02  0.8058461E-01
       -1   -1    0    0    0  501  0.00000000000E+00  0.00000000000E+00  0.14350462732E+04  0.14350462732E+04  0.50400001928E-02 0.  1.
        1   -1    0    0  501    0  0.00000000000E+00  0.00000000000E+00 -0.24409210813E+04  0.24409210813E+04  0.50400001928E-02 0. -1.
    10030    2    1    2    0    0  0.00000000000E+00  0.00000000000E+00 -0.10058748081E+04  0.38759673545E+04  0.37431722915E+04 0.  0.
        5    1    3    3  502    0 -0.17317448717E+04 -0.21111018024E+03  0.19882611241E+03  0.17558649498E+04  0.46999998093E+01 0.  1.
       -5    1    3    3    0  502  0.17317448717E+04  0.21111018024E+03 -0.12047009205E+04  0.21201024048E+04  0.46999998093E+01 0. -1.
</event>
<event>
 5   0  0.7551495E-07  0.3789792E+04  0.7818609E-02  0.8048349E-01
       -2   -1    0    0    0  501  0.00000000000E+00  0.00000000000E+00  0.22143959249E+04  0.22143959249E+04  0.25500000920E-02 0.  1.
        2   -1    0    0  501    0  0.00000000000E+00  0.00000000000E+00 -0.16214947426E+04  0.16214947426E+04  0.25500000920E-02 0. -1.
    10030    2    1    2    0    0  0.00000000000E+00  0.00000000000E+00  0.59290118226E+03  0.38358906675E+04  0.37897922636E+04 0.  0.
        1    1    3    3  502    0  0.58973770215E+03 -0.13575961668E+03 -0.15210558265E+04  0.16370192602E+04  0.50400001928E-02 0. -1.
       -1    1    3    3    0  502 -0.58973770215E+03  0.13575961668E+03  0.21139570088E+04  0.21988714073E+04  0.50400001928E-02 0.  1.
</event>
<event>
 5   0  0.2529875E-07  0.3739795E+04  0.7818609E-02  0.8059199E-01
       -1   -1    0    0    0  501  0.00000000000E+00  0.00000000000E+00  0.23504598029E+04  0.23504598029E+04  0.50400001928E-02 0. -1.
        1   -1    0    0  501    0  0.00000000000E+00  0.00000000000E+00 -0.14875886687E+04  0.14875886687E+04  0.50400001928E-02 0.  1.
    10030    2    1    2    0    0  0.00000000000E+00  0.00000000000E+00  0.86287113423E+03  0.38380484717E+04  0.37397953790E+04 0.  0.
        4    1    3    3  502    0  0.75647472992E+03 -0.63688447378E+03  0.20601526619E+04  0.22851928701E+04  0.12699999809E+01 0. -1.
       -4    1    3    3    0  502 -0.75647472992E+03  0.63688447378E+03 -0.11972815277E+04  0.15528556016E+04  0.12699999809E+01 0.  1.
</event>
<event>
 5   0  0.8038352E-07  0.3822921E+04  0.7818609E-02  0.8041254E-01
        2   -1    0    0  501    0  0.00000000000E+00  0.00000000000E+00  0.22900586440E+04  0.22900586440E+04  0.25500000920E-02 0. -1.
       -2   -1    0    0    0  501  0.00000000000E+00  0.00000000000E+00 -0.15954527656E+04  0.15954527656E+04  0.25500000920E-02 0.  1.
    10030    2    1    2    0    0  0.00000000000E+00  0.00000000000E+00  0.69460587842E+03  0.38855114097E+04  0.38229205574E+04 0.  0.
        2    1    3    3  502    0  0.17259944866E+04  0.79375763874E+03  0.13272496230E+03  0.19043959863E+04  0.25500000920E-02 0. -1.
       -2    1    3    3    0  502 -0.17259944866E+04 -0.79375763874E+03  0.56188091612E+03  0.19811154234E+04  0.25500000920E-02 0.  1.
</event>
<event>
 5   0  0.2529875E-07  0.3205775E+04  0.7818609E-02  0.8187294E-01
       -1   -1    0    0    0  501  0.00000000000E+00  0.00000000000E+00  0.12383320258E+04  0.12383320259E+04  0.50400001928E-02 0. -1.
        1   -1    0    0  501    0  0.00000000000E+00  0.00000000000E+00 -0.20747647167E+04  0.20747647168E+04  0.50400001928E-02 0.  1.
    10030    2    1    2    0    0  0.00000000000E+00  0.00000000000E+00 -0.83643269090E+03  0.33130967426E+04  0.32057745366E+04 0.  0.
        4    1    3    3  502    0 -0.43949001360E+03 -0.95952140379E+01 -0.20112486537E+04  0.20587292926E+04  0.12699999809E+01 0.  1.
       -4    1    3    3    0  502  0.43949001360E+03  0.95952140379E+01  0.11748159628E+04  0.12543674500E+04  0.12699999809E+01 0. -1.
</event>
<event>
 5   0  0.2529875E-07  0.2669743E+04  0.7818609E-02  0.8344890E-01
       -1   -1    0    0    0  501  0.00000000000E+00  0.00000000000E+00  0.90005489595E+03  0.90005489597E+03  0.50400001928E-02 0.  1.
        1   -1    0    0  501    0  0.00000000000E+00  0.00000000000E+00 -0.19797478735E+04  0.19797478735E+04  0.50400001928E-02 0. -1.
    10030    2    1    2    0    0  0.00000000000E+00  0.00000000000E+00 -0.10796929776E+04  0.28798027695E+04  0.26697428837E+04 0.  0.
        1    1    3    3  502    0 -0.98049531965E+03 -0.19952907293E+02 -0.15167013527E+04  0.18061429023E+04  0.50400001928E-02 0. -1.
       -1    1    3    3    0  502  0.98049531965E+03  0.19952907293E+02  0.43700837513E+03  0.10736598671E+04  0.50400001928E-02 0.  1.
</event>
<event>
 5   0  0.7638805E-07  0.2608998E+04  0.7818609E-02  0.8365151E-01
       -2   -1    0    0    0  501  0.00000000000E+00  0.00000000000E+00  0.11971435717E+04  0.11971435717E+04  0.25500000920E-02 0. -1.
        2   -1    0    0  501    0  0.00000000000E+00  0.00000000000E+00 -0.14214815956E+04  0.14214815956E+04  0.25500000920E-02 0.  1.
    10030    2    1    2    0    0  0.00000000000E+00  0.00000000000E+00 -0.22433802390E+03  0.26186251674E+04  0.26089979337E+04 0.  0.
        5    1    3    3  502    0  0.68257138719E+02 -0.12233869839E+04  0.33709940469E+03  0.12708236888E+04  0.46999998093E+01 0. -1.
       -5    1    3    3    0  502 -0.68257138719E+02  0.12233869839E+04 -0.56143742860E+03  0.13478014786E+04  0.46999998093E+01 0.  1.
</event>
<event>
 5   0  0.2529875E-07  0.3819535E+04  0.7818609E-02  0.8041976E-01
        1   -1    0    0  501    0  0.00000000000E+00  0.00000000000E+00  0.17634907742E+04  0.17634907742E+04  0.50400001928E-02 0.  1.
       -1   -1    0    0    0  501  0.00000000000E+00  0.00000000000E+00 -0.20681779476E+04  0.20681779476E+04  0.50400001928E-02 0. -1.
    10030    2    1    2    0    0  0.00000000000E+00  0.00000000000E+00 -0.30468717337E+03  0.38316687218E+04  0.38195354325E+04 0.  0.
        3    1    3    3  502    0  0.15352727814E+04 -0.93632518491E+03  0.49269614929E+03  0.18645420003E+04  0.10100000352E+00 0.  1.
       -3    1    3    3    0  502 -0.15352727814E+04  0.93632518491E+03 -0.79738332266E+03  0.19671267215E+04  0.10100000352E+00 0. -1.
</event>
<event>
 5   0  0.2529875E-07  0.3706619E+04  0.7818609E-02  0.8066497E-01
       -1   -1    0    0    0  501  0.00000000000E+00  0.00000000000E+00  0.13722449236E+04  0.13722449236E+04  0.50400001928E-02 0.  1.
        1   -1    0    0  501    0  0.00000000000E+00  0.00000000000E+00 -0.25030194679E+04  0.25030194679E+04  0.50400001928E-02 0. -1.
    10030    2    1    2    0    0  0.00000000000E+00  0.00000000000E+00 -0.11307745443E+04  0.38752643915E+04  0.37066188142E+04 0.  0.
        5    1    3    3  502    0 -0.14031691179E+03 -0.28527577287E+03 -0.24742919013E+04  0.24946369686E+04  0.46999998093E+01 0. -1.
       -5    1    3    3    0  502  0.14031691179E+03  0.28527577287E+03  0.13435173570E+04  0.13806274229E+04  0.46999998093E+01 0.  1.
</event>
<event>
 5   0  0.9940789E-07  0.2330552E+04  0.7818609E-02  0.8465972E-01
        2   -1    0    0  501    0  0.00000000000E+00  0.00000000000E+00  0.12334296298E+04  0.12334296298E+04  0.25500000920E-02 0. -1.
       -2   -1    0    0    0  501  0.00000000000E+00  0.00000000000E+00 -0.11008879674E+04  0.11008879674E+04  0.25500000920E-02 0.  1.
    10030    2    1    2    0    0  0.00000000000E+00  0.00000000000E+00  0.13254166233E+03  0.23343175972E+04  0.23305517270E+04 0.  0.
        2    1    3    3  502    0 -0.74063606938E+03 -0.94105646089E+02  0.96240652446E+03  0.12180410413E+04  0.25500000920E-02 0. -1.
       -2    1    3    3    0  502  0.74063606938E+03  0.94105646089E+02 -0.82986486213E+03  0.11162765559E+04  0.25500000920E-02 0.  1.
</event>
<event>
 5   0  0.7649458E-07  0.2664397E+04  0.7818609E-02  0.8346650E-01
       -2   -1    0    0    0  501  0.00000000000E+00  0.00000000000E+00  0.66654079942E+03  0.66654079943E+03  0.25500000920E-02 0.  1.
        2   -1    0    0  501    0  0.00000000000E+00  0.00000000000E+00 -0.26626315198E+04  0.26626315198E+04  0.25500000920E-02 0. -1.
    10030    2    1    2    0    0  0.00000000000E+00  0.00000000000E+00 -0.19960907203E+04  0.33291723192E+04  0.26643967736E+04 0.  0.
        4    1    3    3  502    0 -0.11029751662E+04  0.40652238393E+03 -0.21479891751E+03  0.11949706498E+04  0.12699999809E+01 0. -1.
       -4    1    3    3    0  502  0.11029751662E+04 -0.40652238393E+03 -0.17812918028E+04  0.21342016694E+04  0.12699999809E+01 0.  1.
</event>
<event>
 5   0  0.2529875E-07  0.3752173E+04  0.7818609E-02  0.8056497E-01
       -1   -1    0    0    0  501  0.00000000000E+00  0.00000000000E+00  0.18611251807E+04  0.18611251807E+04  0.50400001928E-02 0.  1.
        1   -1    0    0  501    0  0.00000000000E+00  0.00000000000E+00 -0.18911676028E+04  0.18911676028E+04  0.50400001928E-02 0. -1.
    10030    2    1    2    0    0  0.00000000000E+00  0.00000000000E+00 -0.30042422121E+02  0.37522927834E+04  0.37521725154E+04 0.  0.
        3    1    3    3  502    0  0.34782288108E+03  0.18434091688E+04  0.86758784863E+01  0.18759566629E+04  0.10100000352E+00 0.  1.
       -3    1    3    3    0  502 -0.34782288108E+03 -0.18434091688E+04 -0.38718300608E+02  0.18763361205E+04  0.10100000352E+00 0. -1.
</event>
<event>
 5   0  0.8038352E-07  0.2533753E+04  0.7818609E-02  0.8391059E-01
       -2   -1    0    0    0  501  0.00000000000E+00  0.00000000000E+00  0.10294875691E+04  0.10294875691E+04  0.25500000920E-02 0.  1.
        2   -1    0    0  501    0  0.00000000000E+00  0.00000000000E+00 -0.15590042539E+04  0.15590042539E+04  0.25500000920E-02 0. -1.
    10030    2    1    2    0    0  0.00000000000E+00  0.00000000000E+00 -0.52951668482E+03  0.25884918231E+04  0.25337525528E+04 0.  0.
        2    1    3    3  502    0 -0.11911028057E+03  0.64158275127E+03 -0.13741092247E+04  0.15211810698E+04  0.25500000920E-02 0. -1.
       -2    1    3    3    0  502  0.11911028057E+03 -0.64158275127E+03  0.84459253988E+03  0.10673107533E+04  0.25500000920E-02 0.  1.
</event>
<event>
 5   0  0.7649458E-07  0.3810098E+04  0.7818609E-02  0.8043991E-01
       -2   -1    0    0    0  501  0.00000000000E+00  0.00000000000E+00  0.15723697835E+04  0.15723697835E+04  0.25500000920E-02 0.  1.
        2   -1    0    0  501    0  0.00000000000E+00  0.00000000000E+00 -0.23081153926E+04  0.23081153926E+04  0.25500000920E-02 0. -1.
    10030    2    1    2    0    0  0.00000000000E+00  0.00000000000E+00 -0.73574560911E+03  0.38804851761E+04  0.38100975841E+04 0.  0.
        4    1    3    3  502    0  0.12104744258E+04  0.92115602132E+03 -0.15359840893E+04  0.21617181793E+04  0.12699999809E+01 0. -1.
       -4    1    3    3    0  502 -0.12104744258E+04 -0.92115602132E+03  0.80023848020E+03  0.17187669968E+04  0.12699999809E+01 0.  1.
</event>
<event>
 5   0  0.8421677E-07  0.3783200E+04  0.7818609E-02  0.8049770E-01
        2   -1    0    0  501    0  0.00000000000E+00  0.00000000000E+00  0.17872836959E+04  0.17872836959E+04  0.25500000920E-02 0. -1.
       -2   -1    0    0    0  501  0.00000000000E+00  0.00000000000E+00 -0.20020044110E+04  0.20020044110E+04  0.25500000920E-02 0.  1.
    10030    2    1    2    0    0  0.00000000000E+00  0.00000000000E+00 -0.21472071515E+03  0.37892881069E+04  0.37831996209E+04 0.  0.
        3    1    3    3  502    0  0.66688392310E+03  0.68910211210E+03  0.15257709627E+04  0.18021023635E+04  0.10100000352E+00 0. -1.
       -3    1    3    3    0  502 -0.66688392310E+03 -0.68910211210E+03 -0.17404916779E+04  0.19871857434E+04  0.10100000352E+00 0.  1.
</event>
<event>
 5   0  0.2529875E-07  0.2569074E+04  0.7818609E-02  0.8378782E-01
        1   -1    0    0  501    0  0.00000000000E+00  0.00000000000E+00  0.12691812482E+04  0.12691812483E+04  0.50400001928E-02 0.  1.
       -1   -1    0    0    0  501  0.00000000000E+00  0.00000000000E+00 -0.13000788147E+04  0.13000788147E+04  0.50400001928E-02 0. -1.
    10030    2    1    2    0    0  0.00000000000E+00  0.00000000000E+00 -0.30897566456E+02  0.25692600630E+04  0.25690742713E+04 0.  0.
        5    1    3    3  502    0  0.91235499592E+03 -0.88956951368E+03  0.14669870205E+03  0.12826800682E+04  0.46999998093E+01 0. -1.
       -5    1    3    3    0  502 -0.91235499592E+03  0.88956951368E+03 -0.17759626850E+03  0.12865799947E+04  0.46999998093E+01 0.  1.
</event>
<event>
 5   0  0.8038352E-07  0.3769534E+04  0.7818609E-02  0.8052725E-01
        2   -1    0    0  501    0  0.00000000000E+00  0.00000000000E+00  0.14114140874E+04  0.14114140874E+04  0.25500000920E-02 0. -1.
       -2   -1    0    0    0  501  0.00000000000E+00  0.00000000000E+00 -0.25168707566E+04  0.25168707566E+04  0.25500000920E-02 0.  1.
    10030    2    1    2    0    0  0.00000000000E+00  0.00000000000E+00 -0.11054566692E+04  0.39282848440E+04  0.37695341050E+04 0.  0.
        2    1    3    3  502    0  0.13806996378E+03  0.12278325075E+04  0.93048637101E+03  0.15467517151E+04  0.25500000920E-02 0. -1.
       -2    1    3    3    0  502 -0.13806996378E+03 -0.12278325075E+04 -0.20359430402E+04  0.23815331289E+04  0.25500000920E-02 0.  1.
</event>
<event>
 5   0  0.2529875E-07  0.2620918E+04  0.7818609E-02  0.8361130E-01
       -3   -1    0    0    0  501  0.00000000000E+00  0.00000000000E+00  0.68681729137E+03  0.68681729880E+03  0.10100000352E+00 0. -1.
        3   -1    0    0  501    0  0.00000000000E+00  0.00000000000E+00 -0.25003784499E+04  0.25003784519E+04  0.10100000352E+00 0.  1.
    10030    2    1    2    0    0  0.00000000000E+00  0.00000000000E+00 -0.18135611585E+04  0.31871957507E+04  0.26209182890E+04 0.  0.
        5    1    3    3  502    0 -0.13391816895E+03 -0.70398921979E+03  0.42742489319E+03  0.83441538030E+03  0.46999998093E+01 0. -1.
       -5    1    3    3    0  502  0.13391816895E+03  0.70398921979E+03 -0.22409860517E+04  0.23527803704E+04  0.46999998093E+01 0.  1.
</event>
<event>
 5   0  0.2529875E-07  0.3498235E+04  0.7818609E-02  0.8114208E-01
        1   -1    0    0  501    0  0.00000000000E+00  0.00000000000E+00  0.17956410736E+04  0.17956410736E+04  0.50400001928E-02 0.  1.
       -1   -1    0    0    0  501  0.00000000000E+00  0.00000000000E+00 -0.17037993990E+04  0.17037993990E+04  0.50400001928E-02 0. -1.
    10030    2    1    2    0    0  0.00000000000E+00  0.00000000000E+00  0.91841674667E+02  0.34994404726E+04  0.34982350876E+04 0.  0.
        4    1    3    3  502    0  0.12658744257E+04  0.71139663679E+02 -0.11594473210E+04  0.17180857418E+04  0.12699999809E+01 0. -1.
       -4    1    3    3    0  502 -0.12658744257E+04 -0.71139663679E+02  0.12512889956E+04  0.17813547308E+04  0.12699999809E+01 0.  1.
</event>
<event>
 5   0  0.8038352E-07  0.3745935E+04  0.7818609E-02  0.8057858E-01
        2   -1    0    0  501    0  0.00000000000E+00  0.00000000000E+00  0.15160302141E+04  0.15160302141E+04  0.25500000920E-02 0.  1.
       -2   -1    0    0    0  501  0.00000000000E+00  0.00000000000E+00 -0.23139427222E+04  0.23139427222E+04  0.25500000920E-02 0. -1.
    10030    2    1    2    0    0  0.00000000000E+00  0.00000000000E+00 -0.79791250818E+03  0.38299729363E+04  0.37459349063E+04 0.  0.
        2    1    3    3  502    0  0.17228286182E+03  0.13119077890E+04  0.95638606390E+03  0.16326229616E+04  0.25500000920E-02 0.  1.
       -2    1    3    3    0  502 -0.17228286182E+03 -0.13119077890E+04 -0.17542985721E+04  0.21973499747E+04  0.25500000920E-02 0. -1.
</event>
<event>
 5   0  0.2529875E-07  0.3893569E+04  0.7818609E-02  0.8026368E-01
       -1   -1    0    0    0  501  0.00000000000E+00  0.00000000000E+00  0.16916522146E+04  0.16916522147E+04  0.50400001928E-02 0.  1.
        1   -1    0    0  501    0  0.00000000000E+00  0.00000000000E+00 -0.22403949378E+04  0.22403949378E+04  0.50400001928E-02 0. -1.
    10030    2    1    2    0    0  0.00000000000E+00  0.00000000000E+00 -0.54874272311E+03  0.39320471524E+04  0.38935685730E+04 0.  0.
        5    1    3    3  502    0  0.56340392428E+03 -0.18632949239E+04 -0.30021750960E+03  0.19696305741E+04  0.46999998093E+01 0.  1.
       -5    1    3    3    0  502 -0.56340392428E+03  0.18632949239E+04 -0.24852521351E+03  0.19624165783E+04  0.46999998093E+01 0. -1.
</event>
<event>
 5   0  0.2529875E-07  0.3846004E+04  0.7818609E-02  0.8036354E-01
       -1   -1    0    0    0  501  0.00000000000E+00  0.00000000000E+00  0.19392207363E+04  0.19392207363E+04  0.50400001928E-02 0.  1.
        1   -1    0    0  501    0  0.00000000000E+00  0.00000000000E+00 -0.19069190940E+04  0.19069190940E+04  0.50400001928E-02 0. -1.
    10030    2    1    2    0    0  0.00000000000E+00  0.00000000000E+00  0.32301642334E+02  0.38461398303E+04  0.38460041860E+04 0.  0.
        5    1    3    3  502    0 -0.10688304608E+04 -0.14382896558E+04 -0.68161247184E+03  0.19172097797E+04  0.46999998093E+01 0. -1.
       -5    1    3    3    0  502  0.10688304608E+04  0.14382896558E+04  0.71391411417E+03  0.19289300506E+04  0.46999998093E+01 0.  1.
</event>
<event>
 5   0  0.2529875E-07  0.3724006E+04  0.7818609E-02  0.8062662E-01
        1   -1    0    0  501    0  0.00000000000E+00  0.00000000000E+00  0.25202808460E+04  0.25202808460E+04  0.50400001928E-02 0. -1.
       -1   -1    0    0    0  501  0.00000000000E+00  0.00000000000E+00 -0.13756624845E+04  0.13756624846E+04  0.50400001928E-02 0.  1.
    10030    2    1    2    0    0  0.00000000000E+00  0.00000000000E+00  0.11446183615E+04  0.38959433306E+04  0.37240063428E+04 0.  0.
        3    1    3    3  502    0 -0.21463203168E+03  0.42569635555E+03  0.24553485918E+04  0.25012039129E+04  0.10100000352E+00 0. -1.
       -3    1    3    3    0  502  0.21463203168E+03 -0.42569635555E+03 -0.13107302304E+04  0.13947394177E+04  0.10100000352E+00 0.  1.
</event>
<event>
 5   0  0.2907071E-07  0.3675200E+04  0.7818609E-02  0.8073480E-01
        1   -1    0    0  501    0  0.00000000000E+00  0.00000000000E+00  0.20874158891E+04  0.20874158891E+04  0.50400001928E-02 0.  1.
       -1   -1    0    0    0  501  0.00000000000E+00  0.00000000000E+00 -0.16176813390E+04  0.16176813390E+04  0.50400001928E-02 0. -1.
    10030    2    1    2    0    0  0.00000000000E+00  0.00000000000E+00  0.46973455007E+03  0.37050972281E+04  0.36751999840E+04 0.  0.
        2    1    3    3  502    0  0.11076728960E+04 -0.13026447999E+04  0.91335852317E+03  0.19385681600E+04  0.25500000920E-02 0. -1.
       -2    1    3    3    0  502 -0.11076728960E+04  0.13026447999E+04 -0.44362397310E+03  0.17665290681E+04  0.25500000920E-02 0.  1.
</event>
<event>
 5   0  0.7638805E-07  0.2545109E+04  0.7818609E-02  0.8387089E-01
        2   -1    0    0  501    0  0.00000000000E+00  0.00000000000E+00  0.16235485594E+04  0.16235485595E+04  0.25500000920E-02 0. -1.
       -2   -1    0    0    0  501  0.00000000000E+00  0.00000000000E+00 -0.99744191394E+03  0.99744191395E+03  0.25500000920E-02 0.  1.
    10030    2    1    2    0    0  0.00000000000E+00  0.00000000000E+00  0.62610664551E+03  0.26209904734E+04  0.25451093356E+04 0.  0.
        5    1    3    3  502    0 -0.16154760144E+03  0.10258511069E+04 -0.44433667473E+03  0.11295686307E+04  0.46999998093E+01 0.  1.
       -5    1    3    3    0  502  0.16154760144E+03 -0.10258511069E+04  0.10704433202E+04  0.14914218427E+04  0.46999998093E+01 0. -1.
</event>
<event>
 5   0  0.2529875E-07  0.3996379E+04  0.7818609E-02  0.8005277E-01
       -1   -1    0    0    0  501  0.00000000000E+00  0.00000000000E+00  0.16635627028E+04  0.16635627028E+04  0.50400001928E-02 0.  1.
        1   -1    0    0  501    0  0.00000000000E+00  0.00000000000E+00 -0.24001263886E+04  0.24001263886E+04  0.50400001928E-02 0. -1.
    10030    2    1    2    0    0  0.00000000000E+00  0.00000000000E+00 -0.73656368579E+03  0.40636890914E+04  0.39963787319E+04 0.  0.
        4    1    3    3  502    0  0.70832273273E+03  0.59119506978E+03 -0.21705698494E+04  0.23585181339E+04  0.12699999809E+01 0. -1.
       -4    1    3    3    0  502 -0.70832273273E+03 -0.59119506978E+03  0.14340061636E+04  0.17051709575E+04  0.12699999809E+01 0.  1.
</event>
<event>
 5   0  0.2529875E-07  0.2891534E+04  0.7818609E-02  0.8275401E-01
        1   -1    0    0  501    0  0.00000000000E+00  0.00000000000E+00  0.17892056941E+04  0.17892056941E+04  0.50400001928E-02 0. -1.
       -1   -1    0    0    0  501  0.00000000000E+00  0.00000000000E+00 -0.11682513736E+04  0.11682513737E+04  0.50400001928E-02 0.  1.
    10030    2    1    2    0    0  0.00000000000E+00  0.00000000000E+00  0.62095432049E+03  0.29574570678E+04  0.28915338559E+04 0.  0.
        5    1    3    3  502    0 -0.61180372797E+03 -0.62411821955E+03  0.14884253981E+04  0.17260531884E+04  0.46999998093E+01 0. -1.
       -5    1    3    3    0  502  0.61180372797E+03  0.62411821955E+03 -0.86747107764E+03  0.12314038793E+04  0.46999998093E+01 0.  1.
</event>
<event>
 5   0  0.8038352E-07  0.3706860E+04  0.7818609E-02  0.8066443E-01
        2   -1    0    0  501    0  0.00000000000E+00  0.00000000000E+00  0.12688794080E+04  0.12688794080E+04  0.25500000920E-02 0. -1.
       -2   -1    0    0    0  501  0.00000000000E+00  0.00000000000E+00 -0.27072724795E+04  0.27072724795E+04  0.25500000920E-02 0.  1.
    10030    2    1    2    0    0  0.00000000000E+00  0.00000000000E+00 -0.14383930715E+04  0.39761518875E+04  0.37068597498E+04 0.  0.
        2    1    3    3  502    0 -0.81121636615E+03 -0.52348708666E+03 -0.24162486565E+04  0.26019931385E+04  0.25500000920E-02 0.  1.
       -2    1    3    3    0  502  0.81121636615E+03  0.52348708666E+03  0.97785558499E+03  0.13741587491E+04  0.25500000920E-02 0. -1.
</event>
<event>
 5   0  0.2907071E-07  0.3843224E+04  0.7818609E-02  0.8036942E-01
        1   -1    0    0  501    0  0.00000000000E+00  0.00000000000E+00  0.28562526085E+04  0.28562526085E+04  0.50400001928E-02 0. -1.
       -1   -1    0    0    0  501  0.00000000000E+00  0.00000000000E+00 -0.12928102350E+04  0.12928102350E+04  0.50400001928E-02 0.  1.
    10030    2    1    2    0    0  0.00000000000E+00  0.00000000000E+00  0.15634423734E+04  0.41490628435E+04  0.38432239623E+04 0.  0.
        2    1    3    3  502    0 -0.18184401345E+03  0.15995831668E+04  0.19144349526E+04  0.25013585789E+04  0.25500000920E-02 0.  1.
       -2    1    3    3    0  502  0.18184401345E+03 -0.15995831668E+04 -0.35099257915E+03  0.16477042646E+04  0.25500000920E-02 0. -1.
</event>
<event>
 5   0  0.7638805E-07  0.3792279E+04  0.7818609E-02  0.8047814E-01
        2   -1    0    0  501    0  0.00000000000E+00  0.00000000000E+00  0.16861102703E+04  0.16861102703E+04  0.25500000920E-02 0.  1.
       -2   -1    0    0    0  501  0.00000000000E+00  0.00000000000E+00 -0.21323310866E+04  0.21323310866E+04  0.25500000920E-02 0. -1.
    10030    2    1    2    0    0  0.00000000000E+00  0.00000000000E+00 -0.44622081633E+03  0.38184413569E+04  0.37922791800E+04 0.  0.
        5    1    3    3  502    0 -0.17824162029E+04  0.90759935781E+02 -0.86790183431E+03  0.19845706262E+04  0.46999998093E+01 0.  1.
       -5    1    3    3    0  502  0.17824162029E+04 -0.90759935781E+02  0.42168101798E+03  0.18338707308E+04  0.46999998093E+01 0. -1.
</event>
<event>
 5   0  0.2529875E-07  0.3863125E+04  0.7818609E-02  0.8032743E-01
       -1   -1    0    0    0  501  0.00000000000E+00  0.00000000000E+00  0.18533146445E+04  0.18533146445E+04  0.50400001928E-02 0.  1.
        1   -1    0    0  501    0  0.00000000000E+00  0.00000000000E+00 -0.20131136618E+04  0.20131136618E+04  0.50400001928E-02 0. -1.
    10030    2    1    2    0    0  0.00000000000E+00  0.00000000000E+00 -0.15979901728E+03  0.38664283063E+04  0.38631246578E+04 0.  0.
        1    1    3    3  502    0  0.30313157984E+03 -0.11109933028E+04  0.14721484483E+04  0.18690681976E+04  0.50400001928E-02 0.  1.
       -1    1    3    3    0  502 -0.30313157984E+03  0.11109933028E+04 -0.16319474656E+04  0.19973601087E+04  0.50400001928E-02 0. -1.
</event>
<event>
 5   0  0.8421677E-07  0.3814102E+04  0.7818609E-02  0.8043135E-01
       -2   -1    0    0    0  501  0.00000000000E+00  0.00000000000E+00  0.14137928999E+04  0.14137928999E+04  0.25500000920E-02 0.  1.
        2   -1    0    0  501    0  0.00000000000E+00  0.00000000000E+00 -0.25724014524E+04  0.25724014524E+04  0.25500000920E-02 0. -1.
    10030    2    1    2    0    0  0.00000000000E+00  0.00000000000E+00 -0.11586085525E+04  0.39861943523E+04  0.38141016814E+04 0.  0.
        3    1    3    3  502    0  0.58586054589E+03 -0.49761501261E+03  0.12447191513E+04  0.14629350826E+04  0.10100000352E+00 0.  1.
       -3    1    3    3    0  502 -0.58586054589E+03  0.49761501261E+03 -0.24033277038E+04  0.25232592697E+04  0.10100000352E+00 0. -1.
</event>
<event>
 5   0  0.7638805E-07  0.2667757E+04  0.7818609E-02  0.8345543E-01
        2   -1    0    0  501    0  0.00000000000E+00  0.00000000000E+00  0.17879241013E+04  0.17879241013E+04  0.25500000920E-02 0.  1.
       -2   -1    0    0    0  501  0.00000000000E+00  0.00000000000E+00 -0.99513842029E+03  0.99513842029E+03  0.25500000920E-02 0. -1.
    10030    2    1    2    0    0  0.00000000000E+00  0.00000000000E+00  0.79278568103E+03  0.27830625216E+04  0.26677570847E+04 0.  0.
        5    1    3    3  502    0  0.54779382495E+03  0.12097151631E+04  0.26559001806E+03  0.13542706517E+04  0.46999998093E+01 0. -1.
       -5    1    3    3    0  502 -0.54779382495E+03 -0.12097151631E+04  0.52719566297E+03  0.14287918699E+04  0.46999998093E+01 0.  1.
</event>
<event>
 5   0  0.2529875E-07  0.4048141E+04  0.7818609E-02  0.7994905E-01
       -1   -1    0    0    0  501  0.00000000000E+00  0.00000000000E+00  0.21192484722E+04  0.21192484722E+04  0.50400001928E-02 0. -1.
        1   -1    0    0  501    0  0.00000000000E+00  0.00000000000E+00 -0.19331674164E+04  0.19331674164E+04  0.50400001928E-02 0.  1.
    10030    2    1    2    0    0  0.00000000000E+00  0.00000000000E+00  0.18608105573E+03  0.40524158886E+04  0.40481413482E+04 0.  0.
        1    1    3    3  502    0 -0.10767488985E+04 -0.10874946936E+04 -0.12330579199E+04  0.19653154283E+04  0.50400001928E-02 0.  1.
       -1    1    3    3    0  502  0.10767488985E+04  0.10874946936E+04  0.14191389756E+04  0.20871004603E+04  0.50400001928E-02 0. -1.
</event>
<event>
 5   0  0.8038352E-07  0.3785384E+04  0.7818609E-02  0.8049299E-01
        2   -1    0    0  501    0  0.00000000000E+00  0.00000000000E+00  0.17585306879E+04  0.17585306879E+04  0.25500000920E-02 0. -1.
       -2   -1    0    0    0  501  0.00000000000E+00  0.00000000000E+00 -0.20370889071E+04  0.20370889071E+04  0.25500000920E-02 0.  1.
    10030    2    1    2    0    0  0.00000000000E+00  0.00000000000E+00 -0.27855821915E+03  0.37956195950E+04  0.37853841851E+04 0.  0.
        2    1    3    3  502    0  0.50018966053E+03  0.17656914485E+04 -0.60359422856E+03  0.19318856024E+04  0.25500000920E-02 0.  1.
       -2    1    3    3    0  502 -0.50018966053E+03 -0.17656914485E+04  0.32503600942E+03  0.18637339926E+04  0.25500000920E-02 0. -1.
</event>
<event>
 5   0  0.7638805E-07  0.3755576E+04  0.7818609E-02  0.8055756E-01
       -2   -1    0    0    0  501  0.00000000000E+00  0.00000000000E+00  0.15071351864E+04  0.15071351864E+04  0.25500000920E-02 0. -1.
        2   -1    0    0  501    0  0.00000000000E+00  0.00000000000E+00 -0.23395963587E+04  0.23395963587E+04  0.25500000920E-02 0.  1.
    10030    2    1    2    0    0  0.00000000000E+00  0.00000000000E+00 -0.83246117234E+03  0.38467315451E+04  0.37555761178E+04 0.  0.
        5    1    3    3  502    0 -0.28544554068E+03 -0.17383571413E+04  0.24970473282E+03  0.17792524416E+04  0.46999998093E+01 0.  1.
       -5    1    3    3    0  502  0.28544554068E+03  0.17383571413E+04 -0.10821659052E+04  0.20674791035E+04  0.46999998093E+01 0. -1.
</event>
<event>
 5   0  0.2529875E-07  0.3710420E+04  0.7818609E-02  0.8065656E-01
       -1   -1    0    0    0  501  0.00000000000E+00  0.00000000000E+00  0.20396604704E+04  0.20396604704E+04  0.50400001928E-02 0. -1.
        1   -1    0    0  501    0  0.00000000000E+00  0.00000000000E+00 -0.16874401177E+04  0.16874401177E+04  0.50400001928E-02 0.  1.
    10030    2    1    2    0    0  0.00000000000E+00  0.00000000000E+00  0.35222035273E+03  0.37271005881E+04  0.37104204097E+04 0.  0.
        4    1    3    3  502    0 -0.47095469550E+03  0.56114820229E+03 -0.15359926999E+04  0.17017522785E+04  0.12699999809E+01 0.  1.
       -4    1    3    3    0  502  0.47095469550E+03 -0.56114820229E+03  0.18882130527E+04  0.20253483096E+04  0.12699999809E+01 0. -1.
</event>
<event>
 5   0  0.7638805E-07  0.3737559E+04  0.7818609E-02  0.8059689E-01
        2   -1    0    0  501    0  0.00000000000E+00  0.00000000000E+00  0.23763954635E+04  0.23763954635E+04  0.25500000920E-02 0.  1.
       -2   -1    0    0    0  501  0.00000000000E+00  0.00000000000E+00 -0.14695940081E+04  0.14695940081E+04  0.25500000920E-02 0. -1.
    10030    2    1    2    0    0  0.00000000000E+00  0.00000000000E+00  0.90680145544E+03  0.38459894716E+04  0.37375588472E+04 0.  0.
        5    1    3    3  502    0  0.21684308939E+03 -0.15092038506E+04 -0.65850145954E+03  0.16608321560E+04  0.46999998093E+01 0. -1.
       -5    1    3    3    0  502 -0.21684308939E+03  0.15092038506E+04  0.15653029150E+04  0.21851573156E+04  0.46999998093E+01 0.  1.
</event>
<event>
 5   0  0.2529875E-07  0.2504027E+04  0.7818609E-02  0.8401552E-01
        1   -1    0    0  501    0  0.00000000000E+00  0.00000000000E+00  0.19250031575E+04  0.19250031576E+04  0.50400001928E-02 0.  1.
       -1   -1    0    0    0  501  0.00000000000E+00  0.00000000000E+00 -0.81430405482E+03  0.81430405483E+03  0.50400001928E-02 0. -1.
    10030    2    1    2    0    0  0.00000000000E+00  0.00000000000E+00  0.11106991027E+04  0.27393072124E+04  0.25040270580E+04 0.  0.
        4    1    3    3  502    0  0.64051064527E+03  0.88852980911E+03 -0.10809694748E+03  0.11006478417E+04  0.12699999809E+01 0. -1.
       -4    1    3    3    0  502 -0.64051064527E+03 -0.88852980911E+03  0.12187960502E+04  0.16386593707E+04  0.12699999809E+01 0.  1.
</event>
<event>
 5   0  0.2529875E-07  0.3450280E+04  0.7818609E-02  0.8125675E-01
        1   -1    0    0  501    0  0.00000000000E+00  0.00000000000E+00  0.24027630284E+04  0.24027630284E+04  0.50400001928E-02 0.  1.
       -1   -1    0    0    0  501  0.00000000000E+00  0.00000000000E+00 -0.12386188545E+04  0.12386188546E+04  0.50400001928E-02 0. -1.
    10030    2    1    2    0    0  0.00000000000E+00  0.00000000000E+00  0.11641441738E+04  0.36413818829E+04  0.34502797510E+04 0.  0.
        5    1    3    3  502    0 -0.16421897845E+04  0.52839250053E+03  0.59260362264E+03  0.18240578572E+04  0.46999998093E+01 0.  1.
       -5    1    3    3    0  502  0.16421897845E+04 -0.52839250053E+03  0.57154055118E+03  0.18173240257E+04  0.46999998093E+01 0. -1.
</event>
<event>
 5   0  0.2529875E-07  0.3797511E+04  0.7818609E-02  0.8046689E-01
        1   -1    0    0  501    0  0.00000000000E+00  0.00000000000E+00  0.15309900974E+04  0.15309900974E+04  0.50400001928E-02 0.  1.
       -1   -1    0    0    0  501  0.00000000000E+00  0.00000000000E+00 -0.23548638381E+04  0.23548638381E+04  0.50400001928E-02 0. -1.
    10030    2    1    2    0    0  0.00000000000E+00  0.00000000000E+00 -0.82387374069E+03  0.38858539355E+04  0.37975114045E+04 0.  0.
        5    1    3    3  502    0 -0.11340602461E+04  0.94485376266E+03 -0.16340447664E+04  0.22020367080E+04  0.46999998093E+01 0. -1.
       -5    1    3    3    0  502  0.11340602461E+04 -0.94485376266E+03  0.81017102576E+03  0.16838172275E+04  0.46999998093E+01 0.  1.
</event>
<event>
 5   0  0.2529875E-07  0.3751180E+04  0.7818609E-02  0.8056713E-01
        3   -1    0    0  501    0  0.00000000000E+00  0.00000000000E+00  0.27631435614E+04  0.27631435633E+04  0.10100000352E+00 0. -1.
       -3   -1    0    0    0  501  0.00000000000E+00  0.00000000000E+00 -0.12731291319E+04  0.12731291359E+04  0.10100000352E+00 0.  1.
    10030    2    1    2    0    0  0.00000000000E+00  0.00000000000E+00  0.14900144295E+04  0.40362726991E+04  0.37511803878E+04 0.  0.
        5    1    3    3  502    0  0.80859644096E+03  0.15291115517E+04  0.15252421272E+04  0.23061647769E+04  0.46999998093E+01 0. -1.
       -5    1    3    3    0  502 -0.80859644096E+03 -0.15291115517E+04 -0.35227697688E+02  0.17301079222E+04  0.46999998093E+01 0.  1.
</event>
<event>
 5   0  0.8421677E-07  0.3764947E+04  0.7818609E-02  0.8053719E-01
        2   -1    0    0  501    0  0.00000000000E+00  0.00000000000E+00  0.17462878584E+04  0.17462878584E+04  0.25500000920E-02 0. -1.
       -2   -1    0    0    0  501  0.00000000000E+00  0.00000000000E+00 -0.20292801196E+04  0.20292801196E+04  0.25500000920E-02 0.  1.
    10030    2    1    2    0    0  0.00000000000E+00  0.00000000000E+00 -0.28299226113E+03  0.37755679780E+04  0.37649474016E+04 0.  0.
        3    1    3    3  502    0  0.41352421757E+03  0.36493031339E+02 -0.19828056402E+04  0.20257966919E+04  0.10100000352E+00 0.  1.
       -3    1    3    3    0  502 -0.41352421757E+03 -0.36493031339E+02  0.16998133791E+04  0.17497712861E+04  0.10100000352E+00 0. -1.
</event>
<event>
 5   0  0.2529875E-07  0.3794210E+04  0.7818609E-02  0.8047399E-01
        1   -1    0    0  501    0  0.00000000000E+00  0.00000000000E+00  0.18248838272E+04  0.18248838272E+04  0.50400001928E-02 0.  1.
       -1   -1    0    0    0  501  0.00000000000E+00  0.00000000000E+00 -0.19721839985E+04  0.19721839985E+04  0.50400001928E-02 0. -1.
    10030    2    1    2    0    0  0.00000000000E+00  0.00000000000E+00 -0.14730017129E+03  0.37970678257E+04  0.37942096321E+04 0.  0.
        5    1    3    3  502    0  0.10178408868E+04 -0.14160055213E+04 -0.82114841905E+03  0.19275317179E+04  0.46999998093E+01 0. -1.
       -5    1    3    3    0  502 -0.10178408868E+04  0.14160055213E+04  0.67384824776E+03  0.18695361078E+04  0.46999998093E+01 0.  1.
</event>
<event>
 5   0  0.2529875E-07  0.3836801E+04  0.7818609E-02  0.8038303E-01
       -1   -1    0    0    0  501  0.00000000000E+00  0.00000000000E+00  0.22446244336E+04  0.22446244336E+04  0.50400001928E-02 0. -1.
        1   -1    0    0  501    0  0.00000000000E+00  0.00000000000E+00 -0.16395884145E+04  0.16395884146E+04  0.50400001928E-02 0.  1.
    10030    2    1    2    0    0  0.00000000000E+00  0.00000000000E+00  0.60503601904E+03  0.38842128481E+04  0.38368008634E+04 0.  0.
        5    1    3    3  502    0  0.15109164988E+04  0.38008012443E+03 -0.83064776626E+03  0.17655954715E+04  0.46999998093E+01 0.  1.
       -5    1    3    3    0  502 -0.15109164988E+04 -0.38008012443E+03  0.14356837853E+04  0.21186173767E+04  0.46999998093E+01 0. -1.
</event>
<event>
 5   0  0.8421677E-07  0.3828415E+04  0.7818609E-02  0.8040084E-01
        2   -1    0    0  501    0  0.00000000000E+00  0.00000000000E+00  0.23838287830E+04  0.23838287830E+04  0.25500000920E-02 0.  1.
       -2   -1    0    0    0  501  0.00000000000E+00  0.00000000000E+00 -0.15371031499E+04  0.15371031499E+04  0.25500000920E-02 0. -1.
    10030    2    1    2    0    0  0.00000000000E+00  0.00000000000E+00  0.84672563308E+03  0.39209319329E+04  0.38284151976E+04 0.  0.
        3    1    3    3  502    0  0.14080051825E+04  0.12069408072E+04 -0.62448173637E+02  0.18555550358E+04  0.10100000352E+00 0. -1.
       -3    1    3    3    0  502 -0.14080051825E+04 -0.12069408072E+04  0.90917380672E+03  0.20653768971E+04  0.10100000352E+00 0.  1.
</event>
<event>
 5   0  0.7551495E-07  0.2375683E+04  0.7818609E-02  0.8448664E-01
        2   -1    0    0  501    0  0.00000000000E+00  0.00000000000E+00  0.18238152547E+04  0.18238152547E+04  0.25500000920E-02 0.  1.
       -2   -1    0    0    0  501  0.00000000000E+00  0.00000000000E+00 -0.77363496481E+03  0.77363496482E+03  0.25500000920E-02 0. -1.
    10030    2    1    2    0    0  0.00000000000E+00  0.00000000000E+00  0.10501802899E+04  0.25974502195E+04  0.23756828495E+04 0.  0.
        1    1    3    3  502    0 -0.74704697446E+03  0.26339761138E+03  0.14928798050E+04  0.16900140816E+04  0.50400001928E-02 0.  1.
       -1    1    3    3    0  502  0.74704697446E+03 -0.26339761138E+03 -0.44269951512E+03  0.90743613794E+03  0.50400001928E-02 0. -1.
</event>
<event>
 5   0  0.7649458E-07  0.2628446E+04  0.7818609E-02  0.8358603E-01
        2   -1    0    0  501    0  0.00000000000E+00  0.00000000000E+00  0.84324364889E+03  0.84324364889E+03  0.25500000920E-02 0. -1.
       -2   -1    0    0    0  501  0.00000000000E+00  0.00000000000E+00 -0.20482595877E+04  0.20482595877E+04  0.25500000920E-02 0.  1.
    10030    2    1    2    0    0  0.00000000000E+00  0.00000000000E+00 -0.12050159388E+04  0.28915032365E+04  0.26284458439E+04 0.  0.
        4    1    3    3  502    0 -0.48059018956E+03 -0.21829733204E+02 -0.19479104995E+04  0.20064397311E+04  0.12699999809E+01 0.  1.
       -4    1    3    3    0  502  0.48059018956E+03  0.21829733204E+02  0.74289456069E+03  0.88506350549E+03  0.12699999809E+01 0. -1.
</event>
<event>
 5   0  0.2907071E-07  0.3791485E+04  0.7818609E-02  0.8047985E-01
        1   -1    0    0  501    0  0.00000000000E+00  0.00000000000E+00  0.30359082146E+04  0.30359082146E+04  0.50400001928E-02 0.  1.
       -1   -1    0    0    0  501  0.00000000000E+00  0.00000000000E+00 -0.11837774323E+04  0.11837774323E+04  0.50400001928E-02 0. -1.
    10030    2    1    2    0    0  0.00000000000E+00  0.00000000000E+00  0.18521307823E+04  0.42196856469E+04  0.37914850025E+04 0.  0.
        2    1    3    3  502    0  0.88317809491E+03 -0.16364815023E+04  0.51599003492E+03  0.19298499866E+04  0.25500000920E-02 0.  1.
       -2    1    3    3    0  502 -0.88317809491E+03  0.16364815023E+04  0.13361407474E+04  0.22898356603E+04  0.25500000920E-02 0. -1.
</event>
<event>
 5   0  0.7638805E-07  0.3714343E+04  0.7818609E-02  0.8064791E-01
        2   -1    0    0  501    0  0.00000000000E+00  0.00000000000E+00  0.14267437600E+04  0.14267437600E+04  0.25500000920E-02 0. -1.
       -2   -1    0    0    0  501  0.00000000000E+00  0.00000000000E+00 -0.24174536246E+04  0.24174536246E+04  0.25500000920E-02 0.  1.
    10030    2    1    2    0    0  0.00000000000E+00  0.00000000000E+00 -0.99070986460E+03  0.38441973846E+04  0.37143434812E+04 0.  0.
        5    1    3    3  502    0  0.14177378801E+04 -0.11944956032E+04 -0.38073880494E+03  0.18925603214E+04  0.46999998093E+01 0. -1.
       -5    1    3    3    0  502 -0.14177378801E+04  0.11944956032E+04 -0.60997105966E+03  0.19516370632E+04  0.46999998093E+01 0.  1.
</event>
<event>
 5   0  0.2529875E-07  0.3745661E+04  0.7818609E-02  0.8057917E-01
        1   -1    0    0  501    0  0.00000000000E+00  0.00000000000E+00  0.30327924425E+04  0.30327924425E+04  0.50400001928E-02 0.  1.
       -1   -1    0    0    0  501  0.00000000000E+00  0.00000000000E+00 -0.11565232290E+04  0.11565232290E+04  0.50400001928E-02 0. -1.
    10030    2    1    2    0    0  0.00000000000E+00  0.00000000000E+00  0.18762692135E+04  0.41893156715E+04  0.37456614415E+04 0.  0.
        4    1    3    3  502    0  0.12496158096E+04  0.22216101317E+03 -0.60215442401E+03  0.14048084391E+04  0.12699999809E+01 0. -1.
       -4    1    3    3    0  502 -0.12496158096E+04 -0.22216101317E+03  0.24784236375E+04  0.27845072324E+04  0.12699999809E+01 0.  1.
</event>
<event>
 5   0  0.7551495E-07  0.3417092E+04  0.7818609E-02  0.8133724E-01
       -2   -1    0    0    0  501  0.00000000000E+00  0.00000000000E+00  0.17843734973E+04  0.17843734973E+04  0.25500000920E-02 0. -1.
        2   -1    0    0  501    0  0.00000000000E+00  0.00000000000E+00 -0.16359407695E+04  0.16359407695E+04  0.25500000920E-02 0.  1.
    10030    2    1    2    0    0  0.00000000000E+00  0.00000000000E+00  0.14843272774E+03  0.34203142668E+04  0.34170919521E+04 0.  0.
        1    1    3    3  502    0 -0.28459673526E+03  0.71645357619E+03 -0.14519602357E+04  0.16439250453E+04  0.50400001928E-02 0.  1.
       -1    1    3    3    0  502  0.28459673526E+03 -0.71645357619E+03  0.16003929635E+04  0.17763892214E+04  0.50400001928E-02 0. -1.
</event>
<event>
 5   0  0.7638805E-07  0.3603534E+04  0.7818609E-02  0.8089683E-01
       -2   -1    0    0    0  501  0.00000000000E+00  0.00000000000E+00  0.17022885965E+04  0.17022885965E+04  0.25500000920E-02 0. -1.
        2   -1    0    0  501    0  0.00000000000E+00  0.00000000000E+00 -0.19070582106E+04  0.19070582106E+04  0.25500000920E-02 0.  1.
    10030    2    1    2    0    0  0.00000000000E+00  0.00000000000E+00 -0.20476961416E+03  0.36093468071E+04  0.36035335130E+04 0.  0.
        5    1    3    3  502    0 -0.55535289826E+03  0.10381037003E+04  0.12637308900E+04  0.17271693567E+04  0.46999998093E+01 0. -1.
       -5    1    3    3    0  502  0.55535289826E+03 -0.10381037003E+04 -0.14685005042E+04  0.18821774504E+04  0.46999998093E+01 0.  1.
</event>
<event>
 5   0  0.8038352E-07  0.3813622E+04  0.7818609E-02  0.8043238E-01
        2   -1    0    0  501    0  0.00000000000E+00  0.00000000000E+00  0.15058749224E+04  0.15058749224E+04  0.25500000920E-02 0. -1.
       -2   -1    0    0    0  501  0.00000000000E+00  0.00000000000E+00 -0.24144949281E+04  0.24144949281E+04  0.25500000920E-02 0.  1.
    10030    2    1    2    0    0  0.00000000000E+00  0.00000000000E+00 -0.90862000573E+03  0.39203698505E+04  0.38136215661E+04 0.  0.
        2    1    3    3  502    0  0.18842680142E+04 -0.28322122930E+03 -0.37984518647E+03  0.19429262929E+04  0.25500000920E-02 0.  1.
       -2    1    3    3    0  502 -0.18842680142E+04  0.28322122930E+03 -0.52877481926E+03  0.19774435576E+04  0.25500000920E-02 0. -1.
</event>
<event>
 5   0  0.2529875E-07  0.3778368E+04  0.7818609E-02  0.8050813E-01
        1   -1    0    0  501    0  0.00000000000E+00  0.00000000000E+00  0.11871801296E+04  0.11871801296E+04  0.50400001928E-02 0.  1.
       -1   -1    0    0    0  501  0.00000000000E+00  0.00000000000E+00 -0.30062972626E+04  0.30062972626E+04  0.50400001928E-02 0. -1.
    10030    2    1    2    0    0  0.00000000000E+00  0.00000000000E+00 -0.18191171330E+04  0.41934773922E+04  0.37783680995E+04 0.  0.
        1    1    3    3  502    0 -0.76711415101E+03  0.49568511390E+03  0.92586658349E+03  0.13005371134E+04  0.50400001928E-02 0.  1.
       -1    1    3    3    0  502  0.76711415101E+03 -0.49568511390E+03 -0.27449837165E+04  0.28929402788E+04  0.50400001928E-02 0. -1.
</event>
<event>
 5   0  0.2529875E-07  0.3758026E+04  0.7818609E-02  0.8055223E-01
        1   -1    0    0  501    0  0.00000000000E+00  0.00000000000E+00  0.24687859122E+04  0.24687859122E+04  0.50400001928E-02 0. -1.
       -1   -1    0    0    0  501  0.00000000000E+00  0.00000000000E+00 -0.14301321551E+04  0.14301321551E+04  0.50400001928E-02 0.  1.
    10030    2    1    2    0    0  0.00000000000E+00  0.00000000000E+00  0.10386537571E+04  0.38989180673E+04  0.37580261400E+04 0.  0.
        4    1    3    3  502    0 -0.78407695648E+03 -0.34478140380E+03 -0.12158089025E+04  0.14872268793E+04  0.12699999809E+01 0.  1.
       -4    1    3    3    0  502  0.78407695648E+03  0.34478140380E+03  0.22544626596E+04  0.24116911881E+04  0.12699999809E+01 0. -1.
</event>
<event>
 5   0  0.8038352E-07  0.3756614E+04  0.7818609E-02  0.8055530E-01
        2   -1    0    0  501    0  0.00000000000E+00  0.00000000000E+00  0.22063244148E+04  0.22063244148E+04  0.25500000920E-02 0. -1.
       -2   -1    0    0    0  501  0.00000000000E+00  0.00000000000E+00 -0.15990560186E+04  0.15990560186E+04  0.25500000920E-02 0.  1.
    10030    2    1    2    0    0  0.00000000000E+00  0.00000000000E+00  0.60726839623E+03  0.38053804335E+04  0.37566135466E+04 0.  0.
        2    1    3    3  502    0  0.11207899764E+04  0.11561212731E+04  0.12832716150E+04  0.20590222454E+04  0.25500000920E-02 0. -1.
       -2    1    3    3    0  502 -0.11207899764E+04 -0.11561212731E+04 -0.67600321879E+03  0.17463581881E+04  0.25500000920E-02 0.  1.
</event>
<event>
 5   0  0.7638805E-07  0.2951870E+04  0.7818609E-02  0.8257610E-01
       -2   -1    0    0    0  501  0.00000000000E+00  0.00000000000E+00  0.14653665741E+04  0.14653665742E+04  0.25500000920E-02 0.  1.
        2   -1    0    0  501    0  0.00000000000E+00  0.00000000000E+00 -0.14865794110E+04  0.14865794110E+04  0.25500000920E-02 0. -1.
    10030    2    1    2    0    0  0.00000000000E+00  0.00000000000E+00 -0.21212836836E+02  0.29519459851E+04  0.29518697659E+04 0.  0.
        5    1    3    3  502    0  0.67813846053E+03  0.11225493539E+04  0.66644345887E+03  0.14711076771E+04  0.46999998093E+01 0.  1.
       -5    1    3    3    0  502 -0.67813846053E+03 -0.11225493539E+04 -0.68765629571E+03  0.14808383081E+04  0.46999998093E+01 0. -1.
</event>
<event>
 5   0  0.2529875E-07  0.3242599E+04  0.7818609E-02  0.8177657E-01
       -1   -1    0    0    0  501  0.00000000000E+00  0.00000000000E+00  0.14907950039E+04  0.14907950039E+04  0.50400001928E-02 0. -1.
        1   -1    0    0  501    0  0.00000000000E+00  0.00000000000E+00 -0.17632286525E+04  0.17632286525E+04  0.50400001928E-02 0.  1.
    10030    2    1    2    0    0  0.00000000000E+00  0.00000000000E+00 -0.27243364865E+03  0.32540236564E+04  0.32425992450E+04 0.  0.
        1    1    3    3  502    0  0.12809489138E+04 -0.51044722227E+03 -0.99199680194E+03  0.16986595132E+04  0.50400001928E-02 0.  1.
       -1    1    3    3    0  502 -0.12809489138E+04  0.51044722227E+03  0.71956315329E+03  0.15553641433E+04  0.50400001928E-02 0. -1.
</event>
<event>
 5   0  0.2907071E-07  0.3412157E+04  0.7818609E-02  0.8134929E-01
       -1   -1    0    0    0  501  0.00000000000E+00  0.00000000000E+00  0.16518309968E+04  0.16518309969E+04  0.50400001928E-02 0.  1.
        1   -1    0    0  501    0  0.00000000000E+00  0.00000000000E+00 -0.17621079979E+04  0.17621079979E+04  0.50400001928E-02 0. -1.
    10030    2    1    2    0    0  0.00000000000E+00  0.00000000000E+00 -0.11027700108E+03  0.34139389948E+04  0.34121574470E+04 0.  0.
        2    1    3    3  502    0  0.20478668315E+03 -0.83215567086E+03  0.14208551006E+04  0.16592919764E+04  0.25500000920E-02 0.  1.
       -2    1    3    3    0  502 -0.20478668315E+03  0.83215567086E+03 -0.15311321017E+04  0.17546470183E+04  0.25500000920E-02 0. -1.
</event>
<event>
 5   0  0.7649458E-07  0.3194812E+04  0.7818609E-02  0.8190189E-01
       -2   -1    0    0    0  501  0.00000000000E+00  0.00000000000E+00  0.10931880189E+04  0.10931880189E+04  0.25500000920E-02 0.  1.
        2   -1    0    0  501    0  0.00000000000E+00  0.00000000000E+00 -0.23341872199E+04  0.23341872199E+04  0.25500000920E-02 0. -1.
    10030    2    1    2    0    0  0.00000000000E+00  0.00000000000E+00 -0.12409992010E+04  0.34273752387E+04  0.31948117331E+04 0.  0.
        4    1    3    3  502    0  0.69861633625E+03 -0.89142697291E+03  0.58800050156E+03  0.12761085518E+04  0.12699999809E+01 0.  1.
       -4    1    3    3    0  502 -0.69861633625E+03  0.89142697291E+03 -0.18289997026E+04  0.21512666869E+04  0.12699999809E+01 0. -1.
</event>
<event>
 5   0  0.2529875E-07  0.3796131E+04  0.7818609E-02  0.8046986E-01
       -3   -1    0    0    0  501  0.00000000000E+00  0.00000000000E+00  0.11490323182E+04  0.11490323226E+04  0.10100000352E+00 0.  1.
        3   -1    0    0  501    0  0.00000000000E+00  0.00000000000E+00 -0.31353792507E+04  0.31353792523E+04  0.10100000352E+00 0. -1.
    10030    2    1    2    0    0  0.00000000000E+00  0.00000000000E+00 -0.19863469325E+04  0.42844115749E+04  0.37961307152E+04 0.  0.
        1    1    3    3  502    0 -0.14090224608E+04  0.16205380360E+03  0.43043789171E+03  0.14821884188E+04  0.50400001928E-02 0.  1.
       -1    1    3    3    0  502  0.14090224608E+04 -0.16205380360E+03 -0.24167848242E+04  0.28022231561E+04  0.50400001928E-02 0. -1.
</event>
<event>
 5   0  0.7649458E-07  0.3723797E+04  0.7818609E-02  0.8062708E-01
        2   -1    0    0  501    0  0.00000000000E+00  0.00000000000E+00  0.24234139249E+04  0.24234139249E+04  0.25500000920E-02 0. -1.
       -2   -1    0    0    0  501  0.00000000000E+00  0.00000000000E+00 -0.14304887225E+04  0.14304887225E+04  0.25500000920E-02 0.  1.
    10030    2    1    2    0    0  0.00000000000E+00  0.00000000000E+00  0.99292520238E+03  0.38539026474E+04  0.37237971424E+04 0.  0.
        4    1    3    3  502    0  0.11368143638E+04 -0.12218493716E+04 -0.35784917531E+03  0.17068451687E+04  0.12699999809E+01 0.  1.
       -4    1    3    3    0  502 -0.11368143638E+04  0.12218493716E+04  0.13507743777E+04  0.21470574787E+04  0.12699999809E+01 0. -1.
</event>
<event>
 5   0  0.7649458E-07  0.3740315E+04  0.7818609E-02  0.8059086E-01
        2   -1    0    0  501    0  0.00000000000E+00  0.00000000000E+00  0.22398898122E+04  0.22398898122E+04  0.25500000920E-02 0. -1.
       -2   -1    0    0    0  501  0.00000000000E+00  0.00000000000E+00 -0.15614559078E+04  0.15614559078E+04  0.25500000920E-02 0.  1.
    10030    2    1    2    0    0  0.00000000000E+00  0.00000000000E+00  0.67843390444E+03  0.38013457200E+04  0.37403150563E+04 0.  0.
        4    1    3    3  502    0  0.85168668006E+01 -0.42813147269E+03  0.21893936134E+04  0.22308776529E+04  0.12699999809E+01 0. -1.
       -4    1    3    3    0  502 -0.85168668006E+01  0.42813147269E+03 -0.15109597089E+04  0.15704680671E+04  0.12699999809E+01 0.  1.
</event>
<event>
 5   0  0.8421677E-07  0.3784634E+04  0.7818609E-02  0.8049461E-01
       -2   -1    0    0    0  501  0.00000000000E+00  0.00000000000E+00  0.15087912617E+04  0.15087912617E+04  0.25500000920E-02 0. -1.
        2   -1    0    0  501    0  0.00000000000E+00  0.00000000000E+00 -0.23733321957E+04  0.23733321957E+04  0.25500000920E-02 0.  1.
    10030    2    1    2    0    0  0.00000000000E+00  0.00000000000E+00 -0.86454093399E+03  0.38821234575E+04  0.37846336035E+04 0.  0.
        3    1    3    3  502    0  0.43607905093E+03  0.16497586533E+04 -0.12712603328E+04  0.21279030516E+04  0.10100000352E+00 0.  1.
       -3    1    3    3    0  502 -0.43607905093E+03 -0.16497586533E+04  0.40671939880E+03  0.17542204059E+04  0.10100000352E+00 0. -1.
</event>
<event>
 5   0  0.2907071E-07  0.3774647E+04  0.7818609E-02  0.8051618E-01
       -1   -1    0    0    0  501  0.00000000000E+00  0.00000000000E+00  0.24674965300E+04  0.24674965300E+04  0.50400001928E-02 0.  1.
        1   -1    0    0  501    0  0.00000000000E+00  0.00000000000E+00 -0.14435644834E+04  0.14435644834E+04  0.50400001928E-02 0. -1.
    10030    2    1    2    0    0  0.00000000000E+00  0.00000000000E+00  0.10239320466E+04  0.39110610134E+04  0.37746471907E+04 0.  0.
        2    1    3    3  502    0  0.75169043836E+02  0.13978079215E+04 -0.79967074981E+03  0.16121385420E+04  0.25500000920E-02 0. -1.
       -2    1    3    3    0  502 -0.75169043836E+02 -0.13978079215E+04  0.18236027964E+04  0.22989224714E+04  0.25500000920E-02 0.  1.
</event>
<event>
 5   0  0.2529875E-07  0.3452941E+04  0.7818609E-02  0.8125034E-01
        1   -1    0    0  501    0  0.00000000000E+00  0.00000000000E+00  0.20123096421E+04  0.20123096421E+04  0.50400001928E-02 0.  1.
       -1   -1    0    0    0  501  0.00000000000E+00  0.00000000000E+00 -0.14812338689E+04  0.14812338689E+04  0.50400001928E-02 0. -1.
    10030    2    1    2    0    0  0.00000000000E+00  0.00000000000E+00  0.53107577323E+03  0.34935435110E+04  0.34529414687E+04 0.  0.
        1    1    3    3  502    0 -0.12576957401E+04 -0.11625181105E+04  0.45136377397E+02  0.17132671200E+04  0.50400001928E-02 0. -1.
       -1    1    3    3    0  502  0.12576957401E+04  0.11625181105E+04  0.48593939583E+03  0.17802763910E+04  0.50400001928E-02 0.  1.
</event>
<event>
 5   0  0.2529875E-07  0.3802498E+04  0.7818609E-02  0.8045619E-01
       -3   -1    0    0    0  501  0.00000000000E+00  0.00000000000E+00  0.19801904836E+04  0.19801904862E+04  0.10100000352E+00 0. -1.
        3   -1    0    0  501    0  0.00000000000E+00  0.00000000000E+00 -0.18254548268E+04  0.18254548295E+04  0.10100000352E+00 0.  1.
    10030    2    1    2    0    0  0.00000000000E+00  0.00000000000E+00  0.15473565689E+03  0.38056453158E+04  0.38024982769E+04 0.  0.
        2    1    3    3  502    0 -0.93954505730E+03  0.29383518758E+02  0.17313516752E+04  0.19700728233E+04  0.25500000920E-02 0. -1.
       -2    1    3    3    0  502  0.93954505730E+03 -0.29383518758E+02 -0.15766160183E+04  0.18355724925E+04  0.25500000920E-02 0.  1.
</event>
<event>
 5   0  0.7551495E-07  0.3813906E+04  0.7818609E-02  0.8043177E-01
        2   -1    0    0  501    0  0.00000000000E+00  0.00000000000E+00  0.22512719274E+04  0.22512719274E+04  0.25500000920E-02 0.  1.
       -2   -1    0    0    0  501  0.00000000000E+00  0.00000000000E+00 -0.16152956312E+04  0.16152956312E+04  0.25500000920E-02 0. -1.
    10030    2    1    2    0    0  0.00000000000E+00  0.00000000000E+00  0.63597629621E+03  0.38665675585E+04  0.38139059814E+04 0.  0.
        1    1    3    3  502    0  0.15115441584E+04 -0.27778936966E+03  0.14625304515E+04  0.21215390636E+04  0.50400001928E-02 0.  1.
       -1    1    3    3    0  502 -0.15115441584E+04  0.27778936966E+03 -0.82655415530E+03  0.17450284950E+04  0.50400001928E-02 0. -1.
</event>
<event>
 5   0  0.7638805E-07  0.3810949E+04  0.7818609E-02  0.8043809E-01
       -2   -1    0    0    0  501  0.00000000000E+00  0.00000000000E+00  0.21057804937E+04  0.21057804937E+04  0.25500000920E-02 0. -1.
        2   -1    0    0  501    0  0.00000000000E+00  0.00000000000E+00 -0.17242222739E+04  0.17242222739E+04  0.25500000920E-02 0.  1.
    10030    2    1    2    0    0  0.00000000000E+00  0.00000000000E+00  0.38155821982E+03  0.38300027675E+04  0.38109492943E+04 0.  0.
        5    1    3    3  502    0  0.27442160999E+03  0.72307389798E+03  0.19409416520E+04  0.20893586739E+04  0.46999998093E+01 0. -1.
       -5    1    3    3    0  502 -0.27442160999E+03 -0.72307389798E+03 -0.15593834322E+04  0.17406440936E+04  0.46999998093E+01 0.  1.
</event>
<event>
 5   0  0.7649458E-07  0.3904130E+04  0.7818609E-02  0.8024171E-01
       -2   -1    0    0    0  501  0.00000000000E+00  0.00000000000E+00  0.23306622702E+04  0.23306622702E+04  0.25500000920E-02 0.  1.
        2   -1    0    0  501    0  0.00000000000E+00  0.00000000000E+00 -0.16349677197E+04  0.16349677197E+04  0.25500000920E-02 0. -1.
    10030    2    1    2    0    0  0.00000000000E+00  0.00000000000E+00  0.69569455051E+03  0.39656299898E+04  0.39041299042E+04 0.  0.
        4    1    3    3  502    0  0.34685159456E+03  0.38461994435E+03 -0.15639052335E+04  0.16474342847E+04  0.12699999809E+01 0. -1.
       -4    1    3    3    0  502 -0.34685159456E+03 -0.38461994435E+03  0.22595997840E+04  0.23181957051E+04  0.12699999809E+01 0.  1.
</event>
<event>
 5   0  0.2529875E-07  0.3937667E+04  0.7818609E-02  0.8017240E-01
       -1   -1    0    0    0  501  0.00000000000E+00  0.00000000000E+00  0.22656556056E+04  0.22656556056E+04  0.50400001928E-02 0. -1.
        1   -1    0    0  501    0  0.00000000000E+00  0.00000000000E+00 -0.17108977842E+04  0.17108977843E+04  0.50400001928E-02 0.  1.
    10030    2    1    2    0    0  0.00000000000E+00  0.00000000000E+00  0.55475782136E+03  0.39765533899E+04  0.39376669009E+04 0.  0.
        5    1    3    3  502    0 -0.14423902878E+04 -0.43152148735E+03 -0.10038433254E+04  0.18095369707E+04  0.46999998093E+01 0.  1.
       -5    1    3    3    0  502  0.14423902878E+04  0.43152148735E+03  0.15586011468E+04  0.21670164192E+04  0.46999998093E+01 0. -1.
</event>
<event>
 5   0  0.2529875E-07  0.3957787E+04  0.7818609E-02  0.8013117E-01
       -1   -1    0    0    0  501  0.00000000000E+00  0.00000000000E+00  0.17786932522E+04  0.17786932522E+04  0.50400001928E-02 0. -1.
        1   -1    0    0  501    0  0.00000000000E+00  0.00000000000E+00 -0.22016272905E+04  0.22016272906E+04  0.50400001928E-02 0.  1.
    10030    2    1    2    0    0  0.00000000000E+00  0.00000000000E+00 -0.42293403839E+03  0.39803205427E+04  0.39577870612E+04 0.  0.
        3    1    3    3  502    0  0.38862255341E+03 -0.17414471498E+04  0.64918210683E+03  0.18987109002E+04  0.10100000352E+00 0. -1.
       -3    1    3    3    0  502 -0.38862255341E+03  0.17414471498E+04 -0.10721161452E+04  0.20816096425E+04  0.10100000352E+00 0.  1.
</event>
<event>
 5   0  0.2907071E-07  0.2738681E+04  0.7818609E-02  0.8322562E-01
        1   -1    0    0  501    0  0.00000000000E+00  0.00000000000E+00  0.25083826051E+04  0.25083826051E+04  0.50400001928E-02 0. -1.
       -1   -1    0    0    0  501  0.00000000000E+00  0.00000000000E+00 -0.74753097484E+03  0.74753097486E+03  0.50400001928E-02 0.  1.
    10030    2    1    2    0    0  0.00000000000E+00  0.00000000000E+00  0.17608516303E+04  0.32559135800E+04  0.27386812112E+04 0.  0.
        2    1    3    3  502    0  0.94981606918E+03 -0.30638520928E+03  0.19950883925E+04  0.22307846502E+04  0.25500000920E-02 0. -1.
       -2    1    3    3    0  502 -0.94981606918E+03  0.30638520928E+03 -0.23423676228E+03  0.10251289297E+04  0.25500000920E-02 0.  1.
</event>
<event>
 5   0  0.2907071E-07  0.3804093E+04  0.7818609E-02  0.8045277E-01
       -1   -1    0    0    0  501  0.00000000000E+00  0.00000000000E+00  0.12263038925E+04  0.12263038925E+04  0.50400001928E-02 0. -1.
        1   -1    0    0  501    0  0.00000000000E+00  0.00000000000E+00 -0.29501498246E+04  0.29501498246E+04  0.50400001928E-02 0.  1.
    10030    2    1    2    0    0  0.00000000000E+00  0.00000000000E+00 -0.17238459321E+04  0.41764537171E+04  0.38040926452E+04 0.  0.
        2    1    3    3  502    0 -0.44513552176E+03  0.17699416839E+04 -0.27382063096E+03  0.18454855554E+04  0.25500000920E-02 0.  1.
       -2    1    3    3    0  502  0.44513552176E+03 -0.17699416839E+04 -0.14500253011E+04  0.23309681617E+04  0.25500000920E-02 0. -1.
</event>
<event>
 5   0  0.2529875E-07  0.3807679E+04  0.7818609E-02  0.8044509E-01
        1   -1    0    0  501    0  0.00000000000E+00  0.00000000000E+00  0.16570729326E+04  0.16570729326E+04  0.50400001928E-02 0.  1.
       -1   -1    0    0    0  501  0.00000000000E+00  0.00000000000E+00 -0.21873533067E+04  0.21873533067E+04  0.50400001928E-02 0. -1.
    10030    2    1    2    0    0  0.00000000000E+00  0.00000000000E+00 -0.53028037410E+03  0.38444262393E+04  0.38076785361E+04 0.  0.
        5    1    3    3  502    0  0.76830655647E+03 -0.68600872748E+03  0.13514616721E+04  0.16992273773E+04  0.46999998093E+01 0.  1.
       -5    1    3    3    0  502 -0.76830655647E+03  0.68600872748E+03 -0.18817420462E+04  0.21451988619E+04  0.46999998093E+01 0. -1.
</event>
<event>
 5   0  0.7551495E-07  0.3771677E+04  0.7818609E-02  0.8052260E-01
       -2   -1    0    0    0  501  0.00000000000E+00  0.00000000000E+00  0.15472314467E+04  0.15472314467E+04  0.25500000920E-02 0.  1.
        2   -1    0    0  501    0  0.00000000000E+00  0.00000000000E+00 -0.22985489941E+04  0.22985489941E+04  0.25500000920E-02 0. -1.
    10030    2    1    2    0    0  0.00000000000E+00  0.00000000000E+00 -0.75131754744E+03  0.38457804409E+04  0.37716772320E+04 0.  0.
        1    1    3    3  502    0  0.57164439364E+03 -0.16664469954E+04  0.31028758131E+03  0.17888826916E+04  0.50400001928E-02 0. -1.
       -1    1    3    3    0  502 -0.57164439364E+03  0.16664469954E+04 -0.10616051287E+04  0.20568977492E+04  0.50400001928E-02 0.  1.
</event>
<event>
 5   0  0.2529875E-07  0.3764500E+04  0.7818609E-02  0.8053816E-01
        1   -1    0    0  501    0  0.00000000000E+00  0.00000000000E+00  0.11490375724E+04  0.11490375724E+04  0.50400001928E-02 0.  1.
       -1   -1    0    0    0  501  0.00000000000E+00  0.00000000000E+00 -0.30833332956E+04  0.30833332956E+04  0.50400001928E-02 0. -1.
    10030    2    1    2    0    0  0.00000000000E+00  0.00000000000E+00 -0.19342957232E+04  0.42323708680E+04  0.37645003944E+04 0.  0.
        4    1    3    3  502    0  0.17325169686E+03  0.57609645993E+03 -0.29723378869E+04  0.30326057127E+04  0.12699999809E+01 0. -1.
       -4    1    3    3    0  502 -0.17325169686E+03 -0.57609645993E+03  0.10380421637E+04  0.11997651554E+04  0.12699999809E+01 0.  1.
</event>
<event>
 5   0  0.2529875E-07  0.2930800E+04  0.7818609E-02  0.8263772E-01
       -1   -1    0    0    0  501  0.00000000000E+00  0.00000000000E+00  0.16413722999E+04  0.16413722999E+04  0.50400001928E-02 0.  1.
        1   -1    0    0  501    0  0.00000000000E+00  0.00000000000E+00 -0.13082937967E+04  0.13082937967E+04  0.50400001928E-02 0. -1.
    10030    2    1    2    0    0  0.00000000000E+00  0.00000000000E+00  0.33307850324E+03  0.29496660966E+04  0.29308000259E+04 0.  0.
        1    1    3    3  502    0 -0.79077875791E+01 -0.13498524135E+04  0.74050246304E+03  0.15396454037E+04  0.50400001928E-02 0.  1.
       -1    1    3    3    0  502  0.79077875791E+01  0.13498524135E+04 -0.40742395981E+03  0.14100206929E+04  0.50400001928E-02 0. -1.
</event>
<event>
 5   0  0.7649458E-07  0.3727846E+04  0.7818609E-02  0.8061819E-01
        2   -1    0    0  501    0  0.00000000000E+00  0.00000000000E+00  0.22843105345E+04  0.22843105345E+04  0.25500000920E-02 0. -1.
       -2   -1    0    0    0  501  0.00000000000E+00  0.00000000000E+00 -0.15209002755E+04  0.15209002755E+04  0.25500000920E-02 0.  1.
    10030    2    1    2    0    0  0.00000000000E+00  0.00000000000E+00  0.76341025894E+03  0.38052108100E+04  0.37278457701E+04 0.  0.
        4    1    3    3  502    0  0.16524142667E+04 -0.31069617976E+03  0.12028894941E+04  0.20673533256E+04  0.12699999809E+01 0. -1.
       -4    1    3    3    0  502 -0.16524142667E+04  0.31069617976E+03 -0.43947923516E+03  0.17378574844E+04  0.12699999809E+01 0.  1.
</event>
<event>
 5   0  0.2529875E-07  0.2627032E+04  0.7818609E-02  0.8359077E-01
       -1   -1    0    0    0  501  0.00000000000E+00  0.00000000000E+00  0.97865783177E+03  0.97865783178E+03  0.50400001928E-02 0. -1.
        1   -1    0    0  501    0  0.00000000000E+00  0.00000000000E+00 -0.17629494822E+04  0.17629494822E+04  0.50400001928E-02 0.  1.
    10030    2    1    2    0    0  0.00000000000E+00  0.00000000000E+00 -0.78429165039E+03  0.27416073139E+04  0.26270320270E+04 0.  0.
        5    1    3    3  502    0 -0.36608787905E+03 -0.68897539584E+03 -0.14949227813E+04  0.16862750793E+04  0.46999998093E+01 0.  1.
       -5    1    3    3    0  502  0.36608787905E+03  0.68897539584E+03  0.71063113087E+03  0.10553322346E+04  0.46999998093E+01 0. -1.
</event>
<event>
 5   0  0.2529875E-07  0.3584617E+04  0.7818609E-02  0.8094024E-01
       -3   -1    0    0    0  501  0.00000000000E+00  0.00000000000E+00  0.16184733023E+04  0.16184733055E+04  0.10100000352E+00 0. -1.
        3   -1    0    0  501    0  0.00000000000E+00  0.00000000000E+00 -0.19848148807E+04  0.19848148832E+04  0.10100000352E+00 0.  1.
    10030    2    1    2    0    0  0.00000000000E+00  0.00000000000E+00 -0.36634157835E+03  0.36032881887E+04  0.35846170812E+04 0.  0.
        2    1    3    3  502    0  0.17894815535E+04  0.58677246506E+02 -0.26534409384E+03  0.18099985463E+04  0.25500000920E-02 0.  1.
       -2    1    3    3    0  502 -0.17894815535E+04 -0.58677246506E+02 -0.10099748451E+03  0.17932896424E+04  0.25500000920E-02 0. -1.
</event>
<event>
 5   0  0.2529875E-07  0.3552892E+04  0.7818609E-02  0.8101368E-01
        1   -1    0    0  501    0  0.00000000000E+00  0.00000000000E+00  0.21339674365E+04  0.21339674365E+04  0.50400001928E-02 0. -1.
       -1   -1    0    0    0  501  0.00000000000E+00  0.00000000000E+00 -0.14788230544E+04  0.14788230544E+04  0.50400001928E-02 0.  1.
    10030    2    1    2    0    0  0.00000000000E+00  0.00000000000E+00  0.65514438210E+03  0.36127904909E+04  0.35528919164E+04 0.  0.
        4    1    3    3  502    0 -0.75469271977E+03  0.47447874023E+03  0.18900540315E+04  0.20897361152E+04  0.12699999809E+01 0. -1.
       -4    1    3    3    0  502  0.75469271977E+03 -0.47447874023E+03 -0.12349096494E+04  0.15230543757E+04  0.12699999809E+01 0.  1.
</event>
<event>
 5   0  0.7551495E-07  0.3781350E+04  0.7818609E-02  0.8050169E-01
        2   -1    0    0  501    0  0.00000000000E+00  0.00000000000E+00  0.27643130242E+04  0.27643130242E+04  0.25500000920E-02 0. -1.
       -2   -1    0    0    0  501  0.00000000000E+00  0.00000000000E+00 -0.12931432040E+04  0.12931432040E+04  0.25500000920E-02 0.  1.
    10030    2    1    2    0    0  0.00000000000E+00  0.00000000000E+00  0.14711698202E+04  0.40574562281E+04  0.37813503413E+04 0.  0.
        1    1    3    3  502    0  0.10126754675E+04  0.14887842733E+04  0.11670159289E+03  0.18043307559E+04  0.50400001928E-02 0.  1.
       -1    1    3    3    0  502 -0.10126754675E+04 -0.14887842733E+04  0.13544682273E+04  0.22531254722E+04  0.50400001928E-02 0. -1.
</event>
<event>
 5   0  0.2529875E-07  0.2822850E+04  0.7818609E-02  0.8296209E-01
       -1   -1    0    0    0  501  0.00000000000E+00  0.00000000000E+00  0.10274945931E+04  0.10274945931E+04  0.50400001928E-02 0. -1.
        1   -1    0    0  501    0  0.00000000000E+00  0.00000000000E+00 -0.19388131319E+04  0.19388131319E+04  0.50400001928E-02 0.  1.
    10030    2    1    2    0    0  0.00000000000E+00  0.00000000000E+00 -0.91131853883E+03  0.29663077250E+04  0.28228496311E+04 0.  0.
        4    1    3    3  502    0 -0.10826654314E+04 -0.97617840519E+02 -0.14016454618E+04  0.17737827636E+04  0.12699999809E+01 0.  1.
       -4    1    3    3    0  502  0.10826654314E+04  0.97617840519E+02  0.49032692297E+03  0.11925249613E+04  0.12699999809E+01 0. -1.
</event>
<event>
 5   0  0.7551495E-07  0.3752674E+04  0.7818609E-02  0.8056388E-01
        2   -1    0    0  501    0  0.00000000000E+00  0.00000000000E+00  0.15389099854E+04  0.15389099854E+04  0.25500000920E-02 0. -1.
       -2   -1    0    0    0  501  0.00000000000E+00  0.00000000000E+00 -0.22877493065E+04  0.22877493065E+04  0.25500000920E-02 0.  1.
    10030    2    1    2    0    0  0.00000000000E+00  0.00000000000E+00 -0.74883932107E+03  0.38266592919E+04  0.37526738477E+04 0.  0.
        1    1    3    3  502    0  0.20877600510E+03  0.18418866249E+04 -0.67085092991E+03  0.19713383093E+04  0.50400001928E-02 0. -1.
       -1    1    3    3    0  502 -0.20877600510E+03 -0.18418866249E+04 -0.77988391166E+02  0.18553209826E+04  0.50400001928E-02 0.  1.
</event>
<event>
 5   0  0.8421677E-07  0.3714428E+04  0.7818609E-02  0.8064772E-01
        2   -1    0    0  501    0  0.00000000000E+00  0.00000000000E+00  0.24502279288E+04  0.24502279289E+04  0.25500000920E-02 0. -1.
       -2   -1    0    0    0  501  0.00000000000E+00  0.00000000000E+00 -0.14077232963E+04  0.14077232963E+04  0.25500000920E-02 0.  1.
    10030    2    1    2    0    0  0.00000000000E+00  0.00000000000E+00  0.10425046325E+04  0.38579512252E+04  0.37144275127E+04 0.  0.
        3    1    3    3  502    0 -0.63241709170E+03  0.10291985661E+03 -0.12892900447E+04  0.14397266075E+04  0.10100000352E+00 0.  1.
       -3    1    3    3    0  502  0.63241709170E+03 -0.10291985661E+03  0.23317946772E+04  0.24182246177E+04  0.10100000352E+00 0. -1.
</event>
<event>
 5   0  0.8421677E-07  0.3835687E+04  0.7818609E-02  0.8038540E-01
       -2   -1    0    0    0  501  0.00000000000E+00  0.00000000000E+00  0.13824747040E+04  0.13824747040E+04  0.25500000920E-02 0.  1.
        2   -1    0    0  501    0  0.00000000000E+00  0.00000000000E+00 -0.26605357075E+04  0.26605357075E+04  0.25500000920E-02 0. -1.
    10030    2    1    2    0    0  0.00000000000E+00  0.00000000000E+00 -0.12780610035E+04  0.40430104115E+04  0.38356868041E+04 0.  0.
        3    1    3    3  502    0  0.11839505461E+04 -0.32915825885E+03  0.91298227225E+03  0.15308888577E+04  0.10100000352E+00 0.  1.
       -3    1    3    3    0  502 -0.11839505461E+04  0.32915825885E+03 -0.21910432758E+04  0.25121215539E+04  0.10100000352E+00 0. -1.
</event>
<event>
 5   0  0.2529875E-07  0.3833625E+04  0.7818609E-02  0.8038977E-01
       -1   -1    0    0    0  501  0.00000000000E+00  0.00000000000E+00  0.20362511299E+04  0.20362511299E+04  0.50400001928E-02 0.  1.
        1   -1    0    0  501    0  0.00000000000E+00  0.00000000000E+00 -0.18043796531E+04  0.18043796531E+04  0.50400001928E-02 0. -1.
    10030    2    1    2    0    0  0.00000000000E+00  0.00000000000E+00  0.23187147674E+03  0.38406307830E+04  0.38336249725E+04 0.  0.
        1    1    3    3  502    0 -0.12787371230E+03  0.86913985617E+03  0.18226964534E+04  0.20233581337E+04  0.50400001928E-02 0.  1.
       -1    1    3    3    0  502  0.12787371230E+03 -0.86913985617E+03 -0.15908249766E+04  0.18172726494E+04  0.50400001928E-02 0. -1.
</event>
<event>
 5   0  0.2529875E-07  0.3882399E+04  0.7818609E-02  0.8028700E-01
       -1   -1    0    0    0  501  0.00000000000E+00  0.00000000000E+00  0.22023000363E+04  0.22023000363E+04  0.50400001928E-02 0.  1.
        1   -1    0    0  501    0  0.00000000000E+00  0.00000000000E+00 -0.17110543598E+04  0.17110543598E+04  0.50400001928E-02 0. -1.
    10030    2    1    2    0    0  0.00000000000E+00  0.00000000000E+00  0.49124567646E+03  0.39133543961E+04  0.38823987836E+04 0.  0.
        5    1    3    3  502    0  0.49346471939E+03  0.72819418953E+03 -0.14986250554E+04  0.17377207352E+04  0.46999998093E+01 0. -1.
       -5    1    3    3    0  502 -0.49346471939E+03 -0.72819418953E+03  0.19898707319E+04  0.21756336609E+04  0.46999998093E+01 0.  1.
</event>
<event>
 5   0  0.8421677E-07  0.3788904E+04  0.7818609E-02  0.8048540E-01
       -2   -1    0    0    0  501  0.00000000000E+00  0.00000000000E+00  0.16882140074E+04  0.16882140074E+04  0.25500000920E-02 0. -1.
        2   -1    0    0  501    0  0.00000000000E+00  0.00000000000E+00 -0.21258846368E+04  0.21258846368E+04  0.25500000920E-02 0.  1.
    10030    2    1    2    0    0  0.00000000000E+00  0.00000000000E+00 -0.43767062944E+03  0.38140986442E+04  0.37889039164E+04 0.  0.
        3    1    3    3  502    0  0.76419196480E+03  0.84247382728E+03  0.13062294411E+04  0.17320470178E+04  0.10100000352E+00 0. -1.
       -3    1    3    3    0  502 -0.76419196480E+03 -0.84247382728E+03 -0.17439000706E+04  0.20820516264E+04  0.10100000352E+00 0.  1.
</event>
<event>
 5   0  0.2529875E-07  0.3881812E+04  0.7818609E-02  0.8028823E-01
       -1   -1    0    0    0  501  0.00000000000E+00  0.00000000000E+00  0.12202169472E+04  0.12202169472E+04  0.50400001928E-02 0.  1.
        1   -1    0    0  501    0  0.00000000000E+00  0.00000000000E+00 -0.30872514957E+04  0.30872514957E+04  0.50400001928E-02 0. -1.
    10030    2    1    2    0    0  0.00000000000E+00  0.00000000000E+00 -0.18670345485E+04  0.43074684430E+04  0.38818122548E+04 0.  0.
        5    1    3    3  502    0  0.12256345887E+04  0.13771834751E+04 -0.26011176301E+03  0.18618524883E+04  0.46999998093E+01 0. -1.
       -5    1    3    3    0  502 -0.12256345887E+04 -0.13771834751E+04 -0.16069227855E+04  0.24456159546E+04  0.46999998093E+01 0.  1.
</event>
<event>
 5   0  0.8038352E-07  0.3758440E+04  0.7818609E-02  0.8055133E-01
       -2   -1    0    0    0  501  0.00000000000E+00  0.00000000000E+00  0.14952114614E+04  0.14952114614E+04  0.25500000920E-02 0. -1.
        2   -1    0    0  501    0  0.00000000000E+00  0.00000000000E+00 -0.23618515394E+04  0.23618515394E+04  0.25500000920E-02 0.  1.
    10030    2    1    2    0    0  0.00000000000E+00  0.00000000000E+00 -0.86664007800E+03  0.38570630008E+04  0.37584398316E+04 0.  0.
        2    1    3    3  502    0  0.16689577279E+04  0.76468185553E+03 -0.84549231116E+03  0.20211421241E+04  0.25500000920E-02 0.  1.
       -2    1    3    3    0  502 -0.16689577279E+04 -0.76468185553E+03 -0.21147766838E+02  0.18359208767E+04  0.25500000920E-02 0. -1.
</event>
<event>
 5   0  0.2529875E-07  0.3906476E+04  0.7818609E-02  0.8023684E-01
       -1   -1    0    0    0  501  0.00000000000E+00  0.00000000000E+00  0.26605550910E+04  0.26605550910E+04  0.50400001928E-02 0. -1.
        1   -1    0    0  501    0  0.00000000000E+00  0.00000000000E+00 -0.14339636663E+04  0.14339636664E+04  0.50400001928E-02 0.  1.
    10030    2    1    2    0    0  0.00000000000E+00  0.00000000000E+00  0.12265914246E+04  0.40945187573E+04  0.39064763318E+04 0.  0.
        3    1    3    3  502    0  0.49534185074E+02 -0.58111159199E+03 -0.13405702170E+04  0.14619414608E+04  0.10100000352E+00 0.  1.
       -3    1    3    3    0  502 -0.49534185074E+02  0.58111159199E+03  0.25671616416E+04  0.26325772966E+04  0.10100000352E+00 0. -1.
</event>
<event>
 5   0  0.2529875E-07  0.3418222E+04  0.7818609E-02  0.8133448E-01
        1   -1    0    0  501    0  0.00000000000E+00  0.00000000000E+00  0.11831229419E+04  0.11831229419E+04  0.50400001928E-02 0. -1.
       -1   -1    0    0    0  501  0.00000000000E+00  0.00000000000E+00 -0.24689410818E+04  0.24689410818E+04  0.50400001928E-02 0.  1.
    10030    2    1    2    0    0  0.00000000000E+00  0.00000000000E+00 -0.12858181399E+04  0.36520640237E+04  0.34182222491E+04 0.  0.
        1    1    3    3  502    0  0.88591835507E+03  0.96627044040E+03  0.52870941609E+03  0.14135287555E+04  0.50400001928E-02 0. -1.
       -1    1    3    3    0  502 -0.88591835507E+03 -0.96627044040E+03 -0.18145275559E+04  0.22385352682E+04  0.50400001928E-02 0.  1.
</event>
<event>
 5   0  0.2529875E-07  0.3791442E+04  0.7818609E-02  0.8047994E-01
        1   -1    0    0  501    0  0.00000000000E+00  0.00000000000E+00  0.13266579665E+04  0.13266579665E+04  0.50400001928E-02 0.  1.
       -1   -1    0    0    0  501  0.00000000000E+00  0.00000000000E+00 -0.27088813513E+04  0.27088813513E+04  0.50400001928E-02 0. -1.
    10030    2    1    2    0    0  0.00000000000E+00  0.00000000000E+00 -0.13822233847E+04  0.40355393178E+04  0.37914424828E+04 0.  0.
        4    1    3    3  502    0  0.84712763047E+03  0.38989367548E+03  0.10656378078E+04  0.14160606805E+04  0.12699999809E+01 0.  1.
       -4    1    3    3    0  502 -0.84712763047E+03 -0.38989367548E+03 -0.24478611925E+04  0.26194786373E+04  0.12699999809E+01 0. -1.
</event>
<event>
 5   0  0.7649458E-07  0.3493022E+04  0.7818609E-02  0.8115446E-01
       -2   -1    0    0    0  501  0.00000000000E+00  0.00000000000E+00  0.22881570996E+04  0.22881570996E+04  0.25500000920E-02 0. -1.
        2   -1    0    0  501    0  0.00000000000E+00  0.00000000000E+00 -0.13330819648E+04  0.13330819648E+04  0.25500000920E-02 0.  1.
    10030    2    1    2    0    0  0.00000000000E+00  0.00000000000E+00  0.95507513485E+03  0.36212390644E+04  0.34930221655E+04 0.  0.
        4    1    3    3  502    0  0.16896076241E+04  0.10392615293E+03  0.92311012466E+03  0.19281360128E+04  0.12699999809E+01 0. -1.
       -4    1    3    3    0  502 -0.16896076241E+04 -0.10392615293E+03  0.31965010200E+02  0.16931030516E+04  0.12699999809E+01 0.  1.
</event>
<event>
 5   0  0.2529875E-07  0.3829424E+04  0.7818609E-02  0.8039870E-01
        1   -1    0    0  501    0  0.00000000000E+00  0.00000000000E+00  0.10892658728E+04  0.10892658728E+04  0.50400001928E-02 0. -1.
       -1   -1    0    0    0  501  0.00000000000E+00  0.00000000000E+00 -0.33656811166E+04  0.33656811166E+04  0.50400001928E-02 0.  1.
    10030    2    1    2    0    0  0.00000000000E+00  0.00000000000E+00 -0.22764152438E+04  0.44549469895E+04  0.38294237578E+04 0.  0.
        3    1    3    3  502    0  0.69956041372E+03 -0.87344346376E+03 -0.29456428867E+04  0.31510474898E+04  0.10100000352E+00 0.  1.
       -3    1    3    3    0  502 -0.69956041372E+03  0.87344346376E+03  0.66922764294E+03  0.13038994996E+04  0.10100000352E+00 0. -1.
</event>
<event>
 5   0  0.2529875E-07  0.3182245E+04  0.7818609E-02  0.8193522E-01
       -1   -1    0    0    0  501  0.00000000000E+00  0.00000000000E+00  0.22140668948E+04  0.22140668948E+04  0.50400001928E-02 0. -1.
        1   -1    0    0  501    0  0.00000000000E+00  0.00000000000E+00 -0.11434485212E+04  0.11434485212E+04  0.50400001928E-02 0.  1.
    10030    2    1    2    0    0  0.00000000000E+00  0.00000000000E+00  0.10706183736E+04  0.33575154161E+04  0.31822454442E+04 0.  0.
        5    1    3    3  502    0 -0.14588230632E+04  0.59755801992E+03  0.30801623844E+03  0.16062803024E+04  0.46999998093E+01 0.  1.
       -5    1    3    3    0  502  0.14588230632E+04 -0.59755801992E+03  0.76260213516E+03  0.17512351137E+04  0.46999998093E+01 0. -1.
</event>
<event>
 5   0  0.2529875E-07  0.3842101E+04  0.7818609E-02  0.8037180E-01
       -1   -1    0    0    0  501  0.00000000000E+00  0.00000000000E+00  0.16669065695E+04  0.16669065695E+04  0.50400001928E-02 0. -1.
        1   -1    0    0  501    0  0.00000000000E+00  0.00000000000E+00 -0.22139428154E+04  0.22139428154E+04  0.50400001928E-02 0.  1.
    10030    2    1    2    0    0  0.00000000000E+00  0.00000000000E+00 -0.54703624591E+03  0.38808493849E+04  0.38421014164E+04 0.  0.
        4    1    3    3  502    0 -0.12281437364E+04  0.87645120660E+03 -0.14745982699E+04  0.21097263863E+04  0.12699999809E+01 0.  1.
       -4    1    3    3    0  502  0.12281437364E+04 -0.87645120660E+03  0.92756202398E+03  0.17711229986E+04  0.12699999809E+01 0. -1.
</event>
<event>
 5   0  0.8038352E-07  0.3843586E+04  0.7818609E-02  0.8036866E-01
        2   -1    0    0  501    0  0.00000000000E+00  0.00000000000E+00  0.16079243320E+04  0.16079243320E+04  0.25500000920E-02 0. -1.
       -2   -1    0    0    0  501  0.00000000000E+00  0.00000000000E+00 -0.22969291027E+04  0.22969291027E+04  0.25500000920E-02 0.  1.
    10030    2    1    2    0    0  0.00000000000E+00  0.00000000000E+00 -0.68900477069E+03  0.39048534347E+04  0.38435859263E+04 0.  0.
        2    1    3    3  502    0 -0.13345036522E+04 -0.63282365943E+03  0.90470026078E+03  0.17320070276E+04  0.25500000920E-02 0. -1.
       -2    1    3    3    0  502  0.13345036522E+04  0.63282365943E+03 -0.15937050315E+04  0.21728464072E+04  0.25500000920E-02 0.  1.
</event>
<event>
 5   0  0.7649458E-07  0.3767862E+04  0.7818609E-02  0.8053087E-01
       -2   -1    0    0    0  501  0.00000000000E+00  0.00000000000E+00  0.12629740558E+04  0.12629740558E+04  0.25500000920E-02 0. -1.
        2   -1    0    0  501    0  0.00000000000E+00  0.00000000000E+00 -0.28101890259E+04  0.28101890259E+04  0.25500000920E-02 0.  1.
    10030    2    1    2    0    0  0.00000000000E+00  0.00000000000E+00 -0.15472149701E+04  0.40731630817E+04  0.37678619038E+04 0.  0.
        4    1    3    3  502    0  0.13583923257E+04  0.49558970140E+03 -0.20790823129E+04  0.25324738379E+04  0.12699999809E+01 0.  1.
       -4    1    3    3    0  502 -0.13583923257E+04 -0.49558970140E+03  0.53186734285E+03  0.15406892438E+04  0.12699999809E+01 0. -1.
</event>
<event>
 5   0  0.7649458E-07  0.3271880E+04  0.7818609E-02  0.8170087E-01
        2   -1    0    0  501    0  0.00000000000E+00  0.00000000000E+00  0.21766647441E+04  0.21766647441E+04  0.25500000920E-02 0. -1.
       -2   -1    0    0    0  501  0.00000000000E+00  0.00000000000E+00 -0.12295418978E+04  0.12295418978E+04  0.25500000920E-02 0.  1.
    10030    2    1    2    0    0  0.00000000000E+00  0.00000000000E+00  0.94712284633E+03  0.34062066419E+04  0.32718804992E+04 0.  0.
        4    1    3    3  502    0 -0.56120330453E+03  0.18938959821E+03 -0.11139979836E+04  0.12616698020E+04  0.12699999809E+01 0.  1.
       -4    1    3    3    0  502  0.56120330453E+03 -0.18938959821E+03  0.20611208299E+04  0.21445368398E+04  0.12699999809E+01 0. -1.
</event>
<event>
 5   0  0.2529875E-07  0.3740872E+04  0.7818609E-02  0.8058964E-01
        1   -1    0    0  501    0  0.00000000000E+00  0.00000000000E+00  0.13525351876E+04  0.13525351876E+04  0.50400001928E-02 0.  1.
       -1   -1    0    0    0  501  0.00000000000E+00  0.00000000000E+00 -0.25866465257E+04  0.25866465257E+04  0.50400001928E-02 0. -1.
    10030    2    1    2    0    0  0.00000000000E+00  0.00000000000E+00 -0.12341113381E+04  0.39391817134E+04  0.37408717936E+04 0.  0.
        4    1    3    3  502    0  0.45664182998E+03 -0.17344534148E+04 -0.58186720498E+02  0.17945020803E+04  0.12699999809E+01 0. -1.
       -4    1    3    3    0  502 -0.45664182998E+03  0.17344534148E+04 -0.11759246176E+04  0.21446796330E+04  0.12699999809E+01 0.  1.
</event>
<event>
 5   0  0.8038352E-07  0.2919676E+04  0.7818609E-02  0.8267047E-01
        2   -1    0    0  501    0  0.00000000000E+00  0.00000000000E+00  0.12880590424E+04  0.12880590424E+04  0.25500000920E-02 0. -1.
       -2   -1    0    0    0  501  0.00000000000E+00  0.00000000000E+00 -0.16545258891E+04  0.16545258891E+04  0.25500000920E-02 0.  1.
    10030    2    1    2    0    0  0.00000000000E+00  0.00000000000E+00 -0.36646684670E+03  0.29425849315E+04  0.29196760316E+04 0.  0.
        2    1    3    3  502    0 -0.55642365382E+03 -0.67914293278E+03 -0.13586971639E+04  0.16176836492E+04  0.25500000920E-02 0.  1.
       -2    1    3    3    0  502  0.55642365382E+03  0.67914293278E+03  0.99223031716E+03  0.13249012823E+04  0.25500000920E-02 0. -1.
</event>
<event>
 5   0  0.7649458E-07  0.3695179E+04  0.7818609E-02  0.8069031E-01
        2   -1    0    0  501    0  0.00000000000E+00  0.00000000000E+00  0.14910661723E+04  0.14910661723E+04  0.25500000920E-02 0.  1.
       -2   -1    0    0    0  501  0.00000000000E+00  0.00000000000E+00 -0.22893600238E+04  0.22893600238E+04  0.25500000920E-02 0. -1.
    10030    2    1    2    0    0  0.00000000000E+00  0.00000000000E+00 -0.79829385144E+03  0.37804261961E+04  0.36951791771E+04 0.  0.
        4    1    3    3  502    0  0.11158667488E+04 -0.70786166028E+03 -0.17201986239E+04  0.21691730336E+04  0.12699999809E+01 0. -1.
       -4    1    3    3    0  502 -0.11158667488E+04  0.70786166028E+03  0.92190477245E+03  0.16112531625E+04  0.12699999809E+01 0.  1.
</event>
<event>
 5   0  0.7638805E-07  0.2356988E+04  0.7818609E-02  0.8455785E-01
       -2   -1    0    0    0  501  0.00000000000E+00  0.00000000000E+00  0.11697544081E+04  0.11697544081E+04  0.25500000920E-02 0.  1.
        2   -1    0    0  501    0  0.00000000000E+00  0.00000000000E+00 -0.11872984631E+04  0.11872984631E+04  0.25500000920E-02 0. -1.
    10030    2    1    2    0    0  0.00000000000E+00  0.00000000000E+00 -0.17544054987E+02  0.23570528712E+04  0.23569875782E+04 0.  0.
        5    1    3    3  502    0  0.10195042070E+04  0.46192010857E+03 -0.37765418319E+03  0.11812721054E+04  0.46999998093E+01 0. -1.
       -5    1    3    3    0  502 -0.10195042070E+04 -0.46192010857E+03  0.36011012820E+03  0.11757807658E+04  0.46999998093E+01 0.  1.
</event>
<event>
 5   0  0.7638805E-07  0.3796208E+04  0.7818609E-02  0.8046969E-01
        2   -1    0    0  501    0  0.00000000000E+00  0.00000000000E+00  0.19596900341E+04  0.19596900341E+04  0.25500000920E-02 0.  1.
       -2   -1    0    0    0  501  0.00000000000E+00  0.00000000000E+00 -0.18384538781E+04  0.18384538781E+04  0.25500000920E-02 0. -1.
    10030    2    1    2    0    0  0.00000000000E+00  0.00000000000E+00  0.12123615592E+03  0.37981439122E+04  0.37962084996E+04 0.  0.
        5    1    3    3  502    0  0.11662021340E+04 -0.64792419320E+03  0.14114710400E+04  0.19421909700E+04  0.46999998093E+01 0.  1.
       -5    1    3    3    0  502 -0.11662021340E+04  0.64792419320E+03 -0.12902348841E+04  0.18559529422E+04  0.46999998093E+01 0. -1.
</event>
<event>
 5   0  0.8421677E-07  0.3244041E+04  0.7818609E-02  0.8177282E-01
        2   -1    0    0  501    0  0.00000000000E+00  0.00000000000E+00  0.21784849386E+04  0.21784849386E+04  0.25500000920E-02 0.  1.
       -2   -1    0    0    0  501  0.00000000000E+00  0.00000000000E+00 -0.12076977095E+04  0.12076977095E+04  0.25500000920E-02 0. -1.
    10030    2    1    2    0    0  0.00000000000E+00  0.00000000000E+00  0.97078722905E+03  0.33861826481E+04  0.32440414735E+04 0.  0.
        3    1    3    3  502    0 -0.92260138700E+03  0.15962348223E+02 -0.90703635452E+03  0.12938945376E+04  0.10100000352E+00 0. -1.
       -3    1    3    3    0  502  0.92260138700E+03 -0.15962348223E+02  0.18778235836E+04  0.20922881104E+04  0.10100000352E+00 0.  1.
</event>
<event>
 5   0  0.2529875E-07  0.3780206E+04  0.7818609E-02  0.8050416E-01
       -3   -1    0    0    0  501  0.00000000000E+00  0.00000000000E+00  0.15129491358E+04  0.15129491391E+04  0.10100000352E+00 0.  1.
        3   -1    0    0  501    0  0.00000000000E+00  0.00000000000E+00 -0.23612755177E+04  0.23612755198E+04  0.10100000352E+00 0. -1.
    10030    2    1    2    0    0  0.00000000000E+00  0.00000000000E+00 -0.84832638191E+03  0.38742246589E+04  0.37802062189E+04 0.  0.
        4    1    3    3  502    0  0.61159865106E+03  0.67473701884E+03 -0.21216065437E+04  0.23087959835E+04  0.12699999809E+01 0. -1.
       -4    1    3    3    0  502 -0.61159865106E+03 -0.67473701884E+03  0.12732801618E+04  0.15654286754E+04  0.12699999809E+01 0.  1.
</event>
<event>
 5   0  0.2907071E-07  0.3791253E+04  0.7818609E-02  0.8048035E-01
        1   -1    0    0  501    0  0.00000000000E+00  0.00000000000E+00  0.14230644062E+04  0.14230644062E+04  0.50400001928E-02 0. -1.
       -1   -1    0    0    0  501  0.00000000000E+00  0.00000000000E+00 -0.25251137246E+04  0.25251137246E+04  0.50400001928E-02 0.  1.
    10030    2    1    2    0    0  0.00000000000E+00  0.00000000000E+00 -0.11020493184E+04  0.39481781308E+04  0.37912528078E+04 0.  0.
        2    1    3    3  502    0  0.14747337623E+03  0.27969429255E+03 -0.24974579755E+04  0.25173942149E+04  0.25500000920E-02 0.  1.
       -2    1    3    3    0  502 -0.14747337623E+03 -0.27969429255E+03  0.13954086570E+04  0.14307839159E+04  0.25500000920E-02 0. -1.
</event>
<event>
 5   0  0.7551495E-07  0.3814903E+04  0.7818609E-02  0.8042964E-01
        2   -1    0    0  501    0  0.00000000000E+00  0.00000000000E+00  0.23562314717E+04  0.23562314717E+04  0.25500000920E-02 0. -1.
       -2   -1    0    0    0  501  0.00000000000E+00  0.00000000000E+00 -0.15441482669E+04  0.15441482669E+04  0.25500000920E-02 0.  1.
    10030    2    1    2    0    0  0.00000000000E+00  0.00000000000E+00  0.81208320473E+03  0.39003797386E+04  0.38149027476E+04 0.  0.
        1    1    3    3  502    0  0.11561541431E+04  0.11917914872E+03 -0.11402862115E+04  0.16282348468E+04  0.50400001928E-02 0.  1.
       -1    1    3    3    0  502 -0.11561541431E+04 -0.11917914872E+03  0.19523694162E+04  0.22721448918E+04  0.50400001928E-02 0. -1.
</event>
<event>
 5   0  0.2529875E-07  0.3781040E+04  0.7818609E-02  0.8050236E-01
        1   -1    0    0  501    0  0.00000000000E+00  0.00000000000E+00  0.21594678429E+04  0.21594678429E+04  0.50400001928E-02 0. -1.
       -1   -1    0    0    0  501  0.00000000000E+00  0.00000000000E+00 -0.16550680026E+04  0.16550680026E+04  0.50400001928E-02 0.  1.
    10030    2    1    2    0    0  0.00000000000E+00  0.00000000000E+00  0.50439984032E+03  0.38145358455E+04  0.37810401370E+04 0.  0.
        4    1    3    3  502    0 -0.17244104023E+04  0.49008596351E+02  0.10324017133E+04  0.20104347760E+04  0.12699999809E+01 0. -1.
       -4    1    3    3    0  502  0.17244104023E+04 -0.49008596351E+02 -0.52800187301E+03  0.18041010695E+04  0.12699999809E+01 0.  1.
</event>
<event>
 5   0  0.8421677E-07  0.3750451E+04  0.7818609E-02  0.8056872E-01
       -2   -1    0    0    0  501  0.00000000000E+00  0.00000000000E+00  0.18172936252E+04  0.18172936252E+04  0.25500000920E-02 0.  1.
        2   -1    0    0  501    0  0.00000000000E+00  0.00000000000E+00 -0.19350044331E+04  0.19350044331E+04  0.25500000920E-02 0. -1.
    10030    2    1    2    0    0  0.00000000000E+00  0.00000000000E+00 -0.11771080790E+03  0.37522980584E+04  0.37504512908E+04 0.  0.
        3    1    3    3  502    0  0.38778189190E+03  0.34152792681E+03 -0.18623675388E+04  0.19327257902E+04  0.10100000352E+00 0. -1.
       -3    1    3    3    0  502 -0.38778189190E+03 -0.34152792681E+03  0.17446567308E+04  0.18195722682E+04  0.10100000352E+00 0.  1.
</event>
<event>
 5   0  0.2529875E-07  0.3490490E+04  0.7818609E-02  0.8116047E-01
        1   -1    0    0  501    0  0.00000000000E+00  0.00000000000E+00  0.15907521855E+04  0.15907521855E+04  0.50400001928E-02 0. -1.
       -1   -1    0    0    0  501  0.00000000000E+00  0.00000000000E+00 -0.19147420018E+04  0.19147420018E+04  0.50400001928E-02 0.  1.
    10030    2    1    2    0    0  0.00000000000E+00  0.00000000000E+00 -0.32398981628E+03  0.35054941873E+04  0.34904899507E+04 0.  0.
        5    1    3    3  502    0 -0.91797462696E+03  0.13418858837E+04 -0.79916898474E+03  0.18116369109E+04  0.46999998093E+01 0.  1.
       -5    1    3    3    0  502  0.91797462696E+03 -0.13418858837E+04  0.47517916846E+03  0.16938572764E+04  0.46999998093E+01 0. -1.
</event>
<event>
 5   0  0.2529875E-07  0.3816248E+04  0.7818609E-02  0.8042677E-01
       -1   -1    0    0    0  501  0.00000000000E+00  0.00000000000E+00  0.11196569454E+04  0.11196569454E+04  0.50400001928E-02 0.  1.
        1   -1    0    0  501    0  0.00000000000E+00  0.00000000000E+00 -0.32518333967E+04  0.32518333967E+04  0.50400001928E-02 0. -1.
    10030    2    1    2    0    0  0.00000000000E+00  0.00000000000E+00 -0.21321764513E+04  0.43714903420E+04  0.38162483398E+04 0.  0.
        3    1    3    3  502    0  0.11912394803E+04 -0.70092741768E+03 -0.25730062414E+04  0.29207382411E+04  0.10100000352E+00 0. -1.
       -3    1    3    3    0  502 -0.11912394803E+04  0.70092741768E+03  0.44082979014E+03  0.14507521010E+04  0.10100000352E+00 0.  1.
</event>
<event>
 5   0  0.8038352E-07  0.3806085E+04  0.7818609E-02  0.8044850E-01
       -2   -1    0    0    0  501  0.00000000000E+00  0.00000000000E+00  0.21112241674E+04  0.21112241674E+04  0.25500000920E-02 0.  1.
        2   -1    0    0  501    0  0.00000000000E+00  0.00000000000E+00 -0.17153889760E+04  0.17153889760E+04  0.25500000920E-02 0. -1.
    10030    2    1    2    0    0  0.00000000000E+00  0.00000000000E+00  0.39583519146E+03  0.38266131434E+04  0.38060849505E+04 0.  0.
        2    1    3    3  502    0 -0.90139942869E+03 -0.92818423962E+03 -0.12051463435E+04  0.17681698510E+04  0.25500000920E-02 0. -1.
       -2    1    3    3    0  502  0.90139942869E+03  0.92818423962E+03  0.16009815350E+04  0.20584432924E+04  0.25500000920E-02 0.  1.
</event>
<event>
 5   0  0.7638805E-07  0.4037014E+04  0.7818609E-02  0.7997121E-01
        2   -1    0    0  501    0  0.00000000000E+00  0.00000000000E+00  0.22531266334E+04  0.22531266334E+04  0.25500000920E-02 0.  1.
       -2   -1    0    0    0  501  0.00000000000E+00  0.00000000000E+00 -0.18083187663E+04  0.18083187663E+04  0.25500000920E-02 0. -1.
    10030    2    1    2    0    0  0.00000000000E+00  0.00000000000E+00  0.44480786712E+03  0.40614453997E+04  0.40370143295E+04 0.  0.
        5    1    3    3  502    0 -0.11380397590E+04  0.16669301862E+04  0.24617626562E+03  0.20333262361E+04  0.46999998093E+01 0.  1.
       -5    1    3    3    0  502  0.11380397590E+04 -0.16669301862E+04  0.19863160150E+03  0.20281191636E+04  0.46999998093E+01 0. -1.
</event>
<event>
 5   0  0.2529875E-07  0.3767347E+04  0.7818609E-02  0.8053199E-01
        1   -1    0    0  501    0  0.00000000000E+00  0.00000000000E+00  0.13737256327E+04  0.13737256327E+04  0.50400001928E-02 0.  1.
       -1   -1    0    0    0  501  0.00000000000E+00  0.00000000000E+00 -0.25829219853E+04  0.25829219853E+04  0.50400001928E-02 0. -1.
    10030    2    1    2    0    0  0.00000000000E+00  0.00000000000E+00 -0.12091963525E+04  0.39566476180E+04  0.37673471507E+04 0.  0.
        4    1    3    3  502    0  0.15501219613E+04 -0.12802482360E+03 -0.17205109651E+04  0.23193594038E+04  0.12699999809E+01 0. -1.
       -4    1    3    3    0  502 -0.15501219613E+04  0.12802482360E+03  0.51131461253E+03  0.16372882142E+04  0.12699999809E+01 0.  1.
</event>
<event>
 5   0  0.7649458E-07  0.3883287E+04  0.7818609E-02  0.8028514E-01
        2   -1    0    0  501    0  0.00000000000E+00  0.00000000000E+00  0.23377995019E+04  0.23377995019E+04  0.25500000920E-02 0.  1.
       -2   -1    0    0    0  501  0.00000000000E+00  0.00000000000E+00 -0.16126189233E+04  0.16126189233E+04  0.25500000920E-02 0. -1.
    10030    2    1    2    0    0  0.00000000000E+00  0.00000000000E+00  0.72518057862E+03  0.39504184253E+04  0.38832871209E+04 0.  0.
        4    1    3    3  502    0 -0.11812905858E+04  0.15181662799E+04  0.94015281826E+02  0.19259067443E+04  0.12699999809E+01 0. -1.
       -4    1    3    3    0  502  0.11812905858E+04 -0.15181662799E+04  0.63116529679E+03  0.20245116810E+04  0.12699999809E+01 0.  1.
</event>
<event>
 5   0  0.2529875E-07  0.3634307E+04  0.7818609E-02  0.8082678E-01
        1   -1    0    0  501    0  0.00000000000E+00  0.00000000000E+00  0.32289592833E+04  0.32289592833E+04  0.50400001928E-02 0.  1.
       -1   -1    0    0    0  501  0.00000000000E+00  0.00000000000E+00 -0.10226350400E+04  0.10226350400E+04  0.50400001928E-02 0. -1.
    10030    2    1    2    0    0  0.00000000000E+00  0.00000000000E+00  0.22063242432E+04  0.42515943233E+04  0.36343070348E+04 0.  0.
        5    1    3    3  502    0  0.16203567702E+04 -0.61005042121E+03  0.17484987921E+04  0.24606884596E+04  0.46999998093E+01 0. -1.
       -5    1    3    3    0  502 -0.16203567702E+04  0.61005042121E+03  0.45782545116E+03  0.17909058637E+04  0.46999998093E+01 0.  1.
</event>
<event>
 5   0  0.8038352E-07  0.3774753E+04  0.7818609E-02  0.8051595E-01
        2   -1    0    0  501    0  0.00000000000E+00  0.00000000000E+00  0.20302476720E+04  0.20302476720E+04  0.25500000920E-02 0. -1.
       -2   -1    0    0    0  501  0.00000000000E+00  0.00000000000E+00 -0.17545592802E+04  0.17545592803E+04  0.25500000920E-02 0.  1.
    10030    2    1    2    0    0  0.00000000000E+00  0.00000000000E+00  0.27568839175E+03  0.37848069522E+04  0.37747529159E+04 0.  0.
        2    1    3    3  502    0  0.14491163368E+04 -0.11993209477E+04 -0.17102195338E+02  0.18811170560E+04  0.25500000920E-02 0. -1.
       -2    1    3    3    0  502 -0.14491163368E+04  0.11993209477E+04  0.29279058708E+03  0.19036898963E+04  0.25500000920E-02 0.  1.
</event>
<event>
 5   0  0.8421677E-07  0.3667265E+04  0.7818609E-02  0.8075255E-01
        2   -1    0    0  501    0  0.00000000000E+00  0.00000000000E+00  0.21428438616E+04  0.21428438616E+04  0.25500000920E-02 0. -1.
       -2   -1    0    0    0  501  0.00000000000E+00  0.00000000000E+00 -0.15690399575E+04  0.15690399575E+04  0.25500000920E-02 0.  1.
    10030    2    1    2    0    0  0.00000000000E+00  0.00000000000E+00  0.57380390416E+03  0.37118838191E+04  0.36672647254E+04 0.  0.
        3    1    3    3  502    0  0.17773591399E+04  0.14435232129E+03 -0.14533540105E+03  0.17891242254E+04  0.10100000352E+00 0.  1.
       -3    1    3    3    0  502 -0.17773591399E+04 -0.14435232129E+03  0.71913930521E+03  0.19227595937E+04  0.10100000352E+00 0. -1.
</event>
<event>
 5   0  0.2907071E-07  0.3781299E+04  0.7818609E-02  0.8050180E-01
       -1   -1    0    0    0  501  0.00000000000E+00  0.00000000000E+00  0.18124147170E+04  0.18124147170E+04  0.50400001928E-02 0.  1.
        1   -1    0    0  501    0  0.00000000000E+00  0.00000000000E+00 -0.19722609142E+04  0.19722609142E+04  0.50400001928E-02 0. -1.
    10030    2    1    2    0    0  0.00000000000E+00  0.00000000000E+00 -0.15984619720E+03  0.37846756312E+04  0.37812985635E+04 0.  0.
        2    1    3    3  502    0  0.11465824862E+03 -0.61110219633E+03 -0.18670042837E+04  0.19678153887E+04  0.25500000920E-02 0. -1.
       -2    1    3    3    0  502 -0.11465824862E+03  0.61110219633E+03  0.17071580865E+04  0.18168602425E+04  0.25500000920E-02 0.  1.
</event>
<event>
 5   0  0.2529875E-07  0.3636247E+04  0.7818609E-02  0.8082239E-01
       -1   -1    0    0    0  501  0.00000000000E+00  0.00000000000E+00  0.11108912074E+04  0.11108912074E+04  0.50400001928E-02 0.  1.
        1   -1    0    0  501    0  0.00000000000E+00  0.00000000000E+00 -0.29756039943E+04  0.29756039943E+04  0.50400001928E-02 0. -1.
    10030    2    1    2    0    0  0.00000000000E+00  0.00000000000E+00 -0.18647127869E+04  0.40864952018E+04  0.36362465891E+04 0.  0.
        5    1    3    3  502    0  0.11957503670E+04  0.13183908328E+04 -0.13491973844E+04  0.22334567379E+04  0.46999998093E+01 0.  1.
       -5    1    3    3    0  502 -0.11957503670E+04 -0.13183908328E+04 -0.51551540255E+03  0.18530384638E+04  0.46999998093E+01 0. -1.
</event>
<event>
 5   0  0.8421677E-07  0.3772649E+04  0.7818609E-02  0.8052050E-01
        2   -1    0    0  501    0  0.00000000000E+00  0.00000000000E+00  0.19621825652E+04  0.19621825652E+04  0.25500000920E-02 0. -1.
       -2   -1    0    0    0  501  0.00000000000E+00  0.00000000000E+00 -0.18133987485E+04  0.18133987485E+04  0.25500000920E-02 0.  1.
    10030    2    1    2    0    0  0.00000000000E+00  0.00000000000E+00  0.14878381661E+03  0.37755813137E+04  0.37726486230E+04 0.  0.
        3    1    3    3  502    0  0.88591481787E+03 -0.68891124967E+03 -0.14429580666E+04  0.18279966539E+04  0.10100000352E+00 0.  1.
       -3    1    3    3    0  502 -0.88591481787E+03  0.68891124967E+03  0.15917418832E+04  0.19475846598E+04  0.10100000352E+00 0. -1.
</event>
<event>
 5   0  0.8421677E-07  0.3856603E+04  0.7818609E-02  0.8034116E-01
        2   -1    0    0  501    0  0.00000000000E+00  0.00000000000E+00  0.16572672860E+04  0.16572672860E+04  0.25500000920E-02 0.  1.
       -2   -1    0    0    0  501  0.00000000000E+00  0.00000000000E+00 -0.22436618980E+04  0.22436618980E+04  0.25500000920E-02 0. -1.
    10030    2    1    2    0    0  0.00000000000E+00  0.00000000000E+00 -0.58639461205E+03  0.39009291840E+04  0.38566034094E+04 0.  0.
        3    1    3    3  502    0  0.17014934441E+04  0.62577601119E+03 -0.95776614497E+03  0.20503637617E+04  0.10100000352E+00 0.  1.
       -3    1    3    3    0  502 -0.17014934441E+04 -0.62577601119E+03  0.37137153292E+03  0.18505654223E+04  0.10100000352E+00 0. -1.
</event>
<event>
 5   0  0.8038352E-07  0.3800719E+04  0.7818609E-02  0.8046000E-01
       -2   -1    0    0    0  501  0.00000000000E+00  0.00000000000E+00  0.13157949540E+04  0.13157949540E+04  0.25500000920E-02 0. -1.
        2   -1    0    0  501    0  0.00000000000E+00  0.00000000000E+00 -0.27446276076E+04  0.27446276076E+04  0.25500000920E-02 0.  1.
    10030    2    1    2    0    0  0.00000000000E+00  0.00000000000E+00 -0.14288326536E+04  0.40604225616E+04  0.38007194880E+04 0.  0.
        2    1    3    3  502    0 -0.14575936248E+04  0.94659487362E+03 -0.15355348628E+04  0.23191568176E+04  0.25500000920E-02 0. -1.
       -2    1    3    3    0  502  0.14575936248E+04 -0.94659487362E+03  0.10670220914E+03  0.17412657440E+04  0.25500000920E-02 0.  1.
</event>
<event>
 5   0  0.2529875E-07  0.2861571E+04  0.7818609E-02  0.8284404E-01
       -1   -1    0    0    0  501  0.00000000000E+00  0.00000000000E+00  0.13067287444E+04  0.13067287444E+04  0.50400001928E-02 0. -1.
        1   -1    0    0  501    0  0.00000000000E+00  0.00000000000E+00 -0.15666200226E+04  0.15666200226E+04  0.50400001928E-02 0.  1.
    10030    2    1    2    0    0  0.00000000000E+00  0.00000000000E+00 -0.25989127826E+03  0.28733487670E+04  0.28615711874E+04 0.  0.
        1    1    3    3  502    0 -0.75560914195E+03 -0.93481522263E+03  0.64934313314E+03  0.13661885596E+04  0.50400001928E-02 0. -1.
       -1    1    3    3    0  502  0.75560914195E+03  0.93481522263E+03 -0.90923441139E+03  0.15071602074E+04  0.50400001928E-02 0.  1.
</event>
<event>
 5   0  0.7649458E-07  0.3499065E+04  0.7818609E-02  0.8114012E-01
        2   -1    0    0  501    0  0.00000000000E+00  0.00000000000E+00  0.13334980543E+04  0.13334980543E+04  0.25500000920E-02 0.  1.
       -2   -1    0    0    0  501  0.00000000000E+00  0.00000000000E+00 -0.22953639537E+04  0.22953639537E+04  0.25500000920E-02 0. -1.
    10030    2    1    2    0    0  0.00000000000E+00  0.00000000000E+00 -0.96186589940E+03  0.36288620080E+04  0.34990646557E+04 0.  0.
        4    1    3    3  502    0 -0.43998474199E+03 -0.15306067642E+04 -0.12320346269E+04  0.20135179598E+04  0.12699999809E+01 0. -1.
       -4    1    3    3    0  502  0.43998474199E+03  0.15306067642E+04  0.27016872750E+03  0.16153440482E+04  0.12699999809E+01 0.  1.
</event>
<event>
 5   0  0.8421677E-07  0.3115113E+04  0.7818609E-02  0.8211603E-01
       -2   -1    0    0    0  501  0.00000000000E+00  0.00000000000E+00  0.12279189683E+04  0.12279189683E+04  0.25500000920E-02 0. -1.
        2   -1    0    0  501    0  0.00000000000E+00  0.00000000000E+00 -0.19756854774E+04  0.19756854774E+04  0.25500000920E-02 0.  1.
    10030    2    1    2    0    0  0.00000000000E+00  0.00000000000E+00 -0.74776650909E+03  0.32036044458E+04  0.31151126293E+04 0.  0.
        3    1    3    3  502    0  0.44317286304E+03 -0.10125969496E+04 -0.15024293311E+04  0.18652208110E+04  0.10100000352E+00 0.  1.
       -3    1    3    3    0  502 -0.44317286304E+03  0.10125969496E+04  0.75466282196E+03  0.13383836348E+04  0.10100000352E+00 0. -1.
</event>
<event>
 5   0  0.2907071E-07  0.3825404E+04  0.7818609E-02  0.8040725E-01
       -1   -1    0    0    0  501  0.00000000000E+00  0.00000000000E+00  0.12977588433E+04  0.12977588433E+04  0.50400001928E-02 0.  1.
        1   -1    0    0  501    0  0.00000000000E+00  0.00000000000E+00 -0.28190362060E+04  0.28190362060E+04  0.50400001928E-02 0. -1.
    10030    2    1    2    0    0  0.00000000000E+00  0.00000000000E+00 -0.15212773627E+04  0.41167950493E+04  0.38254041177E+04 0.  0.
        2    1    3    3  502    0  0.14022286195E+04  0.57603087151E+03 -0.20158326611E+04  0.25222287731E+04  0.25500000920E-02 0. -1.
       -2    1    3    3    0  502 -0.14022286195E+04 -0.57603087151E+03  0.49455529834E+03  0.15945662762E+04  0.25500000920E-02 0.  1.
</event>
<event>
 5   0  0.2529875E-07  0.3752006E+04  0.7818609E-02  0.8056533E-01
       -1   -1    0    0    0  501  0.00000000000E+00  0.00000000000E+00  0.21589794525E+04  0.21589794525E+04  0.50400001928E-02 0. -1.
        1   -1    0    0  501    0  0.00000000000E+00  0.00000000000E+00 -0.16301160936E+04  0.16301160936E+04  0.50400001928E-02 0.  1.
    10030    2    1    2    0    0  0.00000000000E+00  0.00000000000E+00  0.52886335895E+03  0.37890955461E+04  0.37520059442E+04 0.  0.
        1    1    3    3  502    0 -0.15677604354E+04 -0.25357489610E+03 -0.74404591287E+03  0.17537894205E+04  0.50400001928E-02 0.  1.
       -1    1    3    3    0  502  0.15677604354E+04  0.25357489610E+03  0.12729092718E+04  0.20353061257E+04  0.50400001928E-02 0. -1.
</event>
<event>
 5   0  0.7551495E-07  0.2939259E+04  0.7818609E-02  0.8261292E-01
        2   -1    0    0  501    0  0.00000000000E+00  0.00000000000E+00  0.25827687625E+04  0.25827687625E+04  0.25500000920E-02 0.  1.
       -2   -1    0    0    0  501  0.00000000000E+00  0.00000000000E+00 -0.83623881509E+03  0.83623881509E+03  0.25500000920E-02 0. -1.
    10030    2    1    2    0    0  0.00000000000E+00  0.00000000000E+00  0.17465299474E+04  0.34190075776E+04  0.29392594235E+04 0.  0.
        1    1    3    3  502    0  0.17375942015E+03  0.14129176500E+04  0.12979327504E+04  0.19264366188E+04  0.50400001928E-02 0. -1.
       -1    1    3    3    0  502 -0.17375942015E+03 -0.14129176500E+04  0.44859719700E+03  0.14925709588E+04  0.50400001928E-02 0.  1.
</event>
<event>
 5   0  0.2529875E-07  0.3868853E+04  0.7818609E-02  0.8031539E-01
       -1   -1    0    0    0  501  0.00000000000E+00  0.00000000000E+00  0.18113895673E+04  0.18113895673E+04  0.50400001928E-02 0.  1.
        1   -1    0    0  501    0  0.00000000000E+00  0.00000000000E+00 -0.20658204109E+04  0.20658204109E+04  0.50400001928E-02 0. -1.
    10030    2    1    2    0    0  0.00000000000E+00  0.00000000000E+00 -0.25443084358E+03  0.38772099783E+04  0.38688528224E+04 0.  0.
        5    1    3    3  502    0  0.73751620192E+03  0.54773580624E+03 -0.18332554239E+04  0.20505589971E+04  0.46999998093E+01 0. -1.
       -5    1    3    3    0  502 -0.73751620192E+03 -0.54773580624E+03  0.15788245803E+04  0.18266509811E+04  0.46999998093E+01 0.  1.
</event>
<event>
 5   0  0.2529875E-07  0.3766624E+04  0.7818609E-02  0.8053355E-01
       -1   -1    0    0    0  501  0.00000000000E+00  0.00000000000E+00  0.17290105085E+04  0.17290105085E+04  0.50400001928E-02 0.  1.
        1   -1    0    0  501    0  0.00000000000E+00  0.00000000000E+00 -0.20513838492E+04  0.20513838492E+04  0.50400001928E-02 0. -1.
    10030    2    1    2    0    0  0.00000000000E+00  0.00000000000E+00 -0.32237334077E+03  0.37803943577E+04  0.37666240759E+04 0.  0.
        1    1    3    3  502    0 -0.15192789439E+04  0.10544417093E+04  0.19621686789E+03  0.18597195721E+04  0.50400001928E-02 0. -1.
       -1    1    3    3    0  502  0.15192789439E+04 -0.10544417093E+04 -0.51859020867E+03  0.19206747856E+04  0.50400001928E-02 0.  1.
</event>
<event>
 5   0  0.8421677E-07  0.3772790E+04  0.7818609E-02  0.8052019E-01
        2   -1    0    0  501    0  0.00000000000E+00  0.00000000000E+00  0.21732023366E+04  0.21732023366E+04  0.25500000920E-02 0. -1.
       -2   -1    0    0    0  501  0.00000000000E+00  0.00000000000E+00 -0.16374391566E+04  0.16374391566E+04  0.25500000920E-02 0.  1.
    10030    2    1    2    0    0  0.00000000000E+00  0.00000000000E+00  0.53576318008E+03  0.38106414932E+04  0.37727902678E+04 0.  0.
        3    1    3    3  502    0  0.63801778101E+03 -0.10058553933E+04  0.17453197701E+04  0.21130435091E+04  0.10100000352E+00 0. -1.
       -3    1    3    3    0  502 -0.63801778101E+03  0.10058553933E+04 -0.12095565900E+04  0.16975979841E+04  0.10100000352E+00 0.  1.
</event>
<event>
 5   0  0.2529875E-07  0.2329950E+04  0.7818609E-02  0.8466205E-01
       -1   -1    0    0    0  501  0.00000000000E+00  0.00000000000E+00  0.15772062682E+04  0.15772062682E+04  0.50400001928E-02 0. -1.
        1   -1    0    0  501    0  0.00000000000E+00  0.00000000000E+00 -0.86048772139E+03  0.86048772140E+03  0.50400001928E-02 0.  1.
    10030    2    1    2    0    0  0.00000000000E+00  0.00000000000E+00  0.71671854677E+03  0.24376939896E+04  0.23299498946E+04 0.  0.
        1    1    3    3  502    0 -0.12405887174E+03 -0.54211180022E+02  0.15689476111E+04  0.15747780993E+04  0.50400001928E-02 0. -1.
       -1    1    3    3    0  502  0.12405887174E+03  0.54211180022E+02 -0.85222906428E+03  0.86291589030E+03  0.50400001928E-02 0.  1.
</event>
<event>
 5   0  0.2529875E-07  0.3766526E+04  0.7818609E-02  0.8053377E-01
       -1   -1    0    0    0  501  0.00000000000E+00  0.00000000000E+00  0.15217239807E+04  0.15217239807E+04  0.50400001928E-02 0. -1.
        1   -1    0    0  501    0  0.00000000000E+00  0.00000000000E+00 -0.23306987364E+04  0.23306987364E+04  0.50400001928E-02 0.  1.
    10030    2    1    2    0    0  0.00000000000E+00  0.00000000000E+00 -0.80897475572E+03  0.38524227171E+04  0.37665263355E+04 0.  0.
        1    1    3    3  502    0  0.11584627222E+04  0.12276469216E+04  0.44974009903E+03  0.17468311308E+04  0.50400001928E-02 0. -1.
       -1    1    3    3    0  502 -0.11584627222E+04 -0.12276469216E+04 -0.12587148547E+04  0.21055915863E+04  0.50400001928E-02 0.  1.
</event>
<event>
 5   0  0.2907071E-07  0.3867371E+04  0.7818609E-02  0.8031850E-01
       -1   -1    0    0    0  501  0.00000000000E+00  0.00000000000E+00  0.18209133210E+04  0.18209133210E+04  0.50400001928E-02 0. -1.
        1   -1    0    0  501    0  0.00000000000E+00  0.00000000000E+00 -0.20534416310E+04  0.20534416310E+04  0.50400001928E-02 0.  1.
    10030    2    1    2    0    0  0.00000000000E+00  0.00000000000E+00 -0.23252831001E+03  0.38743549520E+04  0.38673707967E+04 0.  0.
        2    1    3    3  502    0 -0.81087535535E+02  0.93255394937E+03  0.15788042366E+04  0.18354440537E+04  0.25500000920E-02 0. -1.
       -2    1    3    3    0  502  0.81087535535E+02 -0.93255394937E+03 -0.18113325466E+04  0.20389108983E+04  0.25500000920E-02 0.  1.
</event>
<event>
 5   0  0.7551495E-07  0.2343339E+04  0.7818609E-02  0.8461027E-01
       -2   -1    0    0    0  501  0.00000000000E+00  0.00000000000E+00  0.22590521839E+04  0.22590521839E+04  0.25500000920E-02 0. -1.
        2   -1    0    0  501    0  0.00000000000E+00  0.00000000000E+00 -0.60769251038E+03  0.60769251038E+03  0.25500000920E-02 0.  1.
    10030    2    1    2    0    0  0.00000000000E+00  0.00000000000E+00  0.16513596735E+04  0.28667446943E+04  0.23433387230E+04 0.  0.
        1    1    3    3  502    0 -0.81048735476E+03  0.62060409888E+03  0.15292654241E+04  0.18386658036E+04  0.50400001928E-02 0. -1.
       -1    1    3    3    0  502  0.81048735476E+03 -0.62060409888E+03  0.12209424940E+03  0.10280788907E+04  0.50400001928E-02 0.  1.
</event>
<event>
 5   0  0.7551495E-07  0.2385193E+04  0.7818609E-02  0.8445068E-01
       -2   -1    0    0    0  501  0.00000000000E+00  0.00000000000E+00  0.12910469260E+04  0.12910469260E+04  0.25500000920E-02 0.  1.
        2   -1    0    0  501    0  0.00000000000E+00  0.00000000000E+00 -0.11016532440E+04  0.11016532440E+04  0.25500000920E-02 0. -1.
    10030    2    1    2    0    0  0.00000000000E+00  0.00000000000E+00  0.18939368198E+03  0.23927001699E+04  0.23851926833E+04 0.  0.
        1    1    3    3  502    0 -0.30575846090E+03 -0.10937399570E+04  0.45989036251E+03  0.12252569019E+04  0.50400001928E-02 0.  1.
       -1    1    3    3    0  502  0.30575846090E+03  0.10937399570E+04 -0.27049668054E+03  0.11674432681E+04  0.50400001928E-02 0. -1.
</event>
<event>
 5   0  0.8038352E-07  0.3788113E+04  0.7818609E-02  0.8048711E-01
       -2   -1    0    0    0  501  0.00000000000E+00  0.00000000000E+00  0.12648277868E+04  0.12648277868E+04  0.25500000920E-02 0.  1.
        2   -1    0    0  501    0  0.00000000000E+00  0.00000000000E+00 -0.28363148159E+04  0.28363148159E+04  0.25500000920E-02 0. -1.
    10030    2    1    2    0    0  0.00000000000E+00  0.00000000000E+00 -0.15714870291E+04  0.41011426026E+04  0.37881128764E+04 0.  0.
        2    1    3    3  502    0 -0.50477226044E+03  0.94627580891E+03  0.90442125611E+03  0.14029293460E+04  0.25500000920E-02 0.  1.
       -2    1    3    3    0  502  0.50477226044E+03 -0.94627580891E+03 -0.24759082852E+04  0.26982132566E+04  0.25500000920E-02 0. -1.
</event>
<event>
 5   0  0.7649458E-07  0.3652061E+04  0.7818609E-02  0.8078669E-01
        2   -1    0    0  501    0  0.00000000000E+00  0.00000000000E+00  0.31869684988E+04  0.31869684988E+04  0.25500000920E-02 0. -1.
       -2   -1    0    0    0  501  0.00000000000E+00  0.00000000000E+00 -0.10462569049E+04  0.10462569049E+04  0.25500000920E-02 0.  1.
    10030    2    1    2    0    0  0.00000000000E+00  0.00000000000E+00  0.21407115939E+04  0.42332254037E+04  0.36520612248E+04 0.  0.
        4    1    3    3  502    0 -0.37402665087E+03 -0.14743916781E+04  0.22414012980E+04  0.27088019764E+04  0.12699999809E+01 0. -1.
       -4    1    3    3    0  502  0.37402665087E+03  0.14743916781E+04 -0.10068970406E+03  0.15244234272E+04  0.12699999809E+01 0.  1.
</event>
<event>
 5   0  0.8421677E-07  0.3607830E+04  0.7818609E-02  0.8088700E-01
        2   -1    0    0  501    0  0.00000000000E+00  0.00000000000E+00  0.24920927837E+04  0.24920927837E+04  0.25500000920E-02 0. -1.
       -2   -1    0    0    0  501  0.00000000000E+00  0.00000000000E+00 -0.13057737737E+04  0.13057737737E+04  0.25500000920E-02 0.  1.
    10030    2    1    2    0    0  0.00000000000E+00  0.00000000000E+00  0.11863190100E+04  0.37978665573E+04  0.36078300395E+04 0.  0.
        3    1    3    3  502    0 -0.97274267993E+03  0.10160785579E+04  0.17820120099E+04  0.22702886976E+04  0.10100000352E+00 0. -1.
       -3    1    3    3    0  502  0.97274267993E+03 -0.10160785579E+04 -0.59569299988E+03  0.15275778597E+04  0.10100000352E+00 0.  1.
</event>
<event>
 5   0  0.2529875E-07  0.3713098E+04  0.7818609E-02  0.8065065E-01
        1   -1    0    0  501    0  0.00000000000E+00  0.00000000000E+00  0.28692286745E+04  0.28692286745E+04  0.50400001928E-02 0.  1.
       -1   -1    0    0    0  501  0.00000000000E+00  0.00000000000E+00 -0.12012895770E+04  0.12012895770E+04  0.50400001928E-02 0. -1.
    10030    2    1    2    0    0  0.00000000000E+00  0.00000000000E+00  0.16679390974E+04  0.40705182515E+04  0.37130981677E+04 0.  0.
        1    1    3    3  502    0  0.17017853226E+04  0.27103157123E+03  0.76643132216E+02  0.17249363950E+04  0.50400001928E-02 0. -1.
       -1    1    3    3    0  502 -0.17017853226E+04 -0.27103157123E+03  0.15912959652E+04  0.23455818565E+04  0.50400001928E-02 0.  1.
</event>
<event>
 5   0  0.2529875E-07  0.3908574E+04  0.7818609E-02  0.8023248E-01
       -3   -1    0    0    0  501  0.00000000000E+00  0.00000000000E+00  0.32380510332E+04  0.32380510348E+04  0.10100000352E+00 0.  1.
        3   -1    0    0  501    0  0.00000000000E+00  0.00000000000E+00 -0.11794863311E+04  0.11794863354E+04  0.10100000352E+00 0. -1.
    10030    2    1    2    0    0  0.00000000000E+00  0.00000000000E+00  0.20585647022E+04  0.44175373702E+04  0.39085736253E+04 0.  0.
        5    1    3    3  502    0 -0.67221382283E+03  0.14363191932E+04  0.23200729028E+04  0.28102748287E+04  0.46999998093E+01 0. -1.
       -5    1    3    3    0  502  0.67221382283E+03 -0.14363191932E+04 -0.26150820066E+03  0.16072625415E+04  0.46999998093E+01 0.  1.
</event>
<event>
 5   0  0.7649458E-07  0.3917706E+04  0.7818609E-02  0.8021357E-01
       -2   -1    0    0    0  501  0.00000000000E+00  0.00000000000E+00  0.14113106321E+04  0.14113106321E+04  0.25500000920E-02 0.  1.
        2   -1    0    0  501    0  0.00000000000E+00  0.00000000000E+00 -0.27188237880E+04  0.27188237880E+04  0.25500000920E-02 0. -1.
    10030    2    1    2    0    0  0.00000000000E+00  0.00000000000E+00 -0.13075131559E+04  0.41301344201E+04  0.39177059200E+04 0.  0.
        4    1    3    3  502    0  0.14928892883E+04  0.73697989855E+03 -0.17418275130E+04  0.24095274424E+04  0.12699999809E+01 0. -1.
       -4    1    3    3    0  502 -0.14928892883E+04 -0.73697989855E+03  0.43431435705E+03  0.17206069777E+04  0.12699999809E+01 0.  1.
</event>
<event>
 5   0  0.8038352E-07  0.3777169E+04  0.7818609E-02  0.8051072E-01
       -2   -1    0    0    0  501  0.00000000000E+00  0.00000000000E+00  0.20122636910E+04  0.20122636910E+04  0.25500000920E-02 0.  1.
        2   -1    0    0  501    0  0.00000000000E+00  0.00000000000E+00 -0.17725074212E+04  0.17725074212E+04  0.25500000920E-02 0. -1.
    10030    2    1    2    0    0  0.00000000000E+00  0.00000000000E+00  0.23975626978E+03  0.37847711122E+04  0.37771694829E+04 0.  0.
        2    1    3    3  502    0 -0.13601444827E+03  0.15985665167E+04  0.11182957425E+04  0.19556329426E+04  0.25500000920E-02 0.  1.
       -2    1    3    3    0  502  0.13601444827E+03 -0.15985665167E+04 -0.87853947268E+03  0.18291381696E+04  0.25500000920E-02 0. -1.
</event>
<event>
 5   0  0.2907071E-07  0.3611136E+04  0.7818609E-02  0.8087946E-01
        1   -1    0    0  501    0  0.00000000000E+00  0.00000000000E+00  0.27939108810E+04  0.27939108810E+04  0.50400001928E-02 0.  1.
       -1   -1    0    0    0  501  0.00000000000E+00  0.00000000000E+00 -0.11668504431E+04  0.11668504431E+04  0.50400001928E-02 0. -1.
    10030    2    1    2    0    0  0.00000000000E+00  0.00000000000E+00  0.16270604379E+04  0.39607613241E+04  0.36111361921E+04 0.  0.
        2    1    3    3  502    0 -0.95108489843E+03 -0.12983464543E+04 -0.84127287269E+02  0.16116275624E+04  0.25500000920E-02 0. -1.
       -2    1    3    3    0  502  0.95108489843E+03  0.12983464543E+04  0.17111877252E+04  0.23491337617E+04  0.25500000920E-02 0.  1.
</event>
<event>
 5   0  0.2529875E-07  0.3880924E+04  0.7818609E-02  0.8029008E-01
        4   -1    0    0  501    0  0.00000000000E+00  0.00000000000E+00  0.15889497174E+04  0.15889502249E+04  0.12699999809E+01 0.  1.
       -4   -1    0    0    0  501  0.00000000000E+00  0.00000000000E+00 -0.23697363120E+04  0.23697366523E+04  0.12699999809E+01 0. -1.
    10030    2    1    2    0    0  0.00000000000E+00  0.00000000000E+00 -0.78078659457E+03  0.39586868772E+04  0.38809243854E+04 0.  0.
        5    1    3    3  502    0  0.91836810886E+03  0.64202818159E+03 -0.20063623572E+04  0.22980670503E+04  0.46999998093E+01 0. -1.
       -5    1    3    3    0  502 -0.91836810886E+03 -0.64202818159E+03  0.12255757627E+04  0.16606198269E+04  0.46999998093E+01 0.  1.
</event>
<event>
 5   0  0.7551495E-07  0.3836722E+04  0.7818609E-02  0.8038320E-01
       -2   -1    0    0    0  501  0.00000000000E+00  0.00000000000E+00  0.14199005331E+04  0.14199005331E+04  0.25500000920E-02 0. -1.
        2   -1    0    0  501    0  0.00000000000E+00  0.00000000000E+00 -0.25918070278E+04  0.25918070278E+04  0.25500000920E-02 0.  1.
    10030    2    1    2    0    0  0.00000000000E+00  0.00000000000E+00 -0.11719064947E+04  0.40117075608E+04  0.38367216111E+04 0.  0.
        1    1    3    3  502    0 -0.16211270238E+03 -0.14722876365E+04  0.68874425487E+03  0.16334870864E+04  0.50400001928E-02 0. -1.
       -1    1    3    3    0  502  0.16211270238E+03  0.14722876365E+04 -0.18606507496E+04  0.23782204744E+04  0.50400001928E-02 0.  1.
</event>
<event>
 5   0  0.2529875E-07  0.3755940E+04  0.7818609E-02  0.8055677E-01
        1   -1    0    0  501    0  0.00000000000E+00  0.00000000000E+00  0.22864225140E+04  0.22864225140E+04  0.50400001928E-02 0.  1.
       -1   -1    0    0    0  501  0.00000000000E+00  0.00000000000E+00 -0.15424848214E+04  0.15424848214E+04  0.50400001928E-02 0. -1.
    10030    2    1    2    0    0  0.00000000000E+00  0.00000000000E+00  0.74393769266E+03  0.38289073354E+04  0.37559403740E+04 0.  0.
        1    1    3    3  502    0 -0.33925214278E+03  0.69237929957E+03 -0.13736912879E+04  0.15752805672E+04  0.50400001928E-02 0. -1.
       -1    1    3    3    0  502  0.33925214278E+03 -0.69237929957E+03  0.21176289806E+04  0.22536267682E+04  0.50400001928E-02 0.  1.
</event>
<event>
 5   0  0.2529875E-07  0.3416926E+04  0.7818609E-02  0.8133765E-01
        1   -1    0    0  501    0  0.00000000000E+00  0.00000000000E+00  0.25184319841E+04  0.25184319841E+04  0.50400001928E-02 0. -1.
       -1   -1    0    0    0  501  0.00000000000E+00  0.00000000000E+00 -0.11589930630E+04  0.11589930630E+04  0.50400001928E-02 0.  1.
    10030    2    1    2    0    0  0.00000000000E+00  0.00000000000E+00  0.13594389210E+04  0.36774250471E+04  0.34169256353E+04 0.  0.
        5    1    3    3  502    0  0.87536297092E+03 -0.14582059820E+04  0.85391744970E+03  0.19031085407E+04  0.46999998093E+01 0. -1.
       -5    1    3    3    0  502 -0.87536297092E+03  0.14582059820E+04  0.50552147134E+03  0.17743165064E+04  0.46999998093E+01 0.  1.
</event>
<event>
 5   0  0.2529875E-07  0.3747240E+04  0.7818609E-02  0.8057573E-01
        1   -1    0    0  501    0  0.00000000000E+00  0.00000000000E+00  0.22297930413E+04  0.22297930413E+04  0.50400001928E-02 0. -1.
       -1   -1    0    0    0  501  0.00000000000E+00  0.00000000000E+00 -0.15743395657E+04  0.15743395657E+04  0.50400001928E-02 0.  1.
    10030    2    1    2    0    0  0.00000000000E+00  0.00000000000E+00  0.65545347557E+03  0.38041326070E+04  0.37472397352E+04 0.  0.
        1    1    3    3  502    0  0.65376283751E+03  0.17273813401E+04  0.79856860458E+01  0.18469748003E+04  0.50400001928E-02 0. -1.
       -1    1    3    3    0  502 -0.65376283751E+03 -0.17273813401E+04  0.64746778952E+03  0.19571578067E+04  0.50400001928E-02 0.  1.
</event>
<event>
 5   0  0.2529875E-07  0.3776897E+04  0.7818609E-02  0.8051131E-01
        1   -1    0    0  501    0  0.00000000000E+00  0.00000000000E+00  0.11061630437E+04  0.11061630438E+04  0.50400001928E-02 0.  1.
       -1   -1    0    0    0  501  0.00000000000E+00  0.00000000000E+00 -0.32239707410E+04  0.32239707410E+04  0.50400001928E-02 0. -1.
    10030    2    1    2    0    0  0.00000000000E+00  0.00000000000E+00 -0.21178076973E+04  0.43301337848E+04  0.37768967621E+04 0.  0.
        3    1    3    3  502    0 -0.65973136812E+03 -0.11158981121E+04  0.51547693110E+03  0.13950593362E+04  0.10100000352E+00 0.  1.
       -3    1    3    3    0  502  0.65973136812E+03  0.11158981121E+04 -0.26332846284E+04  0.29350744486E+04  0.10100000352E+00 0. -1.
</event>
<event>
 5   0  0.7551495E-07  0.3800566E+04  0.7818609E-02  0.8046033E-01
        2   -1    0    0  501    0  0.00000000000E+00  0.00000000000E+00  0.12249620874E+04  0.12249620874E+04  0.25500000920E-02 0. -1.
       -2   -1    0    0    0  501  0.00000000000E+00  0.00000000000E+00 -0.29479078504E+04  0.29479078504E+04  0.25500000920E-02 0.  1.
    10030    2    1    2    0    0  0.00000000000E+00  0.00000000000E+00 -0.17229457631E+04  0.41728699378E+04  0.38005659336E+04 0.  0.
        1    1    3    3  502    0  0.52995346117E+03  0.17477079465E+04 -0.28492187314E+03  0.18483815112E+04  0.50400001928E-02 0.  1.
       -1    1    3    3    0  502 -0.52995346117E+03 -0.17477079465E+04 -0.14380238899E+04  0.23244884266E+04  0.50400001928E-02 0. -1.
</event>
<event>
 5   0  0.7551495E-07  0.3296054E+04  0.7818609E-02  0.8163900E-01
        2   -1    0    0  501    0  0.00000000000E+00  0.00000000000E+00  0.13544643142E+04  0.13544643142E+04  0.25500000920E-02 0.  1.
       -2   -1    0    0    0  501  0.00000000000E+00  0.00000000000E+00 -0.20052152152E+04  0.20052152152E+04  0.25500000920E-02 0. -1.
    10030    2    1    2    0    0  0.00000000000E+00  0.00000000000E+00 -0.65075090097E+03  0.33596795294E+04  0.32960536715E+04 0.  0.
        1    1    3    3  502    0  0.57047198383E+03  0.45224403928E+03 -0.18324390733E+04  0.19717494548E+04  0.50400001928E-02 0. -1.
       -1    1    3    3    0  502 -0.57047198383E+03 -0.45224403928E+03  0.11816881723E+04  0.13879300746E+04  0.50400001928E-02 0.  1.
</event>
<event>
 5   0  0.7649458E-07  0.3760242E+04  0.7818609E-02  0.8054741E-01
        2   -1    0    0  501    0  0.00000000000E+00  0.00000000000E+00  0.15046434306E+04  0.15046434306E+04  0.25500000920E-02 0. -1.
       -2   -1    0    0    0  501  0.00000000000E+00  0.00000000000E+00 -0.23492969564E+04  0.23492969564E+04  0.25500000920E-02 0.  1.
    10030    2    1    2    0    0  0.00000000000E+00  0.00000000000E+00 -0.84465352582E+03  0.38539403870E+04  0.37602416050E+04 0.  0.
        4    1    3    3  502    0  0.11004602471E+04 -0.71572116553E+03 -0.18018161697E+04  0.22293076648E+04  0.12699999809E+01 0.  1.
       -4    1    3    3    0  502 -0.11004602471E+04  0.71572116553E+03  0.95716264386E+03  0.16246327222E+04  0.12699999809E+01 0. -1.
</event>
<event>
 5   0  0.2907071E-07  0.3800220E+04  0.7818609E-02  0.8046108E-01
       -1   -1    0    0    0  501  0.00000000000E+00  0.00000000000E+00  0.12955491379E+04  0.12955491379E+04  0.50400001928E-02 0. -1.
        1   -1    0    0  501    0  0.00000000000E+00  0.00000000000E+00 -0.27867860846E+04  0.27867860846E+04  0.50400001928E-02 0.  1.
    10030    2    1    2    0    0  0.00000000000E+00  0.00000000000E+00 -0.14912369467E+04  0.40823352225E+04  0.38002201565E+04 0.  0.
        2    1    3    3  502    0  0.87034988635E+03  0.10240875625E+04 -0.21885200755E+04  0.25682453896E+04  0.25500000920E-02 0.  1.
       -2    1    3    3    0  502 -0.87034988635E+03 -0.10240875625E+04  0.69728312879E+03  0.15140898329E+04  0.25500000920E-02 0. -1.
</event>
<event>
 5   0  0.7638805E-07  0.3827676E+04  0.7818609E-02  0.8040242E-01
        2   -1    0    0  501    0  0.00000000000E+00  0.00000000000E+00  0.19379210806E+04  0.19379210806E+04  0.25500000920E-02 0.  1.
       -2   -1    0    0    0  501  0.00000000000E+00  0.00000000000E+00 -0.18900546201E+04  0.18900546201E+04  0.25500000920E-02 0. -1.
    10030    2    1    2    0    0  0.00000000000E+00  0.00000000000E+00  0.47866460432E+02  0.38279757007E+04  0.38276764188E+04 0.  0.
        5    1    3    3  502    0  0.13340798501E+04 -0.12818797352E+04 -0.46576810335E+03  0.19078644391E+04  0.46999998093E+01 0. -1.
       -5    1    3    3    0  502 -0.13340798501E+04  0.12818797352E+04  0.51363456378E+03  0.19201112616E+04  0.46999998093E+01 0.  1.
</event>
<event>
 5   0  0.7638805E-07  0.2334935E+04  0.7818609E-02  0.8464273E-01
       -2   -1    0    0    0  501  0.00000000000E+00  0.00000000000E+00  0.96479520635E+03  0.96479520636E+03  0.25500000920E-02 0. -1.
        2   -1    0    0  501    0  0.00000000000E+00  0.00000000000E+00 -0.14127152521E+04  0.14127152521E+04  0.25500000920E-02 0.  1.
    10030    2    1    2    0    0  0.00000000000E+00  0.00000000000E+00 -0.44792004574E+03  0.23775104585E+04  0.23349354622E+04 0.  0.
        5    1    3    3  502    0 -0.15747100377E+03  0.13731724016E+03 -0.13935139987E+04  0.14090977596E+04  0.46999998093E+01 0.  1.
       -5    1    3    3    0  502  0.15747100377E+03 -0.13731724016E+03  0.94559395296E+03  0.96841269888E+03  0.46999998093E+01 0. -1.
</event>
<event>
 5   0  0.8421677E-07  0.3729798E+04  0.7818609E-02  0.8061390E-01
        2   -1    0    0  501    0  0.00000000000E+00  0.00000000000E+00  0.16114862495E+04  0.16114862495E+04  0.25500000920E-02 0.  1.
       -2   -1    0    0    0  501  0.00000000000E+00  0.00000000000E+00 -0.21581615965E+04  0.21581615965E+04  0.25500000920E-02 0. -1.
    10030    2    1    2    0    0  0.00000000000E+00  0.00000000000E+00 -0.54667534704E+03  0.37696478460E+04  0.37297977087E+04 0.  0.
        3    1    3    3  502    0  0.46460561959E+03  0.15893087227E+04 -0.11404594942E+04  0.20105741632E+04  0.10100000352E+00 0.  1.
       -3    1    3    3    0  502 -0.46460561959E+03 -0.15893087227E+04  0.59378414714E+03  0.17590736828E+04  0.10100000352E+00 0. -1.
</event>
<event>
 5   0  0.7638805E-07  0.3787202E+04  0.7818609E-02  0.8048907E-01
        2   -1    0    0  501    0  0.00000000000E+00  0.00000000000E+00  0.27403425030E+04  0.27403425030E+04  0.25500000920E-02 0.  1.
       -2   -1    0    0    0  501  0.00000000000E+00  0.00000000000E+00 -0.13084948799E+04  0.13084948799E+04  0.25500000920E-02 0. -1.
    10030    2    1    2    0    0  0.00000000000E+00  0.00000000000E+00  0.14318476231E+04  0.40488373830E+04  0.37872016765E+04 0.  0.
        5    1    3    3  502    0 -0.13975238769E+04  0.75216352563E+03 -0.38833151486E+03  0.16339052638E+04  0.46999998093E+01 0.  1.
       -5    1    3    3    0  502  0.13975238769E+04 -0.75216352563E+03  0.18201791380E+04  0.24149321191E+04  0.46999998093E+01 0. -1.
</event>
<event>
 5   0  0.8038352E-07  0.3850650E+04  0.7818609E-02  0.8035372E-01
        2   -1    0    0  501    0  0.00000000000E+00  0.00000000000E+00  0.23060923021E+04  0.23060923021E+04  0.25500000920E-02 0. -1.
       -2   -1    0    0    0  501  0.00000000000E+00  0.00000000000E+00 -0.16074279393E+04  0.16074279393E+04  0.25500000920E-02 0.  1.
    10030    2    1    2    0    0  0.00000000000E+00  0.00000000000E+00  0.69866436281E+03  0.39135202415E+04  0.38506504371E+04 0.  0.
        2    1    3    3  502    0 -0.17852346410E+04 -0.11952328653E+01 -0.38341992648E+03  0.18259449587E+04  0.25500000920E-02 0.  1.
       -2    1    3    3    0  502  0.17852346410E+04  0.11952328653E+01  0.10820842893E+04  0.20875752828E+04  0.25500000920E-02 0. -1.
</event>
<event>
 5   0  0.7638805E-07  0.3758277E+04  0.7818609E-02  0.8055168E-01
        2   -1    0    0  501    0  0.00000000000E+00  0.00000000000E+00  0.25776676616E+04  0.25776676616E+04  0.25500000920E-02 0.  1.
       -2   -1    0    0    0  501  0.00000000000E+00  0.00000000000E+00 -0.13699056567E+04  0.13699056567E+04  0.25500000920E-02 0. -1.
    10030    2    1    2    0    0  0.00000000000E+00  0.00000000000E+00  0.12077620050E+04  0.39475733183E+04  0.37582770046E+04 0.  0.
        5    1    3    3  502    0  0.85005704084E+03  0.13935571277E+04 -0.37388733852E+03  0.16746379527E+04  0.46999998093E+01 0. -1.
       -5    1    3    3    0  502 -0.85005704084E+03 -0.13935571277E+04  0.15816493435E+04  0.22729353656E+04  0.46999998093E+01 0.  1.
</event>
<event>
 5   0  0.8038352E-07  0.3371663E+04  0.7818609E-02  0.8144896E-01
       -2   -1    0    0    0  501  0.00000000000E+00  0.00000000000E+00  0.19589300107E+04  0.19589300107E+04  0.25500000920E-02 0.  1.
        2   -1    0    0  501    0  0.00000000000E+00  0.00000000000E+00 -0.14508064558E+04  0.14508064559E+04  0.25500000920E-02 0. -1.
    10030    2    1    2    0    0  0.00000000000E+00  0.00000000000E+00  0.50812355482E+03  0.34097364665E+04  0.33716632727E+04 0.  0.
        2    1    3    3  502    0 -0.48598475633E+02  0.10941429604E+04 -0.10420177335E+04  0.15117247059E+04  0.25500000920E-02 0. -1.
       -2    1    3    3    0  502  0.48598475633E+02 -0.10941429604E+04  0.15501412883E+04  0.18980117606E+04  0.25500000920E-02 0.  1.
</event>
<event>
 5   0  0.7649458E-07  0.3881676E+04  0.7818609E-02  0.8028851E-01
        2   -1    0    0  501    0  0.00000000000E+00  0.00000000000E+00  0.13310289561E+04  0.13310289561E+04  0.25500000920E-02 0. -1.
       -2   -1    0    0    0  501  0.00000000000E+00  0.00000000000E+00 -0.28300296554E+04  0.28300296554E+04  0.25500000920E-02 0.  1.
    10030    2    1    2    0    0  0.00000000000E+00  0.00000000000E+00 -0.14990006993E+04  0.41610586115E+04  0.38816756269E+04 0.  0.
        4    1    3    3  502    0 -0.49152491766E+02  0.18861053684E+04 -0.12372670156E+04  0.22562448247E+04  0.12699999809E+01 0.  1.
       -4    1    3    3    0  502  0.49152491766E+02 -0.18861053684E+04 -0.26173368363E+03  0.19048137868E+04  0.12699999809E+01 0. -1.
</event>
<event>
 5   0  0.7551495E-07  0.3838554E+04  0.7818609E-02  0.8037932E-01
        2   -1    0    0  501    0  0.00000000000E+00  0.00000000000E+00  0.19894806045E+04  0.19894806045E+04  0.25500000920E-02 0. -1.
       -2   -1    0    0    0  501  0.00000000000E+00  0.00000000000E+00 -0.18515507289E+04  0.18515507289E+04  0.25500000920E-02 0.  1.
    10030    2    1    2    0    0  0.00000000000E+00  0.00000000000E+00  0.13792987557E+03  0.38410313334E+04  0.38385540317E+04 0.  0.
        1    1    3    3  502    0  0.12371518620E+04  0.33092601548E+03 -0.13614916630E+04  0.18691485510E+04  0.50400001928E-02 0.  1.
       -1    1    3    3    0  502 -0.12371518620E+04 -0.33092601548E+03  0.14994215385E+04  0.19718827824E+04  0.50400001928E-02 0. -1.
</event>
<event>
 5   0  0.2529875E-07  0.3577272E+04  0.7818609E-02  0.8095718E-01
        1   -1    0    0  501    0  0.00000000000E+00  0.00000000000E+00  0.32051892030E+04  0.32051892030E+04  0.50400001928E-02 0. -1.
       -1   -1    0    0    0  501  0.00000000000E+00  0.00000000000E+00 -0.99813749625E+03  0.99813749626E+03  0.50400001928E-02 0.  1.
    10030    2    1    2    0    0  0.00000000000E+00  0.00000000000E+00  0.22070517068E+04  0.42033266993E+04  0.35772724392E+04 0.  0.
        1    1    3    3  502    0  0.17324672451E+04 -0.28280922402E+03  0.15068051004E+04  0.23134142351E+04  0.50400001928E-02 0. -1.
       -1    1    3    3    0  502 -0.17324672451E+04  0.28280922402E+03  0.70024660634E+03  0.18899124642E+04  0.50400001928E-02 0.  1.
</event>
<event>
 5   0  0.2529875E-07  0.3827655E+04  0.7818609E-02  0.8040246E-01
        1   -1    0    0  501    0  0.00000000000E+00  0.00000000000E+00  0.31861422725E+04  0.31861422725E+04  0.50400001928E-02 0.  1.
       -1   -1    0    0    0  501  0.00000000000E+00  0.00000000000E+00 -0.11495829939E+04  0.11495829939E+04  0.50400001928E-02 0. -1.
    10030    2    1    2    0    0  0.00000000000E+00  0.00000000000E+00  0.20365592785E+04  0.43357252664E+04  0.38276546201E+04 0.  0.
        5    1    3    3  502    0  0.16454935197E+04  0.67039092704E+03  0.21280901176E+03  0.17895202385E+04  0.46999998093E+01 0. -1.
       -5    1    3    3    0  502 -0.16454935197E+04 -0.67039092704E+03  0.18237502668E+04  0.25462050279E+04  0.46999998093E+01 0.  1.
</event>
<event>
 5   0  0.2907071E-07  0.3834914E+04  0.7818609E-02  0.8038704E-01
       -1   -1    0    0    0  501  0.00000000000E+00  0.00000000000E+00  0.23747871309E+04  0.23747871309E+04  0.50400001928E-02 0.  1.
        1   -1    0    0  501    0  0.00000000000E+00  0.00000000000E+00 -0.15481983157E+04  0.15481983157E+04  0.50400001928E-02 0. -1.
    10030    2    1    2    0    0  0.00000000000E+00  0.00000000000E+00  0.82658881516E+03  0.39229854466E+04  0.38349140466E+04 0.  0.
        2    1    3    3  502    0 -0.19467288262E+03 -0.13928188286E+04 -0.92001867246E+03  0.16805582936E+04  0.25500000920E-02 0. -1.
       -2    1    3    3    0  502  0.19467288262E+03  0.13928188286E+04  0.17466074876E+04  0.22424271530E+04  0.25500000920E-02 0.  1.
</event>
<event>
 5   0  0.2529875E-07  0.3855533E+04  0.7818609E-02  0.8034341E-01
        1   -1    0    0  501    0  0.00000000000E+00  0.00000000000E+00  0.23304186818E+04  0.23304186818E+04  0.50400001928E-02 0. -1.
       -1   -1    0    0    0  501  0.00000000000E+00  0.00000000000E+00 -0.15946853569E+04  0.15946853570E+04  0.50400001928E-02 0.  1.
    10030    2    1    2    0    0  0.00000000000E+00  0.00000000000E+00  0.73573332485E+03  0.39251040388E+04  0.38555334507E+04 0.  0.
        5    1    3    3  502    0  0.10012001286E+04 -0.46640178920E+03 -0.12406208981E+04  0.16610522657E+04  0.46999998093E+01 0.  1.
       -5    1    3    3    0  502 -0.10012001286E+04  0.46640178920E+03  0.19763542230E+04  0.22640517731E+04  0.46999998093E+01 0. -1.
</event>
<event>
 5   0  0.7551495E-07  0.3123558E+04  0.7818609E-02  0.8209302E-01
        2   -1    0    0  501    0  0.00000000000E+00  0.00000000000E+00  0.14611746304E+04  0.14611746304E+04  0.25500000920E-02 0. -1.
       -2   -1    0    0    0  501  0.00000000000E+00  0.00000000000E+00 -0.16693099418E+04  0.16693099418E+04  0.25500000920E-02 0.  1.
    10030    2    1    2    0    0  0.00000000000E+00  0.00000000000E+00 -0.20813531138E+03  0.31304845721E+04  0.31235578030E+04 0.  0.
        1    1    3    3  502    0 -0.22753844250E+03  0.14033289695E+03 -0.16462087091E+04  0.16677740191E+04  0.50400001928E-02 0.  1.
       -1    1    3    3    0  502  0.22753844250E+03 -0.14033289695E+03  0.14380733977E+04  0.14627105531E+04  0.50400001928E-02 0. -1.
</event>
<event>
 5   0  0.7649458E-07  0.3772425E+04  0.7818609E-02  0.8052098E-01
        2   -1    0    0  501    0  0.00000000000E+00  0.00000000000E+00  0.15956610987E+04  0.15956610987E+04  0.25500000920E-02 0. -1.
       -2   -1    0    0    0  501  0.00000000000E+00  0.00000000000E+00 -0.22296704667E+04  0.22296704667E+04  0.25500000920E-02 0.  1.
    10030    2    1    2    0    0  0.00000000000E+00  0.00000000000E+00 -0.63400936800E+03  0.38253315653E+04  0.37724254407E+04 0.  0.
        4    1    3    3  502    0 -0.15565161545E+04  0.49145332704E+03 -0.12755275516E+04  0.20715310907E+04  0.12699999809E+01 0.  1.
       -4    1    3    3    0  502  0.15565161545E+04 -0.49145332704E+03  0.64151818359E+03  0.17538004746E+04  0.12699999809E+01 0. -1.
</event>
<event>
 5   0  0.2529875E-07  0.3661897E+04  0.7818609E-02  0.8076459E-01
       -1   -1    0    0    0  501  0.00000000000E+00  0.00000000000E+00  0.21694516244E+04  0.21694516244E+04  0.50400001928E-02 0. -1.
        1   -1    0    0  501    0  0.00000000000E+00  0.00000000000E+00 -0.15452623152E+04  0.15452623152E+04  0.50400001928E-02 0.  1.
    10030    2    1    2    0    0  0.00000000000E+00  0.00000000000E+00  0.62418930921E+03  0.37147139396E+04  0.36618966888E+04 0.  0.
        4    1    3    3  502    0  0.16612403610E+04  0.40094774921E+03 -0.35456882176E+03  0.17453364424E+04  0.12699999809E+01 0.  1.
       -4    1    3    3    0  502 -0.16612403610E+04 -0.40094774921E+03  0.97875813097E+03  0.19693774972E+04  0.12699999809E+01 0. -1.
</event>
<event>
 5   0  0.2907071E-07  0.3751452E+04  0.7818609E-02  0.8056654E-01
        1   -1    0    0  501    0  0.00000000000E+00  0.00000000000E+00  0.22342945699E+04  0.22342945699E+04  0.50400001928E-02 0. -1.
       -1   -1    0    0    0  501  0.00000000000E+00  0.00000000000E+00 -0.15747017993E+04  0.15747017993E+04  0.50400001928E-02 0.  1.
    10030    2    1    2    0    0  0.00000000000E+00  0.00000000000E+00  0.65959277061E+03  0.38089963693E+04  0.37514518147E+04 0.  0.
        2    1    3    3  502    0 -0.16945385887E+04  0.73730045138E+03  0.65608967853E+03  0.19610014407E+04  0.25500000920E-02 0.  1.
       -2    1    3    3    0  502  0.16945385887E+04 -0.73730045138E+03  0.35030920884E+01  0.18479949285E+04  0.25500000920E-02 0. -1.
</event>
<event>
 5   0  0.2907071E-07  0.3694042E+04  0.7818609E-02  0.8069284E-01
        1   -1    0    0  501    0  0.00000000000E+00  0.00000000000E+00  0.16343291315E+04  0.16343291315E+04  0.50400001928E-02 0.  1.
       -1   -1    0    0    0  501  0.00000000000E+00  0.00000000000E+00 -0.20873920981E+04  0.20873920982E+04  0.50400001928E-02 0. -1.
    10030    2    1    2    0    0  0.00000000000E+00  0.00000000000E+00 -0.45306296661E+03  0.37217212297E+04  0.36940415347E+04 0.  0.
        2    1    3    3  502    0 -0.61761534511E+03  0.35343514438E+03  0.14906814411E+04  0.16518160535E+04  0.25500000920E-02 0.  1.
       -2    1    3    3    0  502  0.61761534511E+03 -0.35343514438E+03 -0.19437444077E+04  0.20699051762E+04  0.25500000920E-02 0. -1.
</event>
<event>
 5   0  0.8038352E-07  0.3729319E+04  0.7818609E-02  0.8061495E-01
        2   -1    0    0  501    0  0.00000000000E+00  0.00000000000E+00  0.16228982927E+04  0.16228982927E+04  0.25500000920E-02 0.  1.
       -2   -1    0    0    0  501  0.00000000000E+00  0.00000000000E+00 -0.21424359370E+04  0.21424359370E+04  0.25500000920E-02 0. -1.
    10030    2    1    2    0    0  0.00000000000E+00  0.00000000000E+00 -0.51953764433E+03  0.37653342297E+04  0.37293193075E+04 0.  0.
        2    1    3    3  502    0 -0.81675557260E+03 -0.10995892115E+04 -0.15372025149E+04  0.20589263394E+04  0.25500000920E-02 0. -1.
       -2    1    3    3    0  502  0.81675557260E+03  0.10995892115E+04  0.10176648705E+04  0.17064078903E+04  0.25500000920E-02 0.  1.
</event>
<event>
 5   0  0.2529875E-07  0.2803192E+04  0.7818609E-02  0.8302278E-01
        1   -1    0    0  501    0  0.00000000000E+00  0.00000000000E+00  0.21505337096E+04  0.21505337096E+04  0.50400001928E-02 0. -1.
       -1   -1    0    0    0  501  0.00000000000E+00  0.00000000000E+00 -0.91348111001E+03  0.91348111002E+03  0.50400001928E-02 0.  1.
    10030    2    1    2    0    0  0.00000000000E+00  0.00000000000E+00  0.12370525995E+04  0.30640148196E+04  0.28031924088E+04 0.  0.
        1    1    3    3  502    0 -0.13685083073E+04  0.20691454981E+03  0.86009488835E+03  0.16295373070E+04  0.50400001928E-02 0. -1.
       -1    1    3    3    0  502  0.13685083073E+04 -0.20691454981E+03  0.37695771120E+03  0.14344775126E+04  0.50400001928E-02 0.  1.
</event>
<event>
 5   0  0.2529875E-07  0.3499587E+04  0.7818609E-02  0.8113888E-01
        1   -1    0    0  501    0  0.00000000000E+00  0.00000000000E+00  0.16127103198E+04  0.16127103198E+04  0.50400001928E-02 0. -1.
       -1   -1    0    0    0  501  0.00000000000E+00  0.00000000000E+00 -0.18985293522E+04  0.18985293522E+04  0.50400001928E-02 0.  1.
    10030    2    1    2    0    0  0.00000000000E+00  0.00000000000E+00 -0.28581903238E+03  0.35112396720E+04  0.34995873349E+04 0.  0.
        4    1    3    3  502    0 -0.83367072220E+03 -0.93394380527E+03  0.10836659286E+04  0.16557751545E+04  0.12699999809E+01 0. -1.
       -4    1    3    3    0  502  0.83367072220E+03  0.93394380527E+03 -0.13694849610E+04  0.18554645175E+04  0.12699999809E+01 0.  1.
</event>
<event>
 5   0  0.2529875E-07  0.3793089E+04  0.7818609E-02  0.8047640E-01
        1   -1    0    0  501    0  0.00000000000E+00  0.00000000000E+00  0.24220849585E+04  0.24220849585E+04  0.50400001928E-02 0.  1.
       -1   -1    0    0    0  501  0.00000000000E+00  0.00000000000E+00 -0.14850349643E+04  0.14850349643E+04  0.50400001928E-02 0. -1.
    10030    2    1    2    0    0  0.00000000000E+00  0.00000000000E+00  0.93704999414E+03  0.39071199228E+04  0.37930888995E+04 0.  0.
        3    1    3    3  502    0  0.12349017896E+04  0.68510573702E+03  0.17724920135E+04  0.22662921809E+04  0.10100000352E+00 0.  1.
       -3    1    3    3    0  502 -0.12349017896E+04 -0.68510573702E+03 -0.83544201933E+03  0.16408277420E+04  0.10100000352E+00 0. -1.
</event>
<event>
 5   0  0.2529875E-07  0.3837248E+04  0.7818609E-02  0.8038209E-01
       -1   -1    0    0    0  501  0.00000000000E+00  0.00000000000E+00  0.23000850231E+04  0.23000850231E+04  0.50400001928E-02 0.  1.
        1   -1    0    0  501    0  0.00000000000E+00  0.00000000000E+00 -0.16004267237E+04  0.16004267237E+04  0.50400001928E-02 0. -1.
    10030    2    1    2    0    0  0.00000000000E+00  0.00000000000E+00  0.69965829946E+03  0.39005117468E+04  0.38372477313E+04 0.  0.
        4    1    3    3  502    0 -0.14547289006E+04 -0.44307764411E+03 -0.83931357475E+03  0.17369521762E+04  0.12699999809E+01 0. -1.
       -4    1    3    3    0  502  0.14547289006E+04  0.44307764411E+03  0.15389718742E+04  0.21635595706E+04  0.12699999809E+01 0.  1.
</event>
<event>
 5   0  0.7649458E-07  0.2688355E+04  0.7818609E-02  0.8338793E-01
        2   -1    0    0  501    0  0.00000000000E+00  0.00000000000E+00  0.87947152273E+03  0.87947152274E+03  0.25500000920E-02 0.  1.
       -2   -1    0    0    0  501  0.00000000000E+00  0.00000000000E+00 -0.20544300466E+04  0.20544300466E+04  0.25500000920E-02 0. -1.
    10030    2    1    2    0    0  0.00000000000E+00  0.00000000000E+00 -0.11749585239E+04  0.29339015693E+04  0.26883546801E+04 0.  0.
        4    1    3    3  502    0 -0.14558119234E+03  0.11080371691E+04 -0.14026072612E+04  0.17933903629E+04  0.12699999809E+01 0. -1.
       -4    1    3    3    0  502  0.14558119234E+03 -0.11080371691E+04  0.22764873733E+03  0.11405112065E+04  0.12699999809E+01 0.  1.
</event>
<event>
 5   0  0.8038352E-07  0.2445938E+04  0.7818609E-02  0.8422503E-01
        2   -1    0    0  501    0  0.00000000000E+00  0.00000000000E+00  0.18838485717E+04  0.18838485717E+04  0.25500000920E-02 0.  1.
       -2   -1    0    0    0  501  0.00000000000E+00  0.00000000000E+00 -0.79393478744E+03  0.79393478745E+03  0.25500000920E-02 0. -1.
    10030    2    1    2    0    0  0.00000000000E+00  0.00000000000E+00  0.10899137842E+04  0.26777833591E+04  0.24459377877E+04 0.  0.
        2    1    3    3  502    0  0.53541979548E+03  0.19297390661E+03  0.17300312222E+04  0.18212416961E+04  0.25500000920E-02 0.  1.
       -2    1    3    3    0  502 -0.53541979548E+03 -0.19297390661E+03 -0.64011743796E+03  0.85654166297E+03  0.25500000920E-02 0. -1.
</event>
<event>
 5   0  0.7638805E-07  0.3289787E+04  0.7818609E-02  0.8165499E-01
       -2   -1    0    0    0  501  0.00000000000E+00  0.00000000000E+00  0.10281736191E+04  0.10281736191E+04  0.25500000920E-02 0. -1.
        2   -1    0    0  501    0  0.00000000000E+00  0.00000000000E+00 -0.26315340380E+04  0.26315340380E+04  0.25500000920E-02 0.  1.
    10030    2    1    2    0    0  0.00000000000E+00  0.00000000000E+00 -0.16033604188E+04  0.36597076571E+04  0.32897865437E+04 0.  0.
        5    1    3    3  502    0  0.35502971777E+03  0.13920114438E+03 -0.25816722402E+04  0.26096890054E+04  0.46999998093E+01 0.  1.
       -5    1    3    3    0  502 -0.35502971777E+03 -0.13920114438E+03  0.97831182137E+03  0.10500186517E+04  0.46999998093E+01 0. -1.
</event>
<event>
 5   0  0.8421677E-07  0.2675277E+04  0.7818609E-02  0.8343072E-01
       -2   -1    0    0    0  501  0.00000000000E+00  0.00000000000E+00  0.86508873651E+03  0.86508873651E+03  0.25500000920E-02 0. -1.
        2   -1    0    0  501    0  0.00000000000E+00  0.00000000000E+00 -0.20683152023E+04  0.20683152023E+04  0.25500000920E-02 0.  1.
    10030    2    1    2    0    0  0.00000000000E+00  0.00000000000E+00 -0.12032264658E+04  0.29334039388E+04  0.26752765727E+04 0.  0.
        3    1    3    3  502    0  0.96152594143E+03 -0.90213055663E+03 -0.84900273262E+03  0.15681764338E+04  0.10100000352E+00 0. -1.
       -3    1    3    3    0  502 -0.96152594143E+03  0.90213055663E+03 -0.35422373319E+03  0.13652275051E+04  0.10100000352E+00 0.  1.
</event>
<event>
 5   0  0.7551495E-07  0.2783184E+04  0.7818609E-02  0.8308508E-01
        2   -1    0    0  501    0  0.00000000000E+00  0.00000000000E+00  0.21289538489E+04  0.21289538489E+04  0.25500000920E-02 0. -1.
       -2   -1    0    0    0  501  0.00000000000E+00  0.00000000000E+00 -0.90961497521E+03  0.90961497521E+03  0.25500000920E-02 0.  1.
    10030    2    1    2    0    0  0.00000000000E+00  0.00000000000E+00  0.12193388737E+04  0.30385688241E+04  0.27831840058E+04 0.  0.
        1    1    3    3  502    0  0.13698742723E+04  0.15630756178E+03  0.81549073342E+03  0.16018778705E+04  0.50400001928E-02 0. -1.
       -1    1    3    3    0  502 -0.13698742723E+04 -0.15630756178E+03  0.40384814030E+03  0.14366909536E+04  0.50400001928E-02 0.  1.
</event>
<event>
 5   0  0.2529875E-07  0.3451698E+04  0.7818609E-02  0.8125333E-01
       -1   -1    0    0    0  501  0.00000000000E+00  0.00000000000E+00  0.15249892568E+04  0.15249892568E+04  0.50400001928E-02 0.  1.
        1   -1    0    0  501    0  0.00000000000E+00  0.00000000000E+00 -0.19531643386E+04  0.19531643386E+04  0.50400001928E-02 0. -1.
    10030    2    1    2    0    0  0.00000000000E+00  0.00000000000E+00 -0.42817508171E+03  0.34781535954E+04  0.34516979202E+04 0.  0.
        3    1    3    3  502    0 -0.14017050739E+04  0.96191995472E+03  0.85660919848E+02  0.17021765234E+04  0.10100000352E+00 0. -1.
       -3    1    3    3    0  502  0.14017050739E+04 -0.96191995472E+03 -0.51383600156E+03  0.17759770720E+04  0.10100000352E+00 0.  1.
</event>
<event>
 5   0  0.2529875E-07  0.3021348E+04  0.7818609E-02  0.8237661E-01
       -1   -1    0    0    0  501  0.00000000000E+00  0.00000000000E+00  0.11601877891E+04  0.11601877891E+04  0.50400001928E-02 0. -1.
        1   -1    0    0  501    0  0.00000000000E+00  0.00000000000E+00 -0.19670406919E+04  0.19670406919E+04  0.50400001928E-02 0.  1.
    10030    2    1    2    0    0  0.00000000000E+00  0.00000000000E+00 -0.80685290284E+03  0.31272284810E+04  0.30213484350E+04 0.  0.
        3    1    3    3  502    0 -0.11264291963E+04 -0.92523052567E+03 -0.81386063377E+03  0.16695099285E+04  0.10100000352E+00 0.  1.
       -3    1    3    3    0  502  0.11264291963E+04  0.92523052567E+03  0.70077309291E+01  0.14577185525E+04  0.10100000352E+00 0. -1.
</event>
<event>
 5   0  0.8421677E-07  0.3719865E+04  0.7818609E-02  0.8063574E-01
        2   -1    0    0  501    0  0.00000000000E+00  0.00000000000E+00  0.22815879435E+04  0.22815879435E+04  0.25500000920E-02 0. -1.
       -2   -1    0    0    0  501  0.00000000000E+00  0.00000000000E+00 -0.15162019216E+04  0.15162019216E+04  0.25500000920E-02 0.  1.
    10030    2    1    2    0    0  0.00000000000E+00  0.00000000000E+00  0.76538602190E+03  0.37977898651E+04  0.37198645267E+04 0.  0.
        3    1    3    3  502    0 -0.15018425745E+03  0.16553188763E+04  0.12348713491E+04  0.20706383442E+04  0.10100000352E+00 0. -1.
       -3    1    3    3    0  502  0.15018425745E+03 -0.16553188763E+04 -0.46948532722E+03  0.17271515209E+04  0.10100000352E+00 0.  1.
</event>
<event>
 5   0  0.2529875E-07  0.3776276E+04  0.7818609E-02  0.8051265E-01
        1   -1    0    0  501    0  0.00000000000E+00  0.00000000000E+00  0.19502870936E+04  0.19502870936E+04  0.50400001928E-02 0. -1.
       -1   -1    0    0    0  501  0.00000000000E+00  0.00000000000E+00 -0.18279690102E+04  0.18279690102E+04  0.50400001928E-02 0.  1.
    10030    2    1    2    0    0  0.00000000000E+00  0.00000000000E+00  0.12231808340E+03  0.37782561038E+04  0.37762756087E+04 0.  0.
        4    1    3    3  502    0  0.14214193790E+04 -0.41067796424E+02 -0.11816450379E+04  0.18488932428E+04  0.12699999809E+01 0.  1.
       -4    1    3    3    0  502 -0.14214193790E+04  0.41067796424E+02  0.13039631213E+04  0.19293628610E+04  0.12699999809E+01 0. -1.
</event>
<event>
 5   0  0.7551495E-07  0.2728132E+04  0.7818609E-02  0.8325934E-01
        2   -1    0    0  501    0  0.00000000000E+00  0.00000000000E+00  0.21923788580E+04  0.21923788580E+04  0.25500000920E-02 0. -1.
       -2   -1    0    0    0  501  0.00000000000E+00  0.00000000000E+00 -0.84870191883E+03  0.84870191883E+03  0.25500000920E-02 0.  1.
    10030    2    1    2    0    0  0.00000000000E+00  0.00000000000E+00  0.13436769392E+04  0.30410807768E+04  0.27281320669E+04 0.  0.
        1    1    3    3  502    0 -0.12340057239E+04  0.55783643672E+03  0.85406750545E+03  0.16010568137E+04  0.50400001928E-02 0. -1.
       -1    1    3    3    0  502  0.12340057239E+04 -0.55783643672E+03  0.48960943372E+03  0.14400239631E+04  0.50400001928E-02 0.  1.
</event>
<event>
 5   0  0.8421677E-07  0.3836084E+04  0.7818609E-02  0.8038455E-01
        2   -1    0    0  501    0  0.00000000000E+00  0.00000000000E+00  0.26530330641E+04  0.26530330641E+04  0.25500000920E-02 0. -1.
       -2   -1    0    0    0  501  0.00000000000E+00  0.00000000000E+00 -0.13866716630E+04  0.13866716630E+04  0.25500000920E-02 0.  1.
    10030    2    1    2    0    0  0.00000000000E+00  0.00000000000E+00  0.12663614011E+04  0.40397047271E+04  0.38360843426E+04 0.  0.
        3    1    3    3  502    0  0.25725519461E+03 -0.12536122869E+04  0.21377083970E+04  0.24914897555E+04  0.10100000352E+00 0. -1.
       -3    1    3    3    0  502 -0.25725519461E+03  0.12536122869E+04 -0.87134699586E+03  0.15482149716E+04  0.10100000352E+00 0.  1.
</event>
<event>
 5   0  0.2529875E-07  0.3766953E+04  0.7818609E-02  0.8053284E-01
       -1   -1    0    0    0  501  0.00000000000E+00  0.00000000000E+00  0.15670007368E+04  0.15670007368E+04  0.50400001928E-02 0. -1.
        1   -1    0    0  501    0  0.00000000000E+00  0.00000000000E+00 -0.22638685873E+04  0.22638685873E+04  0.50400001928E-02 0.  1.
    10030    2    1    2    0    0  0.00000000000E+00  0.00000000000E+00 -0.69686785051E+03  0.38308693241E+04  0.37669530097E+04 0.  0.
        3    1    3    3  502    0  0.83462207630E+03  0.98376336806E+03  0.10471107790E+04  0.16615731607E+04  0.10100000352E+00 0. -1.
       -3    1    3    3    0  502 -0.83462207630E+03 -0.98376336806E+03 -0.17439786295E+04  0.21692961635E+04  0.10100000352E+00 0.  1.
</event>
<event>
 5   0  0.8421677E-07  0.3778161E+04  0.7818609E-02  0.8050858E-01
       -2   -1    0    0    0  501  0.00000000000E+00  0.00000000000E+00  0.26050907020E+04  0.26050907020E+04  0.25500000920E-02 0. -1.
        2   -1    0    0  501    0  0.00000000000E+00  0.00000000000E+00 -0.13698658180E+04  0.13698658180E+04  0.25500000920E-02 0.  1.
    10030    2    1    2    0    0  0.00000000000E+00  0.00000000000E+00  0.12352248840E+04  0.39749565200E+04  0.37781607724E+04 0.  0.
        3    1    3    3  502    0 -0.38304075102E+03  0.12045328535E+04  0.20946645613E+04  0.24464748612E+04  0.10100000352E+00 0. -1.
       -3    1    3    3    0  502  0.38304075102E+03 -0.12045328535E+04 -0.85943967732E+03  0.15284816588E+04  0.10100000352E+00 0.  1.
</event>
<event>
 5   0  0.7551495E-07  0.3470244E+04  0.7818609E-02  0.8120878E-01
        2   -1    0    0  501    0  0.00000000000E+00  0.00000000000E+00  0.19851383391E+04  0.19851383391E+04  0.25500000920E-02 0. -1.
       -2   -1    0    0    0  501  0.00000000000E+00  0.00000000000E+00 -0.15165934440E+04  0.15165934440E+04  0.25500000920E-02 0.  1.
    10030    2    1    2    0    0  0.00000000000E+00  0.00000000000E+00  0.46854489504E+03  0.35017317831E+04  0.34702436747E+04 0.  0.
        1    1    3    3  502    0  0.12367285215E+04 -0.18145808560E+03  0.14486134928E+04  0.19133492949E+04  0.50400001928E-02 0. -1.
       -1    1    3    3    0  502 -0.12367285215E+04  0.18145808560E+03 -0.98006859774E+03  0.15883824882E+04  0.50400001928E-02 0.  1.
</event>
<event>
 5   0  0.2529875E-07  0.3753894E+04  0.7818609E-02  0.8056122E-01
       -1   -1    0    0    0  501  0.00000000000E+00  0.00000000000E+00  0.17144466626E+04  0.17144466626E+04  0.50400001928E-02 0.  1.
        1   -1    0    0  501    0  0.00000000000E+00  0.00000000000E+00 -0.20548494037E+04  0.20548494037E+04  0.50400001928E-02 0. -1.
    10030    2    1    2    0    0  0.00000000000E+00  0.00000000000E+00 -0.34040274109E+03  0.37692960663E+04  0.37538938197E+04 0.  0.
        4    1    3    3  502    0 -0.12686797387E+04 -0.10165790293E+04 -0.11121050570E+04  0.19697107587E+04  0.12699999809E+01 0. -1.
       -4    1    3    3    0  502  0.12686797387E+04  0.10165790293E+04  0.77170231590E+03  0.17995853076E+04  0.12699999809E+01 0.  1.
</event>
<event>
 5   0  0.7649458E-07  0.2751407E+04  0.7818609E-02  0.8318515E-01
        2   -1    0    0  501    0  0.00000000000E+00  0.00000000000E+00  0.20350741582E+04  0.20350741582E+04  0.25500000920E-02 0.  1.
       -2   -1    0    0    0  501  0.00000000000E+00  0.00000000000E+00 -0.92997097010E+03  0.92997097010E+03  0.25500000920E-02 0. -1.
    10030    2    1    2    0    0  0.00000000000E+00  0.00000000000E+00  0.11051031881E+04  0.29650451283E+04  0.27514068323E+04 0.  0.
        4    1    3    3  502    0 -0.35585402007E+01 -0.13615737841E+04  0.34065638084E+03  0.14035470122E+04  0.12699999809E+01 0. -1.
       -4    1    3    3    0  502  0.35585402007E+01  0.13615737841E+04  0.76444680728E+03  0.15614981161E+04  0.12699999809E+01 0.  1.
</event>
<event>
 5   0  0.8038352E-07  0.3534208E+04  0.7818609E-02  0.8105731E-01
        2   -1    0    0  501    0  0.00000000000E+00  0.00000000000E+00  0.21064047117E+04  0.21064047117E+04  0.25500000920E-02 0.  1.
       -2   -1    0    0    0  501  0.00000000000E+00  0.00000000000E+00 -0.14824582525E+04  0.14824582525E+04  0.25500000920E-02 0. -1.
    10030    2    1    2    0    0  0.00000000000E+00  0.00000000000E+00  0.62394645924E+03  0.35888629642E+04  0.35342082836E+04 0.  0.
        2    1    3    3  502    0  0.63127802548E+03 -0.24634877256E+03 -0.13452751822E+04  0.15063083944E+04  0.25500000920E-02 0. -1.
       -2    1    3    3    0  502 -0.63127802548E+03  0.24634877256E+03  0.19692216414E+04  0.20825545698E+04  0.25500000920E-02 0.  1.
</event>
<event>
 5   0  0.2529875E-07  0.3052452E+04  0.7818609E-02  0.8228910E-01
        1   -1    0    0  501    0  0.00000000000E+00  0.00000000000E+00  0.14198656256E+04  0.14198656257E+04  0.50400001928E-02 0.  1.
       -1   -1    0    0    0  501  0.00000000000E+00  0.00000000000E+00 -0.16405534245E+04  0.16405534245E+04  0.50400001928E-02 0. -1.
    10030    2    1    2    0    0  0.00000000000E+00  0.00000000000E+00 -0.22068779883E+03  0.30604190501E+04  0.30524517454E+04 0.  0.
        3    1    3    3  502    0  0.59929379938E+03 -0.74185123882E+03 -0.13050366855E+04  0.16163592049E+04  0.10100000352E+00 0. -1.
       -3    1    3    3    0  502 -0.59929379938E+03  0.74185123882E+03  0.10843488867E+04  0.14440598453E+04  0.10100000352E+00 0.  1.
</event>
<event>
 5   0  0.2529875E-07  0.3815812E+04  0.7818609E-02  0.8042770E-01
        1   -1    0    0  501    0  0.00000000000E+00  0.00000000000E+00  0.20729293580E+04  0.20729293580E+04  0.50400001928E-02 0.  1.
       -1   -1    0    0    0  501  0.00000000000E+00  0.00000000000E+00 -0.17560196889E+04  0.17560196889E+04  0.50400001928E-02 0. -1.
    10030    2    1    2    0    0  0.00000000000E+00  0.00000000000E+00  0.31690966909E+03  0.38289490469E+04  0.38158117178E+04 0.  0.
        4    1    3    3  502    0 -0.24095233258E+03  0.84221748012E+03  0.18591986835E+04  0.20552395647E+04  0.12699999809E+01 0.  1.
       -4    1    3    3    0  502  0.24095233258E+03 -0.84221748012E+03 -0.15422890144E+04  0.17737094822E+04  0.12699999809E+01 0. -1.
</event>
<event>
 5   0  0.2529875E-07  0.3187763E+04  0.7818609E-02  0.8192056E-01
        1   -1    0    0  501    0  0.00000000000E+00  0.00000000000E+00  0.19792306871E+04  0.19792306872E+04  0.50400001928E-02 0.  1.
       -1   -1    0    0    0  501  0.00000000000E+00  0.00000000000E+00 -0.12835583199E+04  0.12835583199E+04  0.50400001928E-02 0. -1.
    10030    2    1    2    0    0  0.00000000000E+00  0.00000000000E+00  0.69567236722E+03  0.32627890071E+04  0.31877628617E+04 0.  0.
        5    1    3    3  502    0  0.54426265335E+03  0.42655548308E+03 -0.11220210963E+04  0.13180003211E+04  0.46999998093E+01 0. -1.
       -5    1    3    3    0  502 -0.54426265335E+03 -0.42655548308E+03  0.18176934635E+04  0.19447886860E+04  0.46999998093E+01 0.  1.
</event>
<event>
 5   0  0.2529875E-07  0.3779302E+04  0.7818609E-02  0.8050611E-01
       -1   -1    0    0    0  501  0.00000000000E+00  0.00000000000E+00  0.17127963990E+04  0.17127963990E+04  0.50400001928E-02 0. -1.
        1   -1    0    0  501    0  0.00000000000E+00  0.00000000000E+00 -0.20847665848E+04  0.20847665848E+04  0.50400001928E-02 0.  1.
    10030    2    1    2    0    0  0.00000000000E+00  0.00000000000E+00 -0.37197018576E+03  0.37975629838E+04  0.37793018928E+04 0.  0.
        4    1    3    3  502    0 -0.13368564088E+04  0.82936981371E+03 -0.12378188555E+04  0.20018083019E+04  0.12699999809E+01 0.  1.
       -4    1    3    3    0  502  0.13368564088E+04 -0.82936981371E+03  0.86584866977E+03  0.17957546819E+04  0.12699999809E+01 0. -1.
</event>
<event>
 5   0  0.2529875E-07  0.3814546E+04  0.7818609E-02  0.8043041E-01
       -1   -1    0    0    0  501  0.00000000000E+00  0.00000000000E+00  0.30370597264E+04  0.30370597264E+04  0.50400001928E-02 0.  1.
        1   -1    0    0  501    0  0.00000000000E+00  0.00000000000E+00 -0.11977669210E+04  0.11977669210E+04  0.50400001928E-02 0. -1.
    10030    2    1    2    0    0  0.00000000000E+00  0.00000000000E+00  0.18392928054E+04  0.42348266475E+04  0.38145456755E+04 0.  0.
        1    1    3    3  502    0 -0.16402858648E+04  0.36096157983E+03  0.19230283578E+04  0.25532075993E+04  0.50400001928E-02 0.  1.
       -1    1    3    3    0  502  0.16402858648E+04 -0.36096157983E+03 -0.83735552358E+02  0.16816190482E+04  0.50400001928E-02 0. -1.
</event>
<event>
 5   0  0.7638805E-07  0.2868509E+04  0.7818609E-02  0.8282309E-01
        2   -1    0    0  501    0  0.00000000000E+00  0.00000000000E+00  0.14822588249E+04  0.14822588249E+04  0.25500000920E-02 0. -1.
       -2   -1    0    0    0  501  0.00000000000E+00  0.00000000000E+00 -0.13878048405E+04  0.13878048405E+04  0.25500000920E-02 0.  1.
    10030    2    1    2    0    0  0.00000000000E+00  0.00000000000E+00  0.94453984340E+02  0.28700636654E+04  0.28685090009E+04 0.  0.
        5    1    3    3  502    0 -0.13243742695E+04 -0.11692331971E+02  0.59794329756E+03  0.14531559426E+04  0.46999998093E+01 0. -1.
       -5    1    3    3    0  502  0.13243742695E+04  0.11692331971E+02 -0.50348931322E+03  0.14169077228E+04  0.46999998093E+01 0.  1.
</event>
<event>
 5   0  0.2529875E-07  0.3765389E+04  0.7818609E-02  0.8053623E-01
       -1   -1    0    0    0  501  0.00000000000E+00  0.00000000000E+00  0.10305340570E+04  0.10305340570E+04  0.50400001928E-02 0.  1.
        1   -1    0    0  501    0  0.00000000000E+00  0.00000000000E+00 -0.34395161782E+04  0.34395161782E+04  0.50400001928E-02 0. -1.
    10030    2    1    2    0    0  0.00000000000E+00  0.00000000000E+00 -0.24089821213E+04  0.44700502352E+04  0.37653889898E+04 0.  0.
        4    1    3    3  502    0 -0.15761472529E+03 -0.12185301638E+04 -0.28979389130E+04  0.31476514607E+04  0.12699999809E+01 0. -1.
       -4    1    3    3    0  502  0.15761472529E+03  0.12185301638E+04  0.48895679170E+03  0.13223987745E+04  0.12699999809E+01 0.  1.
</event>
<event>
 5   0  0.7638805E-07  0.3805361E+04  0.7818609E-02  0.8045005E-01
       -2   -1    0    0    0  501  0.00000000000E+00  0.00000000000E+00  0.14311519315E+04  0.14311519315E+04  0.25500000920E-02 0.  1.
        2   -1    0    0  501    0  0.00000000000E+00  0.00000000000E+00 -0.25295654560E+04  0.25295654560E+04  0.25500000920E-02 0. -1.
    10030    2    1    2    0    0  0.00000000000E+00  0.00000000000E+00 -0.10984135245E+04  0.39607173876E+04  0.38053606864E+04 0.  0.
        5    1    3    3  502    0  0.96885214534E+03 -0.13673311998E+04  0.38863517396E+03  0.17202698852E+04  0.46999998093E+01 0.  1.
       -5    1    3    3    0  502 -0.96885214534E+03  0.13673311998E+04 -0.14870486985E+04  0.22404475024E+04  0.46999998093E+01 0. -1.
</event>
<event>
 5   0  0.8421677E-07  0.2374055E+04  0.7818609E-02  0.8449281E-01
        2   -1    0    0  501    0  0.00000000000E+00  0.00000000000E+00  0.18715800337E+04  0.18715800337E+04  0.25500000920E-02 0. -1.
       -2   -1    0    0    0  501  0.00000000000E+00  0.00000000000E+00 -0.75285805870E+03  0.75285805871E+03  0.25500000920E-02 0.  1.
    10030    2    1    2    0    0  0.00000000000E+00  0.00000000000E+00  0.11187219750E+04  0.26244380924E+04  0.23740548527E+04 0.  0.
        3    1    3    3  502    0  0.46247659717E+03  0.50206939833E+03  0.16329026115E+04  0.17698387589E+04  0.10100000352E+00 0. -1.
       -3    1    3    3    0  502 -0.46247659717E+03 -0.50206939833E+03 -0.51418063650E+03  0.85459933351E+03  0.10100000352E+00 0.  1.
</event>
<event>
 5   0  0.8421677E-07  0.3822068E+04  0.7818609E-02  0.8041436E-01
       -2   -1    0    0    0  501  0.00000000000E+00  0.00000000000E+00  0.28984428496E+04  0.28984428496E+04  0.25500000920E-02 0.  1.
        2   -1    0    0  501    0  0.00000000000E+00  0.00000000000E+00 -0.12600047991E+04  0.12600047991E+04  0.25500000920E-02 0. -1.
    10030    2    1    2    0    0  0.00000000000E+00  0.00000000000E+00  0.16384380505E+04  0.41584476488E+04  0.38220684978E+04 0.  0.
        3    1    3    3  502    0 -0.17714794160E+04  0.34650525611E+03  0.15020235100E+04  0.23482503803E+04  0.10100000352E+00 0.  1.
       -3    1    3    3    0  502  0.17714794160E+04 -0.34650525611E+03  0.13641454054E+03  0.18101972685E+04  0.10100000352E+00 0. -1.
</event>
<event>
 5   0  0.2529875E-07  0.3799955E+04  0.7818609E-02  0.8046165E-01
        1   -1    0    0  501    0  0.00000000000E+00  0.00000000000E+00  0.22586035841E+04  0.22586035841E+04  0.50400001928E-02 0. -1.
       -1   -1    0    0    0  501  0.00000000000E+00  0.00000000000E+00 -0.15982945264E+04  0.15982945264E+04  0.50400001928E-02 0.  1.
    10030    2    1    2    0    0  0.00000000000E+00  0.00000000000E+00  0.66030905771E+03  0.38568981105E+04  0.37999546028E+04 0.  0.
        5    1    3    3  502    0 -0.15935837399E+04 -0.54773736215E+03 -0.56070329067E+03  0.17759323254E+04  0.46999998093E+01 0. -1.
       -5    1    3    3    0  502  0.15935837399E+04  0.54773736215E+03  0.12210123484E+04  0.20809657851E+04  0.46999998093E+01 0.  1.
</event>
<event>
 5   0  0.7638805E-07  0.3509753E+04  0.7818609E-02  0.8111482E-01
        2   -1    0    0  501    0  0.00000000000E+00  0.00000000000E+00  0.16684310734E+04  0.16684310734E+04  0.25500000920E-02 0. -1.
       -2   -1    0    0    0  501  0.00000000000E+00  0.00000000000E+00 -0.18458009592E+04  0.18458009592E+04  0.25500000920E-02 0.  1.
    10030    2    1    2    0    0  0.00000000000E+00  0.00000000000E+00 -0.17736988573E+03  0.35142320326E+04  0.35097530829E+04 0.  0.
        5    1    3    3  502    0 -0.17072526267E+03  0.11605915032E+04 -0.13955132794E+04  0.18230740949E+04  0.46999998093E+01 0.  1.
       -5    1    3    3    0  502  0.17072526267E+03 -0.11605915032E+04  0.12181433937E+04  0.16911579377E+04  0.46999998093E+01 0. -1.
</event>
<event>
 5   0  0.8421677E-07  0.3615723E+04  0.7818609E-02  0.8086900E-01
       -2   -1    0    0    0  501  0.00000000000E+00  0.00000000000E+00  0.12559330653E+04  0.12559330653E+04  0.25500000920E-02 0. -1.
        2   -1    0    0  501    0  0.00000000000E+00  0.00000000000E+00 -0.26023388561E+04  0.26023388561E+04  0.25500000920E-02 0.  1.
    10030    2    1    2    0    0  0.00000000000E+00  0.00000000000E+00 -0.13464057908E+04  0.38582719215E+04  0.36157231181E+04 0.  0.
        3    1    3    3  502    0  0.15472101745E+03 -0.43173689012E+02 -0.25947088449E+04  0.25996762415E+04  0.10100000352E+00 0.  1.
       -3    1    3    3    0  502 -0.15472101745E+03  0.43173689012E+02  0.12483030541E+04  0.12585956800E+04  0.10100000352E+00 0. -1.
</event>
<event>
 5   0  0.2529875E-07  0.3795168E+04  0.7818609E-02  0.8047193E-01
       -1   -1    0    0    0  501  0.00000000000E+00  0.00000000000E+00  0.12532648447E+04  0.12532648447E+04  0.50400001928E-02 0.  1.
        1   -1    0    0  501    0  0.00000000000E+00  0.00000000000E+00 -0.28731550750E+04  0.28731550750E+04  0.50400001928E-02 0. -1.
    10030    2    1    2    0    0  0.00000000000E+00  0.00000000000E+00 -0.16198902303E+04  0.41264199198E+04  0.37951675847E+04 0.  0.
        3    1    3    3  502    0  0.71545786593E+03  0.19006701341E+03  0.10897896828E+04  0.13174395586E+04  0.10100000352E+00 0.  1.
       -3    1    3    3    0  502 -0.71545786593E+03 -0.19006701341E+03 -0.27096799132E+04  0.28089803612E+04  0.10100000352E+00 0. -1.
</event>
<event>
 5   0  0.2529875E-07  0.3885567E+04  0.7818609E-02  0.8028038E-01
       -1   -1    0    0    0  501  0.00000000000E+00  0.00000000000E+00  0.19918132347E+04  0.19918132347E+04  0.50400001928E-02 0.  1.
        1   -1    0    0  501    0  0.00000000000E+00  0.00000000000E+00 -0.18949606501E+04  0.18949606501E+04  0.50400001928E-02 0. -1.
    10030    2    1    2    0    0  0.00000000000E+00  0.00000000000E+00  0.96852584597E+02  0.38867738848E+04  0.38855669868E+04 0.  0.
        3    1    3    3  502    0 -0.12395995001E+03  0.78623315265E+03  0.18212293089E+04  0.19875625387E+04  0.10100000352E+00 0.  1.
       -3    1    3    3    0  502  0.12395995001E+03 -0.78623315265E+03 -0.17243767243E+04  0.18992113461E+04  0.10100000352E+00 0. -1.
</event>
<event>
 5   0  0.2529875E-07  0.3724777E+04  0.7818609E-02  0.8062493E-01
        1   -1    0    0  501    0  0.00000000000E+00  0.00000000000E+00  0.22945640090E+04  0.22945640090E+04  0.50400001928E-02 0. -1.
       -1   -1    0    0    0  501  0.00000000000E+00  0.00000000000E+00 -0.15116124175E+04  0.15116124175E+04  0.50400001928E-02 0.  1.
    10030    2    1    2    0    0  0.00000000000E+00  0.00000000000E+00  0.78295159153E+03  0.38061764265E+04  0.37247772813E+04 0.  0.
        4    1    3    3  502    0  0.42089360232E+03  0.14541727563E+04 -0.71699734443E+03  0.16750691432E+04  0.12699999809E+01 0.  1.
       -4    1    3    3    0  502 -0.42089360232E+03 -0.14541727563E+04  0.14999489360E+04  0.21311072833E+04  0.12699999809E+01 0. -1.
</event>
<event>
 5   0  0.7551495E-07  0.3792319E+04  0.7818609E-02  0.8047805E-01
       -2   -1    0    0    0  501  0.00000000000E+00  0.00000000000E+00  0.14662075282E+04  0.14662075282E+04  0.25500000920E-02 0. -1.
        2   -1    0    0  501    0  0.00000000000E+00  0.00000000000E+00 -0.24521915875E+04  0.24521915875E+04  0.25500000920E-02 0.  1.
    10030    2    1    2    0    0  0.00000000000E+00  0.00000000000E+00 -0.98598405921E+03  0.39183991157E+04  0.37923194835E+04 0.  0.
        1    1    3    3  502    0  0.93816812264E+03  0.35411935493E+03 -0.21557998153E+04  0.23776107308E+04  0.50400001928E-02 0.  1.
       -1    1    3    3    0  502 -0.93816812264E+03 -0.35411935493E+03  0.11698157560E+04  0.15407883849E+04  0.50400001928E-02 0. -1.
</event>
<event>
 5   0  0.7638805E-07  0.3844262E+04  0.7818609E-02  0.8036723E-01
       -2   -1    0    0    0  501  0.00000000000E+00  0.00000000000E+00  0.13210241870E+04  0.13210241870E+04  0.25500000920E-02 0. -1.
        2   -1    0    0  501    0  0.00000000000E+00  0.00000000000E+00 -0.27967598743E+04  0.27967598743E+04  0.25500000920E-02 0.  1.
    10030    2    1    2    0    0  0.00000000000E+00  0.00000000000E+00 -0.14757356873E+04  0.41177840612E+04  0.38442619260E+04 0.  0.
        5    1    3    3  502    0  0.17933601375E+04  0.67299164099E+03 -0.56679525159E+03  0.19975828591E+04  0.46999998093E+01 0.  1.
       -5    1    3    3    0  502 -0.17933601375E+04 -0.67299164099E+03 -0.90894043571E+03  0.21202012021E+04  0.46999998093E+01 0. -1.
</event>
<event>
 5   0  0.8038352E-07  0.3885640E+04  0.7818609E-02  0.8028022E-01
        2   -1    0    0  501    0  0.00000000000E+00  0.00000000000E+00  0.20477492078E+04  0.20477492078E+04  0.25500000920E-02 0. -1.
       -2   -1    0    0    0  501  0.00000000000E+00  0.00000000000E+00 -0.18432674880E+04  0.18432674880E+04  0.25500000920E-02 0.  1.
    10030    2    1    2    0    0  0.00000000000E+00  0.00000000000E+00  0.20448171983E+03  0.38910166958E+04  0.38856399928E+04 0.  0.
        2    1    3    3  502    0 -0.92769396575E+03  0.15276104407E+04 -0.66061362950E+03  0.19054186207E+04  0.25500000920E-02 0.  1.
       -2    1    3    3    0  502  0.92769396575E+03 -0.15276104407E+04  0.86509534932E+03  0.19855980751E+04  0.25500000920E-02 0. -1.
</event>
<event>
 5   0  0.8421677E-07  0.3597309E+04  0.7818609E-02  0.8091108E-01
        2   -1    0    0  501    0  0.00000000000E+00  0.00000000000E+00  0.17145143079E+04  0.17145143079E+04  0.25500000920E-02 0. -1.
       -2   -1    0    0    0  501  0.00000000000E+00  0.00000000000E+00 -0.18869239608E+04  0.18869239608E+04  0.25500000920E-02 0.  1.
    10030    2    1    2    0    0  0.00000000000E+00  0.00000000000E+00 -0.17240965288E+03  0.36014382687E+04  0.35973090658E+04 0.  0.
        3    1    3    3  502    0 -0.15978808912E+03  0.55081720269E+03 -0.17929274162E+04  0.18824241164E+04  0.10100000352E+00 0.  1.
       -3    1    3    3    0  502  0.15978808912E+03 -0.55081720269E+03  0.16205177633E+04  0.17190141522E+04  0.10100000352E+00 0. -1.
</event>
<event>
 5   0  0.2529875E-07  0.3635134E+04  0.7818609E-02  0.8082491E-01
        1   -1    0    0  501    0  0.00000000000E+00  0.00000000000E+00  0.17729210511E+04  0.17729210511E+04  0.50400001928E-02 0.  1.
       -1   -1    0    0    0  501  0.00000000000E+00  0.00000000000E+00 -0.18633369028E+04  0.18633369028E+04  0.50400001928E-02 0. -1.
    10030    2    1    2    0    0  0.00000000000E+00  0.00000000000E+00 -0.90415851698E+02  0.36362579539E+04  0.36351336814E+04 0.  0.
        4    1    3    3  502    0  0.13621085422E+03 -0.10439405512E+04 -0.15272809322E+04  0.18549808436E+04  0.12699999809E+01 0. -1.
       -4    1    3    3    0  502 -0.13621085422E+03  0.10439405512E+04  0.14368650805E+04  0.17812771103E+04  0.12699999809E+01 0.  1.
</event>
<event>
 5   0  0.2529875E-07  0.3105392E+04  0.7818609E-02  0.8214260E-01
       -1   -1    0    0    0  501  0.00000000000E+00  0.00000000000E+00  0.97071032863E+03  0.97071032864E+03  0.50400001928E-02 0.  1.
        1   -1    0    0  501    0  0.00000000000E+00  0.00000000000E+00 -0.24836090615E+04  0.24836090615E+04  0.50400001928E-02 0. -1.
    10030    2    1    2    0    0  0.00000000000E+00  0.00000000000E+00 -0.15128987329E+04  0.34543193901E+04  0.31053920643E+04 0.  0.
        1    1    3    3  502    0  0.11438813424E+04 -0.27380834650E+03  0.37106491847E+03  0.12333388464E+04  0.50400001928E-02 0.  1.
       -1    1    3    3    0  502 -0.11438813424E+04  0.27380834650E+03 -0.18839636513E+04  0.22209805438E+04  0.50400001928E-02 0. -1.
</event>
<event>
 5   0  0.8421677E-07  0.3865122E+04  0.7818609E-02  0.8032323E-01
        2   -1    0    0  501    0  0.00000000000E+00  0.00000000000E+00  0.20758051752E+04  0.20758051752E+04  0.25500000920E-02 0.  1.
       -2   -1    0    0    0  501  0.00000000000E+00  0.00000000000E+00 -0.17992012351E+04  0.17992012351E+04  0.25500000920E-02 0. -1.
    10030    2    1    2    0    0  0.00000000000E+00  0.00000000000E+00  0.27660394001E+03  0.38750064103E+04  0.38651215945E+04 0.  0.
        3    1    3    3  502    0  0.55004875253E+03 -0.71056544915E+03 -0.15770191212E+04  0.18150609374E+04  0.10100000352E+00 0. -1.
       -3    1    3    3    0  502 -0.55004875253E+03  0.71056544915E+03  0.18536230613E+04  0.20599454728E+04  0.10100000352E+00 0.  1.
</event>
<event>
 5   0  0.7638805E-07  0.3762907E+04  0.7818609E-02  0.8054162E-01
        2   -1    0    0  501    0  0.00000000000E+00  0.00000000000E+00  0.24660012943E+04  0.24660012943E+04  0.25500000920E-02 0. -1.
       -2   -1    0    0    0  501  0.00000000000E+00  0.00000000000E+00 -0.14354685194E+04  0.14354685194E+04  0.25500000920E-02 0.  1.
    10030    2    1    2    0    0  0.00000000000E+00  0.00000000000E+00  0.10305327749E+04  0.39014698137E+04  0.37629069756E+04 0.  0.
        5    1    3    3  502    0 -0.47099999289E+01 -0.94474614511E+02  0.24635282273E+04  0.24653480593E+04  0.46999998093E+01 0. -1.
       -5    1    3    3    0  502  0.47099999289E+01  0.94474614511E+02 -0.14329954524E+04  0.14361217544E+04  0.46999998093E+01 0.  1.
</event>
<event>
 5   0  0.2529875E-07  0.3868049E+04  0.7818609E-02  0.8031707E-01
        1   -1    0    0  501    0  0.00000000000E+00  0.00000000000E+00  0.21790680758E+04  0.21790680758E+04  0.50400001928E-02 0.  1.
       -1   -1    0    0    0  501  0.00000000000E+00  0.00000000000E+00 -0.17165368271E+04  0.17165368272E+04  0.50400001928E-02 0. -1.
    10030    2    1    2    0    0  0.00000000000E+00  0.00000000000E+00  0.46253124860E+03  0.38956049029E+04  0.38680489143E+04 0.  0.
        3    1    3    3  502    0 -0.10663882141E+03  0.15034364250E+04  0.14518224953E+04  0.20927210732E+04  0.10100000352E+00 0.  1.
       -3    1    3    3    0  502  0.10663882141E+03 -0.15034364250E+04 -0.98929124673E+03  0.18028838297E+04  0.10100000352E+00 0. -1.
</event>
<event>
 5   0  0.2529875E-07  0.3374257E+04  0.7818609E-02  0.8144254E-01
       -1   -1    0    0    0  501  0.00000000000E+00  0.00000000000E+00  0.12743030906E+04  0.12743030906E+04  0.50400001928E-02 0.  1.
        1   -1    0    0  501    0  0.00000000000E+00  0.00000000000E+00 -0.22336930223E+04  0.22336930223E+04  0.50400001928E-02 0. -1.
    10030    2    1    2    0    0  0.00000000000E+00  0.00000000000E+00 -0.95938993171E+03  0.35079961129E+04  0.33742566125E+04 0.  0.
        4    1    3    3  502    0 -0.18196421673E+03  0.15164640978E+04  0.26538774202E+03  0.15502279195E+04  0.12699999809E+01 0.  1.
       -4    1    3    3    0  502  0.18196421673E+03 -0.15164640978E+04 -0.12247776737E+04  0.19577681934E+04  0.12699999809E+01 0. -1.
</event>
<event>
 5   0  0.2907071E-07  0.3810095E+04  0.7818609E-02  0.8043992E-01
       -1   -1    0    0    0  501  0.00000000000E+00  0.00000000000E+00  0.18741564175E+04  0.18741564175E+04  0.50400001928E-02 0. -1.
        1   -1    0    0  501    0  0.00000000000E+00  0.00000000000E+00 -0.19364478426E+04  0.19364478426E+04  0.50400001928E-02 0.  1.
    10030    2    1    2    0    0  0.00000000000E+00  0.00000000000E+00 -0.62291425079E+02  0.38106042602E+04  0.38100950915E+04 0.  0.
        2    1    3    3  502    0  0.39448824951E+03 -0.14464462914E+04  0.11443318623E+04  0.18860867594E+04  0.25500000920E-02 0. -1.
       -2    1    3    3    0  502 -0.39448824951E+03  0.14464462914E+04 -0.12066232874E+04  0.19245175007E+04  0.25500000920E-02 0.  1.
</event>
<event>
 5   0  0.7649458E-07  0.3814094E+04  0.7818609E-02  0.8043137E-01
        2   -1    0    0  501    0  0.00000000000E+00  0.00000000000E+00  0.31030113360E+04  0.31030113360E+04  0.25500000920E-02 0.  1.
       -2   -1    0    0    0  501  0.00000000000E+00  0.00000000000E+00 -0.11720317144E+04  0.11720317145E+04  0.25500000920E-02 0. -1.
    10030    2    1    2    0    0  0.00000000000E+00  0.00000000000E+00  0.19309796215E+04  0.42750430504E+04  0.38140937042E+04 0.  0.
        4    1    3    3  502    0  0.78711030607E+03 -0.17095436304E+04  0.13104945408E+04  0.22933555356E+04  0.12699999809E+01 0. -1.
       -4    1    3    3    0  502 -0.78711030607E+03  0.17095436304E+04  0.62048508074E+03  0.19816875149E+04  0.12699999809E+01 0.  1.
</event>
<event>
 5   0  0.2529875E-07  0.3775588E+04  0.7818609E-02  0.8051414E-01
       -1   -1    0    0    0  501  0.00000000000E+00  0.00000000000E+00  0.31814921199E+04  0.31814921199E+04  0.50400001928E-02 0. -1.
        1   -1    0    0  501    0  0.00000000000E+00  0.00000000000E+00 -0.11201553919E+04  0.11201553919E+04  0.50400001928E-02 0.  1.
    10030    2    1    2    0    0  0.00000000000E+00  0.00000000000E+00  0.20613367280E+04  0.43016475117E+04  0.37755876641E+04 0.  0.
        5    1    3    3  502    0 -0.65649638513E+03 -0.48112317789E+03  0.29713076457E+04  0.30807723433E+04  0.46999998093E+01 0. -1.
       -5    1    3    3    0  502  0.65649638513E+03  0.48112317789E+03 -0.90997091765E+03  0.12208751685E+04  0.46999998093E+01 0.  1.
</event>
<event>
 5   0  0.7638805E-07  0.3722371E+04  0.7818609E-02  0.8063022E-01
        2   -1    0    0  501    0  0.00000000000E+00  0.00000000000E+00  0.24722589304E+04  0.24722589304E+04  0.25500000920E-02 0. -1.
       -2   -1    0    0    0  501  0.00000000000E+00  0.00000000000E+00 -0.14011526108E+04  0.14011526108E+04  0.25500000920E-02 0.  1.
    10030    2    1    2    0    0  0.00000000000E+00  0.00000000000E+00  0.10711063196E+04  0.38734115413E+04  0.37223713168E+04 0.  0.
        5    1    3    3  502    0 -0.44375695039E+02 -0.16863277932E+04 -0.28268619416E+03  0.17104397688E+04  0.46999998093E+01 0.  1.
       -5    1    3    3    0  502  0.44375695039E+02  0.16863277932E+04  0.13537925138E+04  0.21629717725E+04  0.46999998093E+01 0. -1.
</event>
<event>
 5   0  0.2907071E-07  0.3711566E+04  0.7818609E-02  0.8065404E-01
        1   -1    0    0  501    0  0.00000000000E+00  0.00000000000E+00  0.27814328083E+04  0.27814328083E+04  0.50400001928E-02 0.  1.
       -1   -1    0    0    0  501  0.00000000000E+00  0.00000000000E+00 -0.12381855404E+04  0.12381855404E+04  0.50400001928E-02 0. -1.
    10030    2    1    2    0    0  0.00000000000E+00  0.00000000000E+00  0.15432472679E+04  0.40196183487E+04  0.37115656453E+04 0.  0.
        2    1    3    3  502    0 -0.13812880542E+03 -0.13943645350E+04  0.20894137102E+04  0.25157467431E+04  0.25500000920E-02 0.  1.
       -2    1    3    3    0  502  0.13812880542E+03  0.13943645350E+04 -0.54616644226E+03  0.15038716055E+04  0.25500000920E-02 0. -1.
</event>
<event>
 5   0  0.7551495E-07  0.3791664E+04  0.7818609E-02  0.8047946E-01
       -2   -1    0    0    0  501  0.00000000000E+00  0.00000000000E+00  0.17775947865E+04  0.17775947865E+04  0.25500000920E-02 0.  1.
        2   -1    0    0  501    0  0.00000000000E+00  0.00000000000E+00 -0.20219333904E+04  0.20219333904E+04  0.25500000920E-02 0. -1.
    10030    2    1    2    0    0  0.00000000000E+00  0.00000000000E+00 -0.24433860391E+03  0.37995281769E+04  0.37916636209E+04 0.  0.
        1    1    3    3  502    0 -0.38326095934E+03  0.14374002295E+04  0.10555001660E+04  0.18240309710E+04  0.50400001928E-02 0.  1.
       -1    1    3    3    0  502  0.38326095934E+03 -0.14374002295E+04 -0.12998387699E+04  0.19754972059E+04  0.50400001928E-02 0. -1.
</event>
<event>
 5   0  0.2529875E-07  0.3892482E+04  0.7818609E-02  0.8026595E-01
       -1   -1    0    0    0  501  0.00000000000E+00  0.00000000000E+00  0.17909257676E+04  0.17909257676E+04  0.50400001928E-02 0. -1.
        1   -1    0    0  501    0  0.00000000000E+00  0.00000000000E+00 -0.21150259799E+04  0.21150259799E+04  0.50400001928E-02 0.  1.
    10030    2    1    2    0    0  0.00000000000E+00  0.00000000000E+00 -0.32410021224E+03  0.39059517475E+04  0.38924822551E+04 0.  0.
        5    1    3    3  502    0  0.12706892729E+04  0.14271785783E+04 -0.53257371154E+03  0.19837204366E+04  0.46999998093E+01 0.  1.
       -5    1    3    3    0  502 -0.12706892729E+04 -0.14271785783E+04  0.20847349930E+03  0.19222313108E+04  0.46999998093E+01 0. -1.
</event>
<event>
 5   0  0.2907071E-07  0.3863562E+04  0.7818609E-02  0.8032651E-01
       -1   -1    0    0    0  501  0.00000000000E+00  0.00000000000E+00  0.17185589253E+04  0.17185589253E+04  0.50400001928E-02 0. -1.
        1   -1    0    0  501    0  0.00000000000E+00  0.00000000000E+00 -0.21714574250E+04  0.21714574251E+04  0.50400001928E-02 0.  1.
    10030    2    1    2    0    0  0.00000000000E+00  0.00000000000E+00 -0.45289849971E+03  0.38900163504E+04  0.38635618483E+04 0.  0.
        2    1    3    3  502    0  0.25346119548E+03  0.75631993219E+03  0.15450053354E+04  0.17387650513E+04  0.25500000920E-02 0. -1.
       -2    1    3    3    0  502 -0.25346119548E+03 -0.75631993219E+03 -0.19979038351E+04  0.21512512991E+04  0.25500000920E-02 0.  1.
</event>
<event>
 5   0  0.8038352E-07  0.2383248E+04  0.7818609E-02  0.8445802E-01
        2   -1    0    0  501    0  0.00000000000E+00  0.00000000000E+00  0.74428436685E+03  0.74428436685E+03  0.25500000920E-02 0.  1.
       -2   -1    0    0    0  501  0.00000000000E+00  0.00000000000E+00 -0.19078292697E+04  0.19078292697E+04  0.25500000920E-02 0. -1.
    10030    2    1    2    0    0  0.00000000000E+00  0.00000000000E+00 -0.11635449029E+04  0.26521136366E+04  0.23832477841E+04 0.  0.
        2    1    3    3  502    0 -0.10287803940E+04  0.35573345605E+03 -0.42278562289E+02  0.10893681047E+04  0.25500000920E-02 0.  1.
       -2    1    3    3    0  502  0.10287803940E+04 -0.35573345605E+03 -0.11212663406E+04  0.15627455318E+04  0.25500000920E-02 0. -1.
</event>
<event>
 5   0  0.8648134E-07  0.2477799E+04  0.7818609E-02  0.8410938E-01
        2   -1    0    0  501    0  0.00000000000E+00  0.00000000000E+00  0.14706376783E+04  0.14706376783E+04  0.25500000920E-02 0.  1.
       -2   -1    0    0    0  501  0.00000000000E+00  0.00000000000E+00 -0.10436778315E+04  0.10436778315E+04  0.25500000920E-02 0. -1.
    10030    2    1    2    0    0  0.00000000000E+00  0.00000000000E+00  0.42695984680E+03  0.25143155098E+04  0.24777989773E+04 0.  0.
        2    1    3    3  502    0  0.52639107918E+03  0.23941026397E+03 -0.89832562286E+03  0.10683603172E+04  0.25500000920E-02 0. -1.
       -2    1    3    3    0  502 -0.52639107918E+03 -0.23941026397E+03  0.13252854697E+04  0.14459551925E+04  0.25500000920E-02 0.  1.
</event>
<event>
 5   0  0.7649458E-07  0.3654717E+04  0.7818609E-02  0.8078072E-01
       -2   -1    0    0    0  501  0.00000000000E+00  0.00000000000E+00  0.21300306868E+04  0.21300306868E+04  0.25500000920E-02 0.  1.
        2   -1    0    0  501    0  0.00000000000E+00  0.00000000000E+00 -0.15676951939E+04  0.15676951939E+04  0.25500000920E-02 0. -1.
    10030    2    1    2    0    0  0.00000000000E+00  0.00000000000E+00  0.56233549293E+03  0.36977258807E+04  0.36547168813E+04 0.  0.
        4    1    3    3  502    0 -0.11854502509E+04 -0.21487817558E+03  0.16712989179E+04  0.20602685780E+04  0.12699999809E+01 0.  1.
       -4    1    3    3    0  502  0.11854502509E+04  0.21487817558E+03 -0.11089634249E+04  0.16374573028E+04  0.12699999809E+01 0. -1.
</event>
<event>
 5   0  0.8038352E-07  0.3688308E+04  0.7818609E-02  0.8070558E-01
        2   -1    0    0  501    0  0.00000000000E+00  0.00000000000E+00  0.19225011505E+04  0.19225011505E+04  0.25500000920E-02 0. -1.
       -2   -1    0    0    0  501  0.00000000000E+00  0.00000000000E+00 -0.17690000181E+04  0.17690000181E+04  0.25500000920E-02 0.  1.
    10030    2    1    2    0    0  0.00000000000E+00  0.00000000000E+00  0.15350113234E+03  0.36915011686E+04  0.36883083223E+04 0.  0.
        2    1    3    3  502    0 -0.94399500531E+03 -0.13340870532E+04 -0.77838342172E+03  0.18101921409E+04  0.25500000920E-02 0.  1.
       -2    1    3    3    0  502  0.94399500531E+03  0.13340870532E+04  0.93188455406E+03  0.18813090277E+04  0.25500000920E-02 0. -1.
</event>
<event>
 5   0  0.8038352E-07  0.3803606E+04  0.7818609E-02  0.8045381E-01
        2   -1    0    0  501    0  0.00000000000E+00  0.00000000000E+00  0.24831531854E+04  0.24831531854E+04  0.25500000920E-02 0.  1.
       -2   -1    0    0    0  501  0.00000000000E+00  0.00000000000E+00 -0.14565575143E+04  0.14565575143E+04  0.25500000920E-02 0. -1.
    10030    2    1    2    0    0  0.00000000000E+00  0.00000000000E+00  0.10265956711E+04  0.39397106997E+04  0.38036064104E+04 0.  0.
        2    1    3    3  502    0 -0.15557872180E+04 -0.56335896005E+03 -0.45780503033E+03  0.17168088512E+04  0.25500000920E-02 0. -1.
       -2    1    3    3    0  502  0.15557872180E+04  0.56335896005E+03  0.14844007015E+04  0.22229018485E+04  0.25500000920E-02 0.  1.
</event>
<event>
 5   0  0.8421677E-07  0.2803131E+04  0.7818609E-02  0.8302297E-01
        2   -1    0    0  501    0  0.00000000000E+00  0.00000000000E+00  0.18274473109E+04  0.18274473109E+04  0.25500000920E-02 0. -1.
       -2   -1    0    0    0  501  0.00000000000E+00  0.00000000000E+00 -0.10749341354E+04  0.10749341355E+04  0.25500000920E-02 0.  1.
    10030    2    1    2    0    0  0.00000000000E+00  0.00000000000E+00  0.75251317547E+03  0.29023814464E+04  0.28031307463E+04 0.  0.
        3    1    3    3  502    0 -0.97378775154E+03 -0.25995125706E+02 -0.66711690079E+03  0.11806706997E+04  0.10100000352E+00 0.  1.
       -3    1    3    3    0  502  0.97378775154E+03  0.25995125706E+02  0.14196300763E+04  0.17217107467E+04  0.10100000352E+00 0. -1.
</event>
<event>
 5   0  0.2529875E-07  0.3742870E+04  0.7818609E-02  0.8058527E-01
       -1   -1    0    0    0  501  0.00000000000E+00  0.00000000000E+00  0.18270814438E+04  0.18270814438E+04  0.50400001928E-02 0.  1.
        1   -1    0    0  501    0  0.00000000000E+00  0.00000000000E+00 -0.19168648361E+04  0.19168648361E+04  0.50400001928E-02 0. -1.
    10030    2    1    2    0    0  0.00000000000E+00  0.00000000000E+00 -0.89783392300E+02  0.37439462800E+04  0.37428695796E+04 0.  0.
        4    1    3    3  502    0 -0.10118090002E+04  0.12922572029E+04 -0.94436137271E+03  0.18935432782E+04  0.12699999809E+01 0. -1.
       -4    1    3    3    0  502  0.10118090002E+04 -0.12922572029E+04  0.85457798041E+03  0.18504030017E+04  0.12699999809E+01 0.  1.
</event>
<event>
 5   0  0.2529875E-07  0.3896800E+04  0.7818609E-02  0.8025695E-01
        1   -1    0    0  501    0  0.00000000000E+00  0.00000000000E+00  0.19966723615E+04  0.19966723615E+04  0.50400001928E-02 0.  1.
       -1   -1    0    0    0  501  0.00000000000E+00  0.00000000000E+00 -0.19012945468E+04  0.19012945468E+04  0.50400001928E-02 0. -1.
    10030    2    1    2    0    0  0.00000000000E+00  0.00000000000E+00  0.95377814708E+02  0.38979669083E+04  0.38967998526E+04 0.  0.
        1    1    3    3  502    0  0.42283599412E+03  0.13143740705E+04  0.14228343463E+04  0.19826313455E+04  0.50400001928E-02 0.  1.
       -1    1    3    3    0  502 -0.42283599412E+03 -0.13143740705E+04 -0.13274565316E+04  0.19153355629E+04  0.50400001928E-02 0. -1.
</event>
<event>
 5   0  0.2529875E-07  0.3831702E+04  0.7818609E-02  0.8039386E-01
        1   -1    0    0  501    0  0.00000000000E+00  0.00000000000E+00  0.12283503270E+04  0.12283503270E+04  0.50400001928E-02 0. -1.
       -1   -1    0    0    0  501  0.00000000000E+00  0.00000000000E+00 -0.29881425379E+04  0.29881425379E+04  0.50400001928E-02 0.  1.
    10030    2    1    2    0    0  0.00000000000E+00  0.00000000000E+00 -0.17597922109E+04  0.42164928649E+04  0.38317024224E+04 0.  0.
        3    1    3    3  502    0  0.22414035035E+03  0.17655325819E+04 -0.16604533069E+04  0.24340191842E+04  0.10100000352E+00 0. -1.
       -3    1    3    3    0  502 -0.22414035035E+03 -0.17655325819E+04 -0.99338904045E+02  0.17824736807E+04  0.10100000352E+00 0.  1.
</event>
<event>
 5   0  0.2907071E-07  0.2889612E+04  0.7818609E-02  0.8275975E-01
        1   -1    0    0  501    0  0.00000000000E+00  0.00000000000E+00  0.20450567812E+04  0.20450567812E+04  0.50400001928E-02 0.  1.
       -1   -1    0    0    0  501  0.00000000000E+00  0.00000000000E+00 -0.10207366235E+04  0.10207366235E+04  0.50400001928E-02 0. -1.
    10030    2    1    2    0    0  0.00000000000E+00  0.00000000000E+00  0.10243201577E+04  0.30657934046E+04  0.28896119834E+04 0.  0.
        2    1    3    3  502    0  0.11790229546E+04  0.27952896104E+03  0.13470521319E+04  0.18118446439E+04  0.25500000920E-02 0.  1.
       -2    1    3    3    0  502 -0.11790229546E+04 -0.27952896104E+03 -0.32273197416E+03  0.12539487608E+04  0.25500000920E-02 0. -1.
</event>
<event>
 5   0  0.2529875E-07  0.3795554E+04  0.7818609E-02  0.8047110E-01
        1   -1    0    0  501    0  0.00000000000E+00  0.00000000000E+00  0.26020403234E+04  0.26020403235E+04  0.50400001928E-02 0. -1.
       -1   -1    0    0    0  501  0.00000000000E+00  0.00000000000E+00 -0.13841280245E+04  0.13841280245E+04  0.50400001928E-02 0.  1.
    10030    2    1    2    0    0  0.00000000000E+00  0.00000000000E+00  0.12179122990E+04  0.39861683479E+04  0.37955536790E+04 0.  0.
        3    1    3    3  502    0 -0.66404727154E+03 -0.14302043636E+04  0.17179778878E+04  0.23319286725E+04  0.10100000352E+00 0. -1.
       -3    1    3    3    0  502  0.66404727154E+03  0.14302043636E+04 -0.50006558882E+03  0.16542396754E+04  0.10100000352E+00 0.  1.
</event>
<event>
 5   0  0.7649458E-07  0.3783540E+04  0.7818609E-02  0.8049696E-01
        2   -1    0    0  501    0  0.00000000000E+00  0.00000000000E+00  0.11491310666E+04  0.11491310666E+04  0.25500000920E-02 0.  1.
       -2   -1    0    0    0  501  0.00000000000E+00  0.00000000000E+00 -0.31143479360E+04  0.31143479360E+04  0.25500000920E-02 0. -1.
    10030    2    1    2    0    0  0.00000000000E+00  0.00000000000E+00 -0.19652168694E+04  0.42634790026E+04  0.37835401229E+04 0.  0.
        4    1    3    3  502    0 -0.34622773045E+03 -0.11835308662E+03  0.11088768052E+04  0.11676859494E+04  0.12699999809E+01 0.  1.
       -4    1    3    3    0  502  0.34622773045E+03  0.11835308662E+03 -0.30740936747E+04  0.30957930531E+04  0.12699999809E+01 0. -1.
</event>
<event>
 5   0  0.7649458E-07  0.3567358E+04  0.7818609E-02  0.8098010E-01
       -2   -1    0    0    0  501  0.00000000000E+00  0.00000000000E+00  0.11486305061E+04  0.11486305061E+04  0.25500000920E-02 0. -1.
        2   -1    0    0  501    0  0.00000000000E+00  0.00000000000E+00 -0.27698294563E+04  0.27698294563E+04  0.25500000920E-02 0.  1.
    10030    2    1    2    0    0  0.00000000000E+00  0.00000000000E+00 -0.16211989502E+04  0.39184599624E+04  0.35673579075E+04 0.  0.
        4    1    3    3  502    0  0.93203881484E+03 -0.92335795978E+02  0.85678975074E+03  0.12693748625E+04  0.12699999809E+01 0. -1.
       -4    1    3    3    0  502 -0.93203881484E+03  0.92335795978E+02 -0.24779887009E+04  0.26490850999E+04  0.12699999809E+01 0.  1.
</event>
<event>
 5   0  0.8038352E-07  0.3210905E+04  0.7818609E-02  0.8185943E-01
       -2   -1    0    0    0  501  0.00000000000E+00  0.00000000000E+00  0.10638297224E+04  0.10638297224E+04  0.25500000920E-02 0. -1.
        2   -1    0    0  501    0  0.00000000000E+00  0.00000000000E+00 -0.24228297646E+04  0.24228297646E+04  0.25500000920E-02 0.  1.
    10030    2    1    2    0    0  0.00000000000E+00  0.00000000000E+00 -0.13590000422E+04  0.34866594870E+04  0.32109053651E+04 0.  0.
        2    1    3    3  502    0  0.13201499771E+04  0.19387707559E+03  0.28997541304E+03  0.13654559761E+04  0.25500000920E-02 0. -1.
       -2    1    3    3    0  502 -0.13201499771E+04 -0.19387707559E+03 -0.16489754552E+04  0.21212035109E+04  0.25500000920E-02 0.  1.
</event>
<event>
 5   0  0.2529875E-07  0.2893653E+04  0.7818609E-02  0.8274768E-01
        3   -1    0    0  501    0  0.00000000000E+00  0.00000000000E+00  0.23528249469E+04  0.23528249491E+04  0.10100000352E+00 0. -1.
       -3   -1    0    0    0  501  0.00000000000E+00  0.00000000000E+00 -0.88969948360E+03  0.88969948934E+03  0.10100000352E+00 0.  1.
    10030    2    1    2    0    0  0.00000000000E+00  0.00000000000E+00  0.14631254633E+04  0.32425244384E+04  0.28936531603E+04 0.  0.
        5    1    3    3  502    0  0.18647477547E+03  0.83906151470E+03  0.20357031766E+04  0.22097299791E+04  0.46999998093E+01 0. -1.
       -5    1    3    3    0  502 -0.18647477547E+03 -0.83906151470E+03 -0.57257771332E+03  0.10327944593E+04  0.46999998093E+01 0.  1.
</event>
<event>
 5   0  0.2529875E-07  0.3848657E+04  0.7818609E-02  0.8035793E-01
        1   -1    0    0  501    0  0.00000000000E+00  0.00000000000E+00  0.16307457587E+04  0.16307457587E+04  0.50400001928E-02 0. -1.
       -1   -1    0    0    0  501  0.00000000000E+00  0.00000000000E+00 -0.22707648313E+04  0.22707648313E+04  0.50400001928E-02 0.  1.
    10030    2    1    2    0    0  0.00000000000E+00  0.00000000000E+00 -0.64001907260E+03  0.39015105900E+04  0.38486569698E+04 0.  0.
        4    1    3    3  502    0 -0.27219837489E+03 -0.17027583704E+03 -0.22434200360E+04  0.22662790840E+04  0.12699999809E+01 0.  1.
       -4    1    3    3    0  502  0.27219837489E+03  0.17027583704E+03  0.16034009634E+04  0.16352315060E+04  0.12699999809E+01 0. -1.
</event>
<event>
 5   0  0.2529875E-07  0.2588484E+04  0.7818609E-02  0.8372124E-01
        1   -1    0    0  501    0  0.00000000000E+00  0.00000000000E+00  0.10835618548E+04  0.10835618548E+04  0.50400001928E-02 0.  1.
       -1   -1    0    0    0  501  0.00000000000E+00  0.00000000000E+00 -0.15458850997E+04  0.15458850997E+04  0.50400001928E-02 0. -1.
    10030    2    1    2    0    0  0.00000000000E+00  0.00000000000E+00 -0.46232324493E+03  0.26294469545E+04  0.25884838234E+04 0.  0.
        3    1    3    3  502    0 -0.89581882203E+03 -0.57371402786E+03 -0.97999975890E+03  0.14463881517E+04  0.10100000352E+00 0. -1.
       -3    1    3    3    0  502  0.89581882203E+03  0.57371402786E+03  0.51767651397E+03  0.11830588028E+04  0.10100000352E+00 0.  1.
</event>
<event>
 5   0  0.2529875E-07  0.3803896E+04  0.7818609E-02  0.8045319E-01
       -1   -1    0    0    0  501  0.00000000000E+00  0.00000000000E+00  0.18638700701E+04  0.18638700701E+04  0.50400001928E-02 0. -1.
        1   -1    0    0  501    0  0.00000000000E+00  0.00000000000E+00 -0.19408038544E+04  0.19408038544E+04  0.50400001928E-02 0.  1.
    10030    2    1    2    0    0  0.00000000000E+00  0.00000000000E+00 -0.76933784366E+02  0.38046739245E+04  0.38038960113E+04 0.  0.
        4    1    3    3  502    0 -0.10710054681E+03 -0.76846838277E+03  0.16983761830E+04  0.18672164990E+04  0.12699999809E+01 0. -1.
       -4    1    3    3    0  502  0.10710054681E+03  0.76846838277E+03 -0.17753099673E+04  0.19374574255E+04  0.12699999809E+01 0.  1.
</event>
<event>
 5   0  0.2529875E-07  0.3803507E+04  0.7818609E-02  0.8045403E-01
       -1   -1    0    0    0  501  0.00000000000E+00  0.00000000000E+00  0.16945513444E+04  0.16945513445E+04  0.50400001928E-02 0. -1.
        1   -1    0    0  501    0  0.00000000000E+00  0.00000000000E+00 -0.21342910456E+04  0.21342910456E+04  0.50400001928E-02 0.  1.
    10030    2    1    2    0    0  0.00000000000E+00  0.00000000000E+00 -0.43973970112E+03  0.38288423900E+04  0.38035066771E+04 0.  0.
        4    1    3    3  502    0  0.26497874717E+03  0.68636624833E+03 -0.19852193838E+04  0.21171702761E+04  0.12699999809E+01 0.  1.
       -4    1    3    3    0  502 -0.26497874717E+03 -0.68636624833E+03  0.15454796826E+04  0.17116721139E+04  0.12699999809E+01 0. -1.
</event>
<event>
 5   0  0.7551495E-07  0.3820964E+04  0.7818609E-02  0.8041671E-01
       -2   -1    0    0    0  501  0.00000000000E+00  0.00000000000E+00  0.28400442156E+04  0.28400442156E+04  0.25500000920E-02 0.  1.
        2   -1    0    0  501    0  0.00000000000E+00  0.00000000000E+00 -0.12851704402E+04  0.12851704402E+04  0.25500000920E-02 0. -1.
    10030    2    1    2    0    0  0.00000000000E+00  0.00000000000E+00  0.15548737754E+04  0.41252146558E+04  0.38209636872E+04 0.  0.
        1    1    3    3  502    0  0.14196450727E+04 -0.12589455874E+04  0.53698107727E+03  0.19719748481E+04  0.50400001928E-02 0.  1.
       -1    1    3    3    0  502 -0.14196450727E+04  0.12589455874E+04  0.10178926981E+04  0.21532398076E+04  0.50400001928E-02 0. -1.
</event>
<event>
 5   0  0.8038352E-07  0.3919953E+04  0.7818609E-02  0.8020892E-01
        2   -1    0    0  501    0  0.00000000000E+00  0.00000000000E+00  0.17680157560E+04  0.17680157560E+04  0.25500000920E-02 0. -1.
       -2   -1    0    0    0  501  0.00000000000E+00  0.00000000000E+00 -0.21727790212E+04  0.21727790212E+04  0.25500000920E-02 0.  1.
    10030    2    1    2    0    0  0.00000000000E+00  0.00000000000E+00 -0.40476326521E+03  0.39407947772E+04  0.39199528282E+04 0.  0.
        2    1    3    3  502    0  0.89684400431E+03  0.12990943548E+04  0.96548865388E+03  0.18504441768E+04  0.25500000920E-02 0. -1.
       -2    1    3    3    0  502 -0.89684400431E+03 -0.12990943548E+04 -0.13702519191E+04  0.20903506004E+04  0.25500000920E-02 0.  1.
</event>
<event>
 5   0  0.8421677E-07  0.3300775E+04  0.7818609E-02  0.8162698E-01
        2   -1    0    0  501    0  0.00000000000E+00  0.00000000000E+00  0.15119951510E+04  0.15119951510E+04  0.25500000920E-02 0. -1.
       -2   -1    0    0    0  501  0.00000000000E+00  0.00000000000E+00 -0.18014471695E+04  0.18014471696E+04  0.25500000920E-02 0.  1.
    10030    2    1    2    0    0  0.00000000000E+00  0.00000000000E+00 -0.28945201859E+03  0.33134423205E+04  0.33007752938E+04 0.  0.
        3    1    3    3  502    0  0.24859594018E+03 -0.11406658977E+04 -0.13157621486E+04  0.17590192363E+04  0.10100000352E+00 0.  1.
       -3    1    3    3    0  502 -0.24859594018E+03  0.11406658977E+04  0.10263101300E+04  0.15544230842E+04  0.10100000352E+00 0. -1.
</event>
<event>
 5   0  0.7638805E-07  0.3738020E+04  0.7818609E-02  0.8059588E-01
        2   -1    0    0  501    0  0.00000000000E+00  0.00000000000E+00  0.14470670019E+04  0.14470670019E+04  0.25500000920E-02 0.  1.
       -2   -1    0    0    0  501  0.00000000000E+00  0.00000000000E+00 -0.24139854511E+04  0.24139854511E+04  0.25500000920E-02 0. -1.
    10030    2    1    2    0    0  0.00000000000E+00  0.00000000000E+00 -0.96691844925E+03  0.38610524530E+04  0.37380201654E+04 0.  0.
        5    1    3    3  502    0  0.10422576907E+03 -0.18248807007E+04 -0.80591056751E+02  0.18296364642E+04  0.46999998093E+01 0.  1.
       -5    1    3    3    0  502 -0.10422576907E+03  0.18248807007E+04 -0.88632739250E+03  0.20314159888E+04  0.46999998093E+01 0. -1.
</event>
<event>
 5   0  0.2529875E-07  0.3996462E+04  0.7818609E-02  0.8005261E-01
       -1   -1    0    0    0  501  0.00000000000E+00  0.00000000000E+00  0.18278927090E+04  0.18278927090E+04  0.50400001928E-02 0. -1.
        1   -1    0    0  501    0  0.00000000000E+00  0.00000000000E+00 -0.21844424425E+04  0.21844424425E+04  0.50400001928E-02 0.  1.
    10030    2    1    2    0    0  0.00000000000E+00  0.00000000000E+00 -0.35654973350E+03  0.40123351514E+04  0.39964616419E+04 0.  0.
        5    1    3    3  502    0 -0.40066557554E+03 -0.55024723106E+02  0.17863685060E+04  0.18315826907E+04  0.46999998093E+01 0. -1.
       -5    1    3    3    0  502  0.40066557554E+03  0.55024723106E+02 -0.21429182395E+04  0.21807524607E+04  0.46999998093E+01 0.  1.
</event>
<event>
 5   0  0.2907071E-07  0.3886912E+04  0.7818609E-02  0.8027757E-01
        1   -1    0    0  501    0  0.00000000000E+00  0.00000000000E+00  0.17550302336E+04  0.17550302336E+04  0.50400001928E-02 0. -1.
       -1   -1    0    0    0  501  0.00000000000E+00  0.00000000000E+00 -0.21521120154E+04  0.21521120154E+04  0.50400001928E-02 0.  1.
    10030    2    1    2    0    0  0.00000000000E+00  0.00000000000E+00 -0.39708178179E+03  0.39071422490E+04  0.38869122208E+04 0.  0.
        2    1    3    3  502    0  0.57721010703E+03 -0.38960303407E+03 -0.20223876092E+04  0.21389281600E+04  0.25500000920E-02 0.  1.
       -2    1    3    3    0  502 -0.57721010703E+03  0.38960303407E+03  0.16253058274E+04  0.17682140890E+04  0.25500000920E-02 0. -1.
</event>
<event>
 5   0  0.2529875E-07  0.3805001E+04  0.7818609E-02  0.8045083E-01
        1   -1    0    0  501    0  0.00000000000E+00  0.00000000000E+00  0.19940791691E+04  0.19940791691E+04  0.50400001928E-02 0.  1.
       -1   -1    0    0    0  501  0.00000000000E+00  0.00000000000E+00 -0.18151276883E+04  0.18151276883E+04  0.50400001928E-02 0. -1.
    10030    2    1    2    0    0  0.00000000000E+00  0.00000000000E+00  0.17895148081E+03  0.38092068575E+04  0.38050010842E+04 0.  0.
        5    1    3    3  502    0  0.83883729226E+03  0.73651006736E+03  0.16317600172E+04  0.19770578964E+04  0.46999998093E+01 0.  1.
       -5    1    3    3    0  502 -0.83883729226E+03 -0.73651006736E+03 -0.14528085363E+04  0.18321489611E+04  0.46999998093E+01 0. -1.
</event>
<event>
 5   0  0.8038352E-07  0.3824345E+04  0.7818609E-02  0.8040951E-01
        2   -1    0    0  501    0  0.00000000000E+00  0.00000000000E+00  0.27240028604E+04  0.27240028604E+04  0.25500000920E-02 0.  1.
       -2   -1    0    0    0  501  0.00000000000E+00  0.00000000000E+00 -0.13422905757E+04  0.13422905757E+04  0.25500000920E-02 0. -1.
    10030    2    1    2    0    0  0.00000000000E+00  0.00000000000E+00  0.13817122847E+04  0.40662934361E+04  0.38243448420E+04 0.  0.
        2    1    3    3  502    0  0.83085284263E+03 -0.90682639003E+03 -0.86593023974E+03  0.15041561514E+04  0.25500000920E-02 0. -1.
       -2    1    3    3    0  502 -0.83085284263E+03  0.90682639003E+03  0.22476425245E+04  0.25621372847E+04  0.25500000920E-02 0.  1.
</event>
<event>
 5   0  0.7551495E-07  0.3042674E+04  0.7818609E-02  0.8231649E-01
       -2   -1    0    0    0  501  0.00000000000E+00  0.00000000000E+00  0.13906360201E+04  0.13906360201E+04  0.25500000920E-02 0. -1.
        2   -1    0    0  501    0  0.00000000000E+00  0.00000000000E+00 -0.16643219573E+04  0.16643219573E+04  0.25500000920E-02 0.  1.
    10030    2    1    2    0    0  0.00000000000E+00  0.00000000000E+00 -0.27368593726E+03  0.30549579774E+04  0.30426738655E+04 0.  0.
        1    1    3    3  502    0  0.24785399346E+03 -0.78531765851E+03 -0.14211909667E+04  0.16425404685E+04  0.50400001928E-02 0.  1.
       -1    1    3    3    0  502 -0.24785399346E+03  0.78531765851E+03  0.11475050294E+04  0.14124175089E+04  0.50400001928E-02 0. -1.
</event>
<event>
 5   0  0.7551495E-07  0.3806870E+04  0.7818609E-02  0.8044682E-01
       -2   -1    0    0    0  501  0.00000000000E+00  0.00000000000E+00  0.18406913439E+04  0.18406913439E+04  0.25500000920E-02 0.  1.
        2   -1    0    0  501    0  0.00000000000E+00  0.00000000000E+00 -0.19683178761E+04  0.19683178761E+04  0.25500000920E-02 0. -1.
    10030    2    1    2    0    0  0.00000000000E+00  0.00000000000E+00 -0.12762653214E+03  0.38090092200E+04  0.38068704609E+04 0.  0.
        1    1    3    3  502    0 -0.93264199834E+03 -0.16538225978E+04  0.70855791934E+02  0.18999923225E+04  0.50400001928E-02 0. -1.
       -1    1    3    3    0  502  0.93264199834E+03  0.16538225978E+04 -0.19848232407E+03  0.19090168975E+04  0.50400001928E-02 0.  1.
</event>
<event>
 5   0  0.8421677E-07  0.3801690E+04  0.7818609E-02  0.8045792E-01
        2   -1    0    0  501    0  0.00000000000E+00  0.00000000000E+00  0.20593217728E+04  0.20593217728E+04  0.25500000920E-02 0. -1.
       -2   -1    0    0    0  501  0.00000000000E+00  0.00000000000E+00 -0.17545642384E+04  0.17545642384E+04  0.25500000920E-02 0.  1.
    10030    2    1    2    0    0  0.00000000000E+00  0.00000000000E+00  0.30475753431E+03  0.38138860112E+04  0.38016903282E+04 0.  0.
        3    1    3    3  502    0  0.86257238511E+01  0.17803731335E+04  0.82040487107E+03  0.19603232030E+04  0.10100000352E+00 0. -1.
       -3    1    3    3    0  502 -0.86257238511E+01 -0.17803731335E+04 -0.51564733676E+03  0.18535628082E+04  0.10100000352E+00 0.  1.
</event>
<event>
 5   0  0.2529875E-07  0.3744711E+04  0.7818609E-02  0.8058125E-01
        1   -1    0    0  501    0  0.00000000000E+00  0.00000000000E+00  0.12122207629E+04  0.12122207629E+04  0.50400001928E-02 0. -1.
       -1   -1    0    0    0  501  0.00000000000E+00  0.00000000000E+00 -0.28919776953E+04  0.28919776953E+04  0.50400001928E-02 0.  1.
    10030    2    1    2    0    0  0.00000000000E+00  0.00000000000E+00 -0.16797569324E+04  0.41041984581E+04  0.37447111546E+04 0.  0.
        4    1    3    3  502    0  0.33393996939E+03 -0.13936969349E+04 -0.21604576082E+04  0.25925828317E+04  0.12699999809E+01 0.  1.
       -4    1    3    3    0  502 -0.33393996939E+03  0.13936969349E+04  0.48070067584E+03  0.15116156264E+04  0.12699999809E+01 0. -1.
</event>
<event>
 5   0  0.7551495E-07  0.3434749E+04  0.7818609E-02  0.8129430E-01
        2   -1    0    0  501    0  0.00000000000E+00  0.00000000000E+00  0.16552026087E+04  0.16552026087E+04  0.25500000920E-02 0. -1.
       -2   -1    0    0    0  501  0.00000000000E+00  0.00000000000E+00 -0.17818819220E+04  0.17818819220E+04  0.25500000920E-02 0.  1.
    10030    2    1    2    0    0  0.00000000000E+00  0.00000000000E+00 -0.12667931331E+03  0.34370845308E+04  0.34347492519E+04 0.  0.
        1    1    3    3  502    0  0.87191365084E+03  0.31417238205E+03 -0.15101573510E+04  0.17718670732E+04  0.50400001928E-02 0.  1.
       -1    1    3    3    0  502 -0.87191365084E+03 -0.31417238205E+03  0.13834780377E+04  0.16652174576E+04  0.50400001928E-02 0. -1.
</event>
<event>
 5   0  0.2907071E-07  0.3764160E+04  0.7818609E-02  0.8053890E-01
       -1   -1    0    0    0  501  0.00000000000E+00  0.00000000000E+00  0.13229606374E+04  0.13229606374E+04  0.50400001928E-02 0. -1.
        1   -1    0    0  501    0  0.00000000000E+00  0.00000000000E+00 -0.26774978326E+04  0.26774978326E+04  0.50400001928E-02 0.  1.
    10030    2    1    2    0    0  0.00000000000E+00  0.00000000000E+00 -0.13545371953E+04  0.40004584700E+04  0.37641595286E+04 0.  0.
        2    1    3    3  502    0 -0.18118212492E+04  0.48888074929E+03 -0.82952257794E+03  0.20517817461E+04  0.25500000920E-02 0. -1.
       -2    1    3    3    0  502  0.18118212492E+04 -0.48888074929E+03 -0.52501461734E+03  0.19486767240E+04  0.25500000920E-02 0.  1.
</event>
<event>
 5   0  0.7638805E-07  0.3843630E+04  0.7818609E-02  0.8036856E-01
        2   -1    0    0  501    0  0.00000000000E+00  0.00000000000E+00  0.26922080839E+04  0.26922080839E+04  0.25500000920E-02 0.  1.
       -2   -1    0    0    0  501  0.00000000000E+00  0.00000000000E+00 -0.13718747461E+04  0.13718747461E+04  0.25500000920E-02 0. -1.
    10030    2    1    2    0    0  0.00000000000E+00  0.00000000000E+00  0.13203333377E+04  0.40640828300E+04  0.38436296812E+04 0.  0.
        5    1    3    3  502    0 -0.11267001593E+04  0.15456215850E+04  0.46249249273E+03  0.19678213152E+04  0.46999998093E+01 0.  1.
       -5    1    3    3    0  502  0.11267001593E+04 -0.15456215850E+04  0.85784084499E+03  0.20962615148E+04  0.46999998093E+01 0. -1.
</event>
<event>
 5   0  0.8421677E-07  0.3257180E+04  0.7818609E-02  0.8173877E-01
       -2   -1    0    0    0  501  0.00000000000E+00  0.00000000000E+00  0.12625253921E+04  0.12625253921E+04  0.25500000920E-02 0.  1.
        2   -1    0    0  501    0  0.00000000000E+00  0.00000000000E+00 -0.21007933268E+04  0.21007933268E+04  0.25500000920E-02 0. -1.
    10030    2    1    2    0    0  0.00000000000E+00  0.00000000000E+00 -0.83826793470E+03  0.33633187189E+04  0.32571797117E+04 0.  0.
        3    1    3    3  502    0 -0.11415057640E+04  0.19229251101E+03  0.76374885295E+03  0.13868396229E+04  0.10100000352E+00 0.  1.
       -3    1    3    3    0  502  0.11415057640E+04 -0.19229251101E+03 -0.16020167876E+04  0.19764790960E+04  0.10100000352E+00 0. -1.
</event>
<event>
 5   0  0.2907071E-07  0.3603524E+04  0.7818609E-02  0.8089685E-01
        1   -1    0    0  501    0  0.00000000000E+00  0.00000000000E+00  0.12322626092E+04  0.12322626092E+04  0.50400001928E-02 0. -1.
       -1   -1    0    0    0  501  0.00000000000E+00  0.00000000000E+00 -0.26344598707E+04  0.26344598707E+04  0.50400001928E-02 0.  1.
    10030    2    1    2    0    0  0.00000000000E+00  0.00000000000E+00 -0.14021972615E+04  0.38667224799E+04  0.36035240497E+04 0.  0.
        2    1    3    3  502    0  0.81496764218E+03 -0.13319569822E+03  0.10172499180E+04  0.13102330890E+04  0.25500000920E-02 0. -1.
       -2    1    3    3    0  502 -0.81496764218E+03  0.13319569822E+03 -0.24194471795E+04  0.25564893910E+04  0.25500000920E-02 0.  1.
</event>
<event>
 5   0  0.2907071E-07  0.2363453E+04  0.7818609E-02  0.8453314E-01
       -1   -1    0    0    0  501  0.00000000000E+00  0.00000000000E+00  0.20622299918E+04  0.20622299918E+04  0.50400001928E-02 0.  1.
        1   -1    0    0  501    0  0.00000000000E+00  0.00000000000E+00 -0.67716894271E+03  0.67716894273E+03  0.50400001928E-02 0. -1.
    10030    2    1    2    0    0  0.00000000000E+00  0.00000000000E+00  0.13850610491E+04  0.27393989346E+04  0.23634534929E+04 0.  0.
        2    1    3    3  502    0  0.11410855967E+04  0.27736818550E+03  0.84572317924E+03  0.14471548449E+04  0.25500000920E-02 0.  1.
       -2    1    3    3    0  502 -0.11410855967E+04 -0.27736818550E+03  0.53933786988E+03  0.12922440896E+04  0.25500000920E-02 0. -1.
</event>
<event>
 5   0  0.2529875E-07  0.2949402E+04  0.7818609E-02  0.8258329E-01
        3   -1    0    0  501    0  0.00000000000E+00  0.00000000000E+00  0.78733792866E+03  0.78733793514E+03  0.10100000352E+00 0.  1.
       -3   -1    0    0    0  501  0.00000000000E+00  0.00000000000E+00 -0.27621476683E+04  0.27621476702E+04  0.10100000352E+00 0. -1.
    10030    2    1    2    0    0  0.00000000000E+00  0.00000000000E+00 -0.19748097396E+04  0.35494856053E+04  0.29494024063E+04 0.  0.
        4    1    3    3  502    0  0.85254548161E+03 -0.43069243281E+03 -0.23395770302E+04  0.25270441356E+04  0.12699999809E+01 0. -1.
       -4    1    3    3    0  502 -0.85254548161E+03  0.43069243281E+03  0.36476729056E+03  0.10224414697E+04  0.12699999809E+01 0.  1.
</event>
<event>
 5   0  0.8038352E-07  0.2528407E+04  0.7818609E-02  0.8392935E-01
       -2   -1    0    0    0  501  0.00000000000E+00  0.00000000000E+00  0.11067759685E+04  0.11067759685E+04  0.25500000920E-02 0.  1.
        2   -1    0    0  501    0  0.00000000000E+00  0.00000000000E+00 -0.14440238958E+04  0.14440238958E+04  0.25500000920E-02 0. -1.
    10030    2    1    2    0    0  0.00000000000E+00  0.00000000000E+00 -0.33724792726E+03  0.25507998643E+04  0.25284073610E+04 0.  0.
        2    1    3    3  502    0  0.54232947766E+03 -0.51590601272E+03 -0.11964355561E+04  0.14112895933E+04  0.25500000920E-02 0. -1.
       -2    1    3    3    0  502 -0.54232947766E+03  0.51590601272E+03  0.85918762879E+03  0.11395102710E+04  0.25500000920E-02 0.  1.
</event>
<event>
 5   0  0.8038352E-07  0.3788089E+04  0.7818609E-02  0.8048716E-01
        2   -1    0    0  501    0  0.00000000000E+00  0.00000000000E+00  0.19904279963E+04  0.19904279963E+04  0.25500000920E-02 0.  1.
       -2   -1    0    0    0  501  0.00000000000E+00  0.00000000000E+00 -0.18023284375E+04  0.18023284375E+04  0.25500000920E-02 0. -1.
    10030    2    1    2    0    0  0.00000000000E+00  0.00000000000E+00  0.18809955874E+03  0.37927564338E+04  0.37880892178E+04 0.  0.
        2    1    3    3  502    0 -0.99595595915E+03 -0.44217830400E+03  0.16451373189E+04  0.19733035051E+04  0.25500000920E-02 0.  1.
       -2    1    3    3    0  502  0.99595595915E+03  0.44217830400E+03 -0.14570377602E+04  0.18194529287E+04  0.25500000920E-02 0. -1.
</event>
<event>
 5   0  0.2529875E-07  0.3982285E+04  0.7818609E-02  0.8008130E-01
       -1   -1    0    0    0  501  0.00000000000E+00  0.00000000000E+00  0.16182747221E+04  0.16182747221E+04  0.50400001928E-02 0. -1.
        1   -1    0    0  501    0  0.00000000000E+00  0.00000000000E+00 -0.24499225224E+04  0.24499225224E+04  0.50400001928E-02 0.  1.
    10030    2    1    2    0    0  0.00000000000E+00  0.00000000000E+00 -0.83164780032E+03  0.40681972445E+04  0.39822846152E+04 0.  0.
        3    1    3    3  502    0  0.31883038067E+03  0.13591995923E+03  0.15872215478E+04  0.16246228175E+04  0.10100000352E+00 0. -1.
       -3    1    3    3    0  502 -0.31883038067E+03 -0.13591995923E+03 -0.24188693481E+04  0.24435744270E+04  0.10100000352E+00 0.  1.
</event>
<event>
 5   0  0.7649458E-07  0.3772980E+04  0.7818609E-02  0.8051978E-01
       -2   -1    0    0    0  501  0.00000000000E+00  0.00000000000E+00  0.14579352416E+04  0.14579352416E+04  0.25500000920E-02 0. -1.
        2   -1    0    0  501    0  0.00000000000E+00  0.00000000000E+00 -0.24410166804E+04  0.24410166804E+04  0.25500000920E-02 0.  1.
    10030    2    1    2    0    0  0.00000000000E+00  0.00000000000E+00 -0.98308143874E+03  0.38989519220E+04  0.37729798535E+04 0.  0.
        4    1    3    3  502    0 -0.39528383340E+03  0.36831607402E+02  0.14142790405E+04  0.14689427128E+04  0.12699999809E+01 0. -1.
       -4    1    3    3    0  502  0.39528383340E+03 -0.36831607402E+02 -0.23973604793E+04  0.24300092092E+04  0.12699999809E+01 0.  1.
</event>
<event>
 5   0  0.2529875E-07  0.3728961E+04  0.7818609E-02  0.8061574E-01
       -1   -1    0    0    0  501  0.00000000000E+00  0.00000000000E+00  0.18476117464E+04  0.18476117464E+04  0.50400001928E-02 0.  1.
        1   -1    0    0  501    0  0.00000000000E+00  0.00000000000E+00 -0.18815030323E+04  0.18815030323E+04  0.50400001928E-02 0. -1.
    10030    2    1    2    0    0  0.00000000000E+00  0.00000000000E+00 -0.33891285915E+02  0.37291147788E+04  0.37289607686E+04 0.  0.
        1    1    3    3  502    0 -0.11042788566E+04 -0.10863869391E+04  0.10206996056E+04  0.18551269658E+04  0.50400001928E-02 0.  1.
       -1    1    3    3    0  502  0.11042788566E+04  0.10863869391E+04 -0.10545908915E+04  0.18739878129E+04  0.50400001928E-02 0. -1.
</event>
<event>
 5   0  0.8038352E-07  0.3793074E+04  0.7818609E-02  0.8047643E-01
       -2   -1    0    0    0  501  0.00000000000E+00  0.00000000000E+00  0.11580766977E+04  0.11580766977E+04  0.25500000920E-02 0.  1.
        2   -1    0    0  501    0  0.00000000000E+00  0.00000000000E+00 -0.31058843567E+04  0.31058843567E+04  0.25500000920E-02 0. -1.
    10030    2    1    2    0    0  0.00000000000E+00  0.00000000000E+00 -0.19478076590E+04  0.42639610544E+04  0.37930738455E+04 0.  0.
        2    1    3    3  502    0 -0.26361713850E+03  0.18613939748E+04 -0.69270876335E+03  0.20035286262E+04  0.25500000920E-02 0. -1.
       -2    1    3    3    0  502  0.26361713850E+03 -0.18613939748E+04 -0.12550988956E+04  0.22604324283E+04  0.25500000920E-02 0.  1.
</event>
<event>
 5   0  0.2529875E-07  0.3785649E+04  0.7818609E-02  0.8049242E-01
       -1   -1    0    0    0  501  0.00000000000E+00  0.00000000000E+00  0.13842698334E+04  0.13842698334E+04  0.50400001928E-02 0.  1.
        1   -1    0    0  501    0  0.00000000000E+00  0.00000000000E+00 -0.25882124714E+04  0.25882124714E+04  0.50400001928E-02 0. -1.
    10030    2    1    2    0    0  0.00000000000E+00  0.00000000000E+00 -0.12039426380E+04  0.39724823048E+04  0.37856489254E+04 0.  0.
        5    1    3    3  502    0 -0.47156106674E+03 -0.65304143761E+03 -0.23993784689E+04  0.25309824349E+04  0.46999998093E+01 0. -1.
       -5    1    3    3    0  502  0.47156106674E+03  0.65304143761E+03  0.11954358309E+04  0.14414998698E+04  0.46999998093E+01 0.  1.
</event>
<event>
 5   0  0.7551495E-07  0.3815118E+04  0.7818609E-02  0.8042918E-01
        2   -1    0    0  501    0  0.00000000000E+00  0.00000000000E+00  0.17947526336E+04  0.17947526336E+04  0.25500000920E-02 0. -1.
       -2   -1    0    0    0  501  0.00000000000E+00  0.00000000000E+00 -0.20274551379E+04  0.20274551379E+04  0.25500000920E-02 0.  1.
    10030    2    1    2    0    0  0.00000000000E+00  0.00000000000E+00 -0.23270250425E+03  0.38222077715E+04  0.38151175333E+04 0.  0.
        1    1    3    3  502    0 -0.48283108109E+03 -0.17878000131E+04 -0.57483227679E+03  0.19390169896E+04  0.50400001928E-02 0.  1.
       -1    1    3    3    0  502  0.48283108109E+03  0.17878000131E+04  0.34212977253E+03  0.18831907819E+04  0.50400001928E-02 0. -1.
</event>
<event>
 5   0  0.7638805E-07  0.3843902E+04  0.7818609E-02  0.8036799E-01
        2   -1    0    0  501    0  0.00000000000E+00  0.00000000000E+00  0.18354489361E+04  0.18354489361E+04  0.25500000920E-02 0. -1.
       -2   -1    0    0    0  501  0.00000000000E+00  0.00000000000E+00 -0.20125295491E+04  0.20125295491E+04  0.25500000920E-02 0.  1.
    10030    2    1    2    0    0  0.00000000000E+00  0.00000000000E+00 -0.17708061307E+03  0.38479784852E+04  0.38439017780E+04 0.  0.
        5    1    3    3  502    0 -0.56277436489E+03  0.16264335654E+04  0.76786218058E+03  0.18845783472E+04  0.46999998093E+01 0. -1.
       -5    1    3    3    0  502  0.56277436489E+03 -0.16264335654E+04 -0.94494279365E+03  0.19634001380E+04  0.46999998093E+01 0.  1.
</event>
<event>
 5   0  0.2529875E-07  0.3794857E+04  0.7818609E-02  0.8047259E-01
        1   -1    0    0  501    0  0.00000000000E+00  0.00000000000E+00  0.20765762089E+04  0.20765762089E+04  0.50400001928E-02 0. -1.
       -1   -1    0    0    0  501  0.00000000000E+00  0.00000000000E+00 -0.17337360941E+04  0.17337360941E+04  0.50400001928E-02 0.  1.
    10030    2    1    2    0    0  0.00000000000E+00  0.00000000000E+00  0.34284011478E+03  0.38103123029E+04  0.37948571121E+04 0.  0.
        1    1    3    3  502    0  0.12067574956E+04 -0.16084296783E+03  0.16327170107E+04  0.20366391312E+04  0.50400001928E-02 0. -1.
       -1    1    3    3    0  502 -0.12067574956E+04  0.16084296783E+03 -0.12898768960E+04  0.17736731718E+04  0.50400001928E-02 0.  1.
</event>
<event>
 5   0  0.2529875E-07  0.3851579E+04  0.7818609E-02  0.8035176E-01
       -1   -1    0    0    0  501  0.00000000000E+00  0.00000000000E+00  0.17117425212E+04  0.17117425212E+04  0.50400001928E-02 0.  1.
        1   -1    0    0  501    0  0.00000000000E+00  0.00000000000E+00 -0.21666027557E+04  0.21666027557E+04  0.50400001928E-02 0. -1.
    10030    2    1    2    0    0  0.00000000000E+00  0.00000000000E+00 -0.45486023450E+03  0.38783452770E+04  0.38515794493E+04 0.  0.
        4    1    3    3  502    0  0.12914155992E+04  0.14071648284E+04 -0.47571479738E+03  0.19682919715E+04  0.12699999809E+01 0. -1.
       -4    1    3    3    0  502 -0.12914155992E+04 -0.14071648284E+04  0.20854562873E+02  0.19100533054E+04  0.12699999809E+01 0.  1.
</event>
<event>
 5   0  0.2529875E-07  0.3834943E+04  0.7818609E-02  0.8038698E-01
       -1   -1    0    0    0  501  0.00000000000E+00  0.00000000000E+00  0.19574828554E+04  0.19574828554E+04  0.50400001928E-02 0.  1.
        1   -1    0    0  501    0  0.00000000000E+00  0.00000000000E+00 -0.18782776253E+04  0.18782776253E+04  0.50400001928E-02 0. -1.
    10030    2    1    2    0    0  0.00000000000E+00  0.00000000000E+00  0.79205230149E+02  0.38357604807E+04  0.38349426328E+04 0.  0.
        4    1    3    3  502    0  0.55760695712E+03  0.62153546489E+03  0.17660827719E+04  0.19535306046E+04  0.12699999809E+01 0.  1.
       -4    1    3    3    0  502 -0.55760695712E+03 -0.62153546489E+03 -0.16868775418E+04  0.18822298761E+04  0.12699999809E+01 0. -1.
</event>
<event>
 5   0  0.8038352E-07  0.3767787E+04  0.7818609E-02  0.8053103E-01
       -2   -1    0    0    0  501  0.00000000000E+00  0.00000000000E+00  0.14781239864E+04  0.14781239864E+04  0.25500000920E-02 0. -1.
        2   -1    0    0  501    0  0.00000000000E+00  0.00000000000E+00 -0.24010535037E+04  0.24010535037E+04  0.25500000920E-02 0.  1.
    10030    2    1    2    0    0  0.00000000000E+00  0.00000000000E+00 -0.92292951736E+03  0.38791774901E+04  0.37677870303E+04 0.  0.
        2    1    3    3  502    0 -0.14597403003E+04 -0.11134783984E+04 -0.89630029688E+03  0.20430443241E+04  0.25500000920E-02 0.  1.
       -2    1    3    3    0  502  0.14597403003E+04  0.11134783984E+04 -0.26629220474E+02  0.18361331660E+04  0.25500000920E-02 0. -1.
</event>
<event>
 5   0  0.8038352E-07  0.2402673E+04  0.7818609E-02  0.8438503E-01
       -2   -1    0    0    0  501  0.00000000000E+00  0.00000000000E+00  0.13010122528E+04  0.13010122528E+04  0.25500000920E-02 0. -1.
        2   -1    0    0  501    0  0.00000000000E+00  0.00000000000E+00 -0.11092973970E+04  0.11092973970E+04  0.25500000920E-02 0.  1.
    10030    2    1    2    0    0  0.00000000000E+00  0.00000000000E+00  0.19171485570E+03  0.24103096498E+04  0.24026730993E+04 0.  0.
        2    1    3    3  502    0 -0.18597420585E+03 -0.10553840180E+04  0.64052662384E+03  0.12484775475E+04  0.25500000920E-02 0. -1.
       -2    1    3    3    0  502  0.18597420585E+03  0.10553840180E+04 -0.44881176814E+03  0.11618321023E+04  0.25500000920E-02 0.  1.
</event>
<event>
 5   0  0.7649458E-07  0.3747315E+04  0.7818609E-02  0.8057556E-01
        2   -1    0    0  501    0  0.00000000000E+00  0.00000000000E+00  0.19963725111E+04  0.19963725111E+04  0.25500000920E-02 0.  1.
       -2   -1    0    0    0  501  0.00000000000E+00  0.00000000000E+00 -0.17584860787E+04  0.17584860787E+04  0.25500000920E-02 0. -1.
    10030    2    1    2    0    0  0.00000000000E+00  0.00000000000E+00  0.23788643238E+03  0.37548585899E+04  0.37473154491E+04 0.  0.
        4    1    3    3  502    0  0.13121882570E+04 -0.92575382222E+02  0.14558641074E+04  0.19621289803E+04  0.12699999809E+01 0. -1.
       -4    1    3    3    0  502 -0.13121882570E+04  0.92575382222E+02 -0.12179776750E+04  0.17927296096E+04  0.12699999809E+01 0.  1.
</event>
<event>
 5   0  0.7638805E-07  0.3668557E+04  0.7818609E-02  0.8074966E-01
        2   -1    0    0  501    0  0.00000000000E+00  0.00000000000E+00  0.17383082148E+04  0.17383082148E+04  0.25500000920E-02 0.  1.
       -2   -1    0    0    0  501  0.00000000000E+00  0.00000000000E+00 -0.19355467723E+04  0.19355467723E+04  0.25500000920E-02 0. -1.
    10030    2    1    2    0    0  0.00000000000E+00  0.00000000000E+00 -0.19723855756E+03  0.36738549871E+04  0.36685565851E+04 0.  0.
        5    1    3    3  502    0  0.78152569716E+03  0.45505272339E+02  0.15626018935E+04  0.17477413746E+04  0.46999998093E+01 0.  1.
       -5    1    3    3    0  502 -0.78152569716E+03 -0.45505272339E+02 -0.17598404510E+04  0.19261136125E+04  0.46999998093E+01 0. -1.
</event>
<event>
 5   0  0.8038352E-07  0.3857244E+04  0.7818609E-02  0.8033981E-01
        2   -1    0    0  501    0  0.00000000000E+00  0.00000000000E+00  0.23084081364E+04  0.23084081364E+04  0.25500000920E-02 0. -1.
       -2   -1    0    0    0  501  0.00000000000E+00  0.00000000000E+00 -0.16113195741E+04  0.16113195741E+04  0.25500000920E-02 0.  1.
    10030    2    1    2    0    0  0.00000000000E+00  0.00000000000E+00  0.69708856234E+03  0.39197277104E+04  0.38572442054E+04 0.  0.
        2    1    3    3  502    0 -0.79706347235E+03  0.35258296195E+03  0.20968668329E+04  0.22707874051E+04  0.25500000920E-02 0. -1.
       -2    1    3    3    0  502  0.79706347235E+03 -0.35258296195E+03 -0.13997782706E+04  0.16489403054E+04  0.25500000920E-02 0.  1.
</event>
<event>
 5   0  0.7551495E-07  0.3795262E+04  0.7818609E-02  0.8047172E-01
        2   -1    0    0  501    0  0.00000000000E+00  0.00000000000E+00  0.28369019678E+04  0.28369019678E+04  0.25500000920E-02 0.  1.
       -2   -1    0    0    0  501  0.00000000000E+00  0.00000000000E+00 -0.12693439266E+04  0.12693439266E+04  0.25500000920E-02 0. -1.
    10030    2    1    2    0    0  0.00000000000E+00  0.00000000000E+00  0.15675580412E+04  0.41062458944E+04  0.37952624590E+04 0.  0.
        1    1    3    3  502    0 -0.98442632275E+03 -0.63977454858E+03 -0.82921798458E+03  0.14373618625E+04  0.50400001928E-02 0. -1.
       -1    1    3    3    0  502  0.98442632275E+03  0.63977454858E+03  0.23967760257E+04  0.26688840319E+04  0.50400001928E-02 0.  1.
</event>
<event>
 5   0  0.7649458E-07  0.3802882E+04  0.7818609E-02  0.8045537E-01
        2   -1    0    0  501    0  0.00000000000E+00  0.00000000000E+00  0.30016349260E+04  0.30016349260E+04  0.25500000920E-02 0.  1.
       -2   -1    0    0    0  501  0.00000000000E+00  0.00000000000E+00 -0.12045027894E+04  0.12045027894E+04  0.25500000920E-02 0. -1.
    10030    2    1    2    0    0  0.00000000000E+00  0.00000000000E+00  0.17971321366E+04  0.42061377154E+04  0.38028818762E+04 0.  0.
        4    1    3    3  502    0  0.74103913916E+03 -0.11190179957E+04 -0.59115700036E+03  0.14665634976E+04  0.12699999809E+01 0.  1.
       -4    1    3    3    0  502 -0.74103913916E+03  0.11190179957E+04  0.23882891369E+04  0.27395742178E+04  0.12699999809E+01 0. -1.
</event>
<event>
 5   0  0.7649458E-07  0.3795253E+04  0.7818609E-02  0.8047174E-01
        2   -1    0    0  501    0  0.00000000000E+00  0.00000000000E+00  0.26596511159E+04  0.26596511159E+04  0.25500000920E-02 0. -1.
       -2   -1    0    0    0  501  0.00000000000E+00  0.00000000000E+00 -0.13539318220E+04  0.13539318220E+04  0.25500000920E-02 0.  1.
    10030    2    1    2    0    0  0.00000000000E+00  0.00000000000E+00  0.13057192940E+04  0.40135829379E+04  0.37952529725E+04 0.  0.
        4    1    3    3  502    0  0.15950153156E+04 -0.76761535250E+03 -0.70350885864E+02  0.17715129258E+04  0.12699999809E+01 0.  1.
       -4    1    3    3    0  502 -0.15950153156E+04  0.76761535250E+03  0.13760701798E+04  0.22420700121E+04  0.12699999809E+01 0. -1.
</event>
<event>
 5   0  0.7638805E-07  0.3850500E+04  0.7818609E-02  0.8035404E-01
       -2   -1    0    0    0  501  0.00000000000E+00  0.00000000000E+00  0.19301687284E+04  0.19301687284E+04  0.25500000920E-02 0. -1.
        2   -1    0    0  501    0  0.00000000000E+00  0.00000000000E+00 -0.19203435439E+04  0.19203435439E+04  0.25500000920E-02 0.  1.
    10030    2    1    2    0    0  0.00000000000E+00  0.00000000000E+00  0.98251844731E+01  0.38505122723E+04  0.38504997370E+04 0.  0.
        5    1    3    3  502    0  0.18699628203E+04  0.29529999365E+03  0.35505931707E+03  0.19261495903E+04  0.46999998093E+01 0. -1.
       -5    1    3    3    0  502 -0.18699628203E+04 -0.29529999365E+03 -0.34523413260E+03  0.19243626820E+04  0.46999998093E+01 0.  1.
</event>
<event>
 5   0  0.2529875E-07  0.3810722E+04  0.7818609E-02  0.8043858E-01
        1   -1    0    0  501    0  0.00000000000E+00  0.00000000000E+00  0.11876506382E+04  0.11876506382E+04  0.50400001928E-02 0.  1.
       -1   -1    0    0    0  501  0.00000000000E+00  0.00000000000E+00 -0.30567922555E+04  0.30567922555E+04  0.50400001928E-02 0. -1.
    10030    2    1    2    0    0  0.00000000000E+00  0.00000000000E+00 -0.18691416173E+04  0.42444428937E+04  0.38107223846E+04 0.  0.
        4    1    3    3  502    0  0.27971764315E+02  0.13866418410E+04 -0.23897282986E+04  0.27630347390E+04  0.12699999809E+01 0. -1.
       -4    1    3    3    0  502 -0.27971764315E+02 -0.13866418410E+04  0.52058668138E+03  0.14814081546E+04  0.12699999809E+01 0.  1.
</event>
<event>
 5   0  0.7638805E-07  0.3780104E+04  0.7818609E-02  0.8050438E-01
        2   -1    0    0  501    0  0.00000000000E+00  0.00000000000E+00  0.20505317327E+04  0.20505317327E+04  0.25500000920E-02 0.  1.
       -2   -1    0    0    0  501  0.00000000000E+00  0.00000000000E+00 -0.17421319999E+04  0.17421319999E+04  0.25500000920E-02 0. -1.
    10030    2    1    2    0    0  0.00000000000E+00  0.00000000000E+00  0.30839973285E+03  0.37926637326E+04  0.37801042041E+04 0.  0.
        5    1    3    3  502    0  0.72826096795E+03 -0.11668764991E+04  0.14547745025E+04  0.20020878464E+04  0.46999998093E+01 0.  1.
       -5    1    3    3    0  502 -0.72826096795E+03  0.11668764991E+04 -0.11463747697E+04  0.17905758862E+04  0.46999998093E+01 0. -1.
</event>
<event>
 5   0  0.8421677E-07  0.3753515E+04  0.7818609E-02  0.8056205E-01
       -2   -1    0    0    0  501  0.00000000000E+00  0.00000000000E+00  0.21634488318E+04  0.21634488318E+04  0.25500000920E-02 0. -1.
        2   -1    0    0  501    0  0.00000000000E+00  0.00000000000E+00 -0.16280577485E+04  0.16280577485E+04  0.25500000920E-02 0.  1.
    10030    2    1    2    0    0  0.00000000000E+00  0.00000000000E+00  0.53539108327E+03  0.37915065804E+04  0.37535154904E+04 0.  0.
        3    1    3    3  502    0  0.14210582278E+04  0.53129465330E+02  0.15048326699E+04  0.20704469570E+04  0.10100000352E+00 0. -1.
       -3    1    3    3    0  502 -0.14210582278E+04 -0.53129465330E+02 -0.96944158668E+03  0.17210596234E+04  0.10100000352E+00 0.  1.
</event>
<event>
 5   0  0.7638805E-07  0.3537317E+04  0.7818609E-02  0.8105003E-01
        2   -1    0    0  501    0  0.00000000000E+00  0.00000000000E+00  0.20125091089E+04  0.20125091089E+04  0.25500000920E-02 0. -1.
       -2   -1    0    0    0  501  0.00000000000E+00  0.00000000000E+00 -0.15543550024E+04  0.15543550024E+04  0.25500000920E-02 0.  1.
    10030    2    1    2    0    0  0.00000000000E+00  0.00000000000E+00  0.45815410646E+03  0.35668641112E+04  0.35373174020E+04 0.  0.
        5    1    3    3  502    0 -0.13524325327E+04  0.26787890654E+03 -0.88801165298E+03  0.16399450143E+04  0.46999998093E+01 0.  1.
       -5    1    3    3    0  502  0.13524325327E+04 -0.26787890654E+03  0.13461657594E+04  0.19269190969E+04  0.46999998093E+01 0. -1.
</event>
<event>
 5   0  0.2529875E-07  0.3129927E+04  0.7818609E-02  0.8207572E-01
       -1   -1    0    0    0  501  0.00000000000E+00  0.00000000000E+00  0.11576355520E+04  0.11576355520E+04  0.50400001928E-02 0.  1.
        1   -1    0    0  501    0  0.00000000000E+00  0.00000000000E+00 -0.21156153353E+04  0.21156153353E+04  0.50400001928E-02 0. -1.
    10030    2    1    2    0    0  0.00000000000E+00  0.00000000000E+00 -0.95797978331E+03  0.32732508873E+04  0.31299274921E+04 0.  0.
        1    1    3    3  502    0 -0.13651477443E+04 -0.73468939750E+03 -0.25538941447E+03  0.15711844664E+04  0.50400001928E-02 0.  1.
       -1    1    3    3    0  502  0.13651477443E+04  0.73468939750E+03 -0.70259036884E+03  0.17020664208E+04  0.50400001928E-02 0. -1.
</event>
<event>
 5   0  0.2529875E-07  0.3728320E+04  0.7818609E-02  0.8061715E-01
        1   -1    0    0  501    0  0.00000000000E+00  0.00000000000E+00  0.17237591158E+04  0.17237591159E+04  0.50400001928E-02 0.  1.
       -1   -1    0    0    0  501  0.00000000000E+00  0.00000000000E+00 -0.20159969108E+04  0.20159969109E+04  0.50400001928E-02 0. -1.
    10030    2    1    2    0    0  0.00000000000E+00  0.00000000000E+00 -0.29223779501E+03  0.37397560267E+04  0.37283202934E+04 0.  0.
        5    1    3    3  502    0 -0.54547261915E+02  0.29669734655E+03  0.16991067562E+04  0.17256855386E+04  0.46999998093E+01 0.  1.
       -5    1    3    3    0  502  0.54547261915E+02 -0.29669734655E+03 -0.19913445512E+04  0.20140704881E+04  0.46999998093E+01 0. -1.
</event>
<event>
 5   0  0.2529875E-07  0.3811608E+04  0.7818609E-02  0.8043668E-01
       -1   -1    0    0    0  501  0.00000000000E+00  0.00000000000E+00  0.12940766302E+04  0.12940766302E+04  0.50400001928E-02 0. -1.
        1   -1    0    0  501    0  0.00000000000E+00  0.00000000000E+00 -0.28067030836E+04  0.28067030836E+04  0.50400001928E-02 0.  1.
    10030    2    1    2    0    0  0.00000000000E+00  0.00000000000E+00 -0.15126264534E+04  0.41007797137E+04  0.38116079905E+04 0.  0.
        5    1    3    3  502    0  0.76082861773E+03 -0.94142472583E+03 -0.23400400043E+04  0.26345682780E+04  0.46999998093E+01 0.  1.
       -5    1    3    3    0  502 -0.76082861773E+03  0.94142472583E+03  0.82741355091E+03  0.14662114357E+04  0.46999998093E+01 0. -1.
</event>
<event>
 5   0  0.7551495E-07  0.3842668E+04  0.7818609E-02  0.8037060E-01
       -2   -1    0    0    0  501  0.00000000000E+00  0.00000000000E+00  0.23329093298E+04  0.23329093298E+04  0.25500000920E-02 0. -1.
        2   -1    0    0  501    0  0.00000000000E+00  0.00000000000E+00 -0.15823697390E+04  0.15823697390E+04  0.25500000920E-02 0.  1.
    10030    2    1    2    0    0  0.00000000000E+00  0.00000000000E+00  0.75053959080E+03  0.39152790689E+04  0.38426684101E+04 0.  0.
        1    1    3    3  502    0  0.64334977800E+03 -0.15002420522E+04 -0.65723929568E+03  0.17597126595E+04  0.50400001928E-02 0.  1.
       -1    1    3    3    0  502 -0.64334977800E+03  0.15002420522E+04  0.14077788865E+04  0.21555664094E+04  0.50400001928E-02 0. -1.
</event>
<event>
 5   0  0.7551495E-07  0.3713926E+04  0.7818609E-02  0.8064883E-01
       -2   -1    0    0    0  501  0.00000000000E+00  0.00000000000E+00  0.32262609283E+04  0.32262609283E+04  0.25500000920E-02 0. -1.
        2   -1    0    0  501    0  0.00000000000E+00  0.00000000000E+00 -0.10688262177E+04  0.10688262177E+04  0.25500000920E-02 0.  1.
    10030    2    1    2    0    0  0.00000000000E+00  0.00000000000E+00  0.21574347106E+04  0.42950871460E+04  0.37139263673E+04 0.  0.
        1    1    3    3  502    0  0.10485704201E+04  0.43442668358E+03  0.27784248579E+04  0.30013115734E+04  0.50400001928E-02 0. -1.
       -1    1    3    3    0  502 -0.10485704201E+04 -0.43442668358E+03 -0.62099014730E+03  0.12937755727E+04  0.50400001928E-02 0.  1.
</event>
<event>
 5   0  0.2529875E-07  0.3860141E+04  0.7818609E-02  0.8033371E-01
       -1   -1    0    0    0  501  0.00000000000E+00  0.00000000000E+00  0.15866813890E+04  0.15866813890E+04  0.50400001928E-02 0. -1.
        1   -1    0    0  501    0  0.00000000000E+00  0.00000000000E+00 -0.23477752154E+04  0.23477752154E+04  0.50400001928E-02 0.  1.
    10030    2    1    2    0    0  0.00000000000E+00  0.00000000000E+00 -0.76109382641E+03  0.39344566045E+04  0.38601405363E+04 0.  0.
        4    1    3    3  502    0 -0.16912053910E+04 -0.73289801438E+03  0.20306236349E+03  0.18543330635E+04  0.12699999809E+01 0. -1.
       -4    1    3    3    0  502  0.16912053910E+04  0.73289801438E+03 -0.96415618990E+03  0.20801235409E+04  0.12699999809E+01 0.  1.
</event>
<event>
 5   0  0.8038352E-07  0.3774203E+04  0.7818609E-02  0.8051714E-01
       -2   -1    0    0    0  501  0.00000000000E+00  0.00000000000E+00  0.10960378950E+04  0.10960378950E+04  0.25500000920E-02 0. -1.
        2   -1    0    0  501    0  0.00000000000E+00  0.00000000000E+00 -0.32491134157E+04  0.32491134157E+04  0.25500000920E-02 0.  1.
    10030    2    1    2    0    0  0.00000000000E+00  0.00000000000E+00 -0.21530755207E+04  0.43451513107E+04  0.37742026595E+04 0.  0.
        2    1    3    3  502    0  0.35772116183E+03 -0.15252967330E+04 -0.22876549868E+04  0.27726990265E+04  0.25500000920E-02 0.  1.
       -2    1    3    3    0  502 -0.35772116183E+03  0.15252967330E+04  0.13457946607E+03  0.15724522842E+04  0.25500000920E-02 0. -1.
</event>
<event>
 5   0  0.7638805E-07  0.3815653E+04  0.7818609E-02  0.8042804E-01
       -2   -1    0    0    0  501  0.00000000000E+00  0.00000000000E+00  0.16308111673E+04  0.16308111673E+04  0.25500000920E-02 0.  1.
        2   -1    0    0  501    0  0.00000000000E+00  0.00000000000E+00 -0.22318968976E+04  0.22318968976E+04  0.25500000920E-02 0. -1.
    10030    2    1    2    0    0  0.00000000000E+00  0.00000000000E+00 -0.60108573028E+03  0.38627080649E+04  0.38156532258E+04 0.  0.
        5    1    3    3  502    0 -0.17214582205E+04  0.78925394081E+03 -0.53456484372E+03  0.19677707819E+04  0.46999998093E+01 0.  1.
       -5    1    3    3    0  502  0.17214582205E+04 -0.78925394081E+03 -0.66520886552E+02  0.18949372830E+04  0.46999998093E+01 0. -1.
</event>
<event>
 5   0  0.7638805E-07  0.3621860E+04  0.7818609E-02  0.8085503E-01
        2   -1    0    0  501    0  0.00000000000E+00  0.00000000000E+00  0.21219511366E+04  0.21219511366E+04  0.25500000920E-02 0. -1.
       -2   -1    0    0    0  501  0.00000000000E+00  0.00000000000E+00 -0.15454959617E+04  0.15454959617E+04  0.25500000920E-02 0.  1.
    10030    2    1    2    0    0  0.00000000000E+00  0.00000000000E+00  0.57645517490E+03  0.36674470983E+04  0.36218596950E+04 0.  0.
        5    1    3    3  502    0 -0.22963609721E+03  0.24509063628E+03  0.20901320673E+04  0.21169497646E+04  0.46999998093E+01 0. -1.
       -5    1    3    3    0  502  0.22963609721E+03 -0.24509063628E+03 -0.15136768924E+04  0.15504973337E+04  0.46999998093E+01 0.  1.
</event>
<event>
 5   0  0.2529875E-07  0.3714509E+04  0.7818609E-02  0.8064754E-01
       -1   -1    0    0    0  501  0.00000000000E+00  0.00000000000E+00  0.22787140659E+04  0.22787140659E+04  0.50400001928E-02 0.  1.
        1   -1    0    0  501    0  0.00000000000E+00  0.00000000000E+00 -0.15137457247E+04  0.15137457247E+04  0.50400001928E-02 0. -1.
    10030    2    1    2    0    0  0.00000000000E+00  0.00000000000E+00  0.76496834119E+03  0.37924597906E+04  0.37145086755E+04 0.  0.
        1    1    3    3  502    0 -0.47990716938E+02 -0.15699704040E+04 -0.62941684476E+03  0.16921216690E+04  0.50400001928E-02 0. -1.
       -1    1    3    3    0  502  0.47990716938E+02  0.15699704040E+04  0.13943851860E+04  0.21003381216E+04  0.50400001928E-02 0.  1.
</event>
<event>
 5   0  0.2529875E-07  0.3559819E+04  0.7818609E-02  0.8099758E-01
       -1   -1    0    0    0  501  0.00000000000E+00  0.00000000000E+00  0.17334756138E+04  0.17334756138E+04  0.50400001928E-02 0. -1.
        1   -1    0    0  501    0  0.00000000000E+00  0.00000000000E+00 -0.18275868820E+04  0.18275868820E+04  0.50400001928E-02 0.  1.
    10030    2    1    2    0    0  0.00000000000E+00  0.00000000000E+00 -0.94111268188E+02  0.35610624958E+04  0.35598186987E+04 0.  0.
        4    1    3    3  502    0  0.10822921465E+04  0.29343532883E+03  0.13356773350E+04  0.17439885718E+04  0.12699999809E+01 0. -1.
       -4    1    3    3    0  502 -0.10822921465E+04 -0.29343532883E+03 -0.14297886031E+04  0.18170739240E+04  0.12699999809E+01 0.  1.
</event>
<event>
 5   0  0.8421677E-07  0.3575341E+04  0.7818609E-02  0.8096164E-01
       -2   -1    0    0    0  501  0.00000000000E+00  0.00000000000E+00  0.12324548649E+04  0.12324548649E+04  0.25500000920E-02 0. -1.
        2   -1    0    0  501    0  0.00000000000E+00  0.00000000000E+00 -0.25930086558E+04  0.25930086558E+04  0.25500000920E-02 0.  1.
    10030    2    1    2    0    0  0.00000000000E+00  0.00000000000E+00 -0.13605537909E+04  0.38254635208E+04  0.35753411768E+04 0.  0.
        3    1    3    3  502    0  0.16240609694E+04 -0.22997270505E+03  0.80300159566E+02  0.16422270255E+04  0.10100000352E+00 0. -1.
       -3    1    3    3    0  502 -0.16240609694E+04  0.22997270505E+03 -0.14408539505E+04  0.21832364953E+04  0.10100000352E+00 0.  1.
</event>
<event>
 5   0  0.7551495E-07  0.3789591E+04  0.7818609E-02  0.8048392E-01
       -2   -1    0    0    0  501  0.00000000000E+00  0.00000000000E+00  0.13178240254E+04  0.13178240254E+04  0.25500000920E-02 0. -1.
        2   -1    0    0  501    0  0.00000000000E+00  0.00000000000E+00 -0.27243778330E+04  0.27243778330E+04  0.25500000920E-02 0.  1.
    10030    2    1    2    0    0  0.00000000000E+00  0.00000000000E+00 -0.14065538075E+04  0.40422018584E+04  0.37895913039E+04 0.  0.
        1    1    3    3  502    0 -0.14318048635E+04  0.74689868329E+03 -0.17604688090E+04  0.23889690742E+04  0.50400001928E-02 0.  1.
       -1    1    3    3    0  502  0.14318048635E+04 -0.74689868329E+03  0.35391500144E+03  0.16532327841E+04  0.50400001928E-02 0. -1.
</event>
<event>
 5   0  0.7638805E-07  0.2858526E+04  0.7818609E-02  0.8285325E-01
        2   -1    0    0  501    0  0.00000000000E+00  0.00000000000E+00  0.16368705819E+04  0.16368705819E+04  0.25500000920E-02 0.  1.
       -2   -1    0    0    0  501  0.00000000000E+00  0.00000000000E+00 -0.12479866312E+04  0.12479866312E+04  0.25500000920E-02 0. -1.
    10030    2    1    2    0    0  0.00000000000E+00  0.00000000000E+00  0.38888395073E+03  0.28848572130E+04  0.28585259160E+04 0.  0.
        5    1    3    3  502    0  0.10291581309E+04 -0.98182043867E+03  0.33584932849E+03  0.14614905725E+04  0.46999998093E+01 0.  1.
       -5    1    3    3    0  502 -0.10291581309E+04  0.98182043867E+03  0.53034622244E+02  0.14233666405E+04  0.46999998093E+01 0. -1.
</event>
<event>
 5   0  0.7638805E-07  0.3111294E+04  0.7818609E-02  0.8212645E-01
       -2   -1    0    0    0  501  0.00000000000E+00  0.00000000000E+00  0.16614110988E+04  0.16614110988E+04  0.25500000920E-02 0.  1.
        2   -1    0    0  501    0  0.00000000000E+00  0.00000000000E+00 -0.14566158444E+04  0.14566158444E+04  0.25500000920E-02 0. -1.
    10030    2    1    2    0    0  0.00000000000E+00  0.00000000000E+00  0.20479525444E+03  0.31180269432E+04  0.31112940912E+04 0.  0.
        5    1    3    3  502    0  0.79422928855E+03  0.37369478107E+03 -0.11847366915E+04  0.14744731501E+04  0.46999998093E+01 0. -1.
       -5    1    3    3    0  502 -0.79422928855E+03 -0.37369478107E+03  0.13895319459E+04  0.16435537931E+04  0.46999998093E+01 0.  1.
</event>
<event>
 5   0  0.8421677E-07  0.2429277E+04  0.7818609E-02  0.8428624E-01
       -2   -1    0    0    0  501  0.00000000000E+00  0.00000000000E+00  0.72290488908E+03  0.72290488908E+03  0.25500000920E-02 0.  1.
        2   -1    0    0  501    0  0.00000000000E+00  0.00000000000E+00 -0.20408578777E+04  0.20408578777E+04  0.25500000920E-02 0. -1.
    10030    2    1    2    0    0  0.00000000000E+00  0.00000000000E+00 -0.13179529887E+04  0.27637627668E+04  0.24292765489E+04 0.  0.
        3    1    3    3  502    0  0.74762855846E+03 -0.65851050073E+03  0.13150217822E+03  0.10049265516E+04  0.10100000352E+00 0. -1.
       -3    1    3    3    0  502 -0.74762855846E+03  0.65851050073E+03 -0.14494551669E+04  0.17588362152E+04  0.10100000352E+00 0.  1.
</event>
<event>
 5   0  0.7649458E-07  0.3706841E+04  0.7818609E-02  0.8066448E-01
       -2   -1    0    0    0  501  0.00000000000E+00  0.00000000000E+00  0.18904379936E+04  0.18904379936E+04  0.25500000920E-02 0. -1.
        2   -1    0    0  501    0  0.00000000000E+00  0.00000000000E+00 -0.18171275404E+04  0.18171275404E+04  0.25500000920E-02 0.  1.
    10030    2    1    2    0    0  0.00000000000E+00  0.00000000000E+00  0.73310453180E+02  0.37075655340E+04  0.37068406718E+04 0.  0.
        4    1    3    3  502    0 -0.15992732204E+04 -0.27995506568E+03  0.93076272386E+03  0.18714621378E+04  0.12699999809E+01 0.  1.
       -4    1    3    3    0  502  0.15992732204E+04  0.27995506568E+03 -0.85745227068E+03  0.18361033962E+04  0.12699999809E+01 0. -1.
</event>
<event>
 5   0  0.2529875E-07  0.3609849E+04  0.7818609E-02  0.8088239E-01
       -3   -1    0    0    0  501  0.00000000000E+00  0.00000000000E+00  0.18908196449E+04  0.18908196476E+04  0.10100000352E+00 0.  1.
        3   -1    0    0  501    0  0.00000000000E+00  0.00000000000E+00 -0.17229310297E+04  0.17229310326E+04  0.10100000352E+00 0. -1.
    10030    2    1    2    0    0  0.00000000000E+00  0.00000000000E+00  0.16788861522E+03  0.36137506802E+04  0.36098486660E+04 0.  0.
        3    1    3    3  502    0  0.53097339538E+03  0.12185811261E+04  0.13062797612E+04  0.18636629342E+04  0.10100000352E+00 0.  1.
       -3    1    3    3    0  502 -0.53097339538E+03 -0.12185811261E+04 -0.11383911460E+04  0.17500877461E+04  0.10100000352E+00 0. -1.
</event>
<event>
 5   0  0.8421677E-07  0.3807913E+04  0.7818609E-02  0.8044459E-01
       -2   -1    0    0    0  501  0.00000000000E+00  0.00000000000E+00  0.14390438610E+04  0.14390438610E+04  0.25500000920E-02 0. -1.
        2   -1    0    0  501    0  0.00000000000E+00  0.00000000000E+00 -0.25190680924E+04  0.25190680924E+04  0.25500000920E-02 0.  1.
    10030    2    1    2    0    0  0.00000000000E+00  0.00000000000E+00 -0.10800242313E+04  0.39581119534E+04  0.38079125378E+04 0.  0.
        3    1    3    3  502    0 -0.17489756845E+02  0.36658428982E+03 -0.24819538327E+04  0.25089409661E+04  0.10100000352E+00 0.  1.
       -3    1    3    3    0  502  0.17489756845E+02 -0.36658428982E+03  0.14019296014E+04  0.14491709874E+04  0.10100000352E+00 0. -1.
</event>
<event>
 5   0  0.7649458E-07  0.2584923E+04  0.7818609E-02  0.8373341E-01
        2   -1    0    0  501    0  0.00000000000E+00  0.00000000000E+00  0.19453328347E+04  0.19453328347E+04  0.25500000920E-02 0.  1.
       -2   -1    0    0    0  501  0.00000000000E+00  0.00000000000E+00 -0.85869941164E+03  0.85869941164E+03  0.25500000920E-02 0. -1.
    10030    2    1    2    0    0  0.00000000000E+00  0.00000000000E+00  0.10866334231E+04  0.28040322464E+04  0.25849225602E+04 0.  0.
        4    1    3    3  502    0  0.42752788559E+03  0.99472597544E+03  0.13089750442E+04  0.16987280943E+04  0.12699999809E+01 0.  1.
       -4    1    3    3    0  502 -0.42752788559E+03 -0.99472597544E+03 -0.22234162111E+03  0.11053041521E+04  0.12699999809E+01 0. -1.
</event>
<event>
 5   0  0.7551495E-07  0.3837566E+04  0.7818609E-02  0.8038141E-01
       -2   -1    0    0    0  501  0.00000000000E+00  0.00000000000E+00  0.16859824072E+04  0.16859824072E+04  0.25500000920E-02 0.  1.
        2   -1    0    0  501    0  0.00000000000E+00  0.00000000000E+00 -0.21837290937E+04  0.21837290937E+04  0.25500000920E-02 0. -1.
    10030    2    1    2    0    0  0.00000000000E+00  0.00000000000E+00 -0.49774668653E+03  0.38697115010E+04  0.38375663300E+04 0.  0.
        1    1    3    3  502    0  0.19190804249E+03 -0.15883773742E+03 -0.21673531175E+04  0.21816227125E+04  0.50400001928E-02 0. -1.
       -1    1    3    3    0  502 -0.19190804249E+03  0.15883773742E+03  0.16696064310E+04  0.16880887885E+04  0.50400001928E-02 0.  1.
</event>
<event>
 5   0  0.2529875E-07  0.3785630E+04  0.7818609E-02  0.8049246E-01
        1   -1    0    0  501    0  0.00000000000E+00  0.00000000000E+00  0.15483027509E+04  0.15483027509E+04  0.50400001928E-02 0. -1.
       -1   -1    0    0    0  501  0.00000000000E+00  0.00000000000E+00 -0.23139840169E+04  0.23139840169E+04  0.50400001928E-02 0.  1.
    10030    2    1    2    0    0  0.00000000000E+00  0.00000000000E+00 -0.76568126598E+03  0.38622867678E+04  0.37856295745E+04 0.  0.
        4    1    3    3  502    0  0.49258715362E+03 -0.18262698838E+04 -0.31184406641E+03  0.19170686286E+04  0.12699999809E+01 0.  1.
       -4    1    3    3    0  502 -0.49258715362E+03  0.18262698838E+04 -0.45383719957E+03  0.19452181391E+04  0.12699999809E+01 0. -1.
</event>
<event>
 5   0  0.8421677E-07  0.3878055E+04  0.7818609E-02  0.8029609E-01
       -2   -1    0    0    0  501  0.00000000000E+00  0.00000000000E+00  0.27369032533E+04  0.27369032533E+04  0.25500000920E-02 0.  1.
        2   -1    0    0  501    0  0.00000000000E+00  0.00000000000E+00 -0.13737523586E+04  0.13737523586E+04  0.25500000920E-02 0. -1.
    10030    2    1    2    0    0  0.00000000000E+00  0.00000000000E+00  0.13631508947E+04  0.41106556120E+04  0.38780548215E+04 0.  0.
        3    1    3    3  502    0  0.17147016940E+04  0.48513325334E+03 -0.12864716190E+03  0.17866466565E+04  0.10100000352E+00 0.  1.
       -3    1    3    3    0  502 -0.17147016940E+04 -0.48513325334E+03  0.14917980566E+04  0.23240089554E+04  0.10100000352E+00 0. -1.
</event>
<event>
 5   0  0.7638805E-07  0.3791573E+04  0.7818609E-02  0.8047966E-01
        2   -1    0    0  501    0  0.00000000000E+00  0.00000000000E+00  0.23346889255E+04  0.23346889255E+04  0.25500000920E-02 0. -1.
       -2   -1    0    0    0  501  0.00000000000E+00  0.00000000000E+00 -0.15393938916E+04  0.15393938916E+04  0.25500000920E-02 0.  1.
    10030    2    1    2    0    0  0.00000000000E+00  0.00000000000E+00  0.79529503385E+03  0.38740828171E+04  0.37915726926E+04 0.  0.
        5    1    3    3  502    0 -0.11911617234E+04 -0.56135366695E+03  0.17911441958E+04  0.22231067925E+04  0.46999998093E+01 0. -1.
       -5    1    3    3    0  502  0.11911617234E+04  0.56135366695E+03 -0.99584916196E+03  0.16509760246E+04  0.46999998093E+01 0.  1.
</event>
<event>
 5   0  0.2529875E-07  0.2627326E+04  0.7818609E-02  0.8358978E-01
        1   -1    0    0  501    0  0.00000000000E+00  0.00000000000E+00  0.81884591276E+03  0.81884591278E+03  0.50400001928E-02 0.  1.
       -1   -1    0    0    0  501  0.00000000000E+00  0.00000000000E+00 -0.21074916125E+04  0.21074916125E+04  0.50400001928E-02 0. -1.
    10030    2    1    2    0    0  0.00000000000E+00  0.00000000000E+00 -0.12886456997E+04  0.29263375253E+04  0.26273263163E+04 0.  0.
        3    1    3    3  502    0  0.57866759769E+03 -0.61650319023E+02 -0.19560909774E+04  0.20408206370E+04  0.10100000352E+00 0. -1.
       -3    1    3    3    0  502 -0.57866759769E+03  0.61650319023E+02  0.66744527768E+03  0.88551688824E+03  0.10100000352E+00 0.  1.
</event>
<event>
 5   0  0.2529875E-07  0.3836178E+04  0.7818609E-02  0.8038435E-01
       -1   -1    0    0    0  501  0.00000000000E+00  0.00000000000E+00  0.25889395165E+04  0.25889395165E+04  0.50400001928E-02 0.  1.
        1   -1    0    0  501    0  0.00000000000E+00  0.00000000000E+00 -0.14210705496E+04  0.14210705496E+04  0.50400001928E-02 0. -1.
    10030    2    1    2    0    0  0.00000000000E+00  0.00000000000E+00  0.11678689669E+04  0.40100100661E+04  0.38361781510E+04 0.  0.
        4    1    3    3  502    0 -0.12808423844E+04 -0.11473598450E+04 -0.30431921845E+03  0.17463114348E+04  0.12699999809E+01 0. -1.
       -4    1    3    3    0  502  0.12808423844E+04  0.11473598450E+04  0.14721881853E+04  0.22636986313E+04  0.12699999809E+01 0.  1.
</event>
<event>
 5   0  0.7649458E-07  0.2766672E+04  0.7818609E-02  0.8313691E-01
        2   -1    0    0  501    0  0.00000000000E+00  0.00000000000E+00  0.20822099289E+04  0.20822099289E+04  0.25500000920E-02 0.  1.
       -2   -1    0    0    0  501  0.00000000000E+00  0.00000000000E+00 -0.91903235416E+03  0.91903235417E+03  0.25500000920E-02 0. -1.
    10030    2    1    2    0    0  0.00000000000E+00  0.00000000000E+00  0.11631775748E+04  0.30012422831E+04  0.27666718583E+04 0.  0.
        4    1    3    3  502    0 -0.11512451109E+04  0.76334242572E+03  0.66247410496E+03  0.15319694896E+04  0.12699999809E+01 0.  1.
       -4    1    3    3    0  502  0.11512451109E+04 -0.76334242572E+03  0.50070346980E+03  0.14692727935E+04  0.12699999809E+01 0. -1.
</event>
<event>
 5   0  0.2529875E-07  0.3289119E+04  0.7818609E-02  0.8165669E-01
        1   -1    0    0  501    0  0.00000000000E+00  0.00000000000E+00  0.10552313838E+04  0.10552313838E+04  0.50400001928E-02 0. -1.
       -1   -1    0    0    0  501  0.00000000000E+00  0.00000000000E+00 -0.25630176584E+04  0.25630176584E+04  0.50400001928E-02 0.  1.
    10030    2    1    2    0    0  0.00000000000E+00  0.00000000000E+00 -0.15077862746E+04  0.36182490422E+04  0.32891194386E+04 0.  0.
        3    1    3    3  502    0 -0.39369570174E+01 -0.52720892369E+03  0.95974442801E+03  0.10950224318E+04  0.10100000352E+00 0. -1.
       -3    1    3    3    0  502  0.39369570174E+01  0.52720892369E+03 -0.24675307026E+04  0.25232266104E+04  0.10100000352E+00 0.  1.
</event>
<event>
 5   0  0.7638805E-07  0.3865124E+04  0.7818609E-02  0.8032322E-01
        2   -1    0    0  501    0  0.00000000000E+00  0.00000000000E+00  0.25999663107E+04  0.25999663107E+04  0.25500000920E-02 0. -1.
       -2   -1    0    0    0  501  0.00000000000E+00  0.00000000000E+00 -0.14364786580E+04  0.14364786581E+04  0.25500000920E-02 0.  1.
    10030    2    1    2    0    0  0.00000000000E+00  0.00000000000E+00  0.11634876527E+04  0.40364449688E+04  0.38651241207E+04 0.  0.
        5    1    3    3  502    0 -0.76743963910E+03 -0.34246706167E+03  0.23991470628E+04  0.25420810386E+04  0.46999998093E+01 0. -1.
       -5    1    3    3    0  502  0.76743963910E+03  0.34246706167E+03 -0.12356594101E+04  0.14943639302E+04  0.46999998093E+01 0.  1.
</event>
<event>
 5   0  0.8038352E-07  0.2505329E+04  0.7818609E-02  0.8401090E-01
        2   -1    0    0  501    0  0.00000000000E+00  0.00000000000E+00  0.20519501581E+04  0.20519501581E+04  0.25500000920E-02 0. -1.
       -2   -1    0    0    0  501  0.00000000000E+00  0.00000000000E+00 -0.76472045112E+03  0.76472045113E+03  0.25500000920E-02 0.  1.
    10030    2    1    2    0    0  0.00000000000E+00  0.00000000000E+00  0.12872297070E+04  0.28166706092E+04  0.25053289210E+04 0.  0.
        2    1    3    3  502    0  0.11620875817E+03 -0.12394023053E+04  0.80079472657E+03  0.14801671338E+04  0.25500000920E-02 0. -1.
       -2    1    3    3    0  502 -0.11620875817E+03  0.12394023053E+04  0.48643498040E+03  0.13365034755E+04  0.25500000920E-02 0.  1.
</event>
<event>
 5   0  0.7638805E-07  0.3808129E+04  0.7818609E-02  0.8044413E-01
        2   -1    0    0  501    0  0.00000000000E+00  0.00000000000E+00  0.25407916277E+04  0.25407916277E+04  0.25500000920E-02 0. -1.
       -2   -1    0    0    0  501  0.00000000000E+00  0.00000000000E+00 -0.14269026217E+04  0.14269026217E+04  0.25500000920E-02 0.  1.
    10030    2    1    2    0    0  0.00000000000E+00  0.00000000000E+00  0.11138890060E+04  0.39676942494E+04  0.38081293227E+04 0.  0.
        5    1    3    3  502    0  0.17693620313E+04  0.56721457511E+03  0.12350139462E+03  0.18621624678E+04  0.46999998093E+01 0.  1.
       -5    1    3    3    0  502 -0.17693620313E+04 -0.56721457511E+03  0.99038761139E+03  0.21055317815E+04  0.46999998093E+01 0. -1.
</event>
<event>
 5   0  0.2529875E-07  0.3858809E+04  0.7818609E-02  0.8033651E-01
        1   -1    0    0  501    0  0.00000000000E+00  0.00000000000E+00  0.19777672794E+04  0.19777672795E+04  0.50400001928E-02 0.  1.
       -1   -1    0    0    0  501  0.00000000000E+00  0.00000000000E+00 -0.18822244491E+04  0.18822244491E+04  0.50400001928E-02 0. -1.
    10030    2    1    2    0    0  0.00000000000E+00  0.00000000000E+00  0.95542830323E+02  0.38599917286E+04  0.38588091054E+04 0.  0.
        5    1    3    3  502    0 -0.56902875584E+03  0.11227300220E+04 -0.14149569445E+04  0.18937902925E+04  0.46999998093E+01 0. -1.
       -5    1    3    3    0  502  0.56902875584E+03 -0.11227300220E+04  0.15104997749E+04  0.19662014360E+04  0.46999998093E+01 0.  1.
</event>
<event>
 5   0  0.2529875E-07  0.3786896E+04  0.7818609E-02  0.8048973E-01
        1   -1    0    0  501    0  0.00000000000E+00  0.00000000000E+00  0.12395871090E+04  0.12395871090E+04  0.50400001928E-02 0. -1.
       -1   -1    0    0    0  501  0.00000000000E+00  0.00000000000E+00 -0.28922087889E+04  0.28922087889E+04  0.50400001928E-02 0.  1.
    10030    2    1    2    0    0  0.00000000000E+00  0.00000000000E+00 -0.16526216800E+04  0.41317958979E+04  0.37868956844E+04 0.  0.
        4    1    3    3  502    0 -0.18765923488E+04 -0.24463894766E+03 -0.75997854520E+03  0.20393665831E+04  0.12699999809E+01 0.  1.
       -4    1    3    3    0  502  0.18765923488E+04  0.24463894766E+03 -0.89264313475E+03  0.20924293148E+04  0.12699999809E+01 0. -1.
</event>
<event>
 5   0  0.8421677E-07  0.3690121E+04  0.7818609E-02  0.8070155E-01
       -2   -1    0    0    0  501  0.00000000000E+00  0.00000000000E+00  0.18605795526E+04  0.18605795526E+04  0.25500000920E-02 0.  1.
        2   -1    0    0  501    0  0.00000000000E+00  0.00000000000E+00 -0.18296709790E+04  0.18296709790E+04  0.25500000920E-02 0. -1.
    10030    2    1    2    0    0  0.00000000000E+00  0.00000000000E+00  0.30908573543E+02  0.36902505316E+04  0.36901210883E+04 0.  0.
        3    1    3    3  502    0 -0.41014091771E+03  0.20971140303E+03 -0.17712404001E+04  0.18301603783E+04  0.10100000352E+00 0. -1.
       -3    1    3    3    0  502  0.41014091771E+03 -0.20971140303E+03  0.18021489737E+04  0.18600901533E+04  0.10100000352E+00 0.  1.
</event>
<event>
 5   0  0.2907071E-07  0.3876822E+04  0.7818609E-02  0.8029867E-01
        1   -1    0    0  501    0  0.00000000000E+00  0.00000000000E+00  0.20400148538E+04  0.20400148538E+04  0.50400001928E-02 0.  1.
       -1   -1    0    0    0  501  0.00000000000E+00  0.00000000000E+00 -0.18418677699E+04  0.18418677699E+04  0.50400001928E-02 0. -1.
    10030    2    1    2    0    0  0.00000000000E+00  0.00000000000E+00  0.19814708390E+03  0.38818826237E+04  0.38768222087E+04 0.  0.
        2    1    3    3  502    0  0.94418375739E+03  0.92625780580E+03 -0.13198156809E+04  0.18685154327E+04  0.25500000920E-02 0.  1.
       -2    1    3    3    0  502 -0.94418375739E+03 -0.92625780580E+03  0.15179627648E+04  0.20133671910E+04  0.25500000920E-02 0. -1.
</event>
<event>
 5   0  0.7649458E-07  0.2679384E+04  0.7818609E-02  0.8341725E-01
       -2   -1    0    0    0  501  0.00000000000E+00  0.00000000000E+00  0.84784544111E+03  0.84784544112E+03  0.25500000920E-02 0. -1.
        2   -1    0    0  501    0  0.00000000000E+00  0.00000000000E+00 -0.21168659131E+04  0.21168659131E+04  0.25500000920E-02 0.  1.
    10030    2    1    2    0    0  0.00000000000E+00  0.00000000000E+00 -0.12690204719E+04  0.29647113542E+04  0.26793843426E+04 0.  0.
        4    1    3    3  502    0 -0.59957137957E+01 -0.47374250376E+02  0.84690280625E+03  0.84824892827E+03  0.12699999809E+01 0. -1.
       -4    1    3    3    0  502  0.59957137957E+01  0.47374250376E+02 -0.21159232782E+04  0.21164624259E+04  0.12699999809E+01 0.  1.
</event>
<event>
 5   0  0.2529875E-07  0.3849530E+04  0.7818609E-02  0.8035609E-01
        1   -1    0    0  501    0  0.00000000000E+00  0.00000000000E+00  0.23628494791E+04  0.23628494791E+04  0.50400001928E-02 0. -1.
       -1   -1    0    0    0  501  0.00000000000E+00  0.00000000000E+00 -0.15679033774E+04  0.15679033774E+04  0.50400001928E-02 0.  1.
    10030    2    1    2    0    0  0.00000000000E+00  0.00000000000E+00  0.79494610171E+03  0.39307528565E+04  0.38495296744E+04 0.  0.
        4    1    3    3  502    0  0.10325042703E+04  0.11403395556E+04  0.15787217658E+04  0.22042693568E+04  0.12699999809E+01 0. -1.
       -4    1    3    3    0  502 -0.10325042703E+04 -0.11403395556E+04 -0.78377566412E+03  0.17264834998E+04  0.12699999809E+01 0.  1.
</event>
<event>
 5   0  0.2529875E-07  0.3782322E+04  0.7818609E-02  0.8049959E-01
        1   -1    0    0  501    0  0.00000000000E+00  0.00000000000E+00  0.16118965772E+04  0.16118965773E+04  0.50400001928E-02 0.  1.
       -1   -1    0    0    0  501  0.00000000000E+00  0.00000000000E+00 -0.22188081638E+04  0.22188081638E+04  0.50400001928E-02 0. -1.
    10030    2    1    2    0    0  0.00000000000E+00  0.00000000000E+00 -0.60691158654E+03  0.38307047410E+04  0.37823216599E+04 0.  0.
        1    1    3    3  502    0 -0.49877033652E+03  0.26002857513E+03 -0.21321279479E+04  0.22050751223E+04  0.50400001928E-02 0. -1.
       -1    1    3    3    0  502  0.49877033652E+03 -0.26002857513E+03  0.15252163614E+04  0.16256296188E+04  0.50400001928E-02 0.  1.
</event>
<event>
 5   0  0.2529875E-07  0.3777188E+04  0.7818609E-02  0.8051068E-01
       -1   -1    0    0    0  501  0.00000000000E+00  0.00000000000E+00  0.15239401144E+04  0.15239401144E+04  0.50400001928E-02 0.  1.
        1   -1    0    0  501    0  0.00000000000E+00  0.00000000000E+00 -0.23405032228E+04  0.23405032228E+04  0.50400001928E-02 0. -1.
    10030    2    1    2    0    0  0.00000000000E+00  0.00000000000E+00 -0.81656310842E+03  0.38644433372E+04  0.37771877100E+04 0.  0.
        5    1    3    3  502    0 -0.15727460252E+04  0.97894396645E+03 -0.32505001200E+02  0.18528194770E+04  0.46999998093E+01 0.  1.
       -5    1    3    3    0  502  0.15727460252E+04 -0.97894396645E+03 -0.78405810722E+03  0.20116238602E+04  0.46999998093E+01 0. -1.
</event>
<event>
 5   0  0.2529875E-07  0.3023411E+04  0.7818609E-02  0.8237077E-01
       -1   -1    0    0    0  501  0.00000000000E+00  0.00000000000E+00  0.12866156885E+04  0.12866156885E+04  0.50400001928E-02 0. -1.
        1   -1    0    0  501    0  0.00000000000E+00  0.00000000000E+00 -0.17761743977E+04  0.17761743977E+04  0.50400001928E-02 0.  1.
    10030    2    1    2    0    0  0.00000000000E+00  0.00000000000E+00 -0.48955870926E+03  0.30627900862E+04  0.30234112162E+04 0.  0.
        3    1    3    3  502    0 -0.31438741108E+03  0.11025219430E+04 -0.12429349887E+04  0.16909410029E+04  0.10100000352E+00 0.  1.
       -3    1    3    3    0  502  0.31438741108E+03 -0.11025219430E+04  0.75337627940E+03  0.13718490834E+04  0.10100000352E+00 0. -1.
</event>
<event>
 5   0  0.8038352E-07  0.3774589E+04  0.7818609E-02  0.8051630E-01
       -2   -1    0    0    0  501  0.00000000000E+00  0.00000000000E+00  0.18097535622E+04  0.18097535622E+04  0.25500000920E-02 0. -1.
        2   -1    0    0  501    0  0.00000000000E+00  0.00000000000E+00 -0.19681579824E+04  0.19681579824E+04  0.25500000920E-02 0.  1.
    10030    2    1    2    0    0  0.00000000000E+00  0.00000000000E+00 -0.15840442020E+03  0.37779115447E+04  0.37745892067E+04 0.  0.
        2    1    3    3  502    0 -0.12574578874E+04  0.11851492613E+04 -0.83888399128E+03  0.19208085435E+04  0.25500000920E-02 0.  1.
       -2    1    3    3    0  502  0.12574578874E+04 -0.11851492613E+04  0.68047957108E+03  0.18571030011E+04  0.25500000920E-02 0. -1.
</event>
<event>
 5   0  0.2529875E-07  0.2846455E+04  0.7818609E-02  0.8288989E-01
        1   -1    0    0  501    0  0.00000000000E+00  0.00000000000E+00  0.17229601791E+04  0.17229601791E+04  0.50400001928E-02 0.  1.
       -1   -1    0    0    0  501  0.00000000000E+00  0.00000000000E+00 -0.11756373214E+04  0.11756373215E+04  0.50400001928E-02 0. -1.
    10030    2    1    2    0    0  0.00000000000E+00  0.00000000000E+00  0.54732285765E+03  0.28985975006E+04  0.28464548406E+04 0.  0.
        4    1    3    3  502    0  0.30354754994E+03 -0.10902137620E+04  0.11525283778E+04  0.16152493419E+04  0.12699999809E+01 0.  1.
       -4    1    3    3    0  502 -0.30354754994E+03  0.10902137620E+04 -0.60520552012E+03  0.12833481587E+04  0.12699999809E+01 0. -1.
</event>
<event>
 5   0  0.8421677E-07  0.2676257E+04  0.7818609E-02  0.8342750E-01
       -2   -1    0    0    0  501  0.00000000000E+00  0.00000000000E+00  0.12323205951E+04  0.12323205952E+04  0.25500000920E-02 0. -1.
        2   -1    0    0  501    0  0.00000000000E+00  0.00000000000E+00 -0.14530207447E+04  0.14530207447E+04  0.25500000920E-02 0.  1.
    10030    2    1    2    0    0  0.00000000000E+00  0.00000000000E+00 -0.22070014951E+03  0.26853413398E+04  0.26762566311E+04 0.  0.
        3    1    3    3  502    0  0.11897152938E+04  0.61230136407E+03 -0.12627650287E+03  0.13439796153E+04  0.10100000352E+00 0.  1.
       -3    1    3    3    0  502 -0.11897152938E+04 -0.61230136407E+03 -0.94423646641E+02  0.13413617246E+04  0.10100000352E+00 0. -1.
</event>
<event>
 5   0  0.7649458E-07  0.3779625E+04  0.7818609E-02  0.8050541E-01
        2   -1    0    0  501    0  0.00000000000E+00  0.00000000000E+00  0.14633741897E+04  0.14633741897E+04  0.25500000920E-02 0. -1.
       -2   -1    0    0    0  501  0.00000000000E+00  0.00000000000E+00 -0.24405181373E+04  0.24405181373E+04  0.25500000920E-02 0.  1.
    10030    2    1    2    0    0  0.00000000000E+00  0.00000000000E+00 -0.97714394754E+03  0.39038923270E+04  0.37796249823E+04 0.  0.
        4    1    3    3  502    0  0.75326118011E+03 -0.15702986799E+04  0.26913364100E+03  0.17622925067E+04  0.12699999809E+01 0. -1.
       -4    1    3    3    0  502 -0.75326118011E+03  0.15702986799E+04 -0.12462775885E+04  0.21415998203E+04  0.12699999809E+01 0.  1.
</event>
<event>
 5   0  0.2529875E-07  0.3308237E+04  0.7818609E-02  0.8160803E-01
        1   -1    0    0  501    0  0.00000000000E+00  0.00000000000E+00  0.18716111212E+04  0.18716111212E+04  0.50400001928E-02 0.  1.
       -1   -1    0    0    0  501  0.00000000000E+00  0.00000000000E+00 -0.14618998714E+04  0.14618998714E+04  0.50400001928E-02 0. -1.
    10030    2    1    2    0    0  0.00000000000E+00  0.00000000000E+00  0.40971124983E+03  0.33335109926E+04  0.33082370274E+04 0.  0.
        1    1    3    3  502    0  0.71215016134E+03  0.12297945727E+04 -0.64810737894E+03  0.15619205223E+04  0.50400001928E-02 0. -1.
       -1    1    3    3    0  502 -0.71215016134E+03 -0.12297945727E+04  0.10578186288E+04  0.17715904703E+04  0.50400001928E-02 0.  1.
</event>
<event>
 5   0  0.7638805E-07  0.3790174E+04  0.7818609E-02  0.8048267E-01
        2   -1    0    0  501    0  0.00000000000E+00  0.00000000000E+00  0.23961550871E+04  0.23961550871E+04  0.25500000920E-02 0. -1.
       -2   -1    0    0    0  501  0.00000000000E+00  0.00000000000E+00 -0.14987989142E+04  0.14987989142E+04  0.25500000920E-02 0.  1.
    10030    2    1    2    0    0  0.00000000000E+00  0.00000000000E+00  0.89735617288E+03  0.38949540014E+04  0.37901739501E+04 0.  0.
        5    1    3    3  502    0 -0.14090063736E+03  0.13709784319E+04 -0.88801050407E+03  0.16395180986E+04  0.46999998093E+01 0.  1.
       -5    1    3    3    0  502  0.14090063736E+03 -0.13709784319E+04  0.17853666770E+04  0.22554359028E+04  0.46999998093E+01 0. -1.
</event>
<event>
 5   0  0.7551495E-07  0.3756150E+04  0.7818609E-02  0.8055631E-01
        2   -1    0    0  501    0  0.00000000000E+00  0.00000000000E+00  0.18342531432E+04  0.18342531432E+04  0.25500000920E-02 0.  1.
       -2   -1    0    0    0  501  0.00000000000E+00  0.00000000000E+00 -0.19229442322E+04  0.19229442322E+04  0.25500000920E-02 0. -1.
    10030    2    1    2    0    0  0.00000000000E+00  0.00000000000E+00 -0.88691089046E+02  0.37571973754E+04  0.37561504241E+04 0.  0.
        1    1    3    3  502    0 -0.16367168569E+04 -0.86942981390E+03  0.25973956974E+03  0.18714205607E+04  0.50400001928E-02 0.  1.
       -1    1    3    3    0  502  0.16367168569E+04  0.86942981390E+03 -0.34843065878E+03  0.18857768147E+04  0.50400001928E-02 0. -1.
</event>
<event>
 5   0  0.8421677E-07  0.3790759E+04  0.7818609E-02  0.8048141E-01
        2   -1    0    0  501    0  0.00000000000E+00  0.00000000000E+00  0.16932192011E+04  0.16932192011E+04  0.25500000920E-02 0. -1.
       -2   -1    0    0    0  501  0.00000000000E+00  0.00000000000E+00 -0.21216761699E+04  0.21216761699E+04  0.25500000920E-02 0.  1.
    10030    2    1    2    0    0  0.00000000000E+00  0.00000000000E+00 -0.42845696885E+03  0.38148953710E+04  0.37907586731E+04 0.  0.
        3    1    3    3  502    0  0.17234505830E+04  0.73761218564E+03 -0.49548818355E+03  0.19390364098E+04  0.10100000352E+00 0. -1.
       -3    1    3    3    0  502 -0.17234505830E+04 -0.73761218564E+03  0.67031214697E+02  0.18758589612E+04  0.10100000352E+00 0.  1.
</event>
<event>
 5   0  0.2529875E-07  0.3615438E+04  0.7818609E-02  0.8086965E-01
        1   -1    0    0  501    0  0.00000000000E+00  0.00000000000E+00  0.27681216828E+04  0.27681216828E+04  0.50400001928E-02 0.  1.
       -1   -1    0    0    0  501  0.00000000000E+00  0.00000000000E+00 -0.11805289446E+04  0.11805289446E+04  0.50400001928E-02 0. -1.
    10030    2    1    2    0    0  0.00000000000E+00  0.00000000000E+00  0.15875927383E+04  0.39486506274E+04  0.36154378815E+04 0.  0.
        1    1    3    3  502    0  0.47403825321E+03 -0.56034269961E+01  0.26990211002E+04  0.27403391329E+04  0.50400001928E-02 0.  1.
       -1    1    3    3    0  502 -0.47403825321E+03  0.56034269961E+01 -0.11114283620E+04  0.12083114945E+04  0.50400001928E-02 0. -1.
</event>
<event>
 5   0  0.2907071E-07  0.3669723E+04  0.7818609E-02  0.8074705E-01
        1   -1    0    0  501    0  0.00000000000E+00  0.00000000000E+00  0.18104390081E+04  0.18104390081E+04  0.50400001928E-02 0. -1.
       -1   -1    0    0    0  501  0.00000000000E+00  0.00000000000E+00 -0.18596138760E+04  0.18596138761E+04  0.50400001928E-02 0.  1.
    10030    2    1    2    0    0  0.00000000000E+00  0.00000000000E+00 -0.49174867901E+02  0.36700528842E+04  0.36697234235E+04 0.  0.
        2    1    3    3  502    0  0.92035480068E+03 -0.12151246638E+03 -0.16074168792E+04  0.18562347002E+04  0.25500000920E-02 0.  1.
       -2    1    3    3    0  502 -0.92035480068E+03  0.12151246638E+03  0.15582420113E+04  0.18138181840E+04  0.25500000920E-02 0. -1.
</event>
<event>
 5   0  0.7551495E-07  0.3747855E+04  0.7818609E-02  0.8057439E-01
       -2   -1    0    0    0  501  0.00000000000E+00  0.00000000000E+00  0.16035308948E+04  0.16035308948E+04  0.25500000920E-02 0. -1.
        2   -1    0    0  501    0  0.00000000000E+00  0.00000000000E+00 -0.21899194929E+04  0.21899194929E+04  0.25500000920E-02 0.  1.
    10030    2    1    2    0    0  0.00000000000E+00  0.00000000000E+00 -0.58638859812E+03  0.37934503877E+04  0.37478546204E+04 0.  0.
        1    1    3    3  502    0  0.94232452019E+03  0.35212083793E+02  0.13458857384E+04  0.16433574818E+04  0.50400001928E-02 0. -1.
       -1    1    3    3    0  502 -0.94232452019E+03 -0.35212083793E+02 -0.19322743365E+04  0.21500929058E+04  0.50400001928E-02 0.  1.
</event>
<event>
 5   0  0.8421677E-07  0.3732150E+04  0.7818609E-02  0.8060874E-01
       -2   -1    0    0    0  501  0.00000000000E+00  0.00000000000E+00  0.15036351924E+04  0.15036351924E+04  0.25500000920E-02 0.  1.
        2   -1    0    0  501    0  0.00000000000E+00  0.00000000000E+00 -0.23158778919E+04  0.23158778919E+04  0.25500000920E-02 0. -1.
    10030    2    1    2    0    0  0.00000000000E+00  0.00000000000E+00 -0.81224269952E+03  0.38195130844E+04  0.37321497825E+04 0.  0.
        3    1    3    3  502    0  0.79184212715E+03 -0.71573844623E+03  0.11603754850E+04  0.15766314580E+04  0.10100000352E+00 0.  1.
       -3    1    3    3    0  502 -0.79184212715E+03  0.71573844623E+03 -0.19726181846E+04  0.22428816264E+04  0.10100000352E+00 0. -1.
</event>
<event>
 5   0  0.2529875E-07  0.3155104E+04  0.7818609E-02  0.8200776E-01
        1   -1    0    0  501    0  0.00000000000E+00  0.00000000000E+00  0.17534615816E+04  0.17534615816E+04  0.50400001928E-02 0. -1.
       -1   -1    0    0    0  501  0.00000000000E+00  0.00000000000E+00 -0.14192896715E+04  0.14192896715E+04  0.50400001928E-02 0.  1.
    10030    2    1    2    0    0  0.00000000000E+00  0.00000000000E+00  0.33417191012E+03  0.31727512532E+04  0.31551037461E+04 0.  0.
        5    1    3    3  502    0 -0.62665278161E+03 -0.15165205947E+03  0.16149153760E+04  0.17388691202E+04  0.46999998093E+01 0. -1.
       -5    1    3    3    0  502  0.62665278161E+03  0.15165205947E+03 -0.12807434658E+04  0.14338821329E+04  0.46999998093E+01 0.  1.
</event>
<event>
 5   0  0.8421677E-07  0.3197897E+04  0.7818609E-02  0.8189373E-01
        2   -1    0    0  501    0  0.00000000000E+00  0.00000000000E+00  0.12432584640E+04  0.12432584640E+04  0.25500000920E-02 0. -1.
       -2   -1    0    0    0  501  0.00000000000E+00  0.00000000000E+00 -0.20563999528E+04  0.20563999528E+04  0.25500000920E-02 0.  1.
    10030    2    1    2    0    0  0.00000000000E+00  0.00000000000E+00 -0.81314148884E+03  0.32996584168E+04  0.31978972133E+04 0.  0.
        3    1    3    3  502    0  0.10078285640E+04  0.28115985802E+03 -0.16541222002E+04  0.19572658337E+04  0.10100000352E+00 0.  1.
       -3    1    3    3    0  502 -0.10078285640E+04 -0.28115985802E+03  0.84098071137E+03  0.13423925831E+04  0.10100000352E+00 0. -1.
</event>
<event>
 5   0  0.2529875E-07  0.2880830E+04  0.7818609E-02  0.8278604E-01
        1   -1    0    0  501    0  0.00000000000E+00  0.00000000000E+00  0.14257301478E+04  0.14257301478E+04  0.50400001928E-02 0.  1.
       -1   -1    0    0    0  501  0.00000000000E+00  0.00000000000E+00 -0.14552513748E+04  0.14552513748E+04  0.50400001928E-02 0. -1.
    10030    2    1    2    0    0  0.00000000000E+00  0.00000000000E+00 -0.29521227012E+02  0.28809815226E+04  0.28808302676E+04 0.  0.
        4    1    3    3  502    0  0.71699009480E+03  0.47738556941E+03  0.11397792634E+04  0.14286602676E+04  0.12699999809E+01 0.  1.
       -4    1    3    3    0  502 -0.71699009480E+03 -0.47738556941E+03 -0.11693004904E+04  0.14523212550E+04  0.12699999809E+01 0. -1.
</event>
<event>
 5   0  0.2529875E-07  0.3685989E+04  0.7818609E-02  0.8071074E-01
       -1   -1    0    0    0  501  0.00000000000E+00  0.00000000000E+00  0.14643252657E+04  0.14643252657E+04  0.50400001928E-02 0. -1.
        1   -1    0    0  501    0  0.00000000000E+00  0.00000000000E+00 -0.23195866020E+04  0.23195866020E+04  0.50400001928E-02 0.  1.
    10030    2    1    2    0    0  0.00000000000E+00  0.00000000000E+00 -0.85526133623E+03  0.37839118677E+04  0.36859892931E+04 0.  0.
        4    1    3    3  502    0  0.14347582216E+04  0.11556028570E+04 -0.48076017233E+03  0.19039645673E+04  0.12699999809E+01 0.  1.
       -4    1    3    3    0  502 -0.14347582216E+04 -0.11556028570E+04 -0.37450116391E+03  0.18799473004E+04  0.12699999809E+01 0. -1.
</event>
<event>
 5   0  0.8421677E-07  0.3479775E+04  0.7818609E-02  0.8118600E-01
        2   -1    0    0  501    0  0.00000000000E+00  0.00000000000E+00  0.20131951663E+04  0.20131951663E+04  0.25500000920E-02 0.  1.
       -2   -1    0    0    0  501  0.00000000000E+00  0.00000000000E+00 -0.15036832814E+04  0.15036832814E+04  0.25500000920E-02 0. -1.
    10030    2    1    2    0    0  0.00000000000E+00  0.00000000000E+00  0.50951188498E+03  0.35168784477E+04  0.34797746558E+04 0.  0.
        3    1    3    3  502    0  0.10978843560E+03  0.11084152118E+04  0.16056343838E+04  0.19541493205E+04  0.10100000352E+00 0.  1.
       -3    1    3    3    0  502 -0.10978843560E+03 -0.11084152118E+04 -0.10961224988E+04  0.15627291272E+04  0.10100000352E+00 0. -1.
</event>
<event>
 5   0  0.2529875E-07  0.2662025E+04  0.7818609E-02  0.8347433E-01
       -1   -1    0    0    0  501  0.00000000000E+00  0.00000000000E+00  0.89579560138E+03  0.89579560139E+03  0.50400001928E-02 0.  1.
        1   -1    0    0  501    0  0.00000000000E+00  0.00000000000E+00 -0.19776766934E+04  0.19776766934E+04  0.50400001928E-02 0. -1.
    10030    2    1    2    0    0  0.00000000000E+00  0.00000000000E+00 -0.10818810920E+04  0.28734722948E+04  0.26620248556E+04 0.  0.
        5    1    3    3  502    0  0.79453826262E+02  0.12891084120E+04 -0.88813931305E+03  0.15674587515E+04  0.46999998093E+01 0. -1.
       -5    1    3    3    0  502 -0.79453826262E+02 -0.12891084120E+04 -0.19374177895E+03  0.13060135433E+04  0.46999998093E+01 0.  1.
</event>
<event>
 5   0  0.2529875E-07  0.2751365E+04  0.7818609E-02  0.8318529E-01
       -1   -1    0    0    0  501  0.00000000000E+00  0.00000000000E+00  0.10935889041E+04  0.10935889041E+04  0.50400001928E-02 0. -1.
        1   -1    0    0  501    0  0.00000000000E+00  0.00000000000E+00 -0.17305431017E+04  0.17305431017E+04  0.50400001928E-02 0.  1.
    10030    2    1    2    0    0  0.00000000000E+00  0.00000000000E+00 -0.63695419765E+03  0.28241320059E+04  0.27513652859E+04 0.  0.
        1    1    3    3  502    0 -0.11040482819E+04  0.46382612545E+03 -0.10134703270E+04  0.15688146440E+04  0.50400001928E-02 0.  1.
       -1    1    3    3    0  502  0.11040482819E+04 -0.46382612545E+03  0.37651612937E+03  0.12553173619E+04  0.50400001928E-02 0. -1.
</event>
<event>
 5   0  0.2529875E-07  0.2411905E+04  0.7818609E-02  0.8435060E-01
        1   -1    0    0  501    0  0.00000000000E+00  0.00000000000E+00  0.12944474198E+04  0.12944474198E+04  0.50400001928E-02 0. -1.
       -1   -1    0    0    0  501  0.00000000000E+00  0.00000000000E+00 -0.11235071238E+04  0.11235071238E+04  0.50400001928E-02 0.  1.
    10030    2    1    2    0    0  0.00000000000E+00  0.00000000000E+00  0.17094029596E+03  0.24179545436E+04  0.24119045566E+04 0.  0.
        4    1    3    3  502    0  0.27471282572E+02  0.12056376380E+04  0.87055021873E+02  0.12090893164E+04  0.12699999809E+01 0. -1.
       -4    1    3    3    0  502 -0.27471282572E+02 -0.12056376380E+04  0.83885274088E+02  0.12088652272E+04  0.12699999809E+01 0.  1.
</event>
<event>
 5   0  0.8038352E-07  0.3750570E+04  0.7818609E-02  0.8056846E-01
       -2   -1    0    0    0  501  0.00000000000E+00  0.00000000000E+00  0.18360235556E+04  0.18360235556E+04  0.25500000920E-02 0. -1.
        2   -1    0    0  501    0  0.00000000000E+00  0.00000000000E+00 -0.19153860716E+04  0.19153860716E+04  0.25500000920E-02 0.  1.
    10030    2    1    2    0    0  0.00000000000E+00  0.00000000000E+00 -0.79362516001E+02  0.37514096273E+04  0.37505700610E+04 0.  0.
        2    1    3    3  502    0  0.86771509340E+03 -0.95974922459E+03 -0.13974260552E+04  0.19044284279E+04  0.25500000920E-02 0.  1.
       -2    1    3    3    0  502 -0.86771509340E+03  0.95974922459E+03  0.13180635392E+04  0.18469811994E+04  0.25500000920E-02 0. -1.
</event>
<event>
 5   0  0.8038352E-07  0.3777279E+04  0.7818609E-02  0.8051048E-01
        2   -1    0    0  501    0  0.00000000000E+00  0.00000000000E+00  0.21744116243E+04  0.21744116243E+04  0.25500000920E-02 0.  1.
       -2   -1    0    0    0  501  0.00000000000E+00  0.00000000000E+00 -0.16404253759E+04  0.16404253759E+04  0.25500000920E-02 0. -1.
    10030    2    1    2    0    0  0.00000000000E+00  0.00000000000E+00  0.53398624848E+03  0.38148370002E+04  0.37772794475E+04 0.  0.
        2    1    3    3  502    0 -0.11622333833E+04  0.14562630902E+04  0.57904979672E+03  0.19510989960E+04  0.25500000920E-02 0.  1.
       -2    1    3    3    0  502  0.11622333833E+04 -0.14562630902E+04 -0.45063548245E+02  0.18637380042E+04  0.25500000920E-02 0. -1.
</event>
<event>
 5   0  0.8038352E-07  0.3705729E+04  0.7818609E-02  0.8066693E-01
       -2   -1    0    0    0  501  0.00000000000E+00  0.00000000000E+00  0.18544209381E+04  0.18544209381E+04  0.25500000920E-02 0.  1.
        2   -1    0    0  501    0  0.00000000000E+00  0.00000000000E+00 -0.18513092826E+04  0.18513092826E+04  0.25500000920E-02 0. -1.
    10030    2    1    2    0    0  0.00000000000E+00  0.00000000000E+00  0.31116555432E+01  0.37057302207E+04  0.37057289143E+04 0.  0.
        2    1    3    3  502    0 -0.10384800968E+04 -0.56440881406E+03 -0.14253674047E+04  0.18516669407E+04  0.25500000920E-02 0. -1.
       -2    1    3    3    0  502  0.10384800968E+04  0.56440881406E+03  0.14284790602E+04  0.18540632800E+04  0.25500000920E-02 0.  1.
</event>
<event>
 5   0  0.2907071E-07  0.3864428E+04  0.7818609E-02  0.8032468E-01
        1   -1    0    0  501    0  0.00000000000E+00  0.00000000000E+00  0.27554561141E+04  0.27554561142E+04  0.50400001928E-02 0. -1.
       -1   -1    0    0    0  501  0.00000000000E+00  0.00000000000E+00 -0.13549303956E+04  0.13549303956E+04  0.50400001928E-02 0.  1.
    10030    2    1    2    0    0  0.00000000000E+00  0.00000000000E+00  0.14005257185E+04  0.41103865098E+04  0.38644281558E+04 0.  0.
        2    1    3    3  502    0  0.13052482280E+04 -0.84892165910E+03  0.19172487624E+04  0.24698550032E+04  0.25500000920E-02 0. -1.
       -2    1    3    3    0  502 -0.13052482280E+04  0.84892165910E+03 -0.51672304382E+03  0.16405315066E+04  0.25500000920E-02 0.  1.
</event>
<event>
 5   0  0.2529875E-07  0.3802016E+04  0.7818609E-02  0.8045722E-01
       -1   -1    0    0    0  501  0.00000000000E+00  0.00000000000E+00  0.21473915433E+04  0.21473915433E+04  0.50400001928E-02 0.  1.
        1   -1    0    0  501    0  0.00000000000E+00  0.00000000000E+00 -0.16828931519E+04  0.16828931520E+04  0.50400001928E-02 0. -1.
    10030    2    1    2    0    0  0.00000000000E+00  0.00000000000E+00  0.46449839134E+03  0.38302846952E+04  0.38020155301E+04 0.  0.
        4    1    3    3  502    0 -0.10772988414E+03  0.11385127285E+04  0.17620960059E+04  0.21006667770E+04  0.12699999809E+01 0.  1.
       -4    1    3    3    0  502  0.10772988414E+03 -0.11385127285E+04 -0.12975976146E+04  0.17296179183E+04  0.12699999809E+01 0. -1.
</event>
<event>
 5   0  0.2529875E-07  0.3665312E+04  0.7818609E-02  0.8075693E-01
        1   -1    0    0  501    0  0.00000000000E+00  0.00000000000E+00  0.23093833758E+04  0.23093833758E+04  0.50400001928E-02 0. -1.
       -1   -1    0    0    0  501  0.00000000000E+00  0.00000000000E+00 -0.14543401325E+04  0.14543401326E+04  0.50400001928E-02 0.  1.
    10030    2    1    2    0    0  0.00000000000E+00  0.00000000000E+00  0.85504324330E+03  0.37637235084E+04  0.36653124969E+04 0.  0.
        3    1    3    3  502    0 -0.16107926566E+04  0.47672669109E+03 -0.32475155082E+03  0.17109602276E+04  0.10100000352E+00 0.  1.
       -3    1    3    3    0  502  0.16107926566E+04 -0.47672669109E+03  0.11797947941E+04  0.20527632808E+04  0.10100000352E+00 0. -1.
</event>
<event>
 5   0  0.7638805E-07  0.3650162E+04  0.7818609E-02  0.8079097E-01
        2   -1    0    0  501    0  0.00000000000E+00  0.00000000000E+00  0.18757025434E+04  0.18757025434E+04  0.25500000920E-02 0.  1.
       -2   -1    0    0    0  501  0.00000000000E+00  0.00000000000E+00 -0.17758255727E+04  0.17758255727E+04  0.25500000920E-02 0. -1.
    10030    2    1    2    0    0  0.00000000000E+00  0.00000000000E+00  0.99876970727E+02  0.36515281162E+04  0.36501619380E+04 0.  0.
        5    1    3    3  502    0 -0.46124449916E+03  0.65003661908E+03 -0.15925055934E+04  0.17808397595E+04  0.46999998093E+01 0. -1.
       -5    1    3    3    0  502  0.46124449916E+03 -0.65003661908E+03  0.16923825641E+04  0.18706883566E+04  0.46999998093E+01 0.  1.
</event>
<event>
 5   0  0.2529875E-07  0.3772217E+04  0.7818609E-02  0.8052144E-01
       -1   -1    0    0    0  501  0.00000000000E+00  0.00000000000E+00  0.17671940858E+04  0.17671940858E+04  0.50400001928E-02 0. -1.
        1   -1    0    0  501    0  0.00000000000E+00  0.00000000000E+00 -0.20130243235E+04  0.20130243235E+04  0.50400001928E-02 0.  1.
    10030    2    1    2    0    0  0.00000000000E+00  0.00000000000E+00 -0.24583023765E+03  0.37802184093E+04  0.37722166847E+04 0.  0.
        4    1    3    3  502    0 -0.71637778505E+03 -0.86485271793E+03 -0.16414630153E+04  0.19888614326E+04  0.12699999809E+01 0.  1.
       -4    1    3    3    0  502  0.71637778505E+03  0.86485271793E+03  0.13956327777E+04  0.17913569766E+04  0.12699999809E+01 0. -1.
</event>
<event>
 5   0  0.7638805E-07  0.3759950E+04  0.7818609E-02  0.8054805E-01
       -2   -1    0    0    0  501  0.00000000000E+00  0.00000000000E+00  0.12969985426E+04  0.12969985426E+04  0.25500000920E-02 0. -1.
        2   -1    0    0  501    0  0.00000000000E+00  0.00000000000E+00 -0.27249878784E+04  0.27249878784E+04  0.25500000920E-02 0.  1.
    10030    2    1    2    0    0  0.00000000000E+00  0.00000000000E+00 -0.14279893359E+04  0.40219864210E+04  0.37599496310E+04 0.  0.
        5    1    3    3  502    0  0.12231423552E+03 -0.14977917605E+04 -0.19222927562E+04  0.24399943567E+04  0.46999998093E+01 0.  1.
       -5    1    3    3    0  502 -0.12231423552E+03  0.14977917605E+04  0.49430342036E+03  0.15819920643E+04  0.46999998093E+01 0. -1.
</event>
<event>
 5   0  0.2529875E-07  0.3113901E+04  0.7818609E-02  0.8211933E-01
        1   -1    0    0  501    0  0.00000000000E+00  0.00000000000E+00  0.15927305347E+04  0.15927305347E+04  0.50400001928E-02 0.  1.
       -1   -1    0    0    0  501  0.00000000000E+00  0.00000000000E+00 -0.15219744390E+04  0.15219744390E+04  0.50400001928E-02 0. -1.
    10030    2    1    2    0    0  0.00000000000E+00  0.00000000000E+00  0.70756095705E+02  0.31147049737E+04  0.31139011944E+04 0.  0.
        4    1    3    3  502    0 -0.10108188264E+04  0.55096731490E+03 -0.10131166756E+04  0.15335340535E+04  0.12699999809E+01 0. -1.
       -4    1    3    3    0  502  0.10108188264E+04 -0.55096731490E+03  0.10838727713E+04  0.15811709203E+04  0.12699999809E+01 0.  1.
</event>
<event>
 5   0  0.2529875E-07  0.2433237E+04  0.7818609E-02  0.8427164E-01
       -3   -1    0    0    0  501  0.00000000000E+00  0.00000000000E+00  0.93133095032E+03  0.93133095579E+03  0.10100000352E+00 0. -1.
        3   -1    0    0  501    0  0.00000000000E+00  0.00000000000E+00 -0.15892958227E+04  0.15892958259E+04  0.10100000352E+00 0.  1.
    10030    2    1    2    0    0  0.00000000000E+00  0.00000000000E+00 -0.65796487235E+03  0.25206267817E+04  0.24332368564E+04 0.  0.
        4    1    3    3  502    0  0.10943751260E+03  0.16453953776E+03 -0.15725591154E+04  0.15849270056E+04  0.12699999809E+01 0.  1.
       -4    1    3    3    0  502 -0.10943751260E+03 -0.16453953776E+03  0.91459424306E+03  0.93569977610E+03  0.12699999809E+01 0. -1.
</event>
<event>
 5   0  0.2529875E-07  0.3581664E+04  0.7818609E-02  0.8094705E-01
        1   -1    0    0  501    0  0.00000000000E+00  0.00000000000E+00  0.23600615646E+04  0.23600615646E+04  0.50400001928E-02 0.  1.
       -1   -1    0    0    0  501  0.00000000000E+00  0.00000000000E+00 -0.13588960959E+04  0.13588960959E+04  0.50400001928E-02 0. -1.
    10030    2    1    2    0    0  0.00000000000E+00  0.00000000000E+00  0.10011654687E+04  0.37189576605E+04  0.35816635500E+04 0.  0.
        3    1    3    3  502    0  0.12522524033E+03  0.16445406613E+03 -0.13464680500E+04  0.13622417996E+04  0.10100000352E+00 0. -1.
       -3    1    3    3    0  502 -0.12522524033E+03 -0.16445406613E+03  0.23476335187E+04  0.23567158609E+04  0.10100000352E+00 0.  1.
</event>
<event>
 5   0  0.2529875E-07  0.3077318E+04  0.7818609E-02  0.8221990E-01
       -1   -1    0    0    0  501  0.00000000000E+00  0.00000000000E+00  0.10086611922E+04  0.10086611923E+04  0.50400001928E-02 0.  1.
        1   -1    0    0  501    0  0.00000000000E+00  0.00000000000E+00 -0.23471424306E+04  0.23471424306E+04  0.50400001928E-02 0. -1.
    10030    2    1    2    0    0  0.00000000000E+00  0.00000000000E+00 -0.13384812383E+04  0.33558036228E+04  0.30773179767E+04 0.  0.
        3    1    3    3  502    0  0.11000404661E+04  0.88080601952E+03  0.43676447483E+01  0.14092293488E+04  0.10100000352E+00 0.  1.
       -3    1    3    3    0  502 -0.11000404661E+04 -0.88080601952E+03 -0.13428488831E+04  0.19465742740E+04  0.10100000352E+00 0. -1.
</event>
<event>
 5   0  0.7649458E-07  0.3534458E+04  0.7818609E-02  0.8105672E-01
       -2   -1    0    0    0  501  0.00000000000E+00  0.00000000000E+00  0.12352913190E+04  0.12352913190E+04  0.25500000920E-02 0.  1.
        2   -1    0    0  501    0  0.00000000000E+00  0.00000000000E+00 -0.25282275395E+04  0.25282275395E+04  0.25500000920E-02 0. -1.
    10030    2    1    2    0    0  0.00000000000E+00  0.00000000000E+00 -0.12929362206E+04  0.37635188585E+04  0.35344575436E+04 0.  0.
        4    1    3    3  502    0 -0.64784285625E+03  0.91214772005E+03  0.81017299638E+03  0.13813383823E+04  0.12699999809E+01 0.  1.
       -4    1    3    3    0  502  0.64784285625E+03 -0.91214772005E+03 -0.21031092170E+04  0.23821804762E+04  0.12699999809E+01 0. -1.
</event>
<event>
 5   0  0.8038352E-07  0.2673562E+04  0.7818609E-02  0.8343635E-01
        2   -1    0    0  501    0  0.00000000000E+00  0.00000000000E+00  0.99753078045E+03  0.99753078046E+03  0.25500000920E-02 0. -1.
       -2   -1    0    0    0  501  0.00000000000E+00  0.00000000000E+00 -0.17914066104E+04  0.17914066104E+04  0.25500000920E-02 0.  1.
    10030    2    1    2    0    0  0.00000000000E+00  0.00000000000E+00 -0.79387582994E+03  0.27889373909E+04  0.26735618446E+04 0.  0.
        2    1    3    3  502    0 -0.44828298992E+03  0.12558573535E+04 -0.29881539346E+03  0.13665379507E+04  0.25500000920E-02 0. -1.
       -2    1    3    3    0  502  0.44828298992E+03 -0.12558573535E+04 -0.49506043648E+03  0.14223994401E+04  0.25500000920E-02 0.  1.
</event>
<event>
 5   0  0.2529875E-07  0.3575890E+04  0.7818609E-02  0.8096037E-01
        1   -1    0    0  501    0  0.00000000000E+00  0.00000000000E+00  0.17089167687E+04  0.17089167687E+04  0.50400001928E-02 0.  1.
       -1   -1    0    0    0  501  0.00000000000E+00  0.00000000000E+00 -0.18706280804E+04  0.18706280804E+04  0.50400001928E-02 0. -1.
    10030    2    1    2    0    0  0.00000000000E+00  0.00000000000E+00 -0.16171131169E+03  0.35795448491E+04  0.35758902078E+04 0.  0.
        3    1    3    3  502    0  0.79160349132E+03  0.28999607199E+02 -0.16853883011E+04  0.18622595953E+04  0.10100000352E+00 0. -1.
       -3    1    3    3    0  502 -0.79160349132E+03 -0.28999607199E+02  0.15236769894E+04  0.17172852538E+04  0.10100000352E+00 0.  1.
</event>
<event>
 5   0  0.8421677E-07  0.3706280E+04  0.7818609E-02  0.8066571E-01
       -2   -1    0    0    0  501  0.00000000000E+00  0.00000000000E+00  0.13319157608E+04  0.13319157608E+04  0.25500000920E-02 0.  1.
        2   -1    0    0  501    0  0.00000000000E+00  0.00000000000E+00 -0.25783377806E+04  0.25783377806E+04  0.25500000920E-02 0. -1.
    10030    2    1    2    0    0  0.00000000000E+00  0.00000000000E+00 -0.12464220198E+04  0.39102535414E+04  0.37062804679E+04 0.  0.
        3    1    3    3  502    0  0.29769183730E+03 -0.11825095227E+04 -0.20954205685E+04  0.24244043743E+04  0.10100000352E+00 0. -1.
       -3    1    3    3    0  502 -0.29769183730E+03  0.11825095227E+04  0.84899854872E+03  0.14858491670E+04  0.10100000352E+00 0.  1.
</event>
<event>
 5   0  0.2529875E-07  0.3786672E+04  0.7818609E-02  0.8049021E-01
       -1   -1    0    0    0  501  0.00000000000E+00  0.00000000000E+00  0.17436696652E+04  0.17436696652E+04  0.50400001928E-02 0.  1.
        1   -1    0    0  501    0  0.00000000000E+00  0.00000000000E+00 -0.20558488202E+04  0.20558488202E+04  0.50400001928E-02 0. -1.
    10030    2    1    2    0    0  0.00000000000E+00  0.00000000000E+00 -0.31217915505E+03  0.37995184854E+04  0.37866720080E+04 0.  0.
        1    1    3    3  502    0  0.42552517515E+03 -0.15123450040E+04  0.90412280545E+03  0.18126492030E+04  0.50400001928E-02 0.  1.
       -1    1    3    3    0  502 -0.42552517515E+03  0.15123450040E+04 -0.12163019605E+04  0.19868692823E+04  0.50400001928E-02 0. -1.
</event>
<event>
 5   0  0.2529875E-07  0.3831953E+04  0.7818609E-02  0.8039332E-01
        1   -1    0    0  501    0  0.00000000000E+00  0.00000000000E+00  0.17306356089E+04  0.17306356089E+04  0.50400001928E-02 0.  1.
       -1   -1    0    0    0  501  0.00000000000E+00  0.00000000000E+00 -0.21211665007E+04  0.21211665007E+04  0.50400001928E-02 0. -1.
    10030    2    1    2    0    0  0.00000000000E+00  0.00000000000E+00 -0.39053089175E+03  0.38518021096E+04  0.38319531722E+04 0.  0.
        4    1    3    3  502    0  0.62448391659E+03  0.37744305058E+03  0.15854983190E+04  0.17453509535E+04  0.12699999809E+01 0.  1.
       -4    1    3    3    0  502 -0.62448391659E+03 -0.37744305058E+03 -0.19760292107E+04  0.21064511561E+04  0.12699999809E+01 0. -1.
</event>
<event>
 5   0  0.2529875E-07  0.3633861E+04  0.7818609E-02  0.8082779E-01
        1   -1    0    0  501    0  0.00000000000E+00  0.00000000000E+00  0.24039661593E+04  0.24039661593E+04  0.50400001928E-02 0. -1.
       -1   -1    0    0    0  501  0.00000000000E+00  0.00000000000E+00 -0.13732460187E+04  0.13732460187E+04  0.50400001928E-02 0.  1.
    10030    2    1    2    0    0  0.00000000000E+00  0.00000000000E+00  0.10307201405E+04  0.37772121780E+04  0.36338612838E+04 0.  0.
        5    1    3    3  502    0  0.17677923795E+04  0.39844000331E+03  0.37836352188E+03  0.18512226710E+04  0.46999998093E+01 0. -1.
       -5    1    3    3    0  502 -0.17677923795E+04 -0.39844000331E+03  0.65235661866E+03  0.19259895070E+04  0.46999998093E+01 0.  1.
</event>
<event>
 5   0  0.8421677E-07  0.3459478E+04  0.7818609E-02  0.8123461E-01
        2   -1    0    0  501    0  0.00000000000E+00  0.00000000000E+00  0.25665046556E+04  0.25665046556E+04  0.25500000920E-02 0.  1.
       -2   -1    0    0    0  501  0.00000000000E+00  0.00000000000E+00 -0.11657869571E+04  0.11657869571E+04  0.25500000920E-02 0. -1.
    10030    2    1    2    0    0  0.00000000000E+00  0.00000000000E+00  0.14007176985E+04  0.37322916126E+04  0.34594783727E+04 0.  0.
        3    1    3    3  502    0 -0.31279446489E+03  0.12687388136E+04  0.19230734180E+04  0.23250268677E+04  0.10100000352E+00 0.  1.
       -3    1    3    3    0  502  0.31279446489E+03 -0.12687388136E+04 -0.52235571951E+03  0.14072647449E+04  0.10100000352E+00 0. -1.
</event>
<event>
 5   0  0.2529875E-07  0.3786002E+04  0.7818609E-02  0.8049166E-01
        1   -1    0    0  501    0  0.00000000000E+00  0.00000000000E+00  0.17216206544E+04  0.17216206544E+04  0.50400001928E-02 0. -1.
       -1   -1    0    0    0  501  0.00000000000E+00  0.00000000000E+00 -0.20814410387E+04  0.20814410387E+04  0.50400001928E-02 0.  1.
    10030    2    1    2    0    0  0.00000000000E+00  0.00000000000E+00 -0.35982038427E+03  0.38030616930E+04  0.37860015230E+04 0.  0.
        1    1    3    3  502    0  0.16937827080E+04 -0.71308893374E+02 -0.10260043674E+04  0.19815826458E+04  0.50400001928E-02 0. -1.
       -1    1    3    3    0  502 -0.16937827080E+04  0.71308893374E+02  0.66618398314E+03  0.18214790472E+04  0.50400001928E-02 0.  1.
</event>
<event>
 5   0  0.7551495E-07  0.3840223E+04  0.7818609E-02  0.8037578E-01
        2   -1    0    0  501    0  0.00000000000E+00  0.00000000000E+00  0.18560946651E+04  0.18560946651E+04  0.25500000920E-02 0.  1.
       -2   -1    0    0    0  501  0.00000000000E+00  0.00000000000E+00 -0.19863363081E+04  0.19863363081E+04  0.25500000920E-02 0. -1.
    10030    2    1    2    0    0  0.00000000000E+00  0.00000000000E+00 -0.13024164301E+03  0.38424309733E+04  0.38402230272E+04 0.  0.
        1    1    3    3  502    0 -0.14091527850E+04 -0.10733285646E+04 -0.80654783723E+03  0.19463466272E+04  0.50400001928E-02 0. -1.
       -1    1    3    3    0  502  0.14091527850E+04  0.10733285646E+04  0.67630619422E+03  0.18960843461E+04  0.50400001928E-02 0.  1.
</event>
<event>
 5   0  0.2529875E-07  0.3517157E+04  0.7818609E-02  0.8109736E-01
       -1   -1    0    0    0  501  0.00000000000E+00  0.00000000000E+00  0.10450671796E+04  0.10450671796E+04  0.50400001928E-02 0.  1.
        1   -1    0    0  501    0  0.00000000000E+00  0.00000000000E+00 -0.29592344237E+04  0.29592344237E+04  0.50400001928E-02 0. -1.
    10030    2    1    2    0    0  0.00000000000E+00  0.00000000000E+00 -0.19141672441E+04  0.40043016033E+04  0.35171572458E+04 0.  0.
        4    1    3    3  502    0 -0.67584129372E+02  0.11424323425E+04 -0.24772663545E+04  0.27288403170E+04  0.12699999809E+01 0. -1.
       -4    1    3    3    0  502  0.67584129372E+02 -0.11424323425E+04  0.56309911046E+03  0.12754612863E+04  0.12699999809E+01 0.  1.
</event>
<event>
 5   0  0.2529875E-07  0.3730738E+04  0.7818609E-02  0.8061184E-01
       -1   -1    0    0    0  501  0.00000000000E+00  0.00000000000E+00  0.27864015721E+04  0.27864015721E+04  0.50400001928E-02 0.  1.
        1   -1    0    0  501    0  0.00000000000E+00  0.00000000000E+00 -0.12487797232E+04  0.12487797232E+04  0.50400001928E-02 0. -1.
    10030    2    1    2    0    0  0.00000000000E+00  0.00000000000E+00  0.15376218489E+04  0.40351812953E+04  0.37307381489E+04 0.  0.
        5    1    3    3  502    0  0.65617430778E+02 -0.12611720751E+04 -0.71606988028E+03  0.14517709232E+04  0.46999998093E+01 0. -1.
       -5    1    3    3    0  502 -0.65617430778E+02  0.12611720751E+04  0.22536917292E+04  0.25834103720E+04  0.46999998093E+01 0.  1.
</event>
<event>
 5   0  0.2907071E-07  0.3687521E+04  0.7818609E-02  0.8070733E-01
       -1   -1    0    0    0  501  0.00000000000E+00  0.00000000000E+00  0.15928084815E+04  0.15928084815E+04  0.50400001928E-02 0. -1.
        1   -1    0    0  501    0  0.00000000000E+00  0.00000000000E+00 -0.21342504942E+04  0.21342504942E+04  0.50400001928E-02 0.  1.
    10030    2    1    2    0    0  0.00000000000E+00  0.00000000000E+00 -0.54144201269E+03  0.37270589758E+04  0.36875207329E+04 0.  0.
        2    1    3    3  502    0 -0.14280372220E+03 -0.18378188466E+04 -0.30962098452E+03  0.18691806146E+04  0.25500000920E-02 0.  1.
       -2    1    3    3    0  502  0.14280372220E+03  0.18378188466E+04 -0.23182102817E+03  0.18578783612E+04  0.25500000920E-02 0. -1.
</event>
<event>
 5   0  0.2529875E-07  0.2555437E+04  0.7818609E-02  0.8383498E-01
       -1   -1    0    0    0  501  0.00000000000E+00  0.00000000000E+00  0.14832534196E+04  0.14832534197E+04  0.50400001928E-02 0.  1.
        1   -1    0    0  501    0  0.00000000000E+00  0.00000000000E+00 -0.11006644619E+04  0.11006644620E+04  0.50400001928E-02 0. -1.
    10030    2    1    2    0    0  0.00000000000E+00  0.00000000000E+00  0.38258895770E+03  0.25839178816E+04  0.25554368136E+04 0.  0.
        4    1    3    3  502    0 -0.28358235368E+03 -0.10662040577E+04 -0.46036702131E+03  0.11954703891E+04  0.12699999809E+01 0. -1.
       -4    1    3    3    0  502  0.28358235368E+03  0.10662040577E+04  0.84295597901E+03  0.13884474925E+04  0.12699999809E+01 0.  1.
</event>
<event>
 5   0  0.2529875E-07  0.3944963E+04  0.7818609E-02  0.8015742E-01
        1   -1    0    0  501    0  0.00000000000E+00  0.00000000000E+00  0.14998532740E+04  0.14998532740E+04  0.50400001928E-02 0. -1.
       -1   -1    0    0    0  501  0.00000000000E+00  0.00000000000E+00 -0.25940427461E+04  0.25940427461E+04  0.50400001928E-02 0.  1.
    10030    2    1    2    0    0  0.00000000000E+00  0.00000000000E+00 -0.10941894721E+04  0.40938960201E+04  0.39449631206E+04 0.  0.
        5    1    3    3  502    0  0.15563783825E+03 -0.15820867069E+04 -0.17588414895E+04  0.23708156740E+04  0.46999998093E+01 0.  1.
       -5    1    3    3    0  502 -0.15563783825E+03  0.15820867069E+04  0.66465201744E+03  0.17230803461E+04  0.46999998093E+01 0. -1.
</event>
<event>
 5   0  0.8038352E-07  0.3865078E+04  0.7818609E-02  0.8032332E-01
        2   -1    0    0  501    0  0.00000000000E+00  0.00000000000E+00  0.18109097289E+04  0.18109097289E+04  0.25500000920E-02 0.  1.
       -2   -1    0    0    0  501  0.00000000000E+00  0.00000000000E+00 -0.20623369794E+04  0.20623369794E+04  0.25500000920E-02 0. -1.
    10030    2    1    2    0    0  0.00000000000E+00  0.00000000000E+00 -0.25142725059E+03  0.38732467083E+04  0.38650775414E+04 0.  0.
        2    1    3    3  502    0  0.87339551713E+03 -0.42768137731E+03  0.15478385659E+04  0.18279866837E+04  0.25500000920E-02 0.  1.
       -2    1    3    3    0  502 -0.87339551713E+03  0.42768137731E+03 -0.17992658165E+04  0.20452600246E+04  0.25500000920E-02 0. -1.
</event>
<event>
 5   0  0.2529875E-07  0.2527181E+04  0.7818609E-02  0.8393366E-01
       -1   -1    0    0    0  501  0.00000000000E+00  0.00000000000E+00  0.11206900367E+04  0.11206900367E+04  0.50400001928E-02 0.  1.
        1   -1    0    0  501    0  0.00000000000E+00  0.00000000000E+00 -0.14247118105E+04  0.14247118105E+04  0.50400001928E-02 0. -1.
    10030    2    1    2    0    0  0.00000000000E+00  0.00000000000E+00 -0.30402177387E+03  0.25454018472E+04  0.25271805090E+04 0.  0.
        1    1    3    3  502    0 -0.11822459301E+04 -0.15077616048E+03 -0.57482499111E+03  0.13232016703E+04  0.50400001928E-02 0. -1.
       -1    1    3    3    0  502  0.11822459301E+04  0.15077616048E+03  0.27080321725E+03  0.12222001769E+04  0.50400001928E-02 0.  1.
</event>
<event>
 5   0  0.2529875E-07  0.3143216E+04  0.7818609E-02  0.8203977E-01
       -1   -1    0    0    0  501  0.00000000000E+00  0.00000000000E+00  0.14126633698E+04  0.14126633698E+04  0.50400001928E-02 0.  1.
        1   -1    0    0  501    0  0.00000000000E+00  0.00000000000E+00 -0.17484358643E+04  0.17484358643E+04  0.50400001928E-02 0. -1.
    10030    2    1    2    0    0  0.00000000000E+00  0.00000000000E+00 -0.33577249449E+03  0.31610992342E+04  0.31432157419E+04 0.  0.
        1    1    3    3  502    0  0.35613523118E+03  0.11276266970E+04  0.87317345600E+03  0.14699680796E+04  0.50400001928E-02 0.  1.
       -1    1    3    3    0  502 -0.35613523118E+03 -0.11276266970E+04 -0.12089459505E+04  0.16911311546E+04  0.50400001928E-02 0. -1.
</event>
<event>
 5   0  0.2529875E-07  0.3786899E+04  0.7818609E-02  0.8048972E-01
       -1   -1    0    0    0  501  0.00000000000E+00  0.00000000000E+00  0.15089329460E+04  0.15089329460E+04  0.50400001928E-02 0. -1.
        1   -1    0    0  501    0  0.00000000000E+00  0.00000000000E+00 -0.23759517093E+04  0.23759517093E+04  0.50400001928E-02 0.  1.
    10030    2    1    2    0    0  0.00000000000E+00  0.00000000000E+00 -0.86701876330E+03  0.38848846553E+04  0.37868994242E+04 0.  0.
        1    1    3    3  502    0 -0.17218484048E+04  0.18244007589E+03 -0.12195634739E+04  0.21178718982E+04  0.50400001928E-02 0.  1.
       -1    1    3    3    0  502  0.17218484048E+04 -0.18244007589E+03  0.35254471057E+03  0.17670127570E+04  0.50400001928E-02 0. -1.
</event>
<event>
 5   0  0.7649458E-07  0.3693689E+04  0.7818609E-02  0.8069362E-01
       -2   -1    0    0    0  501  0.00000000000E+00  0.00000000000E+00  0.17934499040E+04  0.17934499040E+04  0.25500000920E-02 0.  1.
        2   -1    0    0  501    0  0.00000000000E+00  0.00000000000E+00 -0.19018287461E+04  0.19018287461E+04  0.25500000920E-02 0. -1.
    10030    2    1    2    0    0  0.00000000000E+00  0.00000000000E+00 -0.10837884218E+03  0.36952786501E+04  0.36936889864E+04 0.  0.
        4    1    3    3  502    0 -0.12432513789E+04  0.13551593011E+04  0.11530086588E+03  0.18426683438E+04  0.12699999809E+01 0. -1.
       -4    1    3    3    0  502  0.12432513789E+04 -0.13551593011E+04 -0.22367970806E+03  0.18526103064E+04  0.12699999809E+01 0.  1.
</event>
<event>
 5   0  0.2529875E-07  0.3760441E+04  0.7818609E-02  0.8054698E-01
       -1   -1    0    0    0  501  0.00000000000E+00  0.00000000000E+00  0.29165217243E+04  0.29165217243E+04  0.50400001928E-02 0. -1.
        1   -1    0    0  501    0  0.00000000000E+00  0.00000000000E+00 -0.12121385040E+04  0.12121385040E+04  0.50400001928E-02 0.  1.
    10030    2    1    2    0    0  0.00000000000E+00  0.00000000000E+00  0.17043832203E+04  0.41286602283E+04  0.37604405485E+04 0.  0.
        3    1    3    3  502    0 -0.16044566451E+04 -0.69135442458E+03  0.16152069747E+04  0.23793162143E+04  0.10100000352E+00 0.  1.
       -3    1    3    3    0  502  0.16044566451E+04  0.69135442458E+03  0.89176245553E+02  0.17493440140E+04  0.10100000352E+00 0. -1.
</event>
<event>
 5   0  0.7649458E-07  0.3748412E+04  0.7818609E-02  0.8057317E-01
        2   -1    0    0  501    0  0.00000000000E+00  0.00000000000E+00  0.23130368000E+04  0.23130368000E+04  0.25500000920E-02 0. -1.
       -2   -1    0    0    0  501  0.00000000000E+00  0.00000000000E+00 -0.15186306782E+04  0.15186306782E+04  0.25500000920E-02 0.  1.
    10030    2    1    2    0    0  0.00000000000E+00  0.00000000000E+00  0.79440612176E+03  0.38316674781E+04  0.37484122741E+04 0.  0.
        4    1    3    3  502    0 -0.17453090987E+04  0.67778694513E+03  0.48362696899E+03  0.19337517035E+04  0.12699999809E+01 0.  1.
       -4    1    3    3    0  502  0.17453090987E+04 -0.67778694513E+03  0.31077915277E+03  0.18979157746E+04  0.12699999809E+01 0. -1.
</event>
<event>
 5   0  0.8421677E-07  0.3624372E+04  0.7818609E-02  0.8084932E-01
        2   -1    0    0  501    0  0.00000000000E+00  0.00000000000E+00  0.22615366381E+04  0.22615366381E+04  0.25500000920E-02 0. -1.
       -2   -1    0    0    0  501  0.00000000000E+00  0.00000000000E+00 -0.14521183663E+04  0.14521183663E+04  0.25500000920E-02 0.  1.
    10030    2    1    2    0    0  0.00000000000E+00  0.00000000000E+00  0.80941827180E+03  0.37136550043E+04  0.36243724357E+04 0.  0.
        3    1    3    3  502    0  0.11224257387E+04  0.10196607276E+04 -0.61193807946E+03  0.16352418053E+04  0.10100000352E+00 0.  1.
       -3    1    3    3    0  502 -0.11224257387E+04 -0.10196607276E+04  0.14213563513E+04  0.20784131990E+04  0.10100000352E+00 0. -1.
</event>
<event>
 5   0  0.7551495E-07  0.3739219E+04  0.7818609E-02  0.8059326E-01
        2   -1    0    0  501    0  0.00000000000E+00  0.00000000000E+00  0.21607115110E+04  0.21607115110E+04  0.25500000920E-02 0.  1.
       -2   -1    0    0    0  501  0.00000000000E+00  0.00000000000E+00 -0.16177264040E+04  0.16177264040E+04  0.25500000920E-02 0. -1.
    10030    2    1    2    0    0  0.00000000000E+00  0.00000000000E+00  0.54298510701E+03  0.37784379151E+04  0.37392192035E+04 0.  0.
        1    1    3    3  502    0 -0.39345063258E+03  0.29228719672E+03 -0.15516495785E+04  0.16272220562E+04  0.50400001928E-02 0. -1.
       -1    1    3    3    0  502  0.39345063258E+03 -0.29228719672E+03  0.20946346855E+04  0.21512158589E+04  0.50400001928E-02 0.  1.
</event>
<event>
 5   0  0.7649458E-07  0.3737348E+04  0.7818609E-02  0.8059735E-01
       -2   -1    0    0    0  501  0.00000000000E+00  0.00000000000E+00  0.13470589928E+04  0.13470589928E+04  0.25500000920E-02 0. -1.
        2   -1    0    0  501    0  0.00000000000E+00  0.00000000000E+00 -0.25922710716E+04  0.25922710716E+04  0.25500000920E-02 0.  1.
    10030    2    1    2    0    0  0.00000000000E+00  0.00000000000E+00 -0.12452120788E+04  0.39393300644E+04  0.37373477542E+04 0.  0.
        4    1    3    3  502    0  0.14719639850E+04 -0.81550397609E+03  0.23384353272E+03  0.16989435302E+04  0.12699999809E+01 0. -1.
       -4    1    3    3    0  502 -0.14719639850E+04  0.81550397609E+03 -0.14790556115E+04  0.22403865343E+04  0.12699999809E+01 0.  1.
</event>
<event>
 5   0  0.2529875E-07  0.3792248E+04  0.7818609E-02  0.8047820E-01
       -1   -1    0    0    0  501  0.00000000000E+00  0.00000000000E+00  0.12403102073E+04  0.12403102073E+04  0.50400001928E-02 0.  1.
        1   -1    0    0  501    0  0.00000000000E+00  0.00000000000E+00 -0.28986996589E+04  0.28986996589E+04  0.50400001928E-02 0. -1.
    10030    2    1    2    0    0  0.00000000000E+00  0.00000000000E+00 -0.16583894516E+04  0.41390098662E+04  0.37922482908E+04 0.  0.
        3    1    3    3  502    0  0.71291177178E+03 -0.16630001688E+04 -0.21036291493E+03  0.18215557422E+04  0.10100000352E+00 0.  1.
       -3    1    3    3    0  502 -0.71291177178E+03  0.16630001688E+04 -0.14480265366E+04  0.23174541240E+04  0.10100000352E+00 0. -1.
</event>
<event>
 5   0  0.8421677E-07  0.3781406E+04  0.7818609E-02  0.8050157E-01
        2   -1    0    0  501    0  0.00000000000E+00  0.00000000000E+00  0.12280749636E+04  0.12280749636E+04  0.25500000920E-02 0.  1.
       -2   -1    0    0    0  501  0.00000000000E+00  0.00000000000E+00 -0.29108625148E+04  0.29108625148E+04  0.25500000920E-02 0. -1.
    10030    2    1    2    0    0  0.00000000000E+00  0.00000000000E+00 -0.16827875512E+04  0.41389374785E+04  0.37814057582E+04 0.  0.
        3    1    3    3  502    0  0.55506185227E+03  0.14818401265E+04  0.29124783689E+03  0.16089652367E+04  0.10100000352E+00 0.  1.
       -3    1    3    3    0  502 -0.55506185227E+03 -0.14818401265E+04 -0.19740353881E+04  0.25299722417E+04  0.10100000352E+00 0. -1.
</event>
<event>
 5   0  0.2529875E-07  0.3810873E+04  0.7818609E-02  0.8043826E-01
        1   -1    0    0  501    0  0.00000000000E+00  0.00000000000E+00  0.34357704312E+04  0.34357704312E+04  0.50400001928E-02 0.  1.
       -1   -1    0    0    0  501  0.00000000000E+00  0.00000000000E+00 -0.10567318134E+04  0.10567318134E+04  0.50400001928E-02 0. -1.
    10030    2    1    2    0    0  0.00000000000E+00  0.00000000000E+00  0.23790386178E+04  0.44925022446E+04  0.38108728229E+04 0.  0.
        3    1    3    3  502    0 -0.15479790207E+04  0.78855442157E+03  0.26681349977E+03  0.17576252667E+04  0.10100000352E+00 0. -1.
       -3    1    3    3    0  502  0.15479790207E+04 -0.78855442157E+03  0.21122251180E+04  0.27348769778E+04  0.10100000352E+00 0.  1.
</event>
<event>
 5   0  0.7649458E-07  0.3471494E+04  0.7818609E-02  0.8120579E-01
       -2   -1    0    0    0  501  0.00000000000E+00  0.00000000000E+00  0.13065198298E+04  0.13065198298E+04  0.25500000920E-02 0.  1.
        2   -1    0    0  501    0  0.00000000000E+00  0.00000000000E+00 -0.23059871499E+04  0.23059871499E+04  0.25500000920E-02 0. -1.
    10030    2    1    2    0    0  0.00000000000E+00  0.00000000000E+00 -0.99946732010E+03  0.36125069796E+04  0.34714941674E+04 0.  0.
        4    1    3    3  502    0 -0.13039579008E+03 -0.15732190507E+04 -0.12507090278E+04  0.20140248083E+04  0.12699999809E+01 0. -1.
       -4    1    3    3    0  502  0.13039579008E+03  0.15732190507E+04  0.25124170769E+03  0.15984821713E+04  0.12699999809E+01 0.  1.
</event>
<event>
 5   0  0.8038352E-07  0.3689886E+04  0.7818609E-02  0.8070207E-01
       -2   -1    0    0    0  501  0.00000000000E+00  0.00000000000E+00  0.17993675167E+04  0.17993675167E+04  0.25500000920E-02 0. -1.
        2   -1    0    0  501    0  0.00000000000E+00  0.00000000000E+00 -0.18916729796E+04  0.18916729796E+04  0.25500000920E-02 0.  1.
    10030    2    1    2    0    0  0.00000000000E+00  0.00000000000E+00 -0.92305462849E+02  0.36910404963E+04  0.36898861293E+04 0.  0.
        2    1    3    3  502    0  0.10095280323E+04  0.50158483159E+03 -0.15071166536E+04  0.18820560031E+04  0.25500000920E-02 0.  1.
       -2    1    3    3    0  502 -0.10095280323E+04 -0.50158483159E+03  0.14148111907E+04  0.18089844932E+04  0.25500000920E-02 0. -1.
</event>
<event>
 5   0  0.7551495E-07  0.3796053E+04  0.7818609E-02  0.8047002E-01
        2   -1    0    0  501    0  0.00000000000E+00  0.00000000000E+00  0.22860584501E+04  0.22860584501E+04  0.25500000920E-02 0.  1.
       -2   -1    0    0    0  501  0.00000000000E+00  0.00000000000E+00 -0.15758582143E+04  0.15758582143E+04  0.25500000920E-02 0. -1.
    10030    2    1    2    0    0  0.00000000000E+00  0.00000000000E+00  0.71020023585E+03  0.38619166644E+04  0.37960526798E+04 0.  0.
        1    1    3    3  502    0 -0.18496189051E+04 -0.10451497803E+03 -0.64969019312E+02  0.18537082965E+04  0.50400001928E-02 0. -1.
       -1    1    3    3    0  502  0.18496189051E+04  0.10451497803E+03  0.77516925516E+03  0.20082083679E+04  0.50400001928E-02 0.  1.
</event>
<event>
 5   0  0.7551495E-07  0.3797152E+04  0.7818609E-02  0.8046766E-01
        2   -1    0    0  501    0  0.00000000000E+00  0.00000000000E+00  0.24434121836E+04  0.24434121836E+04  0.25500000920E-02 0. -1.
       -2   -1    0    0    0  501  0.00000000000E+00  0.00000000000E+00 -0.14752283420E+04  0.14752283420E+04  0.25500000920E-02 0.  1.
    10030    2    1    2    0    0  0.00000000000E+00  0.00000000000E+00  0.96818384163E+03  0.39186405256E+04  0.37971520404E+04 0.  0.
        1    1    3    3  502    0  0.14890857573E+04 -0.11652375336E+04  0.30703339158E+03  0.19155741713E+04  0.50400001928E-02 0.  1.
       -1    1    3    3    0  502 -0.14890857573E+04  0.11652375336E+04  0.66115045005E+03  0.20030663543E+04  0.50400001928E-02 0. -1.
</event>
<event>
 5   0  0.8038352E-07  0.3775225E+04  0.7818609E-02  0.8051493E-01
       -2   -1    0    0    0  501  0.00000000000E+00  0.00000000000E+00  0.13730416341E+04  0.13730416341E+04  0.25500000920E-02 0. -1.
        2   -1    0    0  501    0  0.00000000000E+00  0.00000000000E+00 -0.25950272432E+04  0.25950272432E+04  0.25500000920E-02 0.  1.
    10030    2    1    2    0    0  0.00000000000E+00  0.00000000000E+00 -0.12219856091E+04  0.39680688774E+04  0.37752247333E+04 0.  0.
        2    1    3    3  502    0 -0.90549208486E+03  0.16105631937E+04 -0.20492867734E+03  0.18589850670E+04  0.25500000920E-02 0. -1.
       -2    1    3    3    0  502  0.90549208486E+03 -0.16105631937E+04 -0.10170569317E+04  0.21090838103E+04  0.25500000920E-02 0.  1.
</event>
<event>
 5   0  0.2907071E-07  0.3796650E+04  0.7818609E-02  0.8046874E-01
        1   -1    0    0  501    0  0.00000000000E+00  0.00000000000E+00  0.27079544416E+04  0.27079544416E+04  0.50400001928E-02 0. -1.
       -1   -1    0    0    0  501  0.00000000000E+00  0.00000000000E+00 -0.13307600396E+04  0.13307600397E+04  0.50400001928E-02 0.  1.
    10030    2    1    2    0    0  0.00000000000E+00  0.00000000000E+00  0.13771944019E+04  0.40387144812E+04  0.37966498706E+04 0.  0.
        2    1    3    3  502    0 -0.10505001065E+04 -0.95613409906E+03  0.20282114965E+04  0.24761633152E+04  0.25500000920E-02 0. -1.
       -2    1    3    3    0  502  0.10505001065E+04  0.95613409906E+03 -0.65101709455E+03  0.15625511660E+04  0.25500000920E-02 0.  1.
</event>
<event>
 5   0  0.2907071E-07  0.3771970E+04  0.7818609E-02  0.8052197E-01
       -1   -1    0    0    0  501  0.00000000000E+00  0.00000000000E+00  0.28282167818E+04  0.28282167818E+04  0.50400001928E-02 0. -1.
        1   -1    0    0  501    0  0.00000000000E+00  0.00000000000E+00 -0.12576612067E+04  0.12576612067E+04  0.50400001928E-02 0.  1.
    10030    2    1    2    0    0  0.00000000000E+00  0.00000000000E+00  0.15705555751E+04  0.40858779886E+04  0.37719695284E+04 0.  0.
        2    1    3    3  502    0 -0.31895591946E+03  0.89458971494E+03 -0.97971331327E+03  0.13645005727E+04  0.25500000920E-02 0.  1.
       -2    1    3    3    0  502  0.31895591946E+03 -0.89458971494E+03  0.25502688884E+04  0.27213774159E+04  0.25500000920E-02 0. -1.
</event>
<event>
 5   0  0.2529875E-07  0.3639418E+04  0.7818609E-02  0.8081522E-01
       -1   -1    0    0    0  501  0.00000000000E+00  0.00000000000E+00  0.17772691121E+04  0.17772691121E+04  0.50400001928E-02 0.  1.
        1   -1    0    0  501    0  0.00000000000E+00  0.00000000000E+00 -0.18631622333E+04  0.18631622333E+04  0.50400001928E-02 0. -1.
    10030    2    1    2    0    0  0.00000000000E+00  0.00000000000E+00 -0.85893121210E+02  0.36404313454E+04  0.36394179140E+04 0.  0.
        4    1    3    3  502    0 -0.13609099940E+04 -0.10880025064E+04  0.48209350449E+03  0.18078277643E+04  0.12699999809E+01 0.  1.
       -4    1    3    3    0  502  0.13609099940E+04  0.10880025064E+04 -0.56798662570E+03  0.18326035811E+04  0.12699999809E+01 0. -1.
</event>
<event>
 5   0  0.2529875E-07  0.3926598E+04  0.7818609E-02  0.8019520E-01
        1   -1    0    0  501    0  0.00000000000E+00  0.00000000000E+00  0.13511398801E+04  0.13511398801E+04  0.50400001928E-02 0. -1.
       -1   -1    0    0    0  501  0.00000000000E+00  0.00000000000E+00 -0.28528084361E+04  0.28528084361E+04  0.50400001928E-02 0.  1.
    10030    2    1    2    0    0  0.00000000000E+00  0.00000000000E+00 -0.15016685560E+04  0.42039483163E+04  0.39265981452E+04 0.  0.
        5    1    3    3  502    0  0.10809695915E+04 -0.72675631289E+03 -0.23235551628E+04  0.26637568734E+04  0.46999998093E+01 0.  1.
       -5    1    3    3    0  502 -0.10809695915E+04  0.72675631289E+03  0.82188660686E+03  0.15401914428E+04  0.46999998093E+01 0. -1.
</event>
<event>
 5   0  0.2529875E-07  0.3851174E+04  0.7818609E-02  0.8035261E-01
        1   -1    0    0  501    0  0.00000000000E+00  0.00000000000E+00  0.31825449334E+04  0.31825449334E+04  0.50400001928E-02 0.  1.
       -1   -1    0    0    0  501  0.00000000000E+00  0.00000000000E+00 -0.11650694476E+04  0.11650694476E+04  0.50400001928E-02 0. -1.
    10030    2    1    2    0    0  0.00000000000E+00  0.00000000000E+00  0.20174754859E+04  0.43476143810E+04  0.38511742976E+04 0.  0.
        5    1    3    3  502    0 -0.71492110845E+03 -0.15017716315E+04  0.21040871526E+04  0.26820952742E+04  0.46999998093E+01 0.  1.
       -5    1    3    3    0  502  0.71492110845E+03  0.15017716315E+04 -0.86611666725E+02  0.16655191068E+04  0.46999998093E+01 0. -1.
</event>
<event>
 5   0  0.8421677E-07  0.3549205E+04  0.7818609E-02  0.8102227E-01
       -2   -1    0    0    0  501  0.00000000000E+00  0.00000000000E+00  0.12820765884E+04  0.12820765884E+04  0.25500000920E-02 0.  1.
        2   -1    0    0  501    0  0.00000000000E+00  0.00000000000E+00 -0.24563378042E+04  0.24563378042E+04  0.25500000920E-02 0. -1.
    10030    2    1    2    0    0  0.00000000000E+00  0.00000000000E+00 -0.11742612158E+04  0.37384143927E+04  0.35492045261E+04 0.  0.
        3    1    3    3  502    0  0.13053083527E+04 -0.11893471177E+04 -0.77209601028E+03  0.19273060788E+04  0.10100000352E+00 0. -1.
       -3    1    3    3    0  502 -0.13053083527E+04  0.11893471177E+04 -0.40216520548E+03  0.18111083139E+04  0.10100000352E+00 0.  1.
</event>
<event>
 5   0  0.8421677E-07  0.3891232E+04  0.7818609E-02  0.8026855E-01
       -2   -1    0    0    0  501  0.00000000000E+00  0.00000000000E+00  0.18925621984E+04  0.18925621985E+04  0.25500000920E-02 0.  1.
        2   -1    0    0  501    0  0.00000000000E+00  0.00000000000E+00 -0.20001573649E+04  0.20001573649E+04  0.25500000920E-02 0. -1.
    10030    2    1    2    0    0  0.00000000000E+00  0.00000000000E+00 -0.10759516645E+03  0.38927195634E+04  0.38912323085E+04 0.  0.
        3    1    3    3  502    0  0.51967461491E+03 -0.79133090488E+03 -0.17541989577E+04  0.19933590494E+04  0.10100000352E+00 0. -1.
       -3    1    3    3    0  502 -0.51967461491E+03  0.79133090488E+03  0.16466037913E+04  0.18993605140E+04  0.10100000352E+00 0.  1.
</event>
<event>
 5   0  0.2529875E-07  0.3790183E+04  0.7818609E-02  0.8048265E-01
       -3   -1    0    0    0  501  0.00000000000E+00  0.00000000000E+00  0.18179653201E+04  0.18179653229E+04  0.10100000352E+00 0.  1.
        3   -1    0    0  501    0  0.00000000000E+00  0.00000000000E+00 -0.19754898325E+04  0.19754898351E+04  0.10100000352E+00 0. -1.
    10030    2    1    2    0    0  0.00000000000E+00  0.00000000000E+00 -0.15752451249E+03  0.37934551580E+04  0.37901831174E+04 0.  0.
        4    1    3    3  502    0 -0.13104801967E+04  0.13668322573E+04 -0.15486497773E+03  0.18998877703E+04  0.12699999809E+01 0. -1.
       -4    1    3    3    0  502  0.13104801967E+04 -0.13668322573E+04 -0.26595347580E+01  0.18935673877E+04  0.12699999809E+01 0.  1.
</event>
<event>
 5   0  0.7551495E-07  0.3815175E+04  0.7818609E-02  0.8042906E-01
        2   -1    0    0  501    0  0.00000000000E+00  0.00000000000E+00  0.24454921538E+04  0.24454921538E+04  0.25500000920E-02 0. -1.
       -2   -1    0    0    0  501  0.00000000000E+00  0.00000000000E+00 -0.14879988111E+04  0.14879988111E+04  0.25500000920E-02 0.  1.
    10030    2    1    2    0    0  0.00000000000E+00  0.00000000000E+00  0.95749334266E+03  0.39334909649E+04  0.38151746579E+04 0.  0.
        1    1    3    3  502    0 -0.99841730540E+03  0.13820156392E+04 -0.40340753390E+03  0.17520108393E+04  0.50400001928E-02 0.  1.
       -1    1    3    3    0  502  0.99841730540E+03 -0.13820156392E+04  0.13609008766E+04  0.21814801256E+04  0.50400001928E-02 0. -1.
</event>
<event>
 5   0  0.2907071E-07  0.3656204E+04  0.7818609E-02  0.8077737E-01
       -1   -1    0    0    0  501  0.00000000000E+00  0.00000000000E+00  0.16529423460E+04  0.16529423460E+04  0.50400001928E-02 0.  1.
        1   -1    0    0  501    0  0.00000000000E+00  0.00000000000E+00 -0.20218232400E+04  0.20218232400E+04  0.50400001928E-02 0. -1.
    10030    2    1    2    0    0  0.00000000000E+00  0.00000000000E+00 -0.36888089405E+03  0.36747655861E+04  0.36562041790E+04 0.  0.
        2    1    3    3  502    0  0.13722704986E+04  0.11270778213E+04 -0.62084112554E+03  0.18811896342E+04  0.25500000920E-02 0.  1.
       -2    1    3    3    0  502 -0.13722704986E+04 -0.11270778213E+04  0.25196023149E+03  0.17935759518E+04  0.25500000920E-02 0. -1.
</event>
<event>
 5   0  0.8421677E-07  0.3812930E+04  0.7818609E-02  0.8043386E-01
        2   -1    0    0  501    0  0.00000000000E+00  0.00000000000E+00  0.30421562562E+04  0.30421562562E+04  0.25500000920E-02 0. -1.
       -2   -1    0    0    0  501  0.00000000000E+00  0.00000000000E+00 -0.11947477181E+04  0.11947477181E+04  0.25500000920E-02 0.  1.
    10030    2    1    2    0    0  0.00000000000E+00  0.00000000000E+00  0.18474085381E+04  0.42369039743E+04  0.38129302355E+04 0.  0.
        3    1    3    3  502    0 -0.18310618886E+04 -0.14942533189E+03  0.35765642282E+03  0.18716393073E+04  0.10100000352E+00 0.  1.
       -3    1    3    3    0  502  0.18310618886E+04  0.14942533189E+03  0.14897521153E+04  0.23652646670E+04  0.10100000352E+00 0. -1.
</event>
<event>
 5   0  0.7649458E-07  0.3693608E+04  0.7818609E-02  0.8069380E-01
       -2   -1    0    0    0  501  0.00000000000E+00  0.00000000000E+00  0.12767060265E+04  0.12767060265E+04  0.25500000920E-02 0.  1.
        2   -1    0    0  501    0  0.00000000000E+00  0.00000000000E+00 -0.26714726644E+04  0.26714726644E+04  0.25500000920E-02 0. -1.
    10030    2    1    2    0    0  0.00000000000E+00  0.00000000000E+00 -0.13947666379E+04  0.39481786909E+04  0.36936081277E+04 0.  0.
        4    1    3    3  502    0  0.58026325982E+03 -0.16431546854E+04 -0.43660117239E+02  0.17431496177E+04  0.12699999809E+01 0. -1.
       -4    1    3    3    0  502 -0.58026325982E+03  0.16431546854E+04 -0.13511065206E+04  0.22050290732E+04  0.12699999809E+01 0.  1.
</event>
<event>
 5   0  0.7638805E-07  0.3722370E+04  0.7818609E-02  0.8063022E-01
        2   -1    0    0  501    0  0.00000000000E+00  0.00000000000E+00  0.23184817967E+04  0.23184817967E+04  0.25500000920E-02 0. -1.
       -2   -1    0    0    0  501  0.00000000000E+00  0.00000000000E+00 -0.14940855295E+04  0.14940855295E+04  0.25500000920E-02 0.  1.
    10030    2    1    2    0    0  0.00000000000E+00  0.00000000000E+00  0.82439626715E+03  0.38125673262E+04  0.37223702680E+04 0.  0.
        5    1    3    3  502    0 -0.26512252493E+03  0.18417051462E+04  0.45589589417E+03  0.19157324853E+04  0.46999998093E+01 0.  1.
       -5    1    3    3    0  502  0.26512252493E+03 -0.18417051462E+04  0.36850037298E+03  0.18968348409E+04  0.46999998093E+01 0. -1.
</event>
<event>
 5   0  0.2529875E-07  0.3785165E+04  0.7818609E-02  0.8049346E-01
        1   -1    0    0  501    0  0.00000000000E+00  0.00000000000E+00  0.16180781126E+04  0.16180781126E+04  0.50400001928E-02 0.  1.
       -1   -1    0    0    0  501  0.00000000000E+00  0.00000000000E+00 -0.22136564102E+04  0.22136564102E+04  0.50400001928E-02 0. -1.
    10030    2    1    2    0    0  0.00000000000E+00  0.00000000000E+00 -0.59557829758E+03  0.38317345228E+04  0.37851652467E+04 0.  0.
        1    1    3    3  502    0  0.91849724715E+03  0.57283676113E+03  0.12737571628E+04  0.16715969783E+04  0.50400001928E-02 0.  1.
       -1    1    3    3    0  502 -0.91849724715E+03 -0.57283676113E+03 -0.18693354604E+04  0.21601375446E+04  0.50400001928E-02 0. -1.
</event>
<event>
 5   0  0.2529875E-07  0.3817406E+04  0.7818609E-02  0.8042430E-01
       -1   -1    0    0    0  501  0.00000000000E+00  0.00000000000E+00  0.24870149121E+04  0.24870149121E+04  0.50400001928E-02 0. -1.
        1   -1    0    0  501    0  0.00000000000E+00  0.00000000000E+00 -0.14648672092E+04  0.14648672092E+04  0.50400001928E-02 0.  1.
    10030    2    1    2    0    0  0.00000000000E+00  0.00000000000E+00  0.10221477028E+04  0.39518821213E+04  0.38174057126E+04 0.  0.
        3    1    3    3  502    0  0.13353782680E+04  0.13599148829E+04  0.61736993723E+03  0.20034343655E+04  0.10100000352E+00 0. -1.
       -3    1    3    3    0  502 -0.13353782680E+04 -0.13599148829E+04  0.40477776560E+03  0.19484477558E+04  0.10100000352E+00 0.  1.
</event>
<event>
 5   0  0.2529875E-07  0.3764288E+04  0.7818609E-02  0.8053862E-01
        1   -1    0    0  501    0  0.00000000000E+00  0.00000000000E+00  0.24206374682E+04  0.24206374682E+04  0.50400001928E-02 0. -1.
       -1   -1    0    0    0  501  0.00000000000E+00  0.00000000000E+00 -0.14634432974E+04  0.14634432974E+04  0.50400001928E-02 0.  1.
    10030    2    1    2    0    0  0.00000000000E+00  0.00000000000E+00  0.95719417081E+03  0.38840807657E+04  0.37642878096E+04 0.  0.
        4    1    3    3  502    0  0.95079715400E+03  0.12552258752E+04 -0.58516085928E+03  0.16798875170E+04  0.12699999809E+01 0. -1.
       -4    1    3    3    0  502 -0.95079715400E+03 -0.12552258752E+04  0.15423550301E+04  0.22041932487E+04  0.12699999809E+01 0.  1.
</event>
<event>
 5   0  0.2529875E-07  0.3739524E+04  0.7818609E-02  0.8059259E-01
        1   -1    0    0  501    0  0.00000000000E+00  0.00000000000E+00  0.19291579724E+04  0.19291579724E+04  0.50400001928E-02 0. -1.
       -1   -1    0    0    0  501  0.00000000000E+00  0.00000000000E+00 -0.18121949246E+04  0.18121949246E+04  0.50400001928E-02 0.  1.
    10030    2    1    2    0    0  0.00000000000E+00  0.00000000000E+00  0.11696304773E+03  0.37413528970E+04  0.37395241870E+04 0.  0.
        5    1    3    3  502    0 -0.38351988407E+03  0.45424434996E+03 -0.17151128723E+04  0.18152299264E+04  0.46999998093E+01 0.  1.
       -5    1    3    3    0  502  0.38351988407E+03 -0.45424434996E+03  0.18320759201E+04  0.19261229706E+04  0.46999998093E+01 0. -1.
</event>
<event>
 5   0  0.8421677E-07  0.3819893E+04  0.7818609E-02  0.8041899E-01
       -2   -1    0    0    0  501  0.00000000000E+00  0.00000000000E+00  0.27078744503E+04  0.27078744503E+04  0.25500000920E-02 0.  1.
        2   -1    0    0  501    0  0.00000000000E+00  0.00000000000E+00 -0.13471433984E+04  0.13471433984E+04  0.25500000920E-02 0. -1.
    10030    2    1    2    0    0  0.00000000000E+00  0.00000000000E+00  0.13607310520E+04  0.40550178487E+04  0.38198927678E+04 0.  0.
        3    1    3    3  502    0  0.12303443581E+04 -0.26867318138E+03  0.22047060557E+04  0.25390276327E+04  0.10100000352E+00 0.  1.
       -3    1    3    3    0  502 -0.12303443581E+04  0.26867318138E+03 -0.84397500369E+03  0.15159902159E+04  0.10100000352E+00 0. -1.
</event>
<event>
 5   0  0.2907071E-07  0.3691254E+04  0.7818609E-02  0.8069903E-01
       -1   -1    0    0    0  501  0.00000000000E+00  0.00000000000E+00  0.16338090784E+04  0.16338090784E+04  0.50400001928E-02 0.  1.
        1   -1    0    0  501    0  0.00000000000E+00  0.00000000000E+00 -0.20849069306E+04  0.20849069306E+04  0.50400001928E-02 0. -1.
    10030    2    1    2    0    0  0.00000000000E+00  0.00000000000E+00 -0.45109785220E+03  0.37187160090E+04  0.36912544593E+04 0.  0.
        2    1    3    3  502    0 -0.70786776271E+03  0.35960738571E+03 -0.19040611431E+04  0.20629694807E+04  0.25500000920E-02 0. -1.
       -2    1    3    3    0  502  0.70786776271E+03 -0.35960738571E+03  0.14529632909E+04  0.16557465284E+04  0.25500000920E-02 0.  1.
</event>
<event>
 5   0  0.2529875E-07  0.3725211E+04  0.7818609E-02  0.8062398E-01
       -1   -1    0    0    0  501  0.00000000000E+00  0.00000000000E+00  0.18108973472E+04  0.18108973472E+04  0.50400001928E-02 0.  1.
        1   -1    0    0  501    0  0.00000000000E+00  0.00000000000E+00 -0.19157896235E+04  0.19157896235E+04  0.50400001928E-02 0. -1.
    10030    2    1    2    0    0  0.00000000000E+00  0.00000000000E+00 -0.10489227626E+03  0.37266869707E+04  0.37252105159E+04 0.  0.
        4    1    3    3  502    0  0.99566720565E+03  0.63254299051E+03 -0.14944864646E+04  0.19039315180E+04  0.12699999809E+01 0. -1.
       -4    1    3    3    0  502 -0.99566720565E+03 -0.63254299051E+03  0.13895941884E+04  0.18227554527E+04  0.12699999809E+01 0.  1.
</event>
<event>
 5   0  0.2529875E-07  0.3793012E+04  0.7818609E-02  0.8047656E-01
       -1   -1    0    0    0  501  0.00000000000E+00  0.00000000000E+00  0.18968470435E+04  0.18968470435E+04  0.50400001928E-02 0.  1.
        1   -1    0    0  501    0  0.00000000000E+00  0.00000000000E+00 -0.18961645834E+04  0.18961645834E+04  0.50400001928E-02 0. -1.
    10030    2    1    2    0    0  0.00000000000E+00  0.00000000000E+00  0.68246014827E+00  0.37930116269E+04  0.37930115655E+04 0.  0.
        3    1    3    3  502    0  0.61244891481E+03 -0.24967366763E+03  0.17777842425E+04  0.18968256211E+04  0.10100000352E+00 0.  1.
       -3    1    3    3    0  502 -0.61244891481E+03  0.24967366763E+03 -0.17771017824E+04  0.18961860058E+04  0.10100000352E+00 0. -1.
</event>
<event>
 5   0  0.2529875E-07  0.3884058E+04  0.7818609E-02  0.8028353E-01
        1   -1    0    0  501    0  0.00000000000E+00  0.00000000000E+00  0.19687729692E+04  0.19687729692E+04  0.50400001928E-02 0.  1.
       -1   -1    0    0    0  501  0.00000000000E+00  0.00000000000E+00 -0.19156478839E+04  0.19156478839E+04  0.50400001928E-02 0. -1.
    10030    2    1    2    0    0  0.00000000000E+00  0.00000000000E+00  0.53125085271E+02  0.38844208532E+04  0.38840575549E+04 0.  0.
        4    1    3    3  502    0 -0.88913058435E+03 -0.11803488506E+04  0.12867191127E+04  0.19594448942E+04  0.12699999809E+01 0.  1.
       -4    1    3    3    0  502  0.88913058435E+03  0.11803488506E+04 -0.12335940275E+04  0.19249759590E+04  0.12699999809E+01 0. -1.
</event>
<event>
 5   0  0.8038352E-07  0.2586141E+04  0.7818609E-02  0.8372924E-01
        2   -1    0    0  501    0  0.00000000000E+00  0.00000000000E+00  0.11979262629E+04  0.11979262629E+04  0.25500000920E-02 0.  1.
       -2   -1    0    0    0  501  0.00000000000E+00  0.00000000000E+00 -0.13957716878E+04  0.13957716878E+04  0.25500000920E-02 0. -1.
    10030    2    1    2    0    0  0.00000000000E+00  0.00000000000E+00 -0.19784542492E+03  0.25936979507E+04  0.25861411886E+04 0.  0.
        2    1    3    3  502    0 -0.12364816350E+03 -0.11994091533E+03 -0.13842121350E+04  0.13948899334E+04  0.25500000920E-02 0. -1.
       -2    1    3    3    0  502  0.12364816350E+03  0.11994091533E+03  0.11863667101E+04  0.11988080173E+04  0.25500000920E-02 0.  1.
</event>
<event>
 5   0  0.7638805E-07  0.2468803E+04  0.7818609E-02  0.8414185E-01
       -2   -1    0    0    0  501  0.00000000000E+00  0.00000000000E+00  0.95743222964E+03  0.95743222964E+03  0.25500000920E-02 0.  1.
        2   -1    0    0  501    0  0.00000000000E+00  0.00000000000E+00 -0.15914931970E+04  0.15914931970E+04  0.25500000920E-02 0. -1.
    10030    2    1    2    0    0  0.00000000000E+00  0.00000000000E+00 -0.63406096734E+03  0.25489254266E+04  0.24688028516E+04 0.  0.
        5    1    3    3  502    0 -0.50949435424E+03 -0.72025047572E+03 -0.12084034417E+04  0.14961972506E+04  0.46999998093E+01 0. -1.
       -5    1    3    3    0  502  0.50949435424E+03  0.72025047572E+03  0.57434247436E+03  0.10527281760E+04  0.46999998093E+01 0.  1.
</event>
<event>
 5   0  0.8421677E-07  0.3840415E+04  0.7818609E-02  0.8037537E-01
       -2   -1    0    0    0  501  0.00000000000E+00  0.00000000000E+00  0.23099582095E+04  0.23099582095E+04  0.25500000920E-02 0.  1.
        2   -1    0    0  501    0  0.00000000000E+00  0.00000000000E+00 -0.15962178966E+04  0.15962178966E+04  0.25500000920E-02 0. -1.
    10030    2    1    2    0    0  0.00000000000E+00  0.00000000000E+00  0.71374031285E+03  0.39061761061E+04  0.38404148913E+04 0.  0.
        3    1    3    3  502    0 -0.98866333292E+03  0.12012898036E+04  0.15015947184E+04  0.21622532429E+04  0.10100000352E+00 0.  1.
       -3    1    3    3    0  502  0.98866333292E+03 -0.12012898036E+04 -0.78785440552E+03  0.17439228632E+04  0.10100000352E+00 0. -1.
</event>
<event>
 5   0  0.7638805E-07  0.3745716E+04  0.7818609E-02  0.8057905E-01
        2   -1    0    0  501    0  0.00000000000E+00  0.00000000000E+00  0.26104807563E+04  0.26104807563E+04  0.25500000920E-02 0.  1.
       -2   -1    0    0    0  501  0.00000000000E+00  0.00000000000E+00 -0.13436596393E+04  0.13436596393E+04  0.25500000920E-02 0. -1.
    10030    2    1    2    0    0  0.00000000000E+00  0.00000000000E+00  0.12668211171E+04  0.39541403956E+04  0.37457162901E+04 0.  0.
        5    1    3    3  502    0 -0.73570227601E+03 -0.12669624079E+04  0.18650002495E+04  0.23716449149E+04  0.46999998093E+01 0.  1.
       -5    1    3    3    0  502  0.73570227601E+03  0.12669624079E+04 -0.59817913242E+03  0.15824954807E+04  0.46999998093E+01 0. -1.
</event>
<event>
 5   0  0.2529875E-07  0.3801550E+04  0.7818609E-02  0.8045822E-01
       -1   -1    0    0    0  501  0.00000000000E+00  0.00000000000E+00  0.12599539464E+04  0.12599539464E+04  0.50400001928E-02 0. -1.
        1   -1    0    0  501    0  0.00000000000E+00  0.00000000000E+00 -0.28675213201E+04  0.28675213201E+04  0.50400001928E-02 0.  1.
    10030    2    1    2    0    0  0.00000000000E+00  0.00000000000E+00 -0.16075673737E+04  0.41274752665E+04  0.38015495807E+04 0.  0.
        4    1    3    3  502    0  0.15670556830E+04  0.66164350484E+03  0.11717786151E+03  0.17050419072E+04  0.12699999809E+01 0. -1.
       -4    1    3    3    0  502 -0.15670556830E+04 -0.66164350484E+03 -0.17247452352E+04  0.24224333593E+04  0.12699999809E+01 0.  1.
</event>
<event>
 5   0  0.2529875E-07  0.3759514E+04  0.7818609E-02  0.8054899E-01
       -1   -1    0    0    0  501  0.00000000000E+00  0.00000000000E+00  0.18063250934E+04  0.18063250935E+04  0.50400001928E-02 0.  1.
        1   -1    0    0  501    0  0.00000000000E+00  0.00000000000E+00 -0.19561745277E+04  0.19561745277E+04  0.50400001928E-02 0. -1.
    10030    2    1    2    0    0  0.00000000000E+00  0.00000000000E+00 -0.14984943426E+03  0.37624996212E+04  0.37595144030E+04 0.  0.
        5    1    3    3  502    0  0.18120063926E+04 -0.49188772121E+03 -0.16524242670E+03  0.18848469027E+04  0.46999998093E+01 0.  1.
       -5    1    3    3    0  502 -0.18120063926E+04  0.49188772121E+03  0.15392992434E+02  0.18776527185E+04  0.46999998093E+01 0. -1.
</event>
<event>
 5   0  0.2529875E-07  0.3863098E+04  0.7818609E-02  0.8032748E-01
        1   -1    0    0  501    0  0.00000000000E+00  0.00000000000E+00  0.13580813458E+04  0.13580813458E+04  0.50400001928E-02 0.  1.
       -1   -1    0    0    0  501  0.00000000000E+00  0.00000000000E+00 -0.27471709050E+04  0.27471709050E+04  0.50400001928E-02 0. -1.
    10030    2    1    2    0    0  0.00000000000E+00  0.00000000000E+00 -0.13890895593E+04  0.41052522508E+04  0.38630980105E+04 0.  0.
        3    1    3    3  502    0 -0.16487021972E+04  0.97317617432E+03 -0.42238407955E+03  0.19605354172E+04  0.10100000352E+00 0. -1.
       -3    1    3    3    0  502  0.16487021972E+04 -0.97317617432E+03 -0.96670547971E+03  0.21447168336E+04  0.10100000352E+00 0.  1.
</event>
<event>
 5   0  0.2529875E-07  0.3801360E+04  0.7818609E-02  0.8045863E-01
        1   -1    0    0  501    0  0.00000000000E+00  0.00000000000E+00  0.19961137339E+04  0.19961137339E+04  0.50400001928E-02 0. -1.
       -1   -1    0    0    0  501  0.00000000000E+00  0.00000000000E+00 -0.18098092344E+04  0.18098092344E+04  0.50400001928E-02 0.  1.
    10030    2    1    2    0    0  0.00000000000E+00  0.00000000000E+00  0.18630449957E+03  0.38059229683E+04  0.38013603189E+04 0.  0.
        5    1    3    3  502    0 -0.16934399357E+04 -0.33038151986E+03  0.89139975739E+03  0.19420366582E+04  0.46999998093E+01 0. -1.
       -5    1    3    3    0  502  0.16934399357E+04  0.33038151986E+03 -0.70509525782E+03  0.18638863101E+04  0.46999998093E+01 0.  1.
</event>
<event>
 5   0  0.8038352E-07  0.3732210E+04  0.7818609E-02  0.8060861E-01
        2   -1    0    0  501    0  0.00000000000E+00  0.00000000000E+00  0.13181243539E+04  0.13181243539E+04  0.25500000920E-02 0.  1.
       -2   -1    0    0    0  501  0.00000000000E+00  0.00000000000E+00 -0.26418968452E+04  0.26418968452E+04  0.25500000920E-02 0. -1.
    10030    2    1    2    0    0  0.00000000000E+00  0.00000000000E+00 -0.13237724913E+04  0.39600211991E+04  0.37322103757E+04 0.  0.
        2    1    3    3  502    0  0.43780779037E+03 -0.21539410281E+03  0.12492447018E+04  0.13411497328E+04  0.25500000920E-02 0.  1.
       -2    1    3    3    0  502 -0.43780779037E+03  0.21539410281E+03 -0.25730171931E+04  0.26188714663E+04  0.25500000920E-02 0. -1.
</event>
<event>
 5   0  0.8421677E-07  0.3788642E+04  0.7818609E-02  0.8048597E-01
       -2   -1    0    0    0  501  0.00000000000E+00  0.00000000000E+00  0.18844835190E+04  0.18844835190E+04  0.25500000920E-02 0. -1.
        2   -1    0    0  501    0  0.00000000000E+00  0.00000000000E+00 -0.19042096245E+04  0.19042096245E+04  0.25500000920E-02 0.  1.
    10030    2    1    2    0    0  0.00000000000E+00  0.00000000000E+00 -0.19726105565E+02  0.37886931435E+04  0.37886417904E+04 0.  0.
        3    1    3    3  502    0  0.10188911258E+03  0.49594313169E+03 -0.18352947807E+04  0.19038508144E+04  0.10100000352E+00 0.  1.
       -3    1    3    3    0  502 -0.10188911258E+03 -0.49594313169E+03  0.18155686752E+04  0.18848423291E+04  0.10100000352E+00 0. -1.
</event>
<event>
 5   0  0.8421677E-07  0.3592064E+04  0.7818609E-02  0.8092312E-01
        2   -1    0    0  501    0  0.00000000000E+00  0.00000000000E+00  0.21156541736E+04  0.21156541736E+04  0.25500000920E-02 0.  1.
       -2   -1    0    0    0  501  0.00000000000E+00  0.00000000000E+00 -0.15246964193E+04  0.15246964193E+04  0.25500000920E-02 0. -1.
    10030    2    1    2    0    0  0.00000000000E+00  0.00000000000E+00  0.59095775432E+03  0.36403505929E+04  0.35920636648E+04 0.  0.
        3    1    3    3  502    0  0.67776194154E+03  0.12767800097E+04  0.13757355055E+04  0.19955391838E+04  0.10100000352E+00 0.  1.
       -3    1    3    3    0  502 -0.67776194154E+03 -0.12767800097E+04 -0.78477775119E+03  0.16448114091E+04  0.10100000352E+00 0. -1.
</event>
<event>
 5   0  0.2907071E-07  0.3785779E+04  0.7818609E-02  0.8049214E-01
        1   -1    0    0  501    0  0.00000000000E+00  0.00000000000E+00  0.16306548116E+04  0.16306548116E+04  0.50400001928E-02 0.  1.
       -1   -1    0    0    0  501  0.00000000000E+00  0.00000000000E+00 -0.21972954280E+04  0.21972954280E+04  0.50400001928E-02 0. -1.
    10030    2    1    2    0    0  0.00000000000E+00  0.00000000000E+00 -0.56664061642E+03  0.38279502397E+04  0.37857788432E+04 0.  0.
        2    1    3    3  502    0  0.13980866561E+04  0.31523575954E+03  0.96698557550E+03  0.17288958862E+04  0.25500000920E-02 0.  1.
       -2    1    3    3    0  502 -0.13980866561E+04 -0.31523575954E+03 -0.15336261919E+04  0.20990543534E+04  0.25500000920E-02 0. -1.
</event>
<event>
 5   0  0.7649458E-07  0.3740706E+04  0.7818609E-02  0.8059000E-01
        2   -1    0    0  501    0  0.00000000000E+00  0.00000000000E+00  0.23552259422E+04  0.23552259422E+04  0.25500000920E-02 0.  1.
       -2   -1    0    0    0  501  0.00000000000E+00  0.00000000000E+00 -0.14853011557E+04  0.14853011557E+04  0.25500000920E-02 0. -1.
    10030    2    1    2    0    0  0.00000000000E+00  0.00000000000E+00  0.86992478653E+03  0.38405270979E+04  0.37407057162E+04 0.  0.
        4    1    3    3  502    0 -0.14389517033E+04  0.40987043739E+03 -0.71732531560E+03  0.16592567617E+04  0.12699999809E+01 0. -1.
       -4    1    3    3    0  502  0.14389517033E+04 -0.40987043739E+03  0.15872501021E+04  0.21812703362E+04  0.12699999809E+01 0.  1.
</event>
<event>
 5   0  0.7551495E-07  0.3746694E+04  0.7818609E-02  0.8057692E-01
       -2   -1    0    0    0  501  0.00000000000E+00  0.00000000000E+00  0.24443173614E+04  0.24443173614E+04  0.25500000920E-02 0. -1.
        2   -1    0    0  501    0  0.00000000000E+00  0.00000000000E+00 -0.14357503858E+04  0.14357503858E+04  0.25500000920E-02 0.  1.
    10030    2    1    2    0    0  0.00000000000E+00  0.00000000000E+00  0.10085669757E+04  0.38800677472E+04  0.37466943268E+04 0.  0.
        1    1    3    3  502    0  0.48500468294E+02 -0.31697638557E+03 -0.14071175846E+04  0.14431930645E+04  0.50400001928E-02 0.  1.
       -1    1    3    3    0  502 -0.48500468294E+02  0.31697638557E+03  0.24156845603E+04  0.24368746827E+04  0.50400001928E-02 0. -1.
</event>
<event>
 5   0  0.8421677E-07  0.3757244E+04  0.7818609E-02  0.8055393E-01
        2   -1    0    0  501    0  0.00000000000E+00  0.00000000000E+00  0.24520826460E+04  0.24520826460E+04  0.25500000920E-02 0.  1.
       -2   -1    0    0    0  501  0.00000000000E+00  0.00000000000E+00 -0.14392744368E+04  0.14392744368E+04  0.25500000920E-02 0. -1.
    10030    2    1    2    0    0  0.00000000000E+00  0.00000000000E+00  0.10128082092E+04  0.38913570828E+04  0.37572436010E+04 0.  0.
        3    1    3    3  502    0 -0.10521699747E+04  0.92194488572E+03 -0.79221649951E+03  0.16076849879E+04  0.10100000352E+00 0.  1.
       -3    1    3    3    0  502  0.10521699747E+04 -0.92194488572E+03  0.18050247087E+04  0.22836720949E+04  0.10100000352E+00 0. -1.
</event>
<event>
 5   0  0.8421677E-07  0.2538449E+04  0.7818609E-02  0.8389414E-01
       -2   -1    0    0    0  501  0.00000000000E+00  0.00000000000E+00  0.77952771850E+03  0.77952771850E+03  0.25500000920E-02 0. -1.
        2   -1    0    0  501    0  0.00000000000E+00  0.00000000000E+00 -0.20665474294E+04  0.20665474294E+04  0.25500000920E-02 0.  1.
    10030    2    1    2    0    0  0.00000000000E+00  0.00000000000E+00 -0.12870197109E+04  0.28460751479E+04  0.25384491351E+04 0.  0.
        3    1    3    3  502    0 -0.36733334646E+03  0.72721411564E+03 -0.17346708837E+04  0.19164699952E+04  0.10100000352E+00 0.  1.
       -3    1    3    3    0  502  0.36733334646E+03 -0.72721411564E+03  0.44765117276E+03  0.92960515278E+03  0.10100000352E+00 0. -1.
</event>
<event>
 5   0  0.7638805E-07  0.3784135E+04  0.7818609E-02  0.8049568E-01
       -2   -1    0    0    0  501  0.00000000000E+00  0.00000000000E+00  0.26927027621E+04  0.26927027621E+04  0.25500000920E-02 0. -1.
        2   -1    0    0  501    0  0.00000000000E+00  0.00000000000E+00 -0.13294889408E+04  0.13294889408E+04  0.25500000920E-02 0.  1.
    10030    2    1    2    0    0  0.00000000000E+00  0.00000000000E+00  0.13632138213E+04  0.40221917029E+04  0.37841345341E+04 0.  0.
        5    1    3    3  502    0  0.18703477396E+04  0.28401323527E+03  0.64745676873E+03  0.19995215783E+04  0.46999998093E+01 0. -1.
       -5    1    3    3    0  502 -0.18703477396E+04 -0.28401323527E+03  0.71575705260E+03  0.20226701246E+04  0.46999998093E+01 0.  1.
</event>
<event>
 5   0  0.2529875E-07  0.3621081E+04  0.7818609E-02  0.8085680E-01
        1   -1    0    0  501    0  0.00000000000E+00  0.00000000000E+00  0.24270006316E+04  0.24270006316E+04  0.50400001928E-02 0. -1.
       -1   -1    0    0    0  501  0.00000000000E+00  0.00000000000E+00 -0.13506620953E+04  0.13506620953E+04  0.50400001928E-02 0.  1.
    10030    2    1    2    0    0  0.00000000000E+00  0.00000000000E+00  0.10763385362E+04  0.37776627269E+04  0.36210814729E+04 0.  0.
        3    1    3    3  502    0  0.15867022889E+04 -0.29163776502E+03  0.13955215477E+04  0.21331097346E+04  0.10100000352E+00 0. -1.
       -3    1    3    3    0  502 -0.15867022889E+04  0.29163776502E+03 -0.31918301147E+03  0.16445529923E+04  0.10100000352E+00 0.  1.
</event>
<event>
 5   0  0.2907071E-07  0.3745110E+04  0.7818609E-02  0.8058038E-01
       -1   -1    0    0    0  501  0.00000000000E+00  0.00000000000E+00  0.24865402448E+04  0.24865402448E+04  0.50400001928E-02 0. -1.
        1   -1    0    0  501    0  0.00000000000E+00  0.00000000000E+00 -0.14101771760E+04  0.14101771761E+04  0.50400001928E-02 0.  1.
    10030    2    1    2    0    0  0.00000000000E+00  0.00000000000E+00  0.10763630688E+04  0.38967174209E+04  0.37451100388E+04 0.  0.
        2    1    3    3  502    0  0.17215276927E+04 -0.52981185252E+03  0.10708674839E+04  0.20954988341E+04  0.25500000920E-02 0. -1.
       -2    1    3    3    0  502 -0.17215276927E+04  0.52981185252E+03  0.54955848679E+01  0.18012185867E+04  0.25500000920E-02 0.  1.
</event>
<event>
 5   0  0.2529875E-07  0.3808451E+04  0.7818609E-02  0.8044344E-01
       -1   -1    0    0    0  501  0.00000000000E+00  0.00000000000E+00  0.17665071007E+04  0.17665071007E+04  0.50400001928E-02 0. -1.
        1   -1    0    0  501    0  0.00000000000E+00  0.00000000000E+00 -0.20526805092E+04  0.20526805092E+04  0.50400001928E-02 0.  1.
    10030    2    1    2    0    0  0.00000000000E+00  0.00000000000E+00 -0.28617340851E+03  0.38191876100E+04  0.38084509686E+04 0.  0.
        4    1    3    3  502    0  0.11849759078E+04 -0.67766216412E+03 -0.14744888742E+04  0.20093563556E+04  0.12699999809E+01 0.  1.
       -4    1    3    3    0  502 -0.11849759078E+04  0.67766216412E+03  0.11883154657E+04  0.18098312544E+04  0.12699999809E+01 0. -1.
</event>
<event>
 5   0  0.8421677E-07  0.3813925E+04  0.7818609E-02  0.8043173E-01
       -2   -1    0    0    0  501  0.00000000000E+00  0.00000000000E+00  0.16932326328E+04  0.16932326328E+04  0.25500000920E-02 0.  1.
        2   -1    0    0  501    0  0.00000000000E+00  0.00000000000E+00 -0.21476710309E+04  0.21476710309E+04  0.25500000920E-02 0. -1.
    10030    2    1    2    0    0  0.00000000000E+00  0.00000000000E+00 -0.45443839808E+03  0.38409036638E+04  0.38139253659E+04 0.  0.
        3    1    3    3  502    0  0.44910864962E+03 -0.39146956718E+03  0.15971023020E+04  0.17046063400E+04  0.10100000352E+00 0.  1.
       -3    1    3    3    0  502 -0.44910864962E+03  0.39146956718E+03 -0.20515407001E+04  0.21362973237E+04  0.10100000352E+00 0. -1.
</event>
<event>
 5   0  0.8421677E-07  0.3757126E+04  0.7818609E-02  0.8055419E-01
        2   -1    0    0  501    0  0.00000000000E+00  0.00000000000E+00  0.26807105991E+04  0.26807105991E+04  0.25500000920E-02 0. -1.
       -2   -1    0    0    0  501  0.00000000000E+00  0.00000000000E+00 -0.13164417174E+04  0.13164417174E+04  0.25500000920E-02 0.  1.
    10030    2    1    2    0    0  0.00000000000E+00  0.00000000000E+00  0.13642688817E+04  0.39971523165E+04  0.37571261703E+04 0.  0.
        3    1    3    3  502    0 -0.58127631452E+03  0.17232328389E+04  0.11829361097E+04  0.21695048792E+04  0.10100000352E+00 0.  1.
       -3    1    3    3    0  502  0.58127631452E+03 -0.17232328389E+04  0.18133277194E+03  0.18276474373E+04  0.10100000352E+00 0. -1.
</event>
<event>
 5   0  0.7551495E-07  0.2323800E+04  0.7818609E-02  0.8468596E-01
       -2   -1    0    0    0  501  0.00000000000E+00  0.00000000000E+00  0.89000387208E+03  0.89000387208E+03  0.25500000920E-02 0.  1.
        2   -1    0    0  501    0  0.00000000000E+00  0.00000000000E+00 -0.15168603613E+04  0.15168603613E+04  0.25500000920E-02 0. -1.
    10030    2    1    2    0    0  0.00000000000E+00  0.00000000000E+00 -0.62685648922E+03  0.24068642334E+04  0.23237999871E+04 0.  0.
        1    1    3    3  502    0 -0.22542407761E+03 -0.99713554499E+03 -0.88535861421E+03  0.13523886962E+04  0.50400001928E-02 0. -1.
       -1    1    3    3    0  502  0.22542407761E+03  0.99713554499E+03  0.25850212499E+03  0.10544755372E+04  0.50400001928E-02 0.  1.
</event>
<event>
 5   0  0.2529875E-07  0.3793389E+04  0.7818609E-02  0.8047575E-01
       -1   -1    0    0    0  501  0.00000000000E+00  0.00000000000E+00  0.19610252884E+04  0.19610252884E+04  0.50400001928E-02 0.  1.
        1   -1    0    0  501    0  0.00000000000E+00  0.00000000000E+00 -0.18344743795E+04  0.18344743796E+04  0.50400001928E-02 0. -1.
    10030    2    1    2    0    0  0.00000000000E+00  0.00000000000E+00  0.12655090888E+03  0.37954996680E+04  0.37933893284E+04 0.  0.
        1    1    3    3  502    0  0.43918549941E+03 -0.76142986602E+03 -0.16183711069E+04  0.18416797722E+04  0.50400001928E-02 0. -1.
       -1    1    3    3    0  502 -0.43918549941E+03  0.76142986602E+03  0.17449220158E+04  0.19538198957E+04  0.50400001928E-02 0.  1.
</event>
<event>
 5   0  0.8038352E-07  0.3710618E+04  0.7818609E-02  0.8065613E-01
       -2   -1    0    0    0  501  0.00000000000E+00  0.00000000000E+00  0.21513268406E+04  0.21513268406E+04  0.25500000920E-02 0. -1.
        2   -1    0    0  501    0  0.00000000000E+00  0.00000000000E+00 -0.16000224112E+04  0.16000224112E+04  0.25500000920E-02 0.  1.
    10030    2    1    2    0    0  0.00000000000E+00  0.00000000000E+00  0.55130442931E+03  0.37513492518E+04  0.37106178239E+04 0.  0.
        2    1    3    3  502    0 -0.76403881542E+02 -0.16355595806E+04  0.11577425113E+04  0.20053080604E+04  0.25500000920E-02 0. -1.
       -2    1    3    3    0  502  0.76403881542E+02  0.16355595806E+04 -0.60643808196E+03  0.17460411914E+04  0.25500000920E-02 0.  1.
</event>
<event>
 5   0  0.8421677E-07  0.3892256E+04  0.7818609E-02  0.8026642E-01
       -2   -1    0    0    0  501  0.00000000000E+00  0.00000000000E+00  0.24072225028E+04  0.24072225028E+04  0.25500000920E-02 0. -1.
        2   -1    0    0  501    0  0.00000000000E+00  0.00000000000E+00 -0.15733541526E+04  0.15733541526E+04  0.25500000920E-02 0.  1.
    10030    2    1    2    0    0  0.00000000000E+00  0.00000000000E+00  0.83386835022E+03  0.39805766554E+04  0.38922556550E+04 0.  0.
        3    1    3    3  502    0 -0.35695270814E+03  0.17669279575E+04  0.11670376669E+04  0.21474232394E+04  0.10100000352E+00 0. -1.
       -3    1    3    3    0  502  0.35695270814E+03 -0.17669279575E+04 -0.33316931664E+03  0.18331534160E+04  0.10100000352E+00 0.  1.
</event>
<event>
 5   0  0.2529875E-07  0.3808682E+04  0.7818609E-02  0.8044294E-01
        1   -1    0    0  501    0  0.00000000000E+00  0.00000000000E+00  0.21897104445E+04  0.21897104445E+04  0.50400001928E-02 0.  1.
       -1   -1    0    0    0  501  0.00000000000E+00  0.00000000000E+00 -0.16561615203E+04  0.16561615203E+04  0.50400001928E-02 0. -1.
    10030    2    1    2    0    0  0.00000000000E+00  0.00000000000E+00  0.53354892423E+03  0.38458719648E+04  0.38086817555E+04 0.  0.
        1    1    3    3  502    0 -0.13046898458E+04  0.13871812508E+04  0.27199819886E+03  0.19236606865E+04  0.50400001928E-02 0. -1.
       -1    1    3    3    0  502  0.13046898458E+04 -0.13871812508E+04  0.26155072538E+03  0.19222112783E+04  0.50400001928E-02 0.  1.
</event>
<event>
 5   0  0.7649458E-07  0.3765013E+04  0.7818609E-02  0.8053705E-01
        2   -1    0    0  501    0  0.00000000000E+00  0.00000000000E+00  0.16965977370E+04  0.16965977370E+04  0.25500000920E-02 0. -1.
       -2   -1    0    0    0  501  0.00000000000E+00  0.00000000000E+00 -0.20887864412E+04  0.20887864412E+04  0.25500000920E-02 0.  1.
    10030    2    1    2    0    0  0.00000000000E+00  0.00000000000E+00 -0.39218870419E+03  0.37853841783E+04  0.37650128017E+04 0.  0.
        4    1    3    3  502    0  0.15288954600E+04  0.10853904668E+04 -0.36503609301E+03  0.19101954757E+04  0.12699999809E+01 0.  1.
       -4    1    3    3    0  502 -0.15288954600E+04 -0.10853904668E+04 -0.27152611183E+02  0.18751887026E+04  0.12699999809E+01 0. -1.
</event>
<event>
 5   0  0.2529875E-07  0.3977488E+04  0.7818609E-02  0.8009103E-01
       -3   -1    0    0    0  501  0.00000000000E+00  0.00000000000E+00  0.13042484791E+04  0.13042484830E+04  0.10100000352E+00 0. -1.
        3   -1    0    0  501    0  0.00000000000E+00  0.00000000000E+00 -0.30324756653E+04  0.30324756670E+04  0.10100000352E+00 0.  1.
    10030    2    1    2    0    0  0.00000000000E+00  0.00000000000E+00 -0.17282271862E+04  0.43367241499E+04  0.39774875418E+04 0.  0.
        1    1    3    3  502    0 -0.13511849749E+04  0.14559408017E+04 -0.75707722222E+03  0.21257070294E+04  0.50400001928E-02 0. -1.
       -1    1    3    3    0  502  0.13511849749E+04 -0.14559408017E+04 -0.97114996401E+03  0.22110171205E+04  0.50400001928E-02 0.  1.
</event>
<event>
 5   0  0.7638805E-07  0.3697416E+04  0.7818609E-02  0.8068535E-01
        2   -1    0    0  501    0  0.00000000000E+00  0.00000000000E+00  0.11891913694E+04  0.11891913694E+04  0.25500000920E-02 0. -1.
       -2   -1    0    0    0  501  0.00000000000E+00  0.00000000000E+00 -0.28739870073E+04  0.28739870073E+04  0.25500000920E-02 0.  1.
    10030    2    1    2    0    0  0.00000000000E+00  0.00000000000E+00 -0.16847956379E+04  0.40631783768E+04  0.36974156082E+04 0.  0.
        5    1    3    3  502    0  0.10945978520E+02  0.33687967251E+03 -0.28399291525E+04  0.28598649285E+04  0.46999998093E+01 0.  1.
       -5    1    3    3    0  502 -0.10945978520E+02 -0.33687967251E+03  0.11551335146E+04  0.12033134482E+04  0.46999998093E+01 0. -1.
</event>
<event>
 5   0  0.7649458E-07  0.3777541E+04  0.7818609E-02  0.8050992E-01
        2   -1    0    0  501    0  0.00000000000E+00  0.00000000000E+00  0.24250023985E+04  0.24250023985E+04  0.25500000920E-02 0.  1.
       -2   -1    0    0    0  501  0.00000000000E+00  0.00000000000E+00 -0.14711139074E+04  0.14711139074E+04  0.25500000920E-02 0. -1.
    10030    2    1    2    0    0  0.00000000000E+00  0.00000000000E+00  0.95388849115E+03  0.38961163059E+04  0.37775413982E+04 0.  0.
        4    1    3    3  502    0 -0.10431592701E+04 -0.11294119073E+04  0.16085155425E+04  0.22251014320E+04  0.12699999809E+01 0.  1.
       -4    1    3    3    0  502  0.10431592701E+04  0.11294119073E+04 -0.65462705140E+03  0.16710148738E+04  0.12699999809E+01 0. -1.
</event>
<event>
 5   0  0.8421677E-07  0.2812490E+04  0.7818609E-02  0.8299401E-01
       -2   -1    0    0    0  501  0.00000000000E+00  0.00000000000E+00  0.93846167691E+03  0.93846167691E+03  0.25500000920E-02 0.  1.
        2   -1    0    0  501    0  0.00000000000E+00  0.00000000000E+00 -0.21071990937E+04  0.21071990937E+04  0.25500000920E-02 0. -1.
    10030    2    1    2    0    0  0.00000000000E+00  0.00000000000E+00 -0.11687374168E+04  0.30456607707E+04  0.28124904232E+04 0.  0.
        3    1    3    3  502    0 -0.52122452773E+03  0.31813421922E+03  0.78739543258E+03  0.99643161692E+03  0.10100000352E+00 0.  1.
       -3    1    3    3    0  502  0.52122452773E+03 -0.31813421922E+03 -0.19561328494E+04  0.20492291537E+04  0.10100000352E+00 0. -1.
</event>
<event>
 5   0  0.8421677E-07  0.3818869E+04  0.7818609E-02  0.8042118E-01
       -2   -1    0    0    0  501  0.00000000000E+00  0.00000000000E+00  0.15987350511E+04  0.15987350511E+04  0.25500000920E-02 0.  1.
        2   -1    0    0  501    0  0.00000000000E+00  0.00000000000E+00 -0.22805151972E+04  0.22805151973E+04  0.25500000920E-02 0. -1.
    10030    2    1    2    0    0  0.00000000000E+00  0.00000000000E+00 -0.68178014618E+03  0.38792502483E+04  0.38188687227E+04 0.  0.
        3    1    3    3  502    0  0.16969934713E+04  0.63613098806E+03 -0.95163696827E+03  0.20469641925E+04  0.10100000352E+00 0. -1.
       -3    1    3    3    0  502 -0.16969934713E+04 -0.63613098806E+03  0.26985682209E+03  0.18322860558E+04  0.10100000352E+00 0.  1.
</event>
<event>
 5   0  0.7649458E-07  0.2341493E+04  0.7818609E-02  0.8461738E-01
        2   -1    0    0  501    0  0.00000000000E+00  0.00000000000E+00  0.93298401140E+03  0.93298401141E+03  0.25500000920E-02 0. -1.
       -2   -1    0    0    0  501  0.00000000000E+00  0.00000000000E+00 -0.14691002165E+04  0.14691002165E+04  0.25500000920E-02 0.  1.
    10030    2    1    2    0    0  0.00000000000E+00  0.00000000000E+00 -0.53611620509E+03  0.24020842279E+04  0.23414926975E+04 0.  0.
        4    1    3    3  502    0 -0.85306170424E+03  0.30122853105E+03 -0.10303840044E+04  0.13711840535E+04  0.12699999809E+01 0.  1.
       -4    1    3    3    0  502  0.85306170424E+03 -0.30122853105E+03  0.49426779934E+03  0.10309001744E+04  0.12699999809E+01 0. -1.
</event>
<event>
 5   0  0.8421677E-07  0.2509691E+04  0.7818609E-02  0.8399541E-01
       -2   -1    0    0    0  501  0.00000000000E+00  0.00000000000E+00  0.15671140613E+04  0.15671140613E+04  0.25500000920E-02 0. -1.
        2   -1    0    0  501    0  0.00000000000E+00  0.00000000000E+00 -0.10048004689E+04  0.10048004689E+04  0.25500000920E-02 0.  1.
    10030    2    1    2    0    0  0.00000000000E+00  0.00000000000E+00  0.56231359242E+03  0.25719145301E+04  0.25096907726E+04 0.  0.
        3    1    3    3  502    0  0.18022845416E+03 -0.45336298367E+03 -0.90362875799E+03  0.10269202662E+04  0.10100000352E+00 0.  1.
       -3    1    3    3    0  502 -0.18022845416E+03  0.45336298367E+03  0.14659423504E+04  0.15449942639E+04  0.10100000352E+00 0. -1.
</event>
<event>
 5   0  0.2529875E-07  0.3750171E+04  0.7818609E-02  0.8056933E-01
       -1   -1    0    0    0  501  0.00000000000E+00  0.00000000000E+00  0.13553992769E+04  0.13553992769E+04  0.50400001928E-02 0.  1.
        1   -1    0    0  501    0  0.00000000000E+00  0.00000000000E+00 -0.25940288449E+04  0.25940288449E+04  0.50400001928E-02 0. -1.
    10030    2    1    2    0    0  0.00000000000E+00  0.00000000000E+00 -0.12386295680E+04  0.39494281218E+04  0.37501705672E+04 0.  0.
        5    1    3    3  502    0 -0.11100907436E+04  0.76484024422E+03  0.75325347844E+03  0.15442457547E+04  0.46999998093E+01 0.  1.
       -5    1    3    3    0  502  0.11100907436E+04 -0.76484024422E+03 -0.19918830464E+04  0.24051823671E+04  0.46999998093E+01 0. -1.
</event>
<event>
 5   0  0.7551495E-07  0.3737599E+04  0.7818609E-02  0.8059680E-01
        2   -1    0    0  501    0  0.00000000000E+00  0.00000000000E+00  0.20533226882E+04  0.20533226882E+04  0.25500000920E-02 0. -1.
       -2   -1    0    0    0  501  0.00000000000E+00  0.00000000000E+00 -0.17008582849E+04  0.17008582849E+04  0.25500000920E-02 0.  1.
    10030    2    1    2    0    0  0.00000000000E+00  0.00000000000E+00  0.35246440323E+03  0.37541809731E+04  0.37375986439E+04 0.  0.
        1    1    3    3  502    0 -0.10652122992E+04  0.61302018168E+03  0.15902920258E+04  0.20098506693E+04  0.50400001928E-02 0. -1.
       -1    1    3    3    0  502  0.10652122992E+04 -0.61302018168E+03 -0.12378276225E+04  0.17443303038E+04  0.50400001928E-02 0.  1.
</event>
<event>
 5   0  0.2529875E-07  0.3706569E+04  0.7818609E-02  0.8066508E-01
        1   -1    0    0  501    0  0.00000000000E+00  0.00000000000E+00  0.12076096429E+04  0.12076096430E+04  0.50400001928E-02 0. -1.
       -1   -1    0    0    0  501  0.00000000000E+00  0.00000000000E+00 -0.28441828168E+04  0.28441828168E+04  0.50400001928E-02 0.  1.
    10030    2    1    2    0    0  0.00000000000E+00  0.00000000000E+00 -0.16365731739E+04  0.40517924598E+04  0.37065685457E+04 0.  0.
        3    1    3    3  502    0  0.13763811923E+04 -0.67440369317E+03  0.32058164097E+03  0.15658921184E+04  0.10100000352E+00 0. -1.
       -3    1    3    3    0  502 -0.13763811923E+04  0.67440369317E+03 -0.19571548148E+04  0.24859003414E+04  0.10100000352E+00 0.  1.
</event>
<event>
 5   0  0.7649458E-07  0.3735093E+04  0.7818609E-02  0.8060229E-01
       -2   -1    0    0    0  501  0.00000000000E+00  0.00000000000E+00  0.18824583722E+04  0.18824583722E+04  0.25500000920E-02 0.  1.
        2   -1    0    0  501    0  0.00000000000E+00  0.00000000000E+00 -0.18527528526E+04  0.18527528526E+04  0.25500000920E-02 0. -1.
    10030    2    1    2    0    0  0.00000000000E+00  0.00000000000E+00  0.29705519645E+02  0.37352112248E+04  0.37350931014E+04 0.  0.
        4    1    3    3  502    0  0.58007764870E+03  0.14646785383E+04  0.10178576627E+04  0.18755823452E+04  0.12699999809E+01 0.  1.
       -4    1    3    3    0  502 -0.58007764870E+03 -0.14646785383E+04 -0.98815214309E+03  0.18596288796E+04  0.12699999809E+01 0. -1.
</event>
<event>
 5   0  0.7649458E-07  0.3850003E+04  0.7818609E-02  0.8035509E-01
        2   -1    0    0  501    0  0.00000000000E+00  0.00000000000E+00  0.31996795356E+04  0.31996795356E+04  0.25500000920E-02 0.  1.
       -2   -1    0    0    0  501  0.00000000000E+00  0.00000000000E+00 -0.11581258410E+04  0.11581258410E+04  0.25500000920E-02 0. -1.
    10030    2    1    2    0    0  0.00000000000E+00  0.00000000000E+00  0.20415536946E+04  0.43578053766E+04  0.38500034042E+04 0.  0.
        4    1    3    3  502    0 -0.60078413840E+03 -0.11542523560E+04 -0.58491712409E+03  0.14266638487E+04  0.12699999809E+01 0. -1.
       -4    1    3    3    0  502  0.60078413840E+03  0.11542523560E+04  0.26264708187E+04  0.29311415279E+04  0.12699999809E+01 0.  1.
</event>
<event>
 5   0  0.7649458E-07  0.2876534E+04  0.7818609E-02  0.8279894E-01
        2   -1    0    0  501    0  0.00000000000E+00  0.00000000000E+00  0.19762658861E+04  0.19762658861E+04  0.25500000920E-02 0. -1.
       -2   -1    0    0    0  501  0.00000000000E+00  0.00000000000E+00 -0.10467278365E+04  0.10467278365E+04  0.25500000920E-02 0.  1.
    10030    2    1    2    0    0  0.00000000000E+00  0.00000000000E+00  0.92953804956E+03  0.30229937226E+04  0.28765343838E+04 0.  0.
        4    1    3    3  502    0 -0.13344484951E+04 -0.39444793135E+03  0.82563798164E+02  0.13939728657E+04  0.12699999809E+01 0. -1.
       -4    1    3    3    0  502  0.13344484951E+04  0.39444793135E+03  0.84697425139E+03  0.16290208569E+04  0.12699999809E+01 0.  1.
</event>
<event>
 5   0  0.7551495E-07  0.3759826E+04  0.7818609E-02  0.8054831E-01
       -2   -1    0    0    0  501  0.00000000000E+00  0.00000000000E+00  0.17877470888E+04  0.17877470888E+04  0.25500000920E-02 0.  1.
        2   -1    0    0  501    0  0.00000000000E+00  0.00000000000E+00 -0.19768303474E+04  0.19768303474E+04  0.25500000920E-02 0. -1.
    10030    2    1    2    0    0  0.00000000000E+00  0.00000000000E+00 -0.18908325862E+03  0.37645774362E+04  0.37598258995E+04 0.  0.
        1    1    3    3  502    0  0.71449150324E+03  0.10119668860E+04 -0.15103645688E+04  0.19534011921E+04  0.50400001928E-02 0. -1.
       -1    1    3    3    0  502 -0.71449150324E+03 -0.10119668860E+04  0.13212813101E+04  0.18111762441E+04  0.50400001928E-02 0.  1.
</event>
<event>
 5   0  0.2529875E-07  0.3723943E+04  0.7818609E-02  0.8062676E-01
       -1   -1    0    0    0  501  0.00000000000E+00  0.00000000000E+00  0.19065364332E+04  0.19065364332E+04  0.50400001928E-02 0.  1.
        1   -1    0    0  501    0  0.00000000000E+00  0.00000000000E+00 -0.18184486143E+04  0.18184486143E+04  0.50400001928E-02 0. -1.
    10030    2    1    2    0    0  0.00000000000E+00  0.00000000000E+00  0.88087818831E+02  0.37249850475E+04  0.37239433589E+04 0.  0.
        4    1    3    3  502    0  0.10395412740E+04 -0.51623477464E+03  0.15004019056E+04  0.18969322323E+04  0.12699999809E+01 0.  1.
       -4    1    3    3    0  502 -0.10395412740E+04  0.51623477464E+03 -0.14123140867E+04  0.18280528152E+04  0.12699999809E+01 0. -1.
</event>
<event>
 5   0  0.2529875E-07  0.3717017E+04  0.7818609E-02  0.8064201E-01
       -1   -1    0    0    0  501  0.00000000000E+00  0.00000000000E+00  0.19843038102E+04  0.19843038102E+04  0.50400001928E-02 0. -1.
        1   -1    0    0  501    0  0.00000000000E+00  0.00000000000E+00 -0.17406884492E+04  0.17406884492E+04  0.50400001928E-02 0.  1.
    10030    2    1    2    0    0  0.00000000000E+00  0.00000000000E+00  0.24361536105E+03  0.37249922594E+04  0.37170174722E+04 0.  0.
        5    1    3    3  502    0  0.13463558889E+04  0.11948930207E+04 -0.34134089971E+03  0.18322061047E+04  0.46999998093E+01 0. -1.
       -5    1    3    3    0  502 -0.13463558889E+04 -0.11948930207E+04  0.58495626076E+03  0.18927861547E+04  0.46999998093E+01 0.  1.
</event>
<event>
 5   0  0.7649458E-07  0.3866852E+04  0.7818609E-02  0.8031959E-01
       -2   -1    0    0    0  501  0.00000000000E+00  0.00000000000E+00  0.27124263305E+04  0.27124263305E+04  0.25500000920E-02 0.  1.
        2   -1    0    0  501    0  0.00000000000E+00  0.00000000000E+00 -0.13781521076E+04  0.13781521076E+04  0.25500000920E-02 0. -1.
    10030    2    1    2    0    0  0.00000000000E+00  0.00000000000E+00  0.13342742229E+04  0.40905784381E+04  0.38668519827E+04 0.  0.
        4    1    3    3  502    0 -0.11556022952E+04  0.73726052671E+03 -0.77526420220E+03  0.15748034623E+04  0.12699999809E+01 0. -1.
       -4    1    3    3    0  502  0.11556022952E+04 -0.73726052671E+03  0.21095384251E+04  0.25157749758E+04  0.12699999809E+01 0.  1.
</event>
<event>
 5   0  0.7551495E-07  0.3815590E+04  0.7818609E-02  0.8042818E-01
       -2   -1    0    0    0  501  0.00000000000E+00  0.00000000000E+00  0.19055051980E+04  0.19055051980E+04  0.25500000920E-02 0.  1.
        2   -1    0    0  501    0  0.00000000000E+00  0.00000000000E+00 -0.19100877816E+04  0.19100877816E+04  0.25500000920E-02 0. -1.
    10030    2    1    2    0    0  0.00000000000E+00  0.00000000000E+00 -0.45825836322E+01  0.38155929796E+04  0.38155902277E+04 0.  0.
        1    1    3    3  502    0 -0.17167970858E+04 -0.82853125944E+03  0.74036444170E+02  0.19077048191E+04  0.50400001928E-02 0.  1.
       -1    1    3    3    0  502  0.17167970858E+04  0.82853125944E+03 -0.78619027802E+02  0.19078881605E+04  0.50400001928E-02 0. -1.
</event>
<event>
 5   0  0.8038352E-07  0.4598506E+04  0.7818609E-02  0.7893615E-01
        2   -1    0    0  501    0  0.00000000000E+00  0.00000000000E+00  0.24952822317E+04  0.24952822317E+04  0.25500000920E-02 0.  1.
       -2   -1    0    0    0  501  0.00000000000E+00  0.00000000000E+00 -0.21186241332E+04  0.21186241332E+04  0.25500000920E-02 0. -1.
    10030    2    1    2    0    0  0.00000000000E+00  0.00000000000E+00  0.37665809842E+03  0.46139063649E+04  0.45985063467E+04 0.  0.
        2    1    3    3  502    0  0.15095810383E+04 -0.16409548104E+04  0.75145504632E+03  0.23529241993E+04  0.25500000920E-02 0.  1.
       -2    1    3    3    0  502 -0.15095810383E+04  0.16409548104E+04 -0.37479694790E+03  0.22609821656E+04  0.25500000920E-02 0. -1.
</event>
<event>
 5   0  0.7638805E-07  0.3772190E+04  0.7818609E-02  0.8052149E-01
        2   -1    0    0  501    0  0.00000000000E+00  0.00000000000E+00  0.13025841717E+04  0.13025841717E+04  0.25500000920E-02 0. -1.
       -2   -1    0    0    0  501  0.00000000000E+00  0.00000000000E+00 -0.27309977796E+04  0.27309977796E+04  0.25500000920E-02 0.  1.
    10030    2    1    2    0    0  0.00000000000E+00  0.00000000000E+00 -0.14284136079E+04  0.40335819513E+04  0.37721900698E+04 0.  0.
        5    1    3    3  502    0  0.12124920756E+04 -0.11326891328E+04 -0.16731264960E+04  0.23563734990E+04  0.46999998093E+01 0.  1.
       -5    1    3    3    0  502 -0.12124920756E+04  0.11326891328E+04  0.24471288809E+03  0.16772084523E+04  0.46999998093E+01 0. -1.
</event>
<event>
 5   0  0.8038352E-07  0.3760203E+04  0.7818609E-02  0.8054750E-01
        2   -1    0    0  501    0  0.00000000000E+00  0.00000000000E+00  0.25187189101E+04  0.25187189101E+04  0.25500000920E-02 0. -1.
       -2   -1    0    0    0  501  0.00000000000E+00  0.00000000000E+00 -0.14034042987E+04  0.14034042987E+04  0.25500000920E-02 0.  1.
    10030    2    1    2    0    0  0.00000000000E+00  0.00000000000E+00  0.11153146115E+04  0.39221232088E+04  0.37602026252E+04 0.  0.
        2    1    3    3  502    0 -0.29802487673E+02  0.12438334682E+03  0.25141756290E+04  0.25174269599E+04  0.25500000920E-02 0. -1.
       -2    1    3    3    0  502  0.29802487673E+02 -0.12438334682E+03 -0.13988610175E+04  0.14046962489E+04  0.25500000920E-02 0.  1.
</event>
<event>
 5   0  0.2529875E-07  0.3845482E+04  0.7818609E-02  0.8036464E-01
       -1   -1    0    0    0  501  0.00000000000E+00  0.00000000000E+00  0.17457817536E+04  0.17457817536E+04  0.50400001928E-02 0. -1.
        1   -1    0    0  501    0  0.00000000000E+00  0.00000000000E+00 -0.21176379781E+04  0.21176379781E+04  0.50400001928E-02 0.  1.
    10030    2    1    2    0    0  0.00000000000E+00  0.00000000000E+00 -0.37185622448E+03  0.38634197317E+04  0.38454824108E+04 0.  0.
        3    1    3    3  502    0 -0.78575679155E+03  0.13205335662E+04 -0.13470487158E+04  0.20434683477E+04  0.10100000352E+00 0.  1.
       -3    1    3    3    0  502  0.78575679155E+03 -0.13205335662E+04  0.97519249137E+03  0.18199513840E+04  0.10100000352E+00 0. -1.
</event>
<event>
 5   0  0.7551495E-07  0.3659223E+04  0.7818609E-02  0.8077059E-01
       -2   -1    0    0    0  501  0.00000000000E+00  0.00000000000E+00  0.18095633339E+04  0.18095633339E+04  0.25500000920E-02 0.  1.
        2   -1    0    0  501    0  0.00000000000E+00  0.00000000000E+00 -0.18498813612E+04  0.18498813613E+04  0.25500000920E-02 0. -1.
    10030    2    1    2    0    0  0.00000000000E+00  0.00000000000E+00 -0.40318027377E+02  0.36594446951E+04  0.36592225859E+04 0.  0.
        1    1    3    3  502    0  0.16890538965E+04  0.44682278784E+03 -0.56326086253E+03  0.18357059863E+04  0.50400001928E-02 0. -1.
       -1    1    3    3    0  502 -0.16890538965E+04 -0.44682278784E+03  0.52294283515E+03  0.18237387088E+04  0.50400001928E-02 0.  1.
</event>
<event>
 5   0  0.2529875E-07  0.2594290E+04  0.7818609E-02  0.8370143E-01
        1   -1    0    0  501    0  0.00000000000E+00  0.00000000000E+00  0.19537015744E+04  0.19537015744E+04  0.50400001928E-02 0. -1.
       -1   -1    0    0    0  501  0.00000000000E+00  0.00000000000E+00 -0.86122913326E+03  0.86122913328E+03  0.50400001928E-02 0.  1.
    10030    2    1    2    0    0  0.00000000000E+00  0.00000000000E+00  0.10924724411E+04  0.28149307076E+04  0.25942896628E+04 0.  0.
        4    1    3    3  502    0 -0.12716038181E+04 -0.17103641196E+03  0.33935473830E+03  0.13271748098E+04  0.12699999809E+01 0.  1.
       -4    1    3    3    0  502  0.12716038181E+04  0.17103641196E+03  0.75311770279E+03  0.14877558979E+04  0.12699999809E+01 0. -1.
</event>
<event>
 5   0  0.2529875E-07  0.3798602E+04  0.7818609E-02  0.8046455E-01
        1   -1    0    0  501    0  0.00000000000E+00  0.00000000000E+00  0.23316805783E+04  0.23316805783E+04  0.50400001928E-02 0.  1.
       -1   -1    0    0    0  501  0.00000000000E+00  0.00000000000E+00 -0.15471008807E+04  0.15471008807E+04  0.50400001928E-02 0. -1.
    10030    2    1    2    0    0  0.00000000000E+00  0.00000000000E+00  0.78457969756E+03  0.38787814590E+04  0.37986024147E+04 0.  0.
        4    1    3    3  502    0 -0.92418633582E+02  0.13095844774E+03 -0.15401819868E+04  0.15485003985E+04  0.12699999809E+01 0. -1.
       -4    1    3    3    0  502  0.92418633582E+02 -0.13095844774E+03  0.23247616843E+04  0.23302810605E+04  0.12699999809E+01 0.  1.
</event>
<event>
 5   0  0.8421677E-07  0.2580206E+04  0.7818609E-02  0.8374956E-01
       -2   -1    0    0    0  501  0.00000000000E+00  0.00000000000E+00  0.12656039992E+04  0.12656039992E+04  0.25500000920E-02 0. -1.
        2   -1    0    0  501    0  0.00000000000E+00  0.00000000000E+00 -0.13150767409E+04  0.13150767409E+04  0.25500000920E-02 0.  1.
    10030    2    1    2    0    0  0.00000000000E+00  0.00000000000E+00 -0.49472741637E+02  0.25806807401E+04  0.25802064898E+04 0.  0.
        3    1    3    3  502    0 -0.96073474125E+03  0.17617392241E+03  0.81822212150E+03  0.12741804991E+04  0.10100000352E+00 0.  1.
       -3    1    3    3    0  502  0.96073474125E+03 -0.17617392241E+03 -0.86769486314E+03  0.13065002410E+04  0.10100000352E+00 0. -1.
</event>
<event>
 5   0  0.7638805E-07  0.3885675E+04  0.7818609E-02  0.8028015E-01
        2   -1    0    0  501    0  0.00000000000E+00  0.00000000000E+00  0.18258518840E+04  0.18258518840E+04  0.25500000920E-02 0. -1.
       -2   -1    0    0    0  501  0.00000000000E+00  0.00000000000E+00 -0.20673186944E+04  0.20673186944E+04  0.25500000920E-02 0.  1.
    10030    2    1    2    0    0  0.00000000000E+00  0.00000000000E+00 -0.24146681042E+03  0.38931705784E+04  0.38856750935E+04 0.  0.
        5    1    3    3  502    0  0.18752096769E+04 -0.25860885181E+03  0.31749546609E+03  0.19194049421E+04  0.46999998093E+01 0.  1.
       -5    1    3    3    0  502 -0.18752096769E+04  0.25860885181E+03 -0.55896227651E+03  0.19737656364E+04  0.46999998093E+01 0. -1.
</event>
<event>
 5   0  0.7638805E-07  0.3903669E+04  0.7818609E-02  0.8024266E-01
       -2   -1    0    0    0  501  0.00000000000E+00  0.00000000000E+00  0.16331255604E+04  0.16331255604E+04  0.25500000920E-02 0.  1.
        2   -1    0    0  501    0  0.00000000000E+00  0.00000000000E+00 -0.23327407126E+04  0.23327407126E+04  0.25500000920E-02 0. -1.
    10030    2    1    2    0    0  0.00000000000E+00  0.00000000000E+00 -0.69961515220E+03  0.39658662731E+04  0.39036692911E+04 0.  0.
        5    1    3    3  502    0 -0.13540408409E+04  0.13131565018E+04  0.16001446220E+03  0.18929958572E+04  0.46999998093E+01 0.  1.
       -5    1    3    3    0  502  0.13540408409E+04 -0.13131565018E+04 -0.85962961440E+03  0.20728704159E+04  0.46999998093E+01 0. -1.
</event>
<event>
 5   0  0.7551495E-07  0.2764710E+04  0.7818609E-02  0.8314309E-01
       -2   -1    0    0    0  501  0.00000000000E+00  0.00000000000E+00  0.77384917152E+03  0.77384917153E+03  0.25500000920E-02 0.  1.
        2   -1    0    0  501    0  0.00000000000E+00  0.00000000000E+00 -0.24693512538E+04  0.24693512538E+04  0.25500000920E-02 0. -1.
    10030    2    1    2    0    0  0.00000000000E+00  0.00000000000E+00 -0.16955020822E+04  0.32432004253E+04  0.27647100549E+04 0.  0.
        1    1    3    3  502    0 -0.64743924863E+03  0.10304832722E+04 -0.16168347330E+04  0.20236669461E+04  0.50400001928E-02 0. -1.
       -1    1    3    3    0  502  0.64743924863E+03 -0.10304832722E+04 -0.78667349233E+02  0.12195334792E+04  0.50400001928E-02 0.  1.
</event>
<event>
 5   0  0.2529875E-07  0.3848648E+04  0.7818609E-02  0.8035795E-01
        1   -1    0    0  501    0  0.00000000000E+00  0.00000000000E+00  0.18787112526E+04  0.18787112526E+04  0.50400001928E-02 0.  1.
       -1   -1    0    0    0  501  0.00000000000E+00  0.00000000000E+00 -0.19710439445E+04  0.19710439445E+04  0.50400001928E-02 0. -1.
    10030    2    1    2    0    0  0.00000000000E+00  0.00000000000E+00 -0.92332691956E+02  0.38497551971E+04  0.38486477823E+04 0.  0.
        4    1    3    3  502    0 -0.13998649817E+04  0.12659664595E+04 -0.42141130513E+03  0.19338774896E+04  0.12699999809E+01 0.  1.
       -4    1    3    3    0  502  0.13998649817E+04 -0.12659664595E+04  0.32907861317E+03  0.19158777075E+04  0.12699999809E+01 0. -1.
</event>
<event>
 5   0  0.2529875E-07  0.3764324E+04  0.7818609E-02  0.8053854E-01
       -3   -1    0    0    0  501  0.00000000000E+00  0.00000000000E+00  0.24107015790E+04  0.24107015812E+04  0.10100000352E+00 0.  1.
        3   -1    0    0  501    0  0.00000000000E+00  0.00000000000E+00 -0.14695036300E+04  0.14695036335E+04  0.10100000352E+00 0. -1.
    10030    2    1    2    0    0  0.00000000000E+00  0.00000000000E+00  0.94119794903E+03  0.38802052146E+04  0.37643244983E+04 0.  0.
        1    1    3    3  502    0 -0.13901362992E+04 -0.58555217354E+03  0.16309451067E+04  0.22215607621E+04  0.50400001928E-02 0.  1.
       -1    1    3    3    0  502  0.13901362992E+04  0.58555217354E+03 -0.68974715770E+03  0.16586444526E+04  0.50400001928E-02 0. -1.
</event>
<event>
 5   0  0.7638805E-07  0.3208617E+04  0.7818609E-02  0.8186545E-01
        2   -1    0    0  501    0  0.00000000000E+00  0.00000000000E+00  0.23503959653E+04  0.23503959653E+04  0.25500000920E-02 0.  1.
       -2   -1    0    0    0  501  0.00000000000E+00  0.00000000000E+00 -0.10950518234E+04  0.10950518234E+04  0.25500000920E-02 0. -1.
    10030    2    1    2    0    0  0.00000000000E+00  0.00000000000E+00  0.12553441419E+04  0.34454477887E+04  0.32086167658E+04 0.  0.
        5    1    3    3  502    0 -0.66818870397E+03  0.13856291894E+04  0.13871782390E+03  0.15445740899E+04  0.46999998093E+01 0. -1.
       -5    1    3    3    0  502  0.66818870397E+03 -0.13856291894E+04  0.11166263180E+04  0.19008736988E+04  0.46999998093E+01 0.  1.
</event>
<event>
 5   0  0.8038352E-07  0.3319358E+04  0.7818609E-02  0.8157987E-01
       -2   -1    0    0    0  501  0.00000000000E+00  0.00000000000E+00  0.15092251227E+04  0.15092251227E+04  0.25500000920E-02 0. -1.
        2   -1    0    0  501    0  0.00000000000E+00  0.00000000000E+00 -0.18251320633E+04  0.18251320633E+04  0.25500000920E-02 0.  1.
    10030    2    1    2    0    0  0.00000000000E+00  0.00000000000E+00 -0.31590694059E+03  0.33343571860E+04  0.33193584694E+04 0.  0.
        2    1    3    3  502    0 -0.53176625571E+03  0.15542840153E+04  0.79676241500E+02  0.16446648456E+04  0.25500000920E-02 0.  1.
       -2    1    3    3    0  502  0.53176625571E+03 -0.15542840153E+04 -0.39558318209E+03  0.16896923403E+04  0.25500000920E-02 0. -1.
</event>
<event>
 5   0  0.8421677E-07  0.3512727E+04  0.7818609E-02  0.8110780E-01
       -2   -1    0    0    0  501  0.00000000000E+00  0.00000000000E+00  0.10426374587E+04  0.10426374587E+04  0.25500000920E-02 0. -1.
        2   -1    0    0  501    0  0.00000000000E+00  0.00000000000E+00 -0.29586636126E+04  0.29586636126E+04  0.25500000920E-02 0.  1.
    10030    2    1    2    0    0  0.00000000000E+00  0.00000000000E+00 -0.19160261539E+04  0.40013010712E+04  0.35127274361E+04 0.  0.
        3    1    3    3  502    0 -0.21840075048E+03  0.15674392895E+04 -0.18257016145E+04  0.24161438718E+04  0.10100000352E+00 0.  1.
       -3    1    3    3    0  502  0.21840075048E+03 -0.15674392895E+04 -0.90324539412E+02  0.15851571994E+04  0.10100000352E+00 0. -1.
</event>
<event>
 5   0  0.2529875E-07  0.3783785E+04  0.7818609E-02  0.8049644E-01
        1   -1    0    0  501    0  0.00000000000E+00  0.00000000000E+00  0.12478203664E+04  0.12478203664E+04  0.50400001928E-02 0. -1.
       -1   -1    0    0    0  501  0.00000000000E+00  0.00000000000E+00 -0.28684076272E+04  0.28684076272E+04  0.50400001928E-02 0.  1.
    10030    2    1    2    0    0  0.00000000000E+00  0.00000000000E+00 -0.16205872607E+04  0.41162279936E+04  0.37837851189E+04 0.  0.
        1    1    3    3  502    0  0.90907991368E+02  0.13305599785E+04 -0.22700553895E+04  0.26328322374E+04  0.50400001928E-02 0.  1.
       -1    1    3    3    0  502 -0.90907991368E+02 -0.13305599785E+04  0.64946812875E+03  0.14833957562E+04  0.50400001928E-02 0. -1.
</event>
<event>
 5   0  0.8421677E-07  0.3746688E+04  0.7818609E-02  0.8057693E-01
       -2   -1    0    0    0  501  0.00000000000E+00  0.00000000000E+00  0.20181133264E+04  0.20181133264E+04  0.25500000920E-02 0. -1.
        2   -1    0    0  501    0  0.00000000000E+00  0.00000000000E+00 -0.17389600973E+04  0.17389600973E+04  0.25500000920E-02 0.  1.
    10030    2    1    2    0    0  0.00000000000E+00  0.00000000000E+00  0.27915322909E+03  0.37570734237E+04  0.37466884292E+04 0.  0.
        3    1    3    3  502    0 -0.15416935498E+04  0.55475372453E+03  0.10503053172E+04  0.19462045026E+04  0.10100000352E+00 0. -1.
       -3    1    3    3    0  502  0.15416935498E+04 -0.55475372453E+03 -0.77115208815E+03  0.18108689211E+04  0.10100000352E+00 0.  1.
</event>
<event>
 5   0  0.7638805E-07  0.3700780E+04  0.7818609E-02  0.8067789E-01
       -2   -1    0    0    0  501  0.00000000000E+00  0.00000000000E+00  0.13725717328E+04  0.13725717328E+04  0.25500000920E-02 0. -1.
        2   -1    0    0  501    0  0.00000000000E+00  0.00000000000E+00 -0.24945453419E+04  0.24945453419E+04  0.25500000920E-02 0.  1.
    10030    2    1    2    0    0  0.00000000000E+00  0.00000000000E+00 -0.11219736091E+04  0.38671170747E+04  0.37007796057E+04 0.  0.
        5    1    3    3  502    0 -0.16279025169E+04  0.21482784544E+02 -0.14799412798E+04  0.22001764466E+04  0.46999998093E+01 0.  1.
       -5    1    3    3    0  502  0.16279025169E+04 -0.21482784544E+02  0.35796767066E+03  0.16669406282E+04  0.46999998093E+01 0. -1.
</event>
<event>
 5   0  0.2529875E-07  0.3825195E+04  0.7818609E-02  0.8040770E-01
       -1   -1    0    0    0  501  0.00000000000E+00  0.00000000000E+00  0.24990914298E+04  0.24990914298E+04  0.50400001928E-02 0. -1.
        1   -1    0    0  501    0  0.00000000000E+00  0.00000000000E+00 -0.14637434205E+04  0.14637434205E+04  0.50400001928E-02 0.  1.
    10030    2    1    2    0    0  0.00000000000E+00  0.00000000000E+00  0.10353480093E+04  0.39628348503E+04  0.38251947075E+04 0.  0.
        1    1    3    3  502    0 -0.91765131406E+03 -0.70125940199E+03 -0.10617084277E+04  0.15687808861E+04  0.50400001928E-02 0.  1.
       -1    1    3    3    0  502  0.91765131406E+03  0.70125940199E+03  0.20970564371E+04  0.23940539642E+04  0.50400001928E-02 0. -1.
</event>
<event>
 5   0  0.2907071E-07  0.3369394E+04  0.7818609E-02  0.8145459E-01
        1   -1    0    0  501    0  0.00000000000E+00  0.00000000000E+00  0.14344036714E+04  0.14344036714E+04  0.50400001928E-02 0.  1.
       -1   -1    0    0    0  501  0.00000000000E+00  0.00000000000E+00 -0.19786650721E+04  0.19786650721E+04  0.50400001928E-02 0. -1.
    10030    2    1    2    0    0  0.00000000000E+00  0.00000000000E+00 -0.54426140071E+03  0.34130687435E+04  0.33693942743E+04 0.  0.
        2    1    3    3  502    0  0.55229267619E+03 -0.15914327801E+04 -0.24905493795E+03  0.17028546197E+04  0.25500000920E-02 0.  1.
       -2    1    3    3    0  502 -0.55229267619E+03  0.15914327801E+04 -0.29520646276E+03  0.17102141238E+04  0.25500000920E-02 0. -1.
</event>
<event>
 5   0  0.7649458E-07  0.3858566E+04  0.7818609E-02  0.8033702E-01
       -2   -1    0    0    0  501  0.00000000000E+00  0.00000000000E+00  0.32176342219E+04  0.32176342219E+04  0.25500000920E-02 0. -1.
        2   -1    0    0  501    0  0.00000000000E+00  0.00000000000E+00 -0.11567919382E+04  0.11567919382E+04  0.25500000920E-02 0.  1.
    10030    2    1    2    0    0  0.00000000000E+00  0.00000000000E+00  0.20608422837E+04  0.43744261600E+04  0.38585662248E+04 0.  0.
        4    1    3    3  502    0  0.15030728306E+03  0.44839797269E+03  0.31509039134E+04  0.31861968090E+04  0.12699999809E+01 0. -1.
       -4    1    3    3    0  502 -0.15030728306E+03 -0.44839797269E+03 -0.10900616297E+04  0.11882293510E+04  0.12699999809E+01 0.  1.
</event>
<event>
 5   0  0.7649458E-07  0.3824109E+04  0.7818609E-02  0.8041001E-01
        2   -1    0    0  501    0  0.00000000000E+00  0.00000000000E+00  0.18036923339E+04  0.18036923339E+04  0.25500000920E-02 0. -1.
       -2   -1    0    0    0  501  0.00000000000E+00  0.00000000000E+00 -0.20269272965E+04  0.20269272965E+04  0.25500000920E-02 0.  1.
    10030    2    1    2    0    0  0.00000000000E+00  0.00000000000E+00 -0.22323496256E+03  0.38306196304E+04  0.38241094262E+04 0.  0.
        4    1    3    3  502    0  0.33539716312E+03 -0.14235803310E+04  0.11220958146E+04  0.18434133681E+04  0.12699999809E+01 0. -1.
       -4    1    3    3    0  502 -0.33539716312E+03  0.14235803310E+04 -0.13453307771E+04  0.19872062622E+04  0.12699999809E+01 0.  1.
</event>
<event>
 5   0  0.8038352E-07  0.3807191E+04  0.7818609E-02  0.8044613E-01
       -2   -1    0    0    0  501  0.00000000000E+00  0.00000000000E+00  0.30010431342E+04  0.30010431342E+04  0.25500000920E-02 0. -1.
        2   -1    0    0  501    0  0.00000000000E+00  0.00000000000E+00 -0.12074720331E+04  0.12074720331E+04  0.25500000920E-02 0.  1.
    10030    2    1    2    0    0  0.00000000000E+00  0.00000000000E+00  0.17935711011E+04  0.42085151672E+04  0.38071909091E+04 0.  0.
        2    1    3    3  502    0  0.72553948504E+03  0.17534383814E+04  0.10634131998E+04  0.21752704051E+04  0.25500000920E-02 0. -1.
       -2    1    3    3    0  502 -0.72553948504E+03 -0.17534383814E+04  0.73015790126E+03  0.20332447621E+04  0.25500000920E-02 0.  1.
</event>
<event>
 5   0  0.7551495E-07  0.2368189E+04  0.7818609E-02  0.8451510E-01
        2   -1    0    0  501    0  0.00000000000E+00  0.00000000000E+00  0.16194948974E+04  0.16194948974E+04  0.25500000920E-02 0. -1.
       -2   -1    0    0    0  501  0.00000000000E+00  0.00000000000E+00 -0.86575107599E+03  0.86575107599E+03  0.25500000920E-02 0.  1.
    10030    2    1    2    0    0  0.00000000000E+00  0.00000000000E+00  0.75374382143E+03  0.24852459734E+04  0.23681887172E+04 0.  0.
        1    1    3    3  502    0  0.84554423181E+03 -0.68543816093E+03  0.86607800367E+03  0.13909930370E+04  0.50400001928E-02 0. -1.
       -1    1    3    3    0  502 -0.84554423181E+03  0.68543816093E+03 -0.11233418224E+03  0.10942529365E+04  0.50400001928E-02 0.  1.
</event>
<event>
 5   0  0.7649458E-07  0.3761544E+04  0.7818609E-02  0.8054458E-01
        2   -1    0    0  501    0  0.00000000000E+00  0.00000000000E+00  0.19869551829E+04  0.19869551829E+04  0.25500000920E-02 0.  1.
       -2   -1    0    0    0  501  0.00000000000E+00  0.00000000000E+00 -0.17802636432E+04  0.17802636432E+04  0.25500000920E-02 0. -1.
    10030    2    1    2    0    0  0.00000000000E+00  0.00000000000E+00  0.20669153971E+03  0.37672188261E+04  0.37615444024E+04 0.  0.
        4    1    3    3  502    0  0.15103200052E+04 -0.85177884335E+03 -0.62625078833E+03  0.18435795016E+04  0.12699999809E+01 0.  1.
       -4    1    3    3    0  502 -0.15103200052E+04  0.85177884335E+03  0.83294232805E+03  0.19236393245E+04  0.12699999809E+01 0. -1.
</event>
<event>
 5   0  0.8421677E-07  0.3297292E+04  0.7818609E-02  0.8163585E-01
       -2   -1    0    0    0  501  0.00000000000E+00  0.00000000000E+00  0.10591748084E+04  0.10591748084E+04  0.25500000920E-02 0. -1.
        2   -1    0    0  501    0  0.00000000000E+00  0.00000000000E+00 -0.25661809453E+04  0.25661809453E+04  0.25500000920E-02 0.  1.
    10030    2    1    2    0    0  0.00000000000E+00  0.00000000000E+00 -0.15070061369E+04  0.36253557537E+04  0.32972923504E+04 0.  0.
        3    1    3    3  502    0  0.12399939309E+04  0.48675691942E+03 -0.18214951411E+04  0.22566262000E+04  0.10100000352E+00 0.  1.
       -3    1    3    3    0  502 -0.12399939309E+04 -0.48675691942E+03  0.31448900412E+03  0.13687295537E+04  0.10100000352E+00 0. -1.
</event>
<event>
 5   0  0.2529875E-07  0.3780871E+04  0.7818609E-02  0.8050272E-01
       -1   -1    0    0    0  501  0.00000000000E+00  0.00000000000E+00  0.15621419218E+04  0.15621419218E+04  0.50400001928E-02 0.  1.
        1   -1    0    0  501    0  0.00000000000E+00  0.00000000000E+00 -0.22877223090E+04  0.22877223090E+04  0.50400001928E-02 0. -1.
    10030    2    1    2    0    0  0.00000000000E+00  0.00000000000E+00 -0.72558038724E+03  0.38498642308E+04  0.37808712881E+04 0.  0.
        3    1    3    3  502    0 -0.14405498177E+04  0.47336886254E+03 -0.15123217423E+04  0.21415832741E+04  0.10100000352E+00 0. -1.
       -3    1    3    3    0  502  0.14405498177E+04 -0.47336886254E+03  0.78674135511E+03  0.17082809568E+04  0.10100000352E+00 0.  1.
</event>
<event>
 5   0  0.2529875E-07  0.3833820E+04  0.7818609E-02  0.8038936E-01
       -1   -1    0    0    0  501  0.00000000000E+00  0.00000000000E+00  0.28116935011E+04  0.28116935011E+04  0.50400001928E-02 0. -1.
        1   -1    0    0  501    0  0.00000000000E+00  0.00000000000E+00 -0.13068789425E+04  0.13068789425E+04  0.50400001928E-02 0.  1.
    10030    2    1    2    0    0  0.00000000000E+00  0.00000000000E+00  0.15048145586E+04  0.41185724436E+04  0.38338195207E+04 0.  0.
        3    1    3    3  502    0  0.12130287600E+04  0.14597877257E+04  0.10409134294E+04  0.21646985366E+04  0.10100000352E+00 0.  1.
       -3    1    3    3    0  502 -0.12130287600E+04 -0.14597877257E+04  0.46390112922E+03  0.19538739070E+04  0.10100000352E+00 0. -1.
</event>
<event>
 5   0  0.2529875E-07  0.3679084E+04  0.7818609E-02  0.8072613E-01
       -1   -1    0    0    0  501  0.00000000000E+00  0.00000000000E+00  0.14723846039E+04  0.14723846039E+04  0.50400001928E-02 0.  1.
        1   -1    0    0  501    0  0.00000000000E+00  0.00000000000E+00 -0.22982541157E+04  0.22982541157E+04  0.50400001928E-02 0. -1.
    10030    2    1    2    0    0  0.00000000000E+00  0.00000000000E+00 -0.82586951180E+03  0.37706387197E+04  0.36790835684E+04 0.  0.
        4    1    3    3  502    0 -0.63129898532E+03  0.15825208108E+04 -0.11237367506E+04  0.20410037783E+04  0.12699999809E+01 0. -1.
       -4    1    3    3    0  502  0.63129898532E+03 -0.15825208108E+04  0.29786723880E+03  0.17296349414E+04  0.12699999809E+01 0.  1.
</event>
<event>
 5   0  0.2529875E-07  0.3150643E+04  0.7818609E-02  0.8201975E-01
       -1   -1    0    0    0  501  0.00000000000E+00  0.00000000000E+00  0.16446555933E+04  0.16446555933E+04  0.50400001928E-02 0. -1.
        1   -1    0    0  501    0  0.00000000000E+00  0.00000000000E+00 -0.15089101796E+04  0.15089101796E+04  0.50400001928E-02 0.  1.
    10030    2    1    2    0    0  0.00000000000E+00  0.00000000000E+00  0.13574541367E+03  0.31535657729E+04  0.31506428338E+04 0.  0.
        1    1    3    3  502    0 -0.73145466030E+02 -0.12475106801E+04 -0.89218574426E+03  0.15354571171E+04  0.50400001928E-02 0.  1.
       -1    1    3    3    0  502  0.73145466030E+02  0.12475106801E+04  0.10279311579E+04  0.16181086557E+04  0.50400001928E-02 0. -1.
</event>
<event>
 5   0  0.7551495E-07  0.3294900E+04  0.7818609E-02  0.8164194E-01
       -2   -1    0    0    0  501  0.00000000000E+00  0.00000000000E+00  0.15415021295E+04  0.15415021295E+04  0.25500000920E-02 0. -1.
        2   -1    0    0  501    0  0.00000000000E+00  0.00000000000E+00 -0.17606795834E+04  0.17606795834E+04  0.25500000920E-02 0.  1.
    10030    2    1    2    0    0  0.00000000000E+00  0.00000000000E+00 -0.21917745391E+03  0.33021817129E+04  0.32948998936E+04 0.  0.
        1    1    3    3  502    0  0.34565435561E+02 -0.14096264920E+04  0.74426228557E+03  0.15944177514E+04  0.50400001928E-02 0. -1.
       -1    1    3    3    0  502 -0.34565435561E+02  0.14096264920E+04 -0.96343973948E+03  0.17077639614E+04  0.50400001928E-02 0.  1.
</event>
<event>
 5   0  0.7649458E-07  0.3337762E+04  0.7818609E-02  0.8153353E-01
        2   -1    0    0  501    0  0.00000000000E+00  0.00000000000E+00  0.27148103924E+04  0.27148103924E+04  0.25500000920E-02 0. -1.
       -2   -1    0    0    0  501  0.00000000000E+00  0.00000000000E+00 -0.10259146088E+04  0.10259146088E+04  0.25500000920E-02 0.  1.
    10030    2    1    2    0    0  0.00000000000E+00  0.00000000000E+00  0.16888957836E+04  0.37407250012E+04  0.33377619098E+04 0.  0.
        4    1    3    3  502    0  0.67094731839E+03  0.25568017036E+03 -0.84395832735E+03  0.11080658486E+04  0.12699999809E+01 0.  1.
       -4    1    3    3    0  502 -0.67094731839E+03 -0.25568017036E+03  0.25328541109E+04  0.26326591526E+04  0.12699999809E+01 0. -1.
</event>
<event>
 5   0  0.8038352E-07  0.3870751E+04  0.7818609E-02  0.8031140E-01
       -2   -1    0    0    0  501  0.00000000000E+00  0.00000000000E+00  0.24119286763E+04  0.24119286763E+04  0.25500000920E-02 0.  1.
        2   -1    0    0  501    0  0.00000000000E+00  0.00000000000E+00 -0.15529808940E+04  0.15529808940E+04  0.25500000920E-02 0. -1.
    10030    2    1    2    0    0  0.00000000000E+00  0.00000000000E+00  0.85894778225E+03  0.39649095703E+04  0.38707514268E+04 0.  0.
        2    1    3    3  502    0 -0.16332959070E+03  0.18042746485E+04  0.11269151762E+04  0.21335466662E+04  0.25500000920E-02 0.  1.
       -2    1    3    3    0  502  0.16332959070E+03 -0.18042746485E+04 -0.26796739397E+03  0.18313629041E+04  0.25500000920E-02 0. -1.
</event>
<event>
 5   0  0.2529875E-07  0.2989925E+04  0.7818609E-02  0.8246614E-01
        3   -1    0    0  501    0  0.00000000000E+00  0.00000000000E+00  0.82041225958E+03  0.82041226579E+03  0.10100000352E+00 0.  1.
       -3   -1    0    0    0  501  0.00000000000E+00  0.00000000000E+00 -0.27241331407E+04  0.27241331426E+04  0.10100000352E+00 0. -1.
    10030    2    1    2    0    0  0.00000000000E+00  0.00000000000E+00 -0.19037208812E+04  0.35445454084E+04  0.29899245741E+04 0.  0.
        2    1    3    3  502    0 -0.72948562429E+03 -0.38846221387E+03 -0.24286771290E+04  0.25654482581E+04  0.25500000920E-02 0. -1.
       -2    1    3    3    0  502  0.72948562429E+03  0.38846221387E+03  0.52495624786E+03  0.97909715036E+03  0.25500000920E-02 0.  1.
</event>
<event>
 5   0  0.2561198E-07  0.2383462E+04  0.7818609E-02  0.8445721E-01
        1   -1    0    0  501    0  0.00000000000E+00  0.00000000000E+00  0.93689440645E+03  0.93689440646E+03  0.50400001928E-02 0.  1.
       -1   -1    0    0    0  501  0.00000000000E+00  0.00000000000E+00 -0.15158837606E+04  0.15158837606E+04  0.50400001928E-02 0. -1.
    10030    2    1    2    0    0  0.00000000000E+00  0.00000000000E+00 -0.57898935412E+03  0.24527781670E+04  0.23834622012E+04 0.  0.
        3    1    3    3  502    0 -0.29883732679E+03 -0.81675693952E+03  0.54895611010E+03  0.10284689918E+04  0.10100000352E+00 0.  1.
       -3    1    3    3    0  502  0.29883732679E+03  0.81675693952E+03 -0.11279454642E+04  0.14243091752E+04  0.10100000352E+00 0. -1.
</event>
<event>
 5   0  0.7551495E-07  0.3757500E+04  0.7818609E-02  0.8055337E-01
       -2   -1    0    0    0  501  0.00000000000E+00  0.00000000000E+00  0.27166474640E+04  0.27166474640E+04  0.25500000920E-02 0. -1.
        2   -1    0    0  501    0  0.00000000000E+00  0.00000000000E+00 -0.12992861053E+04  0.12992861053E+04  0.25500000920E-02 0.  1.
    10030    2    1    2    0    0  0.00000000000E+00  0.00000000000E+00  0.14173613587E+04  0.40159335693E+04  0.37575003941E+04 0.  0.
        1    1    3    3  502    0 -0.15573007997E+04  0.28333462162E+03  0.17903336084E+04  0.23897193806E+04  0.50400001928E-02 0. -1.
       -1    1    3    3    0  502  0.15573007997E+04 -0.28333462162E+03 -0.37297224971E+03  0.16262141887E+04  0.50400001928E-02 0.  1.
</event>
<event>
 5   0  0.2529875E-07  0.3851520E+04  0.7818609E-02  0.8035188E-01
        1   -1    0    0  501    0  0.00000000000E+00  0.00000000000E+00  0.17544237070E+04  0.17544237070E+04  0.50400001928E-02 0. -1.
       -1   -1    0    0    0  501  0.00000000000E+00  0.00000000000E+00 -0.21138288612E+04  0.21138288612E+04  0.50400001928E-02 0.  1.
    10030    2    1    2    0    0  0.00000000000E+00  0.00000000000E+00 -0.35940515420E+03  0.38682525683E+04  0.38515199425E+04 0.  0.
        4    1    3    3  502    0 -0.18544136121E+04  0.51873976459E+03 -0.15491609923E+03  0.19318233353E+04  0.12699999809E+01 0.  1.
       -4    1    3    3    0  502  0.18544136121E+04 -0.51873976459E+03 -0.20448905497E+03  0.19364292330E+04  0.12699999809E+01 0. -1.
</event>
<event>
 5   0  0.2529875E-07  0.3092477E+04  0.7818609E-02  0.8217806E-01
       -1   -1    0    0    0  501  0.00000000000E+00  0.00000000000E+00  0.21436292142E+04  0.21436292142E+04  0.50400001928E-02 0.  1.
        1   -1    0    0  501    0  0.00000000000E+00  0.00000000000E+00 -0.11153298040E+04  0.11153298040E+04  0.50400001928E-02 0. -1.
    10030    2    1    2    0    0  0.00000000000E+00  0.00000000000E+00  0.10282994102E+04  0.32589590182E+04  0.30924770339E+04 0.  0.
        3    1    3    3  502    0 -0.13497430738E+04 -0.39989940433E+03 -0.15991537272E+03  0.14167917403E+04  0.10100000352E+00 0. -1.
       -3    1    3    3    0  502  0.13497430738E+04  0.39989940433E+03  0.11882147829E+04  0.18421672778E+04  0.10100000352E+00 0.  1.
</event>
<event>
 5   0  0.2529875E-07  0.3915041E+04  0.7818609E-02  0.8021908E-01
       -1   -1    0    0    0  501  0.00000000000E+00  0.00000000000E+00  0.14862305418E+04  0.14862305418E+04  0.50400001928E-02 0. -1.
        1   -1    0    0  501    0  0.00000000000E+00  0.00000000000E+00 -0.25782587156E+04  0.25782587156E+04  0.50400001928E-02 0.  1.
    10030    2    1    2    0    0  0.00000000000E+00  0.00000000000E+00 -0.10920281738E+04  0.40644892574E+04  0.39150411736E+04 0.  0.
        1    1    3    3  502    0  0.17255431344E+04  0.77713517220E+03 -0.10655660680E+04  0.21718354518E+04  0.50400001928E-02 0.  1.
       -1    1    3    3    0  502 -0.17255431344E+04 -0.77713517220E+03 -0.26462105859E+02  0.18926538056E+04  0.50400001928E-02 0. -1.
</event>
<event>
 5   0  0.2529875E-07  0.3778222E+04  0.7818609E-02  0.8050845E-01
        3   -1    0    0  501    0  0.00000000000E+00  0.00000000000E+00  0.30088778978E+04  0.30088778995E+04  0.10100000352E+00 0. -1.
       -3   -1    0    0    0  501  0.00000000000E+00  0.00000000000E+00 -0.11860699996E+04  0.11860700039E+04  0.10100000352E+00 0.  1.
    10030    2    1    2    0    0  0.00000000000E+00  0.00000000000E+00  0.18228078982E+04  0.41949479033E+04  0.37782217084E+04 0.  0.
        2    1    3    3  502    0  0.15457923706E+04 -0.63099250079E+03 -0.69883869489E+02  0.16710802926E+04  0.25500000920E-02 0.  1.
       -2    1    3    3    0  502 -0.15457923706E+04  0.63099250079E+03  0.18926917677E+04  0.25238676108E+04  0.25500000920E-02 0. -1.
</event>
<event>
 5   0  0.2529875E-07  0.3774758E+04  0.7818609E-02  0.8051594E-01
       -1   -1    0    0    0  501  0.00000000000E+00  0.00000000000E+00  0.16882247731E+04  0.16882247731E+04  0.50400001928E-02 0.  1.
        1   -1    0    0  501    0  0.00000000000E+00  0.00000000000E+00 -0.21100267527E+04  0.21100267527E+04  0.50400001928E-02 0. -1.
    10030    2    1    2    0    0  0.00000000000E+00  0.00000000000E+00 -0.42180197965E+03  0.37982515258E+04  0.37747579715E+04 0.  0.
        3    1    3    3  502    0 -0.15417515174E+04 -0.91733396500E+03  0.37900720204E+03  0.18336155034E+04  0.10100000352E+00 0.  1.
       -3    1    3    3    0  502  0.15417515174E+04  0.91733396500E+03 -0.80080918169E+03  0.19646360224E+04  0.10100000352E+00 0. -1.
</event>
<event>
 5   0  0.7649458E-07  0.3390580E+04  0.7818609E-02  0.8140222E-01
        2   -1    0    0  501    0  0.00000000000E+00  0.00000000000E+00  0.20916918502E+04  0.20916918502E+04  0.25500000920E-02 0. -1.
       -2   -1    0    0    0  501  0.00000000000E+00  0.00000000000E+00 -0.13740115482E+04  0.13740115482E+04  0.25500000920E-02 0.  1.
    10030    2    1    2    0    0  0.00000000000E+00  0.00000000000E+00  0.71768030199E+03  0.34657033984E+04  0.33905803382E+04 0.  0.
        4    1    3    3  502    0 -0.13486665719E+04 -0.29669614754E+03 -0.64634921242E+03  0.15246963775E+04  0.12699999809E+01 0.  1.
       -4    1    3    3    0  502  0.13486665719E+04  0.29669614754E+03  0.13640295144E+04  0.19410070209E+04  0.12699999809E+01 0. -1.
</event>
<event>
 5   0  0.7551495E-07  0.3820535E+04  0.7818609E-02  0.8041762E-01
        2   -1    0    0  501    0  0.00000000000E+00  0.00000000000E+00  0.12395026303E+04  0.12395026303E+04  0.25500000920E-02 0.  1.
       -2   -1    0    0    0  501  0.00000000000E+00  0.00000000000E+00 -0.29440209227E+04  0.29440209227E+04  0.25500000920E-02 0. -1.
    10030    2    1    2    0    0  0.00000000000E+00  0.00000000000E+00 -0.17045182924E+04  0.41835235530E+04  0.38205348721E+04 0.  0.
        1    1    3    3  502    0 -0.98807049333E+03 -0.36500090841E+03  0.89276642997E+03  0.13807754566E+04  0.50400001928E-02 0.  1.
       -1    1    3    3    0  502  0.98807049333E+03  0.36500090841E+03 -0.25972847224E+04  0.28027480964E+04  0.50400001928E-02 0. -1.
</event>
<event>
 5   0  0.2529875E-07  0.3971426E+04  0.7818609E-02  0.8010336E-01
       -1   -1    0    0    0  501  0.00000000000E+00  0.00000000000E+00  0.20573006420E+04  0.20573006420E+04  0.50400001928E-02 0.  1.
        1   -1    0    0  501    0  0.00000000000E+00  0.00000000000E+00 -0.19166159574E+04  0.19166159574E+04  0.50400001928E-02 0. -1.
    10030    2    1    2    0    0  0.00000000000E+00  0.00000000000E+00  0.14068468462E+03  0.39739165994E+04  0.39714255575E+04 0.  0.
        4    1    3    3  502    0  0.12187498042E+04 -0.14653598164E+04 -0.48716343580E+03  0.19672214677E+04  0.12699999809E+01 0. -1.
       -4    1    3    3    0  502 -0.12187498042E+04  0.14653598164E+04  0.62784812043E+03  0.20066951318E+04  0.12699999809E+01 0.  1.
</event>
<event>
 5   0  0.7638805E-07  0.3466233E+04  0.7818609E-02  0.8121839E-01
        2   -1    0    0  501    0  0.00000000000E+00  0.00000000000E+00  0.12473293461E+04  0.12473293461E+04  0.25500000920E-02 0.  1.
       -2   -1    0    0    0  501  0.00000000000E+00  0.00000000000E+00 -0.24080985493E+04  0.24080985493E+04  0.25500000920E-02 0. -1.
    10030    2    1    2    0    0  0.00000000000E+00  0.00000000000E+00 -0.11607692032E+04  0.36554278955E+04  0.34662325306E+04 0.  0.
        5    1    3    3  502    0  0.59294084785E+03 -0.19144936474E+03  0.11251194617E+04  0.12861366963E+04  0.46999998093E+01 0.  1.
       -5    1    3    3    0  502 -0.59294084785E+03  0.19144936474E+03 -0.22858886649E+04  0.23692911992E+04  0.46999998093E+01 0. -1.
</event>
<event>
 5   0  0.2529875E-07  0.4335612E+04  0.7818609E-02  0.7940066E-01
       -1   -1    0    0    0  501  0.00000000000E+00  0.00000000000E+00  0.20563233128E+04  0.20563233128E+04  0.50400001928E-02 0. -1.
        1   -1    0    0  501    0  0.00000000000E+00  0.00000000000E+00 -0.22853331516E+04  0.22853331516E+04  0.50400001928E-02 0.  1.
    10030    2    1    2    0    0  0.00000000000E+00  0.00000000000E+00 -0.22900983875E+03  0.43416564644E+04  0.43356124537E+04 0.  0.
        4    1    3    3  502    0  0.16588818776E+04  0.13367357336E+04 -0.51585125583E+03  0.21919980923E+04  0.12699999809E+01 0.  1.
       -4    1    3    3    0  502 -0.16588818776E+04 -0.13367357336E+04  0.28684141708E+03  0.21496583721E+04  0.12699999809E+01 0. -1.
</event>
<event>
 5   0  0.2529875E-07  0.3353085E+04  0.7818609E-02  0.8149518E-01
        1   -1    0    0  501    0  0.00000000000E+00  0.00000000000E+00  0.16738516308E+04  0.16738516308E+04  0.50400001928E-02 0. -1.
       -1   -1    0    0    0  501  0.00000000000E+00  0.00000000000E+00 -0.16792377131E+04  0.16792377131E+04  0.50400001928E-02 0.  1.
    10030    2    1    2    0    0  0.00000000000E+00  0.00000000000E+00 -0.53860823285E+01  0.33530893439E+04  0.33530850180E+04 0.  0.
        1    1    3    3  502    0 -0.10153804589E+04 -0.12373332760E+04 -0.50149592249E+03  0.16773459012E+04  0.50400001928E-02 0.  1.
       -1    1    3    3    0  502  0.10153804589E+04  0.12373332760E+04  0.49610984016E+03  0.16757434427E+04  0.50400001928E-02 0. -1.
</event>
<event>
 5   0  0.2529875E-07  0.2627969E+04  0.7818609E-02  0.8358762E-01
       -1   -1    0    0    0  501  0.00000000000E+00  0.00000000000E+00  0.15858112319E+04  0.15858112319E+04  0.50400001928E-02 0.  1.
        1   -1    0    0  501    0  0.00000000000E+00  0.00000000000E+00 -0.10887520010E+04  0.10887520010E+04  0.50400001928E-02 0. -1.
    10030    2    1    2    0    0  0.00000000000E+00  0.00000000000E+00  0.49705923097E+03  0.26745632329E+04  0.26279689130E+04 0.  0.
        1    1    3    3  502    0  0.10417547056E+04  0.26817197013E+03 -0.51942590956E+03  0.11945594785E+04  0.50400001928E-02 0. -1.
       -1    1    3    3    0  502 -0.10417547056E+04 -0.26817197013E+03  0.10164851405E+04  0.14800037544E+04  0.50400001928E-02 0.  1.
</event>
<event>
 5   0  0.2529875E-07  0.3706906E+04  0.7818609E-02  0.8066433E-01
        1   -1    0    0  501    0  0.00000000000E+00  0.00000000000E+00  0.16499567423E+04  0.16499567423E+04  0.50400001928E-02 0.  1.
       -1   -1    0    0    0  501  0.00000000000E+00  0.00000000000E+00 -0.20820475577E+04  0.20820475577E+04  0.50400001928E-02 0. -1.
    10030    2    1    2    0    0  0.00000000000E+00  0.00000000000E+00 -0.43209081539E+03  0.37320043000E+04  0.37069062063E+04 0.  0.
        3    1    3    3  502    0 -0.44708182788E+03 -0.12212494567E+04  0.11134850768E+04  0.17120693394E+04  0.10100000352E+00 0.  1.
       -3    1    3    3    0  502  0.44708182788E+03  0.12212494567E+04 -0.15455758922E+04  0.20199349606E+04  0.10100000352E+00 0. -1.
</event>
<event>
 5   0  0.7638805E-07  0.3972067E+04  0.7818609E-02  0.8010205E-01
        2   -1    0    0  501    0  0.00000000000E+00  0.00000000000E+00  0.22509081889E+04  0.22509081889E+04  0.25500000920E-02 0.  1.
       -2   -1    0    0    0  501  0.00000000000E+00  0.00000000000E+00 -0.17523275314E+04  0.17523275314E+04  0.25500000920E-02 0. -1.
    10030    2    1    2    0    0  0.00000000000E+00  0.00000000000E+00  0.49858065753E+03  0.40032357203E+04  0.39720666611E+04 0.  0.
        5    1    3    3  502    0 -0.11473326854E+04  0.11348437897E+04 -0.91740467261E+03  0.18563125118E+04  0.46999998093E+01 0. -1.
       -5    1    3    3    0  502  0.11473326854E+04 -0.11348437897E+04  0.14159853301E+04  0.21469232085E+04  0.46999998093E+01 0.  1.
</event>
<event>
 5   0  0.7551495E-07  0.3802690E+04  0.7818609E-02  0.8045578E-01
        2   -1    0    0  501    0  0.00000000000E+00  0.00000000000E+00  0.25157417205E+04  0.25157417205E+04  0.25500000920E-02 0.  1.
       -2   -1    0    0    0  501  0.00000000000E+00  0.00000000000E+00 -0.14369965319E+04  0.14369965319E+04  0.25500000920E-02 0. -1.
    10030    2    1    2    0    0  0.00000000000E+00  0.00000000000E+00  0.10787451886E+04  0.39527382524E+04  0.38026896415E+04 0.  0.
        1    1    3    3  502    0  0.60304637601E+03  0.12964043021E+04 -0.76339000605E+03  0.16208310669E+04  0.50400001928E-02 0. -1.
       -1    1    3    3    0  502 -0.60304637601E+03 -0.12964043021E+04  0.18421351946E+04  0.23319071854E+04  0.50400001928E-02 0.  1.
</event>
<event>
 5   0  0.2529875E-07  0.3796905E+04  0.7818609E-02  0.8046819E-01
       -1   -1    0    0    0  501  0.00000000000E+00  0.00000000000E+00  0.13758351105E+04  0.13758351105E+04  0.50400001928E-02 0.  1.
        1   -1    0    0  501    0  0.00000000000E+00  0.00000000000E+00 -0.26195890159E+04  0.26195890159E+04  0.50400001928E-02 0. -1.
    10030    2    1    2    0    0  0.00000000000E+00  0.00000000000E+00 -0.12437539055E+04  0.39954241264E+04  0.37969053415E+04 0.  0.
        4    1    3    3  502    0  0.15348847463E+04  0.66758049775E+03 -0.15645886900E+04  0.22911731246E+04  0.12699999809E+01 0. -1.
       -4    1    3    3    0  502 -0.15348847463E+04 -0.66758049775E+03  0.32083478449E+03  0.17042510018E+04  0.12699999809E+01 0.  1.
</event>
<event>
 5   0  0.2529875E-07  0.2710266E+04  0.7818609E-02  0.8331682E-01
       -1   -1    0    0    0  501  0.00000000000E+00  0.00000000000E+00  0.13181272030E+04  0.13181272030E+04  0.50400001928E-02 0. -1.
        1   -1    0    0  501    0  0.00000000000E+00  0.00000000000E+00 -0.13931773519E+04  0.13931773519E+04  0.50400001928E-02 0.  1.
    10030    2    1    2    0    0  0.00000000000E+00  0.00000000000E+00 -0.75050148897E+02  0.27113045548E+04  0.27102656446E+04 0.  0.
        3    1    3    3  502    0 -0.97459119259E+03  0.57227174098E+03 -0.78551618653E+03  0.13763570132E+04  0.10100000352E+00 0.  1.
       -3    1    3    3    0  502  0.97459119259E+03 -0.57227174098E+03  0.71046603763E+03  0.13349475417E+04  0.10100000352E+00 0. -1.
</event>
<event>
 5   0  0.7638805E-07  0.3745453E+04  0.7818609E-02  0.8057963E-01
       -2   -1    0    0    0  501  0.00000000000E+00  0.00000000000E+00  0.32035973751E+04  0.32035973751E+04  0.25500000920E-02 0. -1.
        2   -1    0    0  501    0  0.00000000000E+00  0.00000000000E+00 -0.10947394423E+04  0.10947394423E+04  0.25500000920E-02 0.  1.
    10030    2    1    2    0    0  0.00000000000E+00  0.00000000000E+00  0.21088579327E+04  0.42983368174E+04  0.37454529252E+04 0.  0.
        5    1    3    3  502    0  0.26796046449E+03 -0.97171457500E+03  0.28657162922E+04  0.30378255354E+04  0.46999998093E+01 0. -1.
       -5    1    3    3    0  502 -0.26796046449E+03  0.97171457500E+03 -0.75685835948E+03  0.12605112820E+04  0.46999998093E+01 0.  1.
</event>
<event>
 5   0  0.2529875E-07  0.3725341E+04  0.7818609E-02  0.8062369E-01
       -1   -1    0    0    0  501  0.00000000000E+00  0.00000000000E+00  0.19502123044E+04  0.19502123044E+04  0.50400001928E-02 0.  1.
        1   -1    0    0  501    0  0.00000000000E+00  0.00000000000E+00 -0.17790583048E+04  0.17790583048E+04  0.50400001928E-02 0. -1.
    10030    2    1    2    0    0  0.00000000000E+00  0.00000000000E+00  0.17115399962E+03  0.37292706092E+04  0.37253410025E+04 0.  0.
        3    1    3    3  502    0  0.57057834243E+03 -0.73096103163E+03  0.17027307201E+04  0.19388541952E+04  0.10100000352E+00 0.  1.
       -3    1    3    3    0  502 -0.57057834243E+03  0.73096103163E+03 -0.15315767205E+04  0.17904164140E+04  0.10100000352E+00 0. -1.
</event>
<event>
 5   0  0.2529875E-07  0.2935953E+04  0.7818609E-02  0.8262260E-01
       -1   -1    0    0    0  501  0.00000000000E+00  0.00000000000E+00  0.78597481730E+03  0.78597481732E+03  0.50400001928E-02 0.  1.
        1   -1    0    0  501    0  0.00000000000E+00  0.00000000000E+00 -0.27417604010E+04  0.27417604010E+04  0.50400001928E-02 0. -1.
    10030    2    1    2    0    0  0.00000000000E+00  0.00000000000E+00 -0.19557855837E+04  0.35277352184E+04  0.29359527451E+04 0.  0.
        3    1    3    3  502    0 -0.11033629830E+04  0.57646169816E+03 -0.19126730503E+04  0.22821122166E+04  0.10100000352E+00 0. -1.
       -3    1    3    3    0  502  0.11033629830E+04 -0.57646169816E+03 -0.43112533481E+02  0.12456230018E+04  0.10100000352E+00 0.  1.
</event>
<event>
 5   0  0.7649458E-07  0.2665454E+04  0.7818609E-02  0.8346302E-01
       -2   -1    0    0    0  501  0.00000000000E+00  0.00000000000E+00  0.10422032751E+04  0.10422032751E+04  0.25500000920E-02 0. -1.
        2   -1    0    0  501    0  0.00000000000E+00  0.00000000000E+00 -0.17042365575E+04  0.17042365575E+04  0.25500000920E-02 0.  1.
    10030    2    1    2    0    0  0.00000000000E+00  0.00000000000E+00 -0.66203328243E+03  0.27464398326E+04  0.26654537488E+04 0.  0.
        4    1    3    3  502    0  0.47671613674E+03 -0.12090218014E+04 -0.63522824707E+03  0.14465505626E+04  0.12699999809E+01 0.  1.
       -4    1    3    3    0  502 -0.47671613674E+03  0.12090218014E+04 -0.26805035365E+02  0.12998892700E+04  0.12699999809E+01 0. -1.
</event>
<event>
 5   0  0.8038352E-07  0.3868834E+04  0.7818609E-02  0.8031543E-01
        2   -1    0    0  501    0  0.00000000000E+00  0.00000000000E+00  0.17967040692E+04  0.17967040692E+04  0.25500000920E-02 0.  1.
       -2   -1    0    0    0  501  0.00000000000E+00  0.00000000000E+00 -0.20826850213E+04  0.20826850213E+04  0.25500000920E-02 0. -1.
    10030    2    1    2    0    0  0.00000000000E+00  0.00000000000E+00 -0.28598095206E+03  0.38793890905E+04  0.38688337533E+04 0.  0.
        2    1    3    3  502    0  0.94254338407E+02  0.28708507892E+03  0.17728942620E+04  0.17984592815E+04  0.25500000920E-02 0.  1.
       -2    1    3    3    0  502 -0.94254338407E+02 -0.28708507892E+03 -0.20588752141E+04  0.20809298090E+04  0.25500000920E-02 0. -1.
</event>
<event>
 5   0  0.2907071E-07  0.3125831E+04  0.7818609E-02  0.8208685E-01
       -1   -1    0    0    0  501  0.00000000000E+00  0.00000000000E+00  0.10419813721E+04  0.10419813721E+04  0.50400001928E-02 0.  1.
        1   -1    0    0  501    0  0.00000000000E+00  0.00000000000E+00 -0.23442877339E+04  0.23442877339E+04  0.50400001928E-02 0. -1.
    10030    2    1    2    0    0  0.00000000000E+00  0.00000000000E+00 -0.13023063617E+04  0.33862691060E+04  0.31258305454E+04 0.  0.
        2    1    3    3  502    0 -0.12836336195E+04 -0.32755360420E+03 -0.15495221983E+04  0.20386332863E+04  0.25500000920E-02 0. -1.
       -2    1    3    3    0  502  0.12836336195E+04  0.32755360420E+03  0.24721583661E+03  0.13476358197E+04  0.25500000920E-02 0.  1.
</event>
<event>
 5   0  0.8038352E-07  0.3792832E+04  0.7818609E-02  0.8047695E-01
       -2   -1    0    0    0  501  0.00000000000E+00  0.00000000000E+00  0.13977469719E+04  0.13977469719E+04  0.25500000920E-02 0. -1.
        2   -1    0    0  501    0  0.00000000000E+00  0.00000000000E+00 -0.25729939774E+04  0.25729939775E+04  0.25500000920E-02 0.  1.
    10030    2    1    2    0    0  0.00000000000E+00  0.00000000000E+00 -0.11752470055E+04  0.39707409494E+04  0.37928324723E+04 0.  0.
        2    1    3    3  502    0 -0.18417700869E+03  0.85026193226E+03 -0.23517550778E+04  0.25075124067E+04  0.25500000920E-02 0.  1.
       -2    1    3    3    0  502  0.18417700869E+03 -0.85026193226E+03  0.11765080722E+04  0.14632285426E+04  0.25500000920E-02 0. -1.
</event>
<event>
 5   0  0.2907071E-07  0.3072864E+04  0.7818609E-02  0.8223225E-01
       -1   -1    0    0    0  501  0.00000000000E+00  0.00000000000E+00  0.13522767634E+04  0.13522767634E+04  0.50400001928E-02 0.  1.
        1   -1    0    0  501    0  0.00000000000E+00  0.00000000000E+00 -0.17456660743E+04  0.17456660743E+04  0.50400001928E-02 0. -1.
    10030    2    1    2    0    0  0.00000000000E+00  0.00000000000E+00 -0.39338931086E+03  0.30979428377E+04  0.30728642462E+04 0.  0.
        2    1    3    3  502    0 -0.11071296393E+04 -0.99125934132E+03  0.19673704840E+03  0.14990118699E+04  0.25500000920E-02 0.  1.
       -2    1    3    3    0  502  0.11071296393E+04  0.99125934132E+03 -0.59012635926E+03  0.15989309678E+04  0.25500000920E-02 0. -1.
</event>
<event>
 5   0  0.2529875E-07  0.3788277E+04  0.7818609E-02  0.8048675E-01
        1   -1    0    0  501    0  0.00000000000E+00  0.00000000000E+00  0.23880786654E+04  0.23880786654E+04  0.50400001928E-02 0. -1.
       -1   -1    0    0    0  501  0.00000000000E+00  0.00000000000E+00 -0.15023627868E+04  0.15023627868E+04  0.50400001928E-02 0.  1.
    10030    2    1    2    0    0  0.00000000000E+00  0.00000000000E+00  0.88571587864E+03  0.38904414522E+04  0.37882769269E+04 0.  0.
        1    1    3    3  502    0 -0.17526581110E+04  0.15394307225E+03  0.11633857216E+04  0.21092594106E+04  0.50400001928E-02 0. -1.
       -1    1    3    3    0  502  0.17526581110E+04 -0.15394307225E+03 -0.27766984300E+03  0.17811820416E+04  0.50400001928E-02 0.  1.
</event>
<event>
 5   0  0.8038352E-07  0.3900178E+04  0.7818609E-02  0.8024992E-01
       -2   -1    0    0    0  501  0.00000000000E+00  0.00000000000E+00  0.11537542294E+04  0.11537542294E+04  0.25500000920E-02 0. -1.
        2   -1    0    0  501    0  0.00000000000E+00  0.00000000000E+00 -0.32960640715E+04  0.32960640715E+04  0.25500000920E-02 0.  1.
    10030    2    1    2    0    0  0.00000000000E+00  0.00000000000E+00 -0.21423098422E+04  0.44498183009E+04  0.39001783871E+04 0.  0.
        2    1    3    3  502    0  0.12620765101E+04 -0.12775532981E+04 -0.19384607159E+04  0.26424627706E+04  0.25500000920E-02 0.  1.
       -2    1    3    3    0  502 -0.12620765101E+04  0.12775532981E+04 -0.20384912620E+03  0.18073555303E+04  0.25500000920E-02 0. -1.
</event>
<event>
 5   0  0.7649458E-07  0.3785521E+04  0.7818609E-02  0.8049269E-01
        2   -1    0    0  501    0  0.00000000000E+00  0.00000000000E+00  0.16195270185E+04  0.16195270185E+04  0.25500000920E-02 0.  1.
       -2   -1    0    0    0  501  0.00000000000E+00  0.00000000000E+00 -0.22120920178E+04  0.22120920178E+04  0.25500000920E-02 0. -1.
    10030    2    1    2    0    0  0.00000000000E+00  0.00000000000E+00 -0.59256499931E+03  0.38316190364E+04  0.37855212536E+04 0.  0.
        4    1    3    3  502    0  0.10071589112E+04  0.14278744811E+04  0.44013938406E+03  0.18019208907E+04  0.12699999809E+01 0. -1.
       -4    1    3    3    0  502 -0.10071589112E+04 -0.14278744811E+04 -0.10327043834E+04  0.20296981457E+04  0.12699999809E+01 0.  1.
</event>
<event>
 5   0  0.7551495E-07  0.3328088E+04  0.7818609E-02  0.8155785E-01
        2   -1    0    0  501    0  0.00000000000E+00  0.00000000000E+00  0.16210550759E+04  0.16210550759E+04  0.25500000920E-02 0.  1.
       -2   -1    0    0    0  501  0.00000000000E+00  0.00000000000E+00 -0.17081727481E+04  0.17081727481E+04  0.25500000920E-02 0. -1.
    10030    2    1    2    0    0  0.00000000000E+00  0.00000000000E+00 -0.87117672178E+02  0.33292278241E+04  0.33280878017E+04 0.  0.
        1    1    3    3  502    0 -0.31568718077E+03 -0.43353068626E+03 -0.16193555086E+04  0.17058486203E+04  0.50400001928E-02 0. -1.
       -1    1    3    3    0  502  0.31568718077E+03  0.43353068626E+03  0.15322378364E+04  0.16233792038E+04  0.50400001928E-02 0.  1.
</event>
<event>
 5   0  0.7551495E-07  0.3761939E+04  0.7818609E-02  0.8054372E-01
       -2   -1    0    0    0  501  0.00000000000E+00  0.00000000000E+00  0.13495801295E+04  0.13495801295E+04  0.25500000920E-02 0.  1.
        2   -1    0    0  501    0  0.00000000000E+00  0.00000000000E+00 -0.26215907461E+04  0.26215907461E+04  0.25500000920E-02 0. -1.
    10030    2    1    2    0    0  0.00000000000E+00  0.00000000000E+00 -0.12720106166E+04  0.39711708757E+04  0.37619392758E+04 0.  0.
        1    1    3    3  502    0 -0.64718856568E+03  0.17414615826E+04 -0.94648138413E+03  0.20850344107E+04  0.50400001928E-02 0.  1.
       -1    1    3    3    0  502  0.64718856568E+03 -0.17414615826E+04 -0.32552923248E+03  0.18861364650E+04  0.50400001928E-02 0. -1.
</event>
<event>
 5   0  0.2907071E-07  0.3758528E+04  0.7818609E-02  0.8055114E-01
        1   -1    0    0  501    0  0.00000000000E+00  0.00000000000E+00  0.12689747218E+04  0.12689747218E+04  0.50400001928E-02 0. -1.
       -1   -1    0    0    0  501  0.00000000000E+00  0.00000000000E+00 -0.27830608432E+04  0.27830608432E+04  0.50400001928E-02 0.  1.
    10030    2    1    2    0    0  0.00000000000E+00  0.00000000000E+00 -0.15140861215E+04  0.40520355650E+04  0.37585283605E+04 0.  0.
        2    1    3    3  502    0 -0.64395968701E+03  0.17378464650E+03 -0.26511567911E+04  0.27337734933E+04  0.25500000920E-02 0.  1.
       -2    1    3    3    0  502  0.64395968701E+03 -0.17378464650E+03  0.11370706696E+04  0.13182620717E+04  0.25500000920E-02 0. -1.
</event>
<event>
 5   0  0.7638805E-07  0.2435561E+04  0.7818609E-02  0.8426309E-01
        2   -1    0    0  501    0  0.00000000000E+00  0.00000000000E+00  0.10803742859E+04  0.10803742859E+04  0.25500000920E-02 0. -1.
       -2   -1    0    0    0  501  0.00000000000E+00  0.00000000000E+00 -0.13726627128E+04  0.13726627128E+04  0.25500000920E-02 0.  1.
    10030    2    1    2    0    0  0.00000000000E+00  0.00000000000E+00 -0.29228842694E+03  0.24530369987E+04  0.24355611247E+04 0.  0.
        5    1    3    3  502    0 -0.11898740645E+04  0.77905453461E+02  0.10280918613E+03  0.11968547814E+04  0.46999998093E+01 0. -1.
       -5    1    3    3    0  502  0.11898740645E+04 -0.77905453461E+02 -0.39509761307E+03  0.12561822172E+04  0.46999998093E+01 0.  1.
</event>
<event>
 5   0  0.7551495E-07  0.2489460E+04  0.7818609E-02  0.8406750E-01
        2   -1    0    0  501    0  0.00000000000E+00  0.00000000000E+00  0.12752320510E+04  0.12752320510E+04  0.25500000920E-02 0. -1.
       -2   -1    0    0    0  501  0.00000000000E+00  0.00000000000E+00 -0.12149573448E+04  0.12149573448E+04  0.25500000920E-02 0.  1.
    10030    2    1    2    0    0  0.00000000000E+00  0.00000000000E+00  0.60274706216E+02  0.24901893959E+04  0.24894598183E+04 0.  0.
        1    1    3    3  502    0 -0.65468657259E+03  0.23260381371E+03  0.10632195305E+04  0.12701003159E+04  0.50400001928E-02 0. -1.
       -1    1    3    3    0  502  0.65468657259E+03 -0.23260381371E+03 -0.10029448243E+04  0.12200890800E+04  0.50400001928E-02 0.  1.
</event>
<event>
 5   0  0.7638805E-07  0.3714020E+04  0.7818609E-02  0.8064862E-01
        2   -1    0    0  501    0  0.00000000000E+00  0.00000000000E+00  0.16283184591E+04  0.16283184591E+04  0.25500000920E-02 0. -1.
       -2   -1    0    0    0  501  0.00000000000E+00  0.00000000000E+00 -0.21178210232E+04  0.21178210232E+04  0.25500000920E-02 0.  1.
    10030    2    1    2    0    0  0.00000000000E+00  0.00000000000E+00 -0.48950256405E+03  0.37461394823E+04  0.37140204981E+04 0.  0.
        5    1    3    3  502    0 -0.79099651855E+03  0.14809344557E+04  0.55559845896E+03  0.17684892117E+04  0.46999998093E+01 0. -1.
       -5    1    3    3    0  502  0.79099651855E+03 -0.14809344557E+04 -0.10451010230E+04  0.19776502706E+04  0.46999998093E+01 0.  1.
</event>
<event>
 5   0  0.7649458E-07  0.3670661E+04  0.7818609E-02  0.8074495E-01
       -2   -1    0    0    0  501  0.00000000000E+00  0.00000000000E+00  0.15029884779E+04  0.15029884779E+04  0.25500000920E-02 0.  1.
        2   -1    0    0  501    0  0.00000000000E+00  0.00000000000E+00 -0.22411607040E+04  0.22411607040E+04  0.25500000920E-02 0. -1.
    10030    2    1    2    0    0  0.00000000000E+00  0.00000000000E+00 -0.73817222605E+03  0.37441491819E+04  0.36706613656E+04 0.  0.
        4    1    3    3  502    0  0.82701283595E+03 -0.12638060857E+04  0.69451732610E+03  0.16623814190E+04  0.12699999809E+01 0.  1.
       -4    1    3    3    0  502 -0.82701283595E+03  0.12638060857E+04 -0.14326895521E+04  0.20817677629E+04  0.12699999809E+01 0. -1.
</event>
<event>
 5   0  0.2529875E-07  0.3783426E+04  0.7818609E-02  0.8049721E-01
       -1   -1    0    0    0  501  0.00000000000E+00  0.00000000000E+00  0.12156226732E+04  0.12156226732E+04  0.50400001928E-02 0. -1.
        1   -1    0    0  501    0  0.00000000000E+00  0.00000000000E+00 -0.29438223489E+04  0.29438223489E+04  0.50400001928E-02 0.  1.
    10030    2    1    2    0    0  0.00000000000E+00  0.00000000000E+00 -0.17281996757E+04  0.41594450221E+04  0.37834255342E+04 0.  0.
        1    1    3    3  502    0 -0.11669357245E+04 -0.11889924394E+04  0.12114580898E+03  0.16703647246E+04  0.50400001928E-02 0. -1.
       -1    1    3    3    0  502  0.11669357245E+04  0.11889924394E+04 -0.18493454847E+04  0.24890802975E+04  0.50400001928E-02 0.  1.
</event>
<event>
 5   0  0.8421677E-07  0.3735835E+04  0.7818609E-02  0.8060066E-01
       -2   -1    0    0    0  501  0.00000000000E+00  0.00000000000E+00  0.28980425438E+04  0.28980425438E+04  0.25500000920E-02 0.  1.
        2   -1    0    0  501    0  0.00000000000E+00  0.00000000000E+00 -0.12039562669E+04  0.12039562669E+04  0.25500000920E-02 0. -1.
    10030    2    1    2    0    0  0.00000000000E+00  0.00000000000E+00  0.16940862769E+04  0.41019988107E+04  0.37358353724E+04 0.  0.
        3    1    3    3  502    0  0.55814589493E+03 -0.16875596865E+04  0.14775478075E+04  0.23113918035E+04  0.10100000352E+00 0.  1.
       -3    1    3    3    0  502 -0.55814589493E+03  0.16875596865E+04  0.21653846940E+03  0.17906070072E+04  0.10100000352E+00 0. -1.
</event>
<event>
 5   0  0.7551495E-07  0.2650194E+04  0.7818609E-02  0.8351349E-01
        2   -1    0    0  501    0  0.00000000000E+00  0.00000000000E+00  0.14532842675E+04  0.14532842675E+04  0.25500000920E-02 0.  1.
       -2   -1    0    0    0  501  0.00000000000E+00  0.00000000000E+00 -0.12082162621E+04  0.12082162621E+04  0.25500000920E-02 0. -1.
    10030    2    1    2    0    0  0.00000000000E+00  0.00000000000E+00  0.24506800536E+03  0.26615005296E+04  0.26501937177E+04 0.  0.
        1    1    3    3  502    0  0.53611832470E+03 -0.61960477098E+03  0.11683938186E+04  0.14270518721E+04  0.50400001928E-02 0.  1.
       -1    1    3    3    0  502 -0.53611832470E+03  0.61960477098E+03 -0.92332581328E+03  0.12344486574E+04  0.50400001928E-02 0. -1.
</event>
<event>
 5   0  0.2529875E-07  0.3845325E+04  0.7818609E-02  0.8036498E-01
        1   -1    0    0  501    0  0.00000000000E+00  0.00000000000E+00  0.21221039570E+04  0.21221039570E+04  0.50400001928E-02 0.  1.
       -1   -1    0    0    0  501  0.00000000000E+00  0.00000000000E+00 -0.17419653067E+04  0.17419653067E+04  0.50400001928E-02 0. -1.
    10030    2    1    2    0    0  0.00000000000E+00  0.00000000000E+00  0.38013865035E+03  0.38640692637E+04  0.38453251984E+04 0.  0.
        4    1    3    3  502    0 -0.98201641462E+03  0.16500033149E+04  0.90781420005E+02  0.19222669057E+04  0.12699999809E+01 0.  1.
       -4    1    3    3    0  502  0.98201641462E+03 -0.16500033149E+04  0.28935723034E+03  0.19418023580E+04  0.12699999809E+01 0. -1.
</event>
<event>
 5   0  0.8421677E-07  0.3832848E+04  0.7818609E-02  0.8039142E-01
       -2   -1    0    0    0  501  0.00000000000E+00  0.00000000000E+00  0.18765859064E+04  0.18765859064E+04  0.25500000920E-02 0. -1.
        2   -1    0    0  501    0  0.00000000000E+00  0.00000000000E+00 -0.19571078779E+04  0.19571078779E+04  0.25500000920E-02 0.  1.
    10030    2    1    2    0    0  0.00000000000E+00  0.00000000000E+00 -0.80521971462E+02  0.38336937843E+04  0.38328480591E+04 0.  0.
        3    1    3    3  502    0 -0.14133520335E+04  0.74750300989E+03 -0.10970717716E+04  0.19390438888E+04  0.10100000352E+00 0.  1.
       -3    1    3    3    0  502  0.14133520335E+04 -0.74750300989E+03  0.10165498001E+04  0.18946498956E+04  0.10100000352E+00 0. -1.
</event>
<event>
 5   0  0.7551495E-07  0.3762704E+04  0.7818609E-02  0.8054206E-01
       -2   -1    0    0    0  501  0.00000000000E+00  0.00000000000E+00  0.15746380973E+04  0.15746380973E+04  0.25500000920E-02 0. -1.
        2   -1    0    0  501    0  0.00000000000E+00  0.00000000000E+00 -0.22478092652E+04  0.22478092652E+04  0.25500000920E-02 0.  1.
    10030    2    1    2    0    0  0.00000000000E+00  0.00000000000E+00 -0.67317116787E+03  0.38224473625E+04  0.37627044021E+04 0.  0.
        1    1    3    3  502    0 -0.16522930940E+04 -0.18147210014E+03 -0.12317585788E+04  0.20688725887E+04  0.50400001928E-02 0.  1.
       -1    1    3    3    0  502  0.16522930940E+04  0.18147210014E+03  0.55858741093E+03  0.17535747738E+04  0.50400001928E-02 0. -1.
</event>
<event>
 5   0  0.2907071E-07  0.3672035E+04  0.7818609E-02  0.8074188E-01
        1   -1    0    0  501    0  0.00000000000E+00  0.00000000000E+00  0.13997641890E+04  0.13997641890E+04  0.50400001928E-02 0. -1.
       -1   -1    0    0    0  501  0.00000000000E+00  0.00000000000E+00 -0.24082347511E+04  0.24082347511E+04  0.50400001928E-02 0.  1.
    10030    2    1    2    0    0  0.00000000000E+00  0.00000000000E+00 -0.10084705620E+04  0.38079989401E+04  0.36720352740E+04 0.  0.
        2    1    3    3  502    0 -0.16503438469E+04  0.38137332415E+03  0.23043092849E+03  0.17094381645E+04  0.25500000920E-02 0. -1.
       -2    1    3    3    0  502  0.16503438469E+04 -0.38137332415E+03 -0.12389014905E+04  0.20985607756E+04  0.25500000920E-02 0.  1.
</event>
<event>
 5   0  0.7638805E-07  0.3869840E+04  0.7818609E-02  0.8031331E-01
        2   -1    0    0  501    0  0.00000000000E+00  0.00000000000E+00  0.21424336946E+04  0.21424336946E+04  0.25500000920E-02 0. -1.
       -2   -1    0    0    0  501  0.00000000000E+00  0.00000000000E+00 -0.17475061505E+04  0.17475061505E+04  0.25500000920E-02 0.  1.
    10030    2    1    2    0    0  0.00000000000E+00  0.00000000000E+00  0.39492754414E+03  0.38899398451E+04  0.38698403369E+04 0.  0.
        5    1    3    3  502    0  0.10341935094E+04 -0.16353237165E+04  0.19007060596E+03  0.19442193287E+04  0.46999998093E+01 0. -1.
       -5    1    3    3    0  502 -0.10341935094E+04  0.16353237165E+04  0.20485693818E+03  0.19457205164E+04  0.46999998093E+01 0.  1.
</event>
<event>
 5   0  0.2529875E-07  0.3633658E+04  0.7818609E-02  0.8082825E-01
       -1   -1    0    0    0  501  0.00000000000E+00  0.00000000000E+00  0.22744860808E+04  0.22744860808E+04  0.50400001928E-02 0. -1.
        1   -1    0    0  501    0  0.00000000000E+00  0.00000000000E+00 -0.14512585762E+04  0.14512585762E+04  0.50400001928E-02 0.  1.
    10030    2    1    2    0    0  0.00000000000E+00  0.00000000000E+00  0.82322750456E+03  0.37257446570E+04  0.36336578988E+04 0.  0.
        1    1    3    3  502    0 -0.11604676208E+04  0.13765790402E+04  0.66111669354E+03  0.19180016255E+04  0.50400001928E-02 0.  1.
       -1    1    3    3    0  502  0.11604676208E+04 -0.13765790402E+04  0.16211081102E+03  0.18077430315E+04  0.50400001928E-02 0. -1.
</event>
<event>
 5   0  0.7551495E-07  0.3723519E+04  0.7818609E-02  0.8062770E-01
        2   -1    0    0  501    0  0.00000000000E+00  0.00000000000E+00  0.22401444859E+04  0.22401444859E+04  0.25500000920E-02 0.  1.
       -2   -1    0    0    0  501  0.00000000000E+00  0.00000000000E+00 -0.15472876337E+04  0.15472876337E+04  0.25500000920E-02 0. -1.
    10030    2    1    2    0    0  0.00000000000E+00  0.00000000000E+00  0.69285685221E+03  0.37874321196E+04  0.37235186910E+04 0.  0.
        1    1    3    3  502    0  0.18293764548E+04  0.12205163154E+03  0.67545104490E+03  0.19539060695E+04  0.50400001928E-02 0. -1.
       -1    1    3    3    0  502 -0.18293764548E+04 -0.12205163154E+03  0.17405807309E+02  0.18335260501E+04  0.50400001928E-02 0.  1.
</event>
<event>
 5   0  0.8038352E-07  0.3745875E+04  0.7818609E-02  0.8057871E-01
        2   -1    0    0  501    0  0.00000000000E+00  0.00000000000E+00  0.23151026479E+04  0.23151026479E+04  0.25500000920E-02 0.  1.
       -2   -1    0    0    0  501  0.00000000000E+00  0.00000000000E+00 -0.15152219219E+04  0.15152219219E+04  0.25500000920E-02 0. -1.
    10030    2    1    2    0    0  0.00000000000E+00  0.00000000000E+00  0.79988072605E+03  0.38303245698E+04  0.37458746821E+04 0.  0.
        2    1    3    3  502    0  0.58860195849E+03  0.73543963558E+02 -0.14166337499E+04  0.15358099366E+04  0.25500000920E-02 0. -1.
       -2    1    3    3    0  502 -0.58860195849E+03 -0.73543963558E+02  0.22165144759E+04  0.22945146332E+04  0.25500000920E-02 0.  1.
</event>
<event>
 5   0  0.2529875E-07  0.3763639E+04  0.7818609E-02  0.8054003E-01
        3   -1    0    0  501    0  0.00000000000E+00  0.00000000000E+00  0.18415066354E+04  0.18415066382E+04  0.10100000352E+00 0. -1.
       -3   -1    0    0    0  501  0.00000000000E+00  0.00000000000E+00 -0.19230153417E+04  0.19230153443E+04  0.10100000352E+00 0.  1.
    10030    2    1    2    0    0  0.00000000000E+00  0.00000000000E+00 -0.81508706264E+02  0.37645219825E+04  0.37636394737E+04 0.  0.
        2    1    3    3  502    0 -0.98375514237E+03 -0.51037457616E+03 -0.15619624170E+04  0.19151978958E+04  0.25500000920E-02 0.  1.
       -2    1    3    3    0  502  0.98375514237E+03  0.51037457616E+03  0.14804537107E+04  0.18493240867E+04  0.25500000920E-02 0. -1.
</event>
<event>
 5   0  0.2529875E-07  0.3794665E+04  0.7818609E-02  0.8047301E-01
        1   -1    0    0  501    0  0.00000000000E+00  0.00000000000E+00  0.21474057008E+04  0.21474057008E+04  0.50400001928E-02 0.  1.
       -1   -1    0    0    0  501  0.00000000000E+00  0.00000000000E+00 -0.16763813550E+04  0.16763813551E+04  0.50400001928E-02 0. -1.
    10030    2    1    2    0    0  0.00000000000E+00  0.00000000000E+00  0.47102434578E+03  0.38237870559E+04  0.37946651386E+04 0.  0.
        3    1    3    3  502    0 -0.12240565271E+04 -0.14428883748E+04  0.37669316902E+03  0.19292845817E+04  0.10100000352E+00 0. -1.
       -3    1    3    3    0  502  0.12240565271E+04  0.14428883748E+04  0.94331176764E+02  0.18945024742E+04  0.10100000352E+00 0.  1.
</event>
<event>
 5   0  0.7551495E-07  0.3835423E+04  0.7818609E-02  0.8038596E-01
        2   -1    0    0  501    0  0.00000000000E+00  0.00000000000E+00  0.16919681521E+04  0.16919681521E+04  0.25500000920E-02 0.  1.
       -2   -1    0    0    0  501  0.00000000000E+00  0.00000000000E+00 -0.21735733422E+04  0.21735733422E+04  0.25500000920E-02 0. -1.
    10030    2    1    2    0    0  0.00000000000E+00  0.00000000000E+00 -0.48160519014E+03  0.38655414943E+04  0.38354227257E+04 0.  0.
        1    1    3    3  502    0  0.66978032469E+03 -0.17186892205E+04 -0.76943896626E+03  0.19986331937E+04  0.50400001928E-02 0. -1.
       -1    1    3    3    0  502 -0.66978032469E+03  0.17186892205E+04  0.28783377613E+03  0.18669083006E+04  0.50400001928E-02 0.  1.
</event>
<event>
 5   0  0.7638805E-07  0.3711134E+04  0.7818609E-02  0.8065499E-01
        2   -1    0    0  501    0  0.00000000000E+00  0.00000000000E+00  0.19335327522E+04  0.19335327522E+04  0.25500000920E-02 0.  1.
       -2   -1    0    0    0  501  0.00000000000E+00  0.00000000000E+00 -0.17807448704E+04  0.17807448704E+04  0.25500000920E-02 0. -1.
    10030    2    1    2    0    0  0.00000000000E+00  0.00000000000E+00  0.15278788190E+03  0.37142776226E+04  0.37111338053E+04 0.  0.
        5    1    3    3  502    0  0.13036948873E+04 -0.88104480672E+02  0.13949786742E+04  0.19113791748E+04  0.46999998093E+01 0.  1.
       -5    1    3    3    0  502 -0.13036948873E+04  0.88104480672E+02 -0.12421907923E+04  0.18028984478E+04  0.46999998093E+01 0. -1.
</event>
<event>
 5   0  0.2529875E-07  0.3817375E+04  0.7818609E-02  0.8042437E-01
       -3   -1    0    0    0  501  0.00000000000E+00  0.00000000000E+00  0.22390844442E+04  0.22390844465E+04  0.10100000352E+00 0. -1.
        3   -1    0    0  501    0  0.00000000000E+00  0.00000000000E+00 -0.16270432851E+04  0.16270432882E+04  0.10100000352E+00 0.  1.
    10030    2    1    2    0    0  0.00000000000E+00  0.00000000000E+00  0.61204115912E+03  0.38661277347E+04  0.38173746582E+04 0.  0.
        2    1    3    3  502    0 -0.91982102703E+03  0.13371830520E+04 -0.71127691479E+03  0.17720169542E+04  0.25500000920E-02 0.  1.
       -2    1    3    3    0  502  0.91982102703E+03 -0.13371830520E+04  0.13233180739E+04  0.20941107805E+04  0.25500000920E-02 0. -1.
</event>
<event>
 5   0  0.7551495E-07  0.3839796E+04  0.7818609E-02  0.8037668E-01
        2   -1    0    0  501    0  0.00000000000E+00  0.00000000000E+00  0.26871390286E+04  0.26871390286E+04  0.25500000920E-02 0.  1.
       -2   -1    0    0    0  501  0.00000000000E+00  0.00000000000E+00 -0.13717223519E+04  0.13717223519E+04  0.25500000920E-02 0. -1.
    10030    2    1    2    0    0  0.00000000000E+00  0.00000000000E+00  0.13154166766E+04  0.40588613805E+04  0.38397961760E+04 0.  0.
        1    1    3    3  502    0  0.54979996808E+03  0.10348420339E+04 -0.94985451656E+03  0.15084434503E+04  0.50400001928E-02 0. -1.
       -1    1    3    3    0  502 -0.54979996808E+03 -0.10348420339E+04  0.22652711932E+04  0.25504179302E+04  0.50400001928E-02 0.  1.
</event>
<event>
 5   0  0.2529875E-07  0.3690824E+04  0.7818609E-02  0.8069998E-01
       -1   -1    0    0    0  501  0.00000000000E+00  0.00000000000E+00  0.27802019656E+04  0.27802019656E+04  0.50400001928E-02 0. -1.
        1   -1    0    0  501    0  0.00000000000E+00  0.00000000000E+00 -0.12249273273E+04  0.12249273273E+04  0.50400001928E-02 0.  1.
    10030    2    1    2    0    0  0.00000000000E+00  0.00000000000E+00  0.15552746383E+04  0.40051292930E+04  0.36908239531E+04 0.  0.
        1    1    3    3  502    0 -0.12294480879E+04  0.78990135614E+03  0.20005771539E+04  0.24774575076E+04  0.50400001928E-02 0. -1.
       -1    1    3    3    0  502  0.12294480879E+04 -0.78990135614E+03 -0.44530251557E+03  0.15276717853E+04  0.50400001928E-02 0.  1.
</event>
<event>
 5   0  0.8421677E-07  0.3858460E+04  0.7818609E-02  0.8033725E-01
        2   -1    0    0  501    0  0.00000000000E+00  0.00000000000E+00  0.34341720817E+04  0.34341720817E+04  0.25500000920E-02 0. -1.
       -2   -1    0    0    0  501  0.00000000000E+00  0.00000000000E+00 -0.10837922260E+04  0.10837922260E+04  0.25500000920E-02 0.  1.
    10030    2    1    2    0    0  0.00000000000E+00  0.00000000000E+00  0.23503798557E+04  0.45179643077E+04  0.38584603172E+04 0.  0.
        3    1    3    3  502    0 -0.11289924674E+04  0.11625237239E+04  0.24009431522E+04  0.28966555594E+04  0.10100000352E+00 0. -1.
       -3    1    3    3    0  502  0.11289924674E+04 -0.11625237239E+04 -0.50563296430E+02  0.16213087482E+04  0.10100000352E+00 0.  1.
</event>
<event>
 5   0  0.7649458E-07  0.3735213E+04  0.7818609E-02  0.8060203E-01
        2   -1    0    0  501    0  0.00000000000E+00  0.00000000000E+00  0.22283222063E+04  0.22283222063E+04  0.25500000920E-02 0.  1.
       -2   -1    0    0    0  501  0.00000000000E+00  0.00000000000E+00 -0.15652827883E+04  0.15652827883E+04  0.25500000920E-02 0. -1.
    10030    2    1    2    0    0  0.00000000000E+00  0.00000000000E+00  0.66303941802E+03  0.37936049945E+04  0.37352131913E+04 0.  0.
        4    1    3    3  502    0 -0.56175085807E+03 -0.11824652214E+04  0.16843199990E+04  0.21332424846E+04  0.12699999809E+01 0.  1.
       -4    1    3    3    0  502  0.56175085807E+03  0.11824652214E+04 -0.10212805810E+04  0.16603625099E+04  0.12699999809E+01 0. -1.
</event>
<event>
 5   0  0.8038352E-07  0.3728961E+04  0.7818609E-02  0.8061574E-01
        2   -1    0    0  501    0  0.00000000000E+00  0.00000000000E+00  0.23584309415E+04  0.23584309415E+04  0.25500000920E-02 0. -1.
       -2   -1    0    0    0  501  0.00000000000E+00  0.00000000000E+00 -0.14739829700E+04  0.14739829700E+04  0.25500000920E-02 0.  1.
    10030    2    1    2    0    0  0.00000000000E+00  0.00000000000E+00  0.88444797154E+03  0.38324139115E+04  0.37289607365E+04 0.  0.
        2    1    3    3  502    0  0.49832120124E+03 -0.11452950994E+04  0.18649198179E+04  0.22445379951E+04  0.25500000920E-02 0.  1.
       -2    1    3    3    0  502 -0.49832120124E+03  0.11452950994E+04 -0.98047184635E+03  0.15878759164E+04  0.25500000920E-02 0. -1.
</event>
<event>
 5   0  0.8038352E-07  0.3707553E+04  0.7818609E-02  0.8066290E-01
        2   -1    0    0  501    0  0.00000000000E+00  0.00000000000E+00  0.22365033884E+04  0.22365033884E+04  0.25500000920E-02 0.  1.
       -2   -1    0    0    0  501  0.00000000000E+00  0.00000000000E+00 -0.15365450094E+04  0.15365450095E+04  0.25500000920E-02 0. -1.
    10030    2    1    2    0    0  0.00000000000E+00  0.00000000000E+00  0.69995837892E+03  0.37730483978E+04  0.37075534359E+04 0.  0.
        2    1    3    3  502    0  0.15304542173E+04 -0.61473570445E+03 -0.51131562611E+03  0.17267407932E+04  0.25500000920E-02 0. -1.
       -2    1    3    3    0  502 -0.15304542173E+04  0.61473570445E+03  0.12112740050E+04  0.20463076046E+04  0.25500000920E-02 0.  1.
</event>
<event>
 5   0  0.7551495E-07  0.3847842E+04  0.7818609E-02  0.8035965E-01
        2   -1    0    0  501    0  0.00000000000E+00  0.00000000000E+00  0.28078666715E+04  0.28078666715E+04  0.25500000920E-02 0. -1.
       -2   -1    0    0    0  501  0.00000000000E+00  0.00000000000E+00 -0.13182503536E+04  0.13182503536E+04  0.25500000920E-02 0.  1.
    10030    2    1    2    0    0  0.00000000000E+00  0.00000000000E+00  0.14896163179E+04  0.41261170252E+04  0.38478415938E+04 0.  0.
        1    1    3    3  502    0  0.13301473147E+04 -0.77662989123E+03  0.19810145696E+04  0.25093554136E+04  0.50400001928E-02 0. -1.
       -1    1    3    3    0  502 -0.13301473147E+04  0.77662989123E+03 -0.49139825168E+03  0.16167616116E+04  0.50400001928E-02 0.  1.
</event>
<event>
 5   0  0.2529875E-07  0.3808270E+04  0.7818609E-02  0.8044382E-01
       -3   -1    0    0    0  501  0.00000000000E+00  0.00000000000E+00  0.15740100479E+04  0.15740100511E+04  0.10100000352E+00 0. -1.
        3   -1    0    0  501    0  0.00000000000E+00  0.00000000000E+00 -0.23034987891E+04  0.23034987913E+04  0.10100000352E+00 0.  1.
    10030    2    1    2    0    0  0.00000000000E+00  0.00000000000E+00 -0.72948874125E+03  0.38775088424E+04  0.38082700797E+04 0.  0.
        2    1    3    3  502    0 -0.17755310845E+04  0.31907529341E+03 -0.98525923407E+03  0.20554939633E+04  0.25500000920E-02 0.  1.
       -2    1    3    3    0  502  0.17755310845E+04 -0.31907529341E+03  0.25577049282E+03  0.18220148791E+04  0.25500000920E-02 0. -1.
</event>
<event>
 5   0  0.2529875E-07  0.3763846E+04  0.7818609E-02  0.8053958E-01
       -1   -1    0    0    0  501  0.00000000000E+00  0.00000000000E+00  0.30560400905E+04  0.30560400905E+04  0.50400001928E-02 0. -1.
        1   -1    0    0  501    0  0.00000000000E+00  0.00000000000E+00 -0.11588966302E+04  0.11588966302E+04  0.50400001928E-02 0.  1.
    10030    2    1    2    0    0  0.00000000000E+00  0.00000000000E+00  0.18971434603E+04  0.42149367206E+04  0.37638462044E+04 0.  0.
        1    1    3    3  502    0 -0.19146637476E+03 -0.58495415272E+02 -0.11469374670E+04  0.11642794508E+04  0.50400001928E-02 0.  1.
       -1    1    3    3    0  502  0.19146637476E+03  0.58495415272E+02  0.30440809273E+04  0.30506572699E+04  0.50400001928E-02 0. -1.
</event>
<event>
 5   0  0.7551495E-07  0.3689905E+04  0.7818609E-02  0.8070203E-01
        2   -1    0    0  501    0  0.00000000000E+00  0.00000000000E+00  0.19725953892E+04  0.19725953892E+04  0.25500000920E-02 0. -1.
       -2   -1    0    0    0  501  0.00000000000E+00  0.00000000000E+00 -0.17255688842E+04  0.17255688842E+04  0.25500000920E-02 0.  1.
    10030    2    1    2    0    0  0.00000000000E+00  0.00000000000E+00  0.24702650500E+03  0.36981642734E+04  0.36899047276E+04 0.  0.
        1    1    3    3  502    0 -0.82689350998E+03  0.10105373292E+04 -0.11828270201E+04  0.17618224457E+04  0.50400001928E-02 0.  1.
       -1    1    3    3    0  502  0.82689350998E+03 -0.10105373292E+04  0.14298535251E+04  0.19363418277E+04  0.50400001928E-02 0. -1.
</event>
<event>
 5   0  0.2907071E-07  0.3739317E+04  0.7818609E-02  0.8059304E-01
        1   -1    0    0  501    0  0.00000000000E+00  0.00000000000E+00  0.26586494417E+04  0.26586494417E+04  0.50400001928E-02 0.  1.
       -1   -1    0    0    0  501  0.00000000000E+00  0.00000000000E+00 -0.13148115000E+04  0.13148115000E+04  0.50400001928E-02 0. -1.
    10030    2    1    2    0    0  0.00000000000E+00  0.00000000000E+00  0.13438379417E+04  0.39734609417E+04  0.37393169753E+04 0.  0.
        2    1    3    3  502    0 -0.10891346276E+04  0.10247442370E+04 -0.52053775182E+03  0.15834375705E+04  0.25500000920E-02 0.  1.
       -2    1    3    3    0  502  0.10891346276E+04 -0.10247442370E+04  0.18643756935E+04  0.23900233713E+04  0.25500000920E-02 0. -1.
</event>
<event>
 5   0  0.2529875E-07  0.3743477E+04  0.7818609E-02  0.8058394E-01
        1   -1    0    0  501    0  0.00000000000E+00  0.00000000000E+00  0.15444221073E+04  0.15444221073E+04  0.50400001928E-02 0. -1.
       -1   -1    0    0    0  501  0.00000000000E+00  0.00000000000E+00 -0.22684248491E+04  0.22684248491E+04  0.50400001928E-02 0.  1.
    10030    2    1    2    0    0  0.00000000000E+00  0.00000000000E+00 -0.72400274183E+03  0.38128469564E+04  0.37434772529E+04 0.  0.
        3    1    3    3  502    0  0.16952216887E+03  0.86872453621E+03 -0.20418009212E+04  0.22253923469E+04  0.10100000352E+00 0.  1.
       -3    1    3    3    0  502 -0.16952216887E+03 -0.86872453621E+03  0.13177981794E+04  0.15874546095E+04  0.10100000352E+00 0. -1.
</event>
<event>
 5   0  0.2529875E-07  0.2642364E+04  0.7818609E-02  0.8353952E-01
        1   -1    0    0  501    0  0.00000000000E+00  0.00000000000E+00  0.21916425386E+04  0.21916425386E+04  0.50400001928E-02 0. -1.
       -1   -1    0    0    0  501  0.00000000000E+00  0.00000000000E+00 -0.79644490312E+03  0.79644490314E+03  0.50400001928E-02 0.  1.
    10030    2    1    2    0    0  0.00000000000E+00  0.00000000000E+00  0.13951976355E+04  0.29880874418E+04  0.26423644937E+04 0.  0.
        4    1    3    3  502    0 -0.12301663798E+04  0.42951647067E+03  0.45054956967E+03  0.13786914986E+04  0.12699999809E+01 0.  1.
       -4    1    3    3    0  502  0.12301663798E+04 -0.42951647067E+03  0.94464806582E+03  0.16093959432E+04  0.12699999809E+01 0. -1.
</event>
<event>
 5   0  0.7551495E-07  0.3811332E+04  0.7818609E-02  0.8043727E-01
        2   -1    0    0  501    0  0.00000000000E+00  0.00000000000E+00  0.25902776103E+04  0.25902776103E+04  0.25500000920E-02 0. -1.
       -2   -1    0    0    0  501  0.00000000000E+00  0.00000000000E+00 -0.14019975188E+04  0.14019975188E+04  0.25500000920E-02 0.  1.
    10030    2    1    2    0    0  0.00000000000E+00  0.00000000000E+00  0.11882800915E+04  0.39922751292E+04  0.38113319366E+04 0.  0.
        1    1    3    3  502    0  0.26968832647E+03 -0.14662361471E+04  0.18374989146E+04  0.23662169160E+04  0.50400001928E-02 0. -1.
       -1    1    3    3    0  502 -0.26968832647E+03  0.14662361471E+04 -0.64921882310E+03  0.16260582132E+04  0.50400001928E-02 0.  1.
</event>
<event>
 5   0  0.2907071E-07  0.2802146E+04  0.7818609E-02  0.8302602E-01
        1   -1    0    0  501    0  0.00000000000E+00  0.00000000000E+00  0.25784993312E+04  0.25784993312E+04  0.50400001928E-02 0. -1.
       -1   -1    0    0    0  501  0.00000000000E+00  0.00000000000E+00 -0.76129785988E+03  0.76129785990E+03  0.50400001928E-02 0.  1.
    10030    2    1    2    0    0  0.00000000000E+00  0.00000000000E+00  0.18172014713E+04  0.33397971911E+04  0.28021463363E+04 0.  0.
        2    1    3    3  502    0 -0.85836634386E+03 -0.56042474197E+03  0.20469077274E+04  0.22892575032E+04  0.25500000920E-02 0. -1.
       -2    1    3    3    0  502  0.85836634386E+03  0.56042474197E+03 -0.22970625607E+03  0.10505396879E+04  0.25500000920E-02 0.  1.
</event>
<event>
 5   0  0.2529875E-07  0.2623882E+04  0.7818609E-02  0.8360134E-01
        1   -1    0    0  501    0  0.00000000000E+00  0.00000000000E+00  0.96262254628E+03  0.96262254629E+03  0.50400001928E-02 0.  1.
       -1   -1    0    0    0  501  0.00000000000E+00  0.00000000000E+00 -0.17880215251E+04  0.17880215251E+04  0.50400001928E-02 0. -1.
    10030    2    1    2    0    0  0.00000000000E+00  0.00000000000E+00 -0.82539897886E+03  0.27506440714E+04  0.26238824923E+04 0.  0.
        5    1    3    3  502    0  0.65317814479E+03 -0.32846895873E+03 -0.15546530564E+04  0.17179935278E+04  0.46999998093E+01 0. -1.
       -5    1    3    3    0  502 -0.65317814479E+03  0.32846895873E+03  0.72925407756E+03  0.10326505437E+04  0.46999998093E+01 0.  1.
</event>
<event>
 5   0  0.2529875E-07  0.3717077E+04  0.7818609E-02  0.8064188E-01
        1   -1    0    0  501    0  0.00000000000E+00  0.00000000000E+00  0.21809229012E+04  0.21809229013E+04  0.50400001928E-02 0.  1.
       -1   -1    0    0    0  501  0.00000000000E+00  0.00000000000E+00 -0.15838094235E+04  0.15838094235E+04  0.50400001928E-02 0. -1.
    10030    2    1    2    0    0  0.00000000000E+00  0.00000000000E+00  0.59711347772E+03  0.37647323248E+04  0.37170774773E+04 0.  0.
        5    1    3    3  502    0 -0.11807324982E+04 -0.59857090263E+02  0.17509682136E+04  0.21127290121E+04  0.46999998093E+01 0.  1.
       -5    1    3    3    0  502  0.11807324982E+04  0.59857090263E+02 -0.11538547359E+04  0.16520033127E+04  0.46999998093E+01 0. -1.
</event>
<event>
 5   0  0.7551495E-07  0.3756390E+04  0.7818609E-02  0.8055579E-01
        2   -1    0    0  501    0  0.00000000000E+00  0.00000000000E+00  0.20003095862E+04  0.20003095862E+04  0.25500000920E-02 0.  1.
       -2   -1    0    0    0  501  0.00000000000E+00  0.00000000000E+00 -0.17635356041E+04  0.17635356041E+04  0.25500000920E-02 0. -1.
    10030    2    1    2    0    0  0.00000000000E+00  0.00000000000E+00  0.23677398213E+03  0.37638451904E+04  0.37563903815E+04 0.  0.
        1    1    3    3  502    0  0.16767088333E+02 -0.16432972879E+04 -0.79276362040E+03  0.18246044145E+04  0.50400001928E-02 0. -1.
       -1    1    3    3    0  502 -0.16767088333E+02  0.16432972879E+04  0.10295376025E+04  0.19392407758E+04  0.50400001928E-02 0.  1.
</event>
<event>
 5   0  0.2529875E-07  0.3571673E+04  0.7818609E-02  0.8097011E-01
        1   -1    0    0  501    0  0.00000000000E+00  0.00000000000E+00  0.12329048881E+04  0.12329048881E+04  0.50400001928E-02 0. -1.
       -1   -1    0    0    0  501  0.00000000000E+00  0.00000000000E+00 -0.25867454860E+04  0.25867454860E+04  0.50400001928E-02 0.  1.
    10030    2    1    2    0    0  0.00000000000E+00  0.00000000000E+00 -0.13538405979E+04  0.38196503742E+04  0.35716725237E+04 0.  0.
        5    1    3    3  502    0 -0.70011561115E+01  0.16422437371E+04 -0.14271806564E+04  0.21757481987E+04  0.46999998093E+01 0.  1.
       -5    1    3    3    0  502  0.70011561115E+01 -0.16422437371E+04  0.73340058512E+02  0.16439021754E+04  0.46999998093E+01 0. -1.
</event>
<event>
 5   0  0.8038352E-07  0.3791856E+04  0.7818609E-02  0.8047905E-01
       -2   -1    0    0    0  501  0.00000000000E+00  0.00000000000E+00  0.11993387974E+04  0.11993387974E+04  0.25500000920E-02 0. -1.
        2   -1    0    0  501    0  0.00000000000E+00  0.00000000000E+00 -0.29971040653E+04  0.29971040653E+04  0.25500000920E-02 0.  1.
    10030    2    1    2    0    0  0.00000000000E+00  0.00000000000E+00 -0.17977652679E+04  0.41964428627E+04  0.37918561077E+04 0.  0.
        2    1    3    3  502    0 -0.93099754585E+03 -0.12822398992E+04  0.25317313155E+03  0.16046782307E+04  0.25500000920E-02 0. -1.
       -2    1    3    3    0  502  0.93099754585E+03  0.12822398992E+04 -0.20509383995E+04  0.25917646320E+04  0.25500000920E-02 0.  1.
</event>
<event>
 5   0  0.2907071E-07  0.3842267E+04  0.7818609E-02  0.8037145E-01
        1   -1    0    0  501    0  0.00000000000E+00  0.00000000000E+00  0.18664930790E+04  0.18664930790E+04  0.50400001928E-02 0.  1.
       -1   -1    0    0    0  501  0.00000000000E+00  0.00000000000E+00 -0.19773737285E+04  0.19773737285E+04  0.50400001928E-02 0. -1.
    10030    2    1    2    0    0  0.00000000000E+00  0.00000000000E+00 -0.11088064956E+03  0.38438668075E+04  0.38422672364E+04 0.  0.
        2    1    3    3  502    0 -0.34428131686E+03 -0.25617838651E+02 -0.19460864717E+04  0.19764712125E+04  0.25500000920E-02 0. -1.
       -2    1    3    3    0  502  0.34428131686E+03  0.25617838651E+02  0.18352058221E+04  0.18673955950E+04  0.25500000920E-02 0.  1.
</event>
<event>
 5   0  0.7638805E-07  0.3779161E+04  0.7818609E-02  0.8050642E-01
        2   -1    0    0  501    0  0.00000000000E+00  0.00000000000E+00  0.25179905713E+04  0.25179905713E+04  0.25500000920E-02 0.  1.
       -2   -1    0    0    0  501  0.00000000000E+00  0.00000000000E+00 -0.14180018726E+04  0.14180018726E+04  0.25500000920E-02 0. -1.
    10030    2    1    2    0    0  0.00000000000E+00  0.00000000000E+00  0.10999886988E+04  0.39359924439E+04  0.37791614654E+04 0.  0.
        5    1    3    3  502    0 -0.18841871416E+03  0.11822774656E+03  0.25043008413E+04  0.25141647133E+04  0.46999998093E+01 0.  1.
       -5    1    3    3    0  502  0.18841871416E+03 -0.11822774656E+03 -0.14043121425E+04  0.14218277306E+04  0.46999998093E+01 0. -1.
</event>
<event>
 5   0  0.7649458E-07  0.3784694E+04  0.7818609E-02  0.8049448E-01
        2   -1    0    0  501    0  0.00000000000E+00  0.00000000000E+00  0.21084131522E+04  0.21084131522E+04  0.25500000920E-02 0.  1.
       -2   -1    0    0    0  501  0.00000000000E+00  0.00000000000E+00 -0.16984227804E+04  0.16984227804E+04  0.25500000920E-02 0. -1.
    10030    2    1    2    0    0  0.00000000000E+00  0.00000000000E+00  0.40999037177E+03  0.38068359326E+04  0.37846938731E+04 0.  0.
        4    1    3    3  502    0  0.66227201667E+03 -0.19697692053E+02 -0.15779390512E+04  0.17113986926E+04  0.12699999809E+01 0. -1.
       -4    1    3    3    0  502 -0.66227201667E+03  0.19697692053E+02  0.19879294229E+04  0.20954372399E+04  0.12699999809E+01 0.  1.
</event>
<event>
 5   0  0.7649458E-07  0.3663818E+04  0.7818609E-02  0.8076028E-01
        2   -1    0    0  501    0  0.00000000000E+00  0.00000000000E+00  0.20037416562E+04  0.20037416562E+04  0.25500000920E-02 0.  1.
       -2   -1    0    0    0  501  0.00000000000E+00  0.00000000000E+00 -0.16748121844E+04  0.16748121844E+04  0.25500000920E-02 0. -1.
    10030    2    1    2    0    0  0.00000000000E+00  0.00000000000E+00  0.32892947185E+03  0.36785538406E+04  0.36638181943E+04 0.  0.
        4    1    3    3  502    0  0.16597441829E+04 -0.70077851455E+03  0.49753385963E+03  0.18690593445E+04  0.12699999809E+01 0.  1.
       -4    1    3    3    0  502 -0.16597441829E+04  0.70077851455E+03 -0.16860438778E+03  0.18094944961E+04  0.12699999809E+01 0. -1.
</event>
<event>
 5   0  0.2529875E-07  0.3776216E+04  0.7818609E-02  0.8051278E-01
        3   -1    0    0  501    0  0.00000000000E+00  0.00000000000E+00  0.15000348516E+04  0.15000348550E+04  0.10100000352E+00 0.  1.
       -3   -1    0    0    0  501  0.00000000000E+00  0.00000000000E+00 -0.23765797955E+04  0.23765797976E+04  0.10100000352E+00 0. -1.
    10030    2    1    2    0    0  0.00000000000E+00  0.00000000000E+00 -0.87654494385E+03  0.38766146526E+04  0.37762163771E+04 0.  0.
        4    1    3    3  502    0  0.21801805075E+03  0.13541429178E+04  0.89380714174E+03  0.16371095662E+04  0.12699999809E+01 0.  1.
       -4    1    3    3    0  502 -0.21801805075E+03 -0.13541429178E+04 -0.17703520856E+04  0.22395050864E+04  0.12699999809E+01 0. -1.
</event>
<event>
 5   0  0.2529875E-07  0.3747661E+04  0.7818609E-02  0.8057481E-01
        3   -1    0    0  501    0  0.00000000000E+00  0.00000000000E+00  0.19150009200E+04  0.19150009226E+04  0.10100000352E+00 0.  1.
       -3   -1    0    0    0  501  0.00000000000E+00  0.00000000000E+00 -0.18335454665E+04  0.18335454692E+04  0.10100000352E+00 0. -1.
    10030    2    1    2    0    0  0.00000000000E+00  0.00000000000E+00  0.81455453528E+02  0.37485463919E+04  0.37476612789E+04 0.  0.
        3    1    3    3  502    0  0.12657365059E+04 -0.70556677649E+03 -0.11475460645E+04  0.18484521521E+04  0.10100000352E+00 0. -1.
       -3    1    3    3    0  502 -0.12657365059E+04  0.70556677649E+03  0.12290015180E+04  0.19000942397E+04  0.10100000352E+00 0.  1.
</event>
<event>
 5   0  0.2529875E-07  0.3827834E+04  0.7818609E-02  0.8040208E-01
       -1   -1    0    0    0  501  0.00000000000E+00  0.00000000000E+00  0.16310175935E+04  0.16310175935E+04  0.50400001928E-02 0.  1.
        1   -1    0    0  501    0  0.00000000000E+00  0.00000000000E+00 -0.22458857011E+04  0.22458857011E+04  0.50400001928E-02 0. -1.
    10030    2    1    2    0    0  0.00000000000E+00  0.00000000000E+00 -0.61486810757E+03  0.38769032946E+04  0.38278344224E+04 0.  0.
        5    1    3    3  502    0  0.13168281951E+04  0.12958521855E+04  0.19876027927E+03  0.18581703692E+04  0.46999998093E+01 0.  1.
       -5    1    3    3    0  502 -0.13168281951E+04 -0.12958521855E+04 -0.81362838683E+03  0.20187329254E+04  0.46999998093E+01 0. -1.
</event>
<event>
 5   0  0.7649458E-07  0.2586162E+04  0.7818609E-02  0.8372917E-01
        2   -1    0    0  501    0  0.00000000000E+00  0.00000000000E+00  0.25798842198E+04  0.25798842198E+04  0.25500000920E-02 0. -1.
       -2   -1    0    0    0  501  0.00000000000E+00  0.00000000000E+00 -0.64811373997E+03  0.64811373997E+03  0.25500000920E-02 0.  1.
    10030    2    1    2    0    0  0.00000000000E+00  0.00000000000E+00  0.19317704799E+04  0.32279979598E+04  0.25861619519E+04 0.  0.
        4    1    3    3  502    0 -0.39304759593E+03 -0.64139152618E+02 -0.56965963472E+03  0.69506399410E+03  0.12699999809E+01 0.  1.
       -4    1    3    3    0  502  0.39304759593E+03  0.64139152618E+02  0.25014301146E+04  0.25329339657E+04  0.12699999809E+01 0. -1.
</event>
<event>
 5   0  0.7638805E-07  0.3854015E+04  0.7818609E-02  0.8034662E-01
       -2   -1    0    0    0  501  0.00000000000E+00  0.00000000000E+00  0.15704019890E+04  0.15704019890E+04  0.25500000920E-02 0.  1.
        2   -1    0    0  501    0  0.00000000000E+00  0.00000000000E+00 -0.23645904620E+04  0.23645904620E+04  0.25500000920E-02 0. -1.
    10030    2    1    2    0    0  0.00000000000E+00  0.00000000000E+00 -0.79418847299E+03  0.39349924510E+04  0.38540148234E+04 0.  0.
        5    1    3    3  502    0  0.16777808305E+04 -0.59909292482E+03  0.35282766004E+03  0.18161415957E+04  0.46999998093E+01 0.  1.
       -5    1    3    3    0  502 -0.16777808305E+04  0.59909292482E+03 -0.11470161330E+04  0.21188508553E+04  0.46999998093E+01 0. -1.
</event>
<event>
 5   0  0.2529875E-07  0.2805471E+04  0.7818609E-02  0.8301572E-01
       -1   -1    0    0    0  501  0.00000000000E+00  0.00000000000E+00  0.95198958406E+03  0.95198958408E+03  0.50400001928E-02 0. -1.
        1   -1    0    0  501    0  0.00000000000E+00  0.00000000000E+00 -0.20669002499E+04  0.20669002499E+04  0.50400001928E-02 0.  1.
    10030    2    1    2    0    0  0.00000000000E+00  0.00000000000E+00 -0.11149106658E+04  0.30188898340E+04  0.28054714464E+04 0.  0.
        5    1    3    3  502    0 -0.11566434331E+04  0.69247886733E+03 -0.14028557216E+03  0.13553793362E+04  0.46999998093E+01 0. -1.
       -5    1    3    3    0  502  0.11566434331E+04 -0.69247886733E+03 -0.97462509365E+03  0.16635104978E+04  0.46999998093E+01 0.  1.
</event>
<event>
 5   0  0.7649458E-07  0.2371921E+04  0.7818609E-02  0.8450091E-01
        2   -1    0    0  501    0  0.00000000000E+00  0.00000000000E+00  0.13368758643E+04  0.13368758644E+04  0.25500000920E-02 0.  1.
       -2   -1    0    0    0  501  0.00000000000E+00  0.00000000000E+00 -0.10520810954E+04  0.10520810954E+04  0.25500000920E-02 0. -1.
    10030    2    1    2    0    0  0.00000000000E+00  0.00000000000E+00  0.28479476893E+03  0.23889569598E+04  0.23719205921E+04 0.  0.
        4    1    3    3  502    0 -0.10559838492E+04 -0.18326507310E+03  0.65379646299E+03  0.12554439074E+04  0.12699999809E+01 0.  1.
       -4    1    3    3    0  502  0.10559838492E+04  0.18326507310E+03 -0.36900169406E+03  0.11335130524E+04  0.12699999809E+01 0. -1.
</event>
<event>
 5   0  0.7551495E-07  0.2925446E+04  0.7818609E-02  0.8265346E-01
        2   -1    0    0  501    0  0.00000000000E+00  0.00000000000E+00  0.18868354384E+04  0.18868354384E+04  0.25500000920E-02 0. -1.
       -2   -1    0    0    0  501  0.00000000000E+00  0.00000000000E+00 -0.11339404691E+04  0.11339404691E+04  0.25500000920E-02 0.  1.
    10030    2    1    2    0    0  0.00000000000E+00  0.00000000000E+00  0.75289496927E+03  0.30207759075E+04  0.29254463332E+04 0.  0.
        1    1    3    3  502    0  0.23005358947E+03  0.12321829961E+04  0.11549103931E+04  0.17044112198E+04  0.50400001928E-02 0. -1.
       -1    1    3    3    0  502 -0.23005358947E+03 -0.12321829961E+04 -0.40201542380E+03  0.13163646877E+04  0.50400001928E-02 0.  1.
</event>
<event>
 5   0  0.2529875E-07  0.3806501E+04  0.7818609E-02  0.8044761E-01
       -1   -1    0    0    0  501  0.00000000000E+00  0.00000000000E+00  0.16369493973E+04  0.16369493973E+04  0.50400001928E-02 0.  1.
        1   -1    0    0  501    0  0.00000000000E+00  0.00000000000E+00 -0.22128736489E+04  0.22128736489E+04  0.50400001928E-02 0. -1.
    10030    2    1    2    0    0  0.00000000000E+00  0.00000000000E+00 -0.57592425160E+03  0.38498230462E+04  0.38065008529E+04 0.  0.
        3    1    3    3  502    0  0.17695629252E+04 -0.20642973168E+03 -0.96520695687E+03  0.20262257180E+04  0.10100000352E+00 0. -1.
       -3    1    3    3    0  502 -0.17695629252E+04  0.20642973168E+03  0.38928270527E+03  0.18235973282E+04  0.10100000352E+00 0.  1.
</event>
<event>
 5   0  0.8421677E-07  0.3841357E+04  0.7818609E-02  0.8037338E-01
       -2   -1    0    0    0  501  0.00000000000E+00  0.00000000000E+00  0.25687964082E+04  0.25687964082E+04  0.25500000920E-02 0. -1.
        2   -1    0    0  501    0  0.00000000000E+00  0.00000000000E+00 -0.14360831059E+04  0.14360831059E+04  0.25500000920E-02 0.  1.
    10030    2    1    2    0    0  0.00000000000E+00  0.00000000000E+00  0.11327133023E+04  0.40048795141E+04  0.38413565960E+04 0.  0.
        3    1    3    3  502    0 -0.88174170259E+03 -0.14508365889E+04 -0.36998986238E+03  0.17376097796E+04  0.10100000352E+00 0.  1.
       -3    1    3    3    0  502  0.88174170259E+03  0.14508365889E+04  0.15027031647E+04  0.22672697345E+04  0.10100000352E+00 0. -1.
</event>
<event>
 5   0  0.2529875E-07  0.3661445E+04  0.7818609E-02  0.8076560E-01
        1   -1    0    0  501    0  0.00000000000E+00  0.00000000000E+00  0.14997671632E+04  0.14997671632E+04  0.50400001928E-02 0. -1.
       -1   -1    0    0    0  501  0.00000000000E+00  0.00000000000E+00 -0.22347104072E+04  0.22347104072E+04  0.50400001928E-02 0.  1.
    10030    2    1    2    0    0  0.00000000000E+00  0.00000000000E+00 -0.73494324403E+03  0.37344775704E+04  0.36614452272E+04 0.  0.
        3    1    3    3  502    0  0.23797469936E+03 -0.13018006591E+04 -0.16577050678E+04  0.21211560564E+04  0.10100000352E+00 0.  1.
       -3    1    3    3    0  502 -0.23797469936E+03  0.13018006591E+04  0.92276182379E+03  0.16133215139E+04  0.10100000352E+00 0. -1.
</event>
<event>
 5   0  0.2529875E-07  0.3747449E+04  0.7818609E-02  0.8057527E-01
       -1   -1    0    0    0  501  0.00000000000E+00  0.00000000000E+00  0.26723385664E+04  0.26723385664E+04  0.50400001928E-02 0.  1.
        1   -1    0    0  501    0  0.00000000000E+00  0.00000000000E+00 -0.13137718423E+04  0.13137718423E+04  0.50400001928E-02 0. -1.
    10030    2    1    2    0    0  0.00000000000E+00  0.00000000000E+00  0.13585667241E+04  0.39861104087E+04  0.37474488184E+04 0.  0.
        5    1    3    3  502    0  0.16708288304E+04  0.82004483018E+03  0.90909518860E+03  0.20713808573E+04  0.46999998093E+01 0. -1.
       -5    1    3    3    0  502 -0.16708288304E+04 -0.82004483018E+03  0.44947153553E+03  0.19147295515E+04  0.46999998093E+01 0.  1.
</event>
<event>
 5   0  0.2529875E-07  0.3798488E+04  0.7818609E-02  0.8046479E-01
        1   -1    0    0  501    0  0.00000000000E+00  0.00000000000E+00  0.21170471552E+04  0.21170471552E+04  0.50400001928E-02 0.  1.
       -1   -1    0    0    0  501  0.00000000000E+00  0.00000000000E+00 -0.17038484726E+04  0.17038484726E+04  0.50400001928E-02 0. -1.
    10030    2    1    2    0    0  0.00000000000E+00  0.00000000000E+00  0.41319868258E+03  0.38208956278E+04  0.37984878896E+04 0.  0.
        1    1    3    3  502    0  0.18887220602E+04  0.16816159271E+03  0.98362446818E+02  0.18987428770E+04  0.50400001928E-02 0.  1.
       -1    1    3    3    0  502 -0.18887220602E+04 -0.16816159271E+03  0.31483623576E+03  0.19221527508E+04  0.50400001928E-02 0. -1.
</event>
<event>
 5   0  0.2529875E-07  0.3738451E+04  0.7818609E-02  0.8059494E-01
        1   -1    0    0  501    0  0.00000000000E+00  0.00000000000E+00  0.12563084497E+04  0.12563084497E+04  0.50400001928E-02 0. -1.
       -1   -1    0    0    0  501  0.00000000000E+00  0.00000000000E+00 -0.27811675074E+04  0.27811675074E+04  0.50400001928E-02 0.  1.
    10030    2    1    2    0    0  0.00000000000E+00  0.00000000000E+00 -0.15248590577E+04  0.40374759571E+04  0.37384511443E+04 0.  0.
        1    1    3    3  502    0  0.78335233422E+03 -0.51120861023E+03 -0.25102161195E+04  0.26788355846E+04  0.50400001928E-02 0.  1.
       -1    1    3    3    0  502 -0.78335233422E+03  0.51120861023E+03  0.98535706173E+03  0.13586403725E+04  0.50400001928E-02 0. -1.
</event>
<event>
 5   0  0.8421677E-07  0.3911920E+04  0.7818609E-02  0.8022555E-01
       -2   -1    0    0    0  501  0.00000000000E+00  0.00000000000E+00  0.16014811833E+04  0.16014811833E+04  0.25500000920E-02 0. -1.
        2   -1    0    0  501    0  0.00000000000E+00  0.00000000000E+00 -0.23889005992E+04  0.23889005992E+04  0.25500000920E-02 0.  1.
    10030    2    1    2    0    0  0.00000000000E+00  0.00000000000E+00 -0.78741941596E+03  0.39903817825E+04  0.39119199166E+04 0.  0.
        3    1    3    3  502    0  0.14776460787E+04  0.34616617118E+02  0.91305597140E+03  0.17373276781E+04  0.10100000352E+00 0. -1.
       -3    1    3    3    0  502 -0.14776460787E+04 -0.34616617118E+02 -0.17004753874E+04  0.22530541044E+04  0.10100000352E+00 0.  1.
</event>
<event>
 5   0  0.2529875E-07  0.4026203E+04  0.7818609E-02  0.7999281E-01
       -1   -1    0    0    0  501  0.00000000000E+00  0.00000000000E+00  0.28888242727E+04  0.28888242727E+04  0.50400001928E-02 0.  1.
        1   -1    0    0  501    0  0.00000000000E+00  0.00000000000E+00 -0.14028467110E+04  0.14028467110E+04  0.50400001928E-02 0. -1.
    10030    2    1    2    0    0  0.00000000000E+00  0.00000000000E+00  0.14859775617E+04  0.42916709838E+04  0.40262029903E+04 0.  0.
        1    1    3    3  502    0  0.11168086149E+04 -0.12132492423E+04  0.19738287807E+04  0.25720099654E+04  0.50400001928E-02 0.  1.
       -1    1    3    3    0  502 -0.11168086149E+04  0.12132492423E+04 -0.48785121903E+03  0.17196610184E+04  0.50400001928E-02 0. -1.
</event>
<event>
 5   0  0.2907071E-07  0.2609017E+04  0.7818609E-02  0.8365145E-01
        1   -1    0    0  501    0  0.00000000000E+00  0.00000000000E+00  0.25861318732E+04  0.25861318732E+04  0.50400001928E-02 0.  1.
       -1   -1    0    0    0  501  0.00000000000E+00  0.00000000000E+00 -0.65802624462E+03  0.65802624464E+03  0.50400001928E-02 0. -1.
    10030    2    1    2    0    0  0.00000000000E+00  0.00000000000E+00  0.19281056286E+04  0.32441581178E+04  0.26090171672E+04 0.  0.
        2    1    3    3  502    0  0.66383713277E+03  0.59583345485E+03  0.21476394599E+04  0.23255219832E+04  0.25500000920E-02 0.  1.
       -2    1    3    3    0  502 -0.66383713277E+03 -0.59583345485E+03 -0.21953383129E+03  0.91863613463E+03  0.25500000920E-02 0. -1.
</event>
<event>
 5   0  0.2529875E-07  0.3847523E+04  0.7818609E-02  0.8036033E-01
        1   -1    0    0  501    0  0.00000000000E+00  0.00000000000E+00  0.21422037412E+04  0.21422037412E+04  0.50400001928E-02 0. -1.
       -1   -1    0    0    0  501  0.00000000000E+00  0.00000000000E+00 -0.17275943844E+04  0.17275943844E+04  0.50400001928E-02 0.  1.
    10030    2    1    2    0    0  0.00000000000E+00  0.00000000000E+00  0.41460935681E+03  0.38697981256E+04  0.38475234390E+04 0.  0.
        5    1    3    3  502    0 -0.62242868576E+03  0.93539003038E+03  0.17779036420E+04  0.21031727052E+04  0.46999998093E+01 0. -1.
       -5    1    3    3    0  502  0.62242868576E+03 -0.93539003038E+03 -0.13632942852E+04  0.17666254204E+04  0.46999998093E+01 0.  1.
</event>
<event>
 5   0  0.7649458E-07  0.3797313E+04  0.7818609E-02  0.8046732E-01
        2   -1    0    0  501    0  0.00000000000E+00  0.00000000000E+00  0.19362375608E+04  0.19362375608E+04  0.25500000920E-02 0.  1.
       -2   -1    0    0    0  501  0.00000000000E+00  0.00000000000E+00 -0.18618053200E+04  0.18618053200E+04  0.25500000920E-02 0. -1.
    10030    2    1    2    0    0  0.00000000000E+00  0.00000000000E+00  0.74432240882E+02  0.37980428808E+04  0.37973134669E+04 0.  0.
        4    1    3    3  502    0  0.15896776908E+04 -0.87671413196E+03  0.59337414110E+03  0.19099207612E+04  0.12699999809E+01 0.  1.
       -4    1    3    3    0  502 -0.15896776908E+04  0.87671413196E+03 -0.51894190022E+03  0.18881221196E+04  0.12699999809E+01 0. -1.
</event>
<event>
 5   0  0.8421677E-07  0.3724955E+04  0.7818609E-02  0.8062454E-01
        2   -1    0    0  501    0  0.00000000000E+00  0.00000000000E+00  0.98829540184E+03  0.98829540184E+03  0.25500000920E-02 0.  1.
       -2   -1    0    0    0  501  0.00000000000E+00  0.00000000000E+00 -0.35099044523E+04  0.35099044523E+04  0.25500000920E-02 0. -1.
    10030    2    1    2    0    0  0.00000000000E+00  0.00000000000E+00 -0.25216090505E+04  0.44981998542E+04  0.37249549963E+04 0.  0.
        3    1    3    3  502    0  0.77333522741E+03 -0.29484755269E+03  0.75403216094E+03  0.11196191152E+04  0.10100000352E+00 0.  1.
       -3    1    3    3    0  502 -0.77333522741E+03  0.29484755269E+03 -0.32756412114E+04  0.33785807389E+04  0.10100000352E+00 0. -1.
</event>
<event>
 5   0  0.2529875E-07  0.3748983E+04  0.7818609E-02  0.8057192E-01
        1   -1    0    0  501    0  0.00000000000E+00  0.00000000000E+00  0.13183519977E+04  0.13183519978E+04  0.50400001928E-02 0. -1.
       -1   -1    0    0    0  501  0.00000000000E+00  0.00000000000E+00 -0.26652356162E+04  0.26652356162E+04  0.50400001928E-02 0.  1.
    10030    2    1    2    0    0  0.00000000000E+00  0.00000000000E+00 -0.13468836185E+04  0.39835876140E+04  0.37489831684E+04 0.  0.
        1    1    3    3  502    0 -0.16196729436E+04 -0.59477414853E+03 -0.14518279707E+04  0.22549725472E+04  0.50400001928E-02 0. -1.
       -1    1    3    3    0  502  0.16196729436E+04  0.59477414853E+03  0.10494435225E+03  0.17286150668E+04  0.50400001928E-02 0.  1.
</event>
<event>
 5   0  0.2907071E-07  0.3830329E+04  0.7818609E-02  0.8039678E-01
        1   -1    0    0  501    0  0.00000000000E+00  0.00000000000E+00  0.20129551424E+04  0.20129551424E+04  0.50400001928E-02 0. -1.
       -1   -1    0    0    0  501  0.00000000000E+00  0.00000000000E+00 -0.18221244123E+04  0.18221244124E+04  0.50400001928E-02 0.  1.
    10030    2    1    2    0    0  0.00000000000E+00  0.00000000000E+00  0.19083073005E+03  0.38350795548E+04  0.38303288141E+04 0.  0.
        2    1    3    3  502    0 -0.14233731556E+04 -0.89594580320E+03 -0.82176921268E+03  0.18719013493E+04  0.25500000920E-02 0.  1.
       -2    1    3    3    0  502  0.14233731556E+04  0.89594580320E+03  0.10125999427E+04  0.19631782055E+04  0.25500000920E-02 0. -1.
</event>
<event>
 5   0  0.2529875E-07  0.3539518E+04  0.7818609E-02  0.8104488E-01
       -1   -1    0    0    0  501  0.00000000000E+00  0.00000000000E+00  0.14012115945E+04  0.14012115945E+04  0.50400001928E-02 0. -1.
        1   -1    0    0  501    0  0.00000000000E+00  0.00000000000E+00 -0.22352423225E+04  0.22352423225E+04  0.50400001928E-02 0.  1.
    10030    2    1    2    0    0  0.00000000000E+00  0.00000000000E+00 -0.83403072807E+03  0.36364539170E+04  0.35395183055E+04 0.  0.
        4    1    3    3  502    0 -0.16121955934E+04 -0.44961858584E+03 -0.10078425088E+04  0.19537347925E+04  0.12699999809E+01 0.  1.
       -4    1    3    3    0  502  0.16121955934E+04  0.44961858584E+03  0.17381178069E+03  0.16827191245E+04  0.12699999809E+01 0. -1.
</event>
<event>
 5   0  0.2529875E-07  0.3786012E+04  0.7818609E-02  0.8049163E-01
       -1   -1    0    0    0  501  0.00000000000E+00  0.00000000000E+00  0.19518991619E+04  0.19518991619E+04  0.50400001928E-02 0. -1.
        1   -1    0    0  501    0  0.00000000000E+00  0.00000000000E+00 -0.18358896386E+04  0.18358896386E+04  0.50400001928E-02 0.  1.
    10030    2    1    2    0    0  0.00000000000E+00  0.00000000000E+00  0.11600952331E+03  0.37877888006E+04  0.37860118579E+04 0.  0.
        3    1    3    3  502    0  0.18108114041E+04 -0.35782759608E+03  0.47819343809E+03  0.19067636205E+04  0.10100000352E+00 0. -1.
       -3    1    3    3    0  502 -0.18108114041E+04  0.35782759608E+03 -0.36218391478E+03  0.18810251801E+04  0.10100000352E+00 0.  1.
</event>
<event>
 5   0  0.2529875E-07  0.2804025E+04  0.7818609E-02  0.8302020E-01
        1   -1    0    0  501    0  0.00000000000E+00  0.00000000000E+00  0.12915604869E+04  0.12915604869E+04  0.50400001928E-02 0. -1.
       -1   -1    0    0    0  501  0.00000000000E+00  0.00000000000E+00 -0.15219097814E+04  0.15219097814E+04  0.50400001928E-02 0.  1.
    10030    2    1    2    0    0  0.00000000000E+00  0.00000000000E+00 -0.23034929452E+03  0.28134702683E+04  0.28040246349E+04 0.  0.
        1    1    3    3  502    0 -0.50837378678E+03  0.91087361636E+03  0.82473266750E+03  0.13297814200E+04  0.50400001928E-02 0. -1.
       -1    1    3    3    0  502  0.50837378678E+03 -0.91087361636E+03 -0.10550819620E+04  0.14836888483E+04  0.50400001928E-02 0.  1.
</event>
<event>
 5   0  0.7649458E-07  0.3789390E+04  0.7818609E-02  0.8048436E-01
       -2   -1    0    0    0  501  0.00000000000E+00  0.00000000000E+00  0.15988647393E+04  0.15988647393E+04  0.25500000920E-02 0.  1.
        2   -1    0    0  501    0  0.00000000000E+00  0.00000000000E+00 -0.22452615617E+04  0.22452615617E+04  0.25500000920E-02 0. -1.
    10030    2    1    2    0    0  0.00000000000E+00  0.00000000000E+00 -0.64639682247E+03  0.38441263010E+04  0.37893902103E+04 0.  0.
        4    1    3    3  502    0 -0.80510786568E+03  0.33751233958E+03  0.13826843633E+04  0.16352158623E+04  0.12699999809E+01 0.  1.
       -4    1    3    3    0  502  0.80510786568E+03 -0.33751233958E+03 -0.20290811858E+04  0.22089104387E+04  0.12699999809E+01 0. -1.
</event>
<event>
 5   0  0.7649458E-07  0.2935888E+04  0.7818609E-02  0.8262279E-01
       -2   -1    0    0    0  501  0.00000000000E+00  0.00000000000E+00  0.92540135847E+03  0.92540135847E+03  0.25500000920E-02 0.  1.
        2   -1    0    0  501    0  0.00000000000E+00  0.00000000000E+00 -0.23285678660E+04  0.23285678660E+04  0.25500000920E-02 0. -1.
    10030    2    1    2    0    0  0.00000000000E+00  0.00000000000E+00 -0.14031665076E+04  0.32539692245E+04  0.29358881903E+04 0.  0.
        4    1    3    3  502    0  0.92363789974E+03  0.90291135096E+03  0.71482459446E+02  0.12936256153E+04  0.12699999809E+01 0.  1.
       -4    1    3    3    0  502 -0.92363789974E+03 -0.90291135096E+03 -0.14746489670E+04  0.19603436092E+04  0.12699999809E+01 0. -1.
</event>
<event>
 5   0  0.2529875E-07  0.2703600E+04  0.7818609E-02  0.8333838E-01
       -1   -1    0    0    0  501  0.00000000000E+00  0.00000000000E+00  0.17026900304E+04  0.17026900304E+04  0.50400001928E-02 0.  1.
        1   -1    0    0  501    0  0.00000000000E+00  0.00000000000E+00 -0.10732211937E+04  0.10732211937E+04  0.50400001928E-02 0. -1.
    10030    2    1    2    0    0  0.00000000000E+00  0.00000000000E+00  0.62946883667E+03  0.27759112241E+04  0.27035998424E+04 0.  0.
        1    1    3    3  502    0  0.67300158177E+03  0.95115772981E+03  0.10184346791E+04  0.15475274963E+04  0.50400001928E-02 0.  1.
       -1    1    3    3    0  502 -0.67300158177E+03 -0.95115772981E+03 -0.38896584248E+03  0.12283837278E+04  0.50400001928E-02 0. -1.
</event>
<event>
 5   0  0.2529875E-07  0.3765836E+04  0.7818609E-02  0.8053526E-01
        1   -1    0    0  501    0  0.00000000000E+00  0.00000000000E+00  0.21054026799E+04  0.21054026799E+04  0.50400001928E-02 0.  1.
       -1   -1    0    0    0  501  0.00000000000E+00  0.00000000000E+00 -0.16839436243E+04  0.16839436243E+04  0.50400001928E-02 0. -1.
    10030    2    1    2    0    0  0.00000000000E+00  0.00000000000E+00  0.42145905559E+03  0.37893463042E+04  0.37658355882E+04 0.  0.
        4    1    3    3  502    0  0.41075644087E+03 -0.33584393681E+02 -0.16380020775E+04  0.16890533396E+04  0.12699999809E+01 0. -1.
       -4    1    3    3    0  502 -0.41075644087E+03  0.33584393681E+02  0.20594611331E+04  0.21002929646E+04  0.12699999809E+01 0.  1.
</event>
<event>
 5   0  0.7649458E-07  0.2393530E+04  0.7818609E-02  0.8441930E-01
       -2   -1    0    0    0  501  0.00000000000E+00  0.00000000000E+00  0.12421485645E+04  0.12421485645E+04  0.25500000920E-02 0.  1.
        2   -1    0    0  501    0  0.00000000000E+00  0.00000000000E+00 -0.11530391649E+04  0.11530391649E+04  0.25500000920E-02 0. -1.
    10030    2    1    2    0    0  0.00000000000E+00  0.00000000000E+00  0.89109399595E+02  0.23951877294E+04  0.23935295640E+04 0.  0.
        4    1    3    3  502    0  0.71216363903E+02  0.11724856858E+04 -0.18462333839E+03  0.11890676364E+04  0.12699999809E+01 0.  1.
       -4    1    3    3    0  502 -0.71216363903E+02 -0.11724856858E+04  0.27373273798E+03  0.12061200930E+04  0.12699999809E+01 0. -1.
</event>
<event>
 5   0  0.7649458E-07  0.3685840E+04  0.7818609E-02  0.8071107E-01
        2   -1    0    0  501    0  0.00000000000E+00  0.00000000000E+00  0.22411005941E+04  0.22411005941E+04  0.25500000920E-02 0.  1.
       -2   -1    0    0    0  501  0.00000000000E+00  0.00000000000E+00 -0.15154851077E+04  0.15154851077E+04  0.25500000920E-02 0. -1.
    10030    2    1    2    0    0  0.00000000000E+00  0.00000000000E+00  0.72561548634E+03  0.37565857018E+04  0.36858402436E+04 0.  0.
        4    1    3    3  502    0  0.85127848633E+03 -0.95027095800E+03 -0.99262926693E+03  0.16164790223E+04  0.12699999809E+01 0. -1.
       -4    1    3    3    0  502 -0.85127848633E+03  0.95027095800E+03  0.17182447533E+04  0.21401066796E+04  0.12699999809E+01 0.  1.
</event>
<event>
 5   0  0.7638805E-07  0.2937743E+04  0.7818609E-02  0.8261736E-01
        2   -1    0    0  501    0  0.00000000000E+00  0.00000000000E+00  0.21798532347E+04  0.21798532347E+04  0.25500000920E-02 0.  1.
       -2   -1    0    0    0  501  0.00000000000E+00  0.00000000000E+00 -0.98978375708E+03  0.98978375708E+03  0.25500000920E-02 0. -1.
    10030    2    1    2    0    0  0.00000000000E+00  0.00000000000E+00  0.11900694776E+04  0.31696369918E+04  0.29377428918E+04 0.  0.
        5    1    3    3  502    0 -0.27102043668E+03 -0.14002430174E+04  0.21597842794E+03  0.14424983037E+04  0.46999998093E+01 0.  1.
       -5    1    3    3    0  502  0.27102043668E+03  0.14002430174E+04  0.97409104969E+03  0.17271386881E+04  0.46999998093E+01 0. -1.
</event>
<event>
 5   0  0.7551495E-07  0.3713536E+04  0.7818609E-02  0.8064969E-01
        2   -1    0    0  501    0  0.00000000000E+00  0.00000000000E+00  0.13328999226E+04  0.13328999226E+04  0.25500000920E-02 0. -1.
       -2   -1    0    0    0  501  0.00000000000E+00  0.00000000000E+00 -0.25865307144E+04  0.25865307144E+04  0.25500000920E-02 0.  1.
    10030    2    1    2    0    0  0.00000000000E+00  0.00000000000E+00 -0.12536307918E+04  0.39194306370E+04  0.37135355601E+04 0.  0.
        1    1    3    3  502    0 -0.13142496674E+04  0.65351203289E+03  0.57345119597E+03  0.15758097727E+04  0.50400001928E-02 0. -1.
       -1    1    3    3    0  502  0.13142496674E+04 -0.65351203289E+03 -0.18270819878E+04  0.23436208643E+04  0.50400001928E-02 0.  1.
</event>
<event>
 5   0  0.2529875E-07  0.3748950E+04  0.7818609E-02  0.8057200E-01
        3   -1    0    0  501    0  0.00000000000E+00  0.00000000000E+00  0.28144155462E+04  0.28144155480E+04  0.10100000352E+00 0.  1.
       -3   -1    0    0    0  501  0.00000000000E+00  0.00000000000E+00 -0.12484497036E+04  0.12484497076E+04  0.10100000352E+00 0. -1.
    10030    2    1    2    0    0  0.00000000000E+00  0.00000000000E+00  0.15659658426E+04  0.40628652556E+04  0.37489498616E+04 0.  0.
        2    1    3    3  502    0 -0.13535964021E+04  0.20699416152E+03 -0.60427581482E+03  0.14967361368E+04  0.25500000920E-02 0. -1.
       -2    1    3    3    0  502  0.13535964021E+04 -0.20699416152E+03  0.21702416574E+04  0.25661291188E+04  0.25500000920E-02 0.  1.
</event>
<event>
 5   0  0.7638805E-07  0.4000968E+04  0.7818609E-02  0.8004351E-01
       -2   -1    0    0    0  501  0.00000000000E+00  0.00000000000E+00  0.23949114918E+04  0.23949114918E+04  0.25500000920E-02 0.  1.
        2   -1    0    0  501    0  0.00000000000E+00  0.00000000000E+00 -0.16710162389E+04  0.16710162389E+04  0.25500000920E-02 0. -1.
    10030    2    1    2    0    0  0.00000000000E+00  0.00000000000E+00  0.72389525288E+03  0.40659277306E+04  0.40009678796E+04 0.  0.
        5    1    3    3  502    0  0.93991808762E+03 -0.70625219184E+03  0.20067675535E+04  0.23258065856E+04  0.46999998093E+01 0.  1.
       -5    1    3    3    0  502 -0.93991808762E+03  0.70625219184E+03 -0.12828723006E+04  0.17401211451E+04  0.46999998093E+01 0. -1.
</event>
<event>
 5   0  0.2907071E-07  0.3667343E+04  0.7818609E-02  0.8075238E-01
        1   -1    0    0  501    0  0.00000000000E+00  0.00000000000E+00  0.25339690461E+04  0.25339690461E+04  0.50400001928E-02 0.  1.
       -1   -1    0    0    0  501  0.00000000000E+00  0.00000000000E+00 -0.13269107039E+04  0.13269107039E+04  0.50400001928E-02 0. -1.
    10030    2    1    2    0    0  0.00000000000E+00  0.00000000000E+00  0.12070583421E+04  0.38608797500E+04  0.36673427168E+04 0.  0.
        2    1    3    3  502    0 -0.94501727153E+03 -0.10889139862E+04  0.17962608480E+04  0.23033333122E+04  0.25500000920E-02 0.  1.
       -2    1    3    3    0  502  0.94501727153E+03  0.10889139862E+04 -0.58920250588E+03  0.15575464378E+04  0.25500000920E-02 0. -1.
</event>
<event>
 5   0  0.7638805E-07  0.2787446E+04  0.7818609E-02  0.8307177E-01
        2   -1    0    0  501    0  0.00000000000E+00  0.00000000000E+00  0.16941503102E+04  0.16941503102E+04  0.25500000920E-02 0. -1.
       -2   -1    0    0    0  501  0.00000000000E+00  0.00000000000E+00 -0.11465709433E+04  0.11465709433E+04  0.25500000920E-02 0.  1.
    10030    2    1    2    0    0  0.00000000000E+00  0.00000000000E+00  0.54757936684E+03  0.28407212535E+04  0.27874457981E+04 0.  0.
        5    1    3    3  502    0  0.10965320037E+04  0.79525326743E+03  0.60813200258E+03  0.14848086803E+04  0.46999998093E+01 0. -1.
       -5    1    3    3    0  502 -0.10965320037E+04 -0.79525326743E+03 -0.60552635737E+02  0.13559125732E+04  0.46999998093E+01 0.  1.
</event>
<event>
 5   0  0.2529875E-07  0.3758677E+04  0.7818609E-02  0.8055081E-01
        1   -1    0    0  501    0  0.00000000000E+00  0.00000000000E+00  0.20882905687E+04  0.20882905687E+04  0.50400001928E-02 0.  1.
       -1   -1    0    0    0  501  0.00000000000E+00  0.00000000000E+00 -0.16912940808E+04  0.16912940808E+04  0.50400001928E-02 0. -1.
    10030    2    1    2    0    0  0.00000000000E+00  0.00000000000E+00  0.39699648783E+03  0.37795846495E+04  0.37586771491E+04 0.  0.
        3    1    3    3  502    0  0.15573754066E+04 -0.10392423633E+04  0.36210118923E+03  0.19069766984E+04  0.10100000352E+00 0.  1.
       -3    1    3    3    0  502 -0.15573754066E+04  0.10392423633E+04  0.34895298596E+02  0.18726079511E+04  0.10100000352E+00 0. -1.
</event>
<event>
 5   0  0.2529875E-07  0.2407997E+04  0.7818609E-02  0.8436516E-01
        1   -1    0    0  501    0  0.00000000000E+00  0.00000000000E+00  0.76986088058E+03  0.76986088060E+03  0.50400001928E-02 0.  1.
       -1   -1    0    0    0  501  0.00000000000E+00  0.00000000000E+00 -0.18829538612E+04  0.18829538612E+04  0.50400001928E-02 0. -1.
    10030    2    1    2    0    0  0.00000000000E+00  0.00000000000E+00 -0.11130929806E+04  0.26528147418E+04  0.24079971077E+04 0.  0.
        4    1    3    3  502    0  0.10082812577E+04  0.13479960763E+03  0.15299040225E+03  0.10286932026E+04  0.12699999809E+01 0.  1.
       -4    1    3    3    0  502 -0.10082812577E+04 -0.13479960763E+03 -0.12660833828E+04  0.16241215392E+04  0.12699999809E+01 0. -1.
</event>
<event>
 5   0  0.2529875E-07  0.3817358E+04  0.7818609E-02  0.8042440E-01
        1   -1    0    0  501    0  0.00000000000E+00  0.00000000000E+00  0.12866036926E+04  0.12866036926E+04  0.50400001928E-02 0. -1.
       -1   -1    0    0    0  501  0.00000000000E+00  0.00000000000E+00 -0.28315292909E+04  0.28315292909E+04  0.50400001928E-02 0.  1.
    10030    2    1    2    0    0  0.00000000000E+00  0.00000000000E+00 -0.15449255983E+04  0.41181329835E+04  0.38173582705E+04 0.  0.
        3    1    3    3  502    0  0.41411124946E+03 -0.61834756796E+02 -0.27813751212E+04  0.28127138566E+04  0.10100000352E+00 0.  1.
       -3    1    3    3    0  502 -0.41411124946E+03  0.61834756796E+02  0.12364495229E+04  0.13054191269E+04  0.10100000352E+00 0. -1.
</event>
<event>
 5   0  0.2529875E-07  0.3935786E+04  0.7818609E-02  0.8017627E-01
        1   -1    0    0  501    0  0.00000000000E+00  0.00000000000E+00  0.23866751088E+04  0.23866751088E+04  0.50400001928E-02 0.  1.
       -1   -1    0    0    0  501  0.00000000000E+00  0.00000000000E+00 -0.16225931427E+04  0.16225931427E+04  0.50400001928E-02 0. -1.
    10030    2    1    2    0    0  0.00000000000E+00  0.00000000000E+00  0.76408196616E+03  0.40092682515E+04  0.39357859014E+04 0.  0.
        3    1    3    3  502    0 -0.16804469144E+04  0.69457934926E+02 -0.65873723051E+03  0.18062837501E+04  0.10100000352E+00 0. -1.
       -3    1    3    3    0  502  0.16804469144E+04 -0.69457934926E+02  0.14228191967E+04  0.22029845014E+04  0.10100000352E+00 0.  1.
</event>
<event>
 5   0  0.8038352E-07  0.3874547E+04  0.7818609E-02  0.8030344E-01
       -2   -1    0    0    0  501  0.00000000000E+00  0.00000000000E+00  0.29163449850E+04  0.29163449850E+04  0.25500000920E-02 0.  1.
        2   -1    0    0  501    0  0.00000000000E+00  0.00000000000E+00 -0.12868944500E+04  0.12868944500E+04  0.25500000920E-02 0. -1.
    10030    2    1    2    0    0  0.00000000000E+00  0.00000000000E+00  0.16294505350E+04  0.42032394351E+04  0.38745467738E+04 0.  0.
        2    1    3    3  502    0 -0.17383246550E+04  0.57094131318E+03  0.15053492540E+04  0.23693507478E+04  0.25500000920E-02 0.  1.
       -2    1    3    3    0  502  0.17383246550E+04 -0.57094131318E+03  0.12410128099E+03  0.18338886873E+04  0.25500000920E-02 0. -1.
</event>
<event>
 5   0  0.2529875E-07  0.2521739E+04  0.7818609E-02  0.8395282E-01
        1   -1    0    0  501    0  0.00000000000E+00  0.00000000000E+00  0.89569838680E+03  0.89569838681E+03  0.50400001928E-02 0.  1.
       -1   -1    0    0    0  501  0.00000000000E+00  0.00000000000E+00 -0.17749182267E+04  0.17749182267E+04  0.50400001928E-02 0. -1.
    10030    2    1    2    0    0  0.00000000000E+00  0.00000000000E+00 -0.87921983992E+03  0.26706166135E+04  0.25217386006E+04 0.  0.
        5    1    3    3  502    0 -0.59303542094E+03  0.64287264034E+03 -0.14014081624E+04  0.16519513219E+04  0.46999998093E+01 0. -1.
       -5    1    3    3    0  502  0.59303542094E+03 -0.64287264034E+03  0.52218832252E+03  0.10186652916E+04  0.46999998093E+01 0.  1.
</event>
<event>
 5   0  0.2907071E-07  0.3779172E+04  0.7818609E-02  0.8050639E-01
       -1   -1    0    0    0  501  0.00000000000E+00  0.00000000000E+00  0.12164907926E+04  0.12164907926E+04  0.50400001928E-02 0. -1.
        1   -1    0    0  501    0  0.00000000000E+00  0.00000000000E+00 -0.29351102949E+04  0.29351102949E+04  0.50400001928E-02 0.  1.
    10030    2    1    2    0    0  0.00000000000E+00  0.00000000000E+00 -0.17186195023E+04  0.41516010875E+04  0.37791716812E+04 0.  0.
        2    1    3    3  502    0 -0.98546247147E+03 -0.38557657769E+03 -0.25790650114E+04  0.27877198412E+04  0.25500000920E-02 0.  1.
       -2    1    3    3    0  502  0.98546247147E+03  0.38557657769E+03  0.86044550910E+03  0.13638812463E+04  0.25500000920E-02 0. -1.
</event>
<event>
 5   0  0.2529875E-07  0.3786621E+04  0.7818609E-02  0.8049032E-01
       -1   -1    0    0    0  501  0.00000000000E+00  0.00000000000E+00  0.26835084685E+04  0.26835084685E+04  0.50400001928E-02 0. -1.
        1   -1    0    0  501    0  0.00000000000E+00  0.00000000000E+00 -0.13357980146E+04  0.13357980146E+04  0.50400001928E-02 0.  1.
    10030    2    1    2    0    0  0.00000000000E+00  0.00000000000E+00  0.13477104538E+04  0.40193064831E+04  0.37866213354E+04 0.  0.
        3    1    3    3  502    0  0.11927932210E+03  0.17831387175E+04  0.13374215243E+04  0.22321531279E+04  0.10100000352E+00 0. -1.
       -3    1    3    3    0  502 -0.11927932210E+03 -0.17831387175E+04  0.10288929511E+02  0.17871533552E+04  0.10100000352E+00 0.  1.
</event>
<event>
 5   0  0.7551495E-07  0.3746652E+04  0.7818609E-02  0.8057701E-01
       -2   -1    0    0    0  501  0.00000000000E+00  0.00000000000E+00  0.25329333154E+04  0.25329333154E+04  0.25500000920E-02 0.  1.
        2   -1    0    0  501    0  0.00000000000E+00  0.00000000000E+00 -0.13854883902E+04  0.13854883902E+04  0.25500000920E-02 0. -1.
    10030    2    1    2    0    0  0.00000000000E+00  0.00000000000E+00  0.11474449252E+04  0.39184217056E+04  0.37466516793E+04 0.  0.
        1    1    3    3  502    0 -0.20158892318E+03 -0.17503778388E+04 -0.91758841220E+02  0.17643356703E+04  0.50400001928E-02 0. -1.
       -1    1    3    3    0  502  0.20158892318E+03  0.17503778388E+04  0.12392037664E+04  0.21540860353E+04  0.50400001928E-02 0.  1.
</event>
<event>
 5   0  0.8038352E-07  0.2700817E+04  0.7818609E-02  0.8334740E-01
        2   -1    0    0  501    0  0.00000000000E+00  0.00000000000E+00  0.12344952271E+04  0.12344952271E+04  0.25500000920E-02 0. -1.
       -2   -1    0    0    0  501  0.00000000000E+00  0.00000000000E+00 -0.14772055149E+04  0.14772055149E+04  0.25500000920E-02 0.  1.
    10030    2    1    2    0    0  0.00000000000E+00  0.00000000000E+00 -0.24271028780E+03  0.27117007419E+04  0.27008170301E+04 0.  0.
        2    1    3    3  502    0 -0.56520606376E+03  0.11836194310E+04 -0.44388212070E+03  0.13847180901E+04  0.25500000920E-02 0.  1.
       -2    1    3    3    0  502  0.56520606376E+03 -0.11836194310E+04  0.20117183290E+03  0.13269826518E+04  0.25500000920E-02 0. -1.
</event>
<event>
 5   0  0.2529875E-07  0.3226775E+04  0.7818609E-02  0.8181782E-01
        1   -1    0    0  501    0  0.00000000000E+00  0.00000000000E+00  0.21885183835E+04  0.21885183835E+04  0.50400001928E-02 0. -1.
       -1   -1    0    0    0  501  0.00000000000E+00  0.00000000000E+00 -0.11893979985E+04  0.11893979985E+04  0.50400001928E-02 0.  1.
    10030    2    1    2    0    0  0.00000000000E+00  0.00000000000E+00  0.99912038499E+03  0.33779163820E+04  0.32267750991E+04 0.  0.
        3    1    3    3  502    0 -0.39751899979E+03  0.46373950014E+03  0.20628055466E+04  0.21513350303E+04  0.10100000352E+00 0. -1.
       -3    1    3    3    0  502  0.39751899979E+03 -0.46373950014E+03 -0.10636851616E+04  0.12265813517E+04  0.10100000352E+00 0.  1.
</event>
<event>
 5   0  0.7551495E-07  0.3565105E+04  0.7818609E-02  0.8098532E-01
        2   -1    0    0  501    0  0.00000000000E+00  0.00000000000E+00  0.19426246063E+04  0.19426246063E+04  0.25500000920E-02 0. -1.
       -2   -1    0    0    0  501  0.00000000000E+00  0.00000000000E+00 -0.16356705566E+04  0.16356705566E+04  0.25500000920E-02 0.  1.
    10030    2    1    2    0    0  0.00000000000E+00  0.00000000000E+00  0.30695404962E+03  0.35782951629E+04  0.35651052557E+04 0.  0.
        1    1    3    3  502    0 -0.18685745035E+02  0.33203777062E+03  0.19112116322E+04  0.19399299321E+04  0.50400001928E-02 0. -1.
       -1    1    3    3    0  502  0.18685745035E+02 -0.33203777062E+03 -0.16042575826E+04  0.16383652308E+04  0.50400001928E-02 0.  1.
</event>
<event>
 5   0  0.2529875E-07  0.2856936E+04  0.7818609E-02  0.8285807E-01
        1   -1    0    0  501    0  0.00000000000E+00  0.00000000000E+00  0.17960757299E+04  0.17960757299E+04  0.50400001928E-02 0.  1.
       -1   -1    0    0    0  501  0.00000000000E+00  0.00000000000E+00 -0.11360992402E+04  0.11360992402E+04  0.50400001928E-02 0. -1.
    10030    2    1    2    0    0  0.00000000000E+00  0.00000000000E+00  0.65997648975E+03  0.29321749701E+04  0.28569356115E+04 0.  0.
        1    1    3    3  502    0 -0.13885717359E+04 -0.10979612485E+03  0.48914671274E+01  0.13929144199E+04  0.50400001928E-02 0. -1.
       -1    1    3    3    0  502  0.13885717359E+04  0.10979612485E+03  0.65508502262E+03  0.15392605503E+04  0.50400001928E-02 0.  1.
</event>
<event>
 5   0  0.2529875E-07  0.3798758E+04  0.7818609E-02  0.8046421E-01
       -1   -1    0    0    0  501  0.00000000000E+00  0.00000000000E+00  0.28558232810E+04  0.28558232810E+04  0.50400001928E-02 0.  1.
        1   -1    0    0  501    0  0.00000000000E+00  0.00000000000E+00 -0.12632577122E+04  0.12632577122E+04  0.50400001928E-02 0. -1.
    10030    2    1    2    0    0  0.00000000000E+00  0.00000000000E+00  0.15925655688E+04  0.41190809932E+04  0.37987581047E+04 0.  0.
        3    1    3    3  502    0 -0.13599685273E+04  0.71735421287E+03 -0.41288538277E+03  0.15920382569E+04  0.10100000352E+00 0. -1.
       -3    1    3    3    0  502  0.13599685273E+04 -0.71735421287E+03  0.20054509516E+04  0.25270427363E+04  0.10100000352E+00 0.  1.
</event>
<event>
 5   0  0.7649458E-07  0.3777799E+04  0.7818609E-02  0.8050936E-01
       -2   -1    0    0    0  501  0.00000000000E+00  0.00000000000E+00  0.19113101336E+04  0.19113101336E+04  0.25500000920E-02 0.  1.
        2   -1    0    0  501    0  0.00000000000E+00  0.00000000000E+00 -0.18667514152E+04  0.18667514152E+04  0.25500000920E-02 0. -1.
    10030    2    1    2    0    0  0.00000000000E+00  0.00000000000E+00  0.44558718350E+02  0.37780615488E+04  0.37777987754E+04 0.  0.
        4    1    3    3  502    0  0.56140754824E+03 -0.93170481525E+02  0.18235376484E+04  0.19102749388E+04  0.12699999809E+01 0.  1.
       -4    1    3    3    0  502 -0.56140754824E+03  0.93170481525E+02 -0.17789789301E+04  0.18677866100E+04  0.12699999809E+01 0. -1.
</event>
<event>
 5   0  0.7638805E-07  0.2737123E+04  0.7818609E-02  0.8323059E-01
        2   -1    0    0  501    0  0.00000000000E+00  0.00000000000E+00  0.15351315014E+04  0.15351315014E+04  0.25500000920E-02 0. -1.
       -2   -1    0    0    0  501  0.00000000000E+00  0.00000000000E+00 -0.12200653105E+04  0.12200653105E+04  0.25500000920E-02 0.  1.
    10030    2    1    2    0    0  0.00000000000E+00  0.00000000000E+00  0.31506619084E+03  0.27551968119E+04  0.27371230823E+04 0.  0.
        5    1    3    3  502    0 -0.33792502386E+03 -0.12563285651E+04  0.58505373493E+03  0.14264868552E+04  0.46999998093E+01 0. -1.
       -5    1    3    3    0  502  0.33792502386E+03  0.12563285651E+04 -0.26998754409E+03  0.13287099568E+04  0.46999998093E+01 0.  1.
</event>
<event>
 5   0  0.7551495E-07  0.3820797E+04  0.7818609E-02  0.8041707E-01
       -2   -1    0    0    0  501  0.00000000000E+00  0.00000000000E+00  0.17760703028E+04  0.17760703028E+04  0.25500000920E-02 0. -1.
        2   -1    0    0  501    0  0.00000000000E+00  0.00000000000E+00 -0.20548862923E+04  0.20548862923E+04  0.25500000920E-02 0.  1.
    10030    2    1    2    0    0  0.00000000000E+00  0.00000000000E+00 -0.27881598944E+03  0.38309565951E+04  0.38207970474E+04 0.  0.
        1    1    3    3  502    0 -0.26008883601E+03 -0.33385743580E+03  0.17284775361E+04  0.17795340916E+04  0.50400001928E-02 0. -1.
       -1    1    3    3    0  502  0.26008883601E+03  0.33385743580E+03 -0.20072935256E+04  0.20514225035E+04  0.50400001928E-02 0.  1.
</event>
<event>
 5   0  0.7638805E-07  0.3321152E+04  0.7818609E-02  0.8157534E-01
       -2   -1    0    0    0  501  0.00000000000E+00  0.00000000000E+00  0.11884115157E+04  0.11884115157E+04  0.25500000920E-02 0.  1.
        2   -1    0    0  501    0  0.00000000000E+00  0.00000000000E+00 -0.23203353799E+04  0.23203353799E+04  0.25500000920E-02 0. -1.
    10030    2    1    2    0    0  0.00000000000E+00  0.00000000000E+00 -0.11319238642E+04  0.35087468956E+04  0.33211523817E+04 0.  0.
        5    1    3    3  502    0  0.13978577300E+04 -0.78335434854E+03 -0.10262801487E+04  0.19028723820E+04  0.46999998093E+01 0. -1.
       -5    1    3    3    0  502 -0.13978577300E+04  0.78335434854E+03 -0.10564371550E+03  0.16058745135E+04  0.46999998093E+01 0.  1.
</event>
<event>
 5   0  0.7649458E-07  0.3886911E+04  0.7818609E-02  0.8027757E-01
       -2   -1    0    0    0  501  0.00000000000E+00  0.00000000000E+00  0.23628199948E+04  0.23628199948E+04  0.25500000920E-02 0.  1.
        2   -1    0    0  501    0  0.00000000000E+00  0.00000000000E+00 -0.15985214310E+04  0.15985214310E+04  0.25500000920E-02 0. -1.
    10030    2    1    2    0    0  0.00000000000E+00  0.00000000000E+00  0.76429856379E+03  0.39613414258E+04  0.38869105466E+04 0.  0.
        4    1    3    3  502    0  0.17670516572E+04  0.41959910916E+03  0.10871189769E+04  0.21166870941E+04  0.12699999809E+01 0.  1.
       -4    1    3    3    0  502 -0.17670516572E+04 -0.41959910916E+03 -0.32282041313E+03  0.18446543317E+04  0.12699999809E+01 0. -1.
</event>
<event>
 5   0  0.2529875E-07  0.3815671E+04  0.7818609E-02  0.8042800E-01
       -1   -1    0    0    0  501  0.00000000000E+00  0.00000000000E+00  0.17748432838E+04  0.17748432839E+04  0.50400001928E-02 0. -1.
        1   -1    0    0  501    0  0.00000000000E+00  0.00000000000E+00 -0.20507933546E+04  0.20507933546E+04  0.50400001928E-02 0.  1.
    10030    2    1    2    0    0  0.00000000000E+00  0.00000000000E+00 -0.27595007072E+03  0.38256366384E+04  0.38156712709E+04 0.  0.
        3    1    3    3  502    0 -0.15063582773E+04 -0.49818574857E+03 -0.12002384596E+04  0.19894412959E+04  0.10100000352E+00 0.  1.
       -3    1    3    3    0  502  0.15063582773E+04  0.49818574857E+03  0.92428838890E+03  0.18361953425E+04  0.10100000352E+00 0. -1.
</event>
<event>
 5   0  0.2529875E-07  0.3641374E+04  0.7818609E-02  0.8081080E-01
        1   -1    0    0  501    0  0.00000000000E+00  0.00000000000E+00  0.16639035490E+04  0.16639035490E+04  0.50400001928E-02 0. -1.
       -1   -1    0    0    0  501  0.00000000000E+00  0.00000000000E+00 -0.19922435658E+04  0.19922435658E+04  0.50400001928E-02 0.  1.
    10030    2    1    2    0    0  0.00000000000E+00  0.00000000000E+00 -0.32834001682E+03  0.36561471148E+04  0.36413739932E+04 0.  0.
        3    1    3    3  502    0 -0.16565565467E+04 -0.57021115676E+02 -0.92053231788E+03  0.18959986177E+04  0.10100000352E+00 0.  1.
       -3    1    3    3    0  502  0.16565565467E+04  0.57021115676E+02  0.59219230106E+03  0.17601484970E+04  0.10100000352E+00 0. -1.
</event>
<event>
 5   0  0.8421677E-07  0.3702718E+04  0.7818609E-02  0.8067360E-01
       -2   -1    0    0    0  501  0.00000000000E+00  0.00000000000E+00  0.15568604154E+04  0.15568604154E+04  0.25500000920E-02 0. -1.
        2   -1    0    0  501    0  0.00000000000E+00  0.00000000000E+00 -0.22015653942E+04  0.22015653942E+04  0.25500000920E-02 0.  1.
    10030    2    1    2    0    0  0.00000000000E+00  0.00000000000E+00 -0.64470497887E+03  0.37584258096E+04  0.37027179283E+04 0.  0.
        3    1    3    3  502    0 -0.13707158786E+03 -0.17793765791E+04  0.17756148738E+03  0.17934597075E+04  0.10100000352E+00 0.  1.
       -3    1    3    3    0  502  0.13707158786E+03  0.17793765791E+04 -0.82226646625E+03  0.19649661021E+04  0.10100000352E+00 0. -1.
</event>
<event>
 5   0  0.7649458E-07  0.3830818E+04  0.7818609E-02  0.8039574E-01
        2   -1    0    0  501    0  0.00000000000E+00  0.00000000000E+00  0.14401076723E+04  0.14401076723E+04  0.25500000920E-02 0.  1.
       -2   -1    0    0    0  501  0.00000000000E+00  0.00000000000E+00 -0.25475816388E+04  0.25475816388E+04  0.25500000920E-02 0. -1.
    10030    2    1    2    0    0  0.00000000000E+00  0.00000000000E+00 -0.11074739665E+04  0.39876893111E+04  0.38308181183E+04 0.  0.
        4    1    3    3  502    0 -0.15545272440E+04  0.25085586661E+03 -0.16889482739E+04  0.23091192050E+04  0.12699999809E+01 0. -1.
       -4    1    3    3    0  502  0.15545272440E+04 -0.25085586661E+03  0.58147430744E+03  0.16785701061E+04  0.12699999809E+01 0.  1.
</event>
<event>
 5   0  0.2529875E-07  0.3709631E+04  0.7818609E-02  0.8065831E-01
        1   -1    0    0  501    0  0.00000000000E+00  0.00000000000E+00  0.17131273494E+04  0.17131273494E+04  0.50400001928E-02 0.  1.
       -1   -1    0    0    0  501  0.00000000000E+00  0.00000000000E+00 -0.20082227960E+04  0.20082227960E+04  0.50400001928E-02 0. -1.
    10030    2    1    2    0    0  0.00000000000E+00  0.00000000000E+00 -0.29509544652E+03  0.37213501454E+04  0.37096314618E+04 0.  0.
        4    1    3    3  502    0 -0.40809935738E+03 -0.12293374841E+04 -0.14793424607E+04  0.19662836683E+04  0.12699999809E+01 0. -1.
       -4    1    3    3    0  502  0.40809935738E+03  0.12293374841E+04  0.11842470142E+04  0.17550664771E+04  0.12699999809E+01 0.  1.
</event>
<event>
 5   0  0.2529875E-07  0.3800833E+04  0.7818609E-02  0.8045976E-01
       -1   -1    0    0    0  501  0.00000000000E+00  0.00000000000E+00  0.14459226174E+04  0.14459226174E+04  0.50400001928E-02 0.  1.
        1   -1    0    0  501    0  0.00000000000E+00  0.00000000000E+00 -0.24977705824E+04  0.24977705824E+04  0.50400001928E-02 0. -1.
    10030    2    1    2    0    0  0.00000000000E+00  0.00000000000E+00 -0.10518479650E+04  0.39436931998E+04  0.38008330551E+04 0.  0.
        1    1    3    3  502    0  0.10031486624E+04  0.15470863139E+04 -0.10034389332E+04  0.20992077063E+04  0.50400001928E-02 0. -1.
       -1    1    3    3    0  502 -0.10031486624E+04 -0.15470863139E+04 -0.48409031802E+02  0.18444854935E+04  0.50400001928E-02 0.  1.
</event>
<event>
 5   0  0.2907071E-07  0.3331799E+04  0.7818609E-02  0.8154851E-01
       -1   -1    0    0    0  501  0.00000000000E+00  0.00000000000E+00  0.94790514917E+03  0.94790514919E+03  0.50400001928E-02 0.  1.
        1   -1    0    0  501    0  0.00000000000E+00  0.00000000000E+00 -0.29277407308E+04  0.29277407309E+04  0.50400001928E-02 0. -1.
    10030    2    1    2    0    0  0.00000000000E+00  0.00000000000E+00 -0.19798355817E+04  0.38756458800E+04  0.33317986219E+04 0.  0.
        2    1    3    3  502    0  0.25816623954E+03  0.15414470725E+04 -0.16606802741E+04  0.22804753578E+04  0.25500000920E-02 0.  1.
       -2    1    3    3    0  502 -0.25816623954E+03 -0.15414470725E+04 -0.31915530759E+03  0.15951705223E+04  0.25500000920E-02 0. -1.
</event>
<event>
 5   0  0.7649458E-07  0.3732309E+04  0.7818609E-02  0.8060839E-01
        2   -1    0    0  501    0  0.00000000000E+00  0.00000000000E+00  0.28546737033E+04  0.28546737033E+04  0.25500000920E-02 0.  1.
       -2   -1    0    0    0  501  0.00000000000E+00  0.00000000000E+00 -0.12199406357E+04  0.12199406357E+04  0.25500000920E-02 0. -1.
    10030    2    1    2    0    0  0.00000000000E+00  0.00000000000E+00  0.16347330675E+04  0.40746143390E+04  0.37323089113E+04 0.  0.
        4    1    3    3  502    0 -0.29559218464E+02  0.16656959703E+04  0.17353897271E+04  0.24056175778E+04  0.12699999809E+01 0.  1.
       -4    1    3    3    0  502  0.29559218464E+02 -0.16656959703E+04 -0.10065665952E+03  0.16689967612E+04  0.12699999809E+01 0. -1.
</event>
<event>
 5   0  0.7649458E-07  0.2860506E+04  0.7818609E-02  0.8284726E-01
       -2   -1    0    0    0  501  0.00000000000E+00  0.00000000000E+00  0.19217906888E+04  0.19217906888E+04  0.25500000920E-02 0.  1.
        2   -1    0    0  501    0  0.00000000000E+00  0.00000000000E+00 -0.10644362186E+04  0.10644362186E+04  0.25500000920E-02 0. -1.
    10030    2    1    2    0    0  0.00000000000E+00  0.00000000000E+00  0.85735447024E+03  0.29862269075E+04  0.28605059789E+04 0.  0.
        4    1    3    3  502    0  0.14055205172E+04 -0.22425589302E+02  0.15320249053E+03  0.14140238497E+04  0.12699999809E+01 0. -1.
       -4    1    3    3    0  502 -0.14055205172E+04  0.22425589302E+02  0.70415197972E+03  0.15722030578E+04  0.12699999809E+01 0.  1.
</event>
<event>
 5   0  0.7638805E-07  0.3820858E+04  0.7818609E-02  0.8041694E-01
       -2   -1    0    0    0  501  0.00000000000E+00  0.00000000000E+00  0.15879202020E+04  0.15879202020E+04  0.25500000920E-02 0.  1.
        2   -1    0    0  501    0  0.00000000000E+00  0.00000000000E+00 -0.22984394848E+04  0.22984394848E+04  0.25500000920E-02 0. -1.
    10030    2    1    2    0    0  0.00000000000E+00  0.00000000000E+00 -0.71051928278E+03  0.38863596868E+04  0.38208577524E+04 0.  0.
        5    1    3    3  502    0 -0.11696012104E+04  0.28946470144E+03  0.11527078370E+04  0.16674874069E+04  0.46999998093E+01 0.  1.
       -5    1    3    3    0  502  0.11696012104E+04 -0.28946470144E+03 -0.18632271198E+04  0.22188722799E+04  0.46999998093E+01 0. -1.
</event>
<event>
 5   0  0.2529875E-07  0.3863683E+04  0.7818609E-02  0.8032625E-01
        1   -1    0    0  501    0  0.00000000000E+00  0.00000000000E+00  0.23168118757E+04  0.23168118757E+04  0.50400001928E-02 0.  1.
       -1   -1    0    0    0  501  0.00000000000E+00  0.00000000000E+00 -0.16108393887E+04  0.16108393887E+04  0.50400001928E-02 0. -1.
    10030    2    1    2    0    0  0.00000000000E+00  0.00000000000E+00  0.70597248703E+03  0.39276512644E+04  0.38636831266E+04 0.  0.
        3    1    3    3  502    0  0.77296010148E+03  0.15424616906E+04 -0.53051544500E+03  0.18050213387E+04  0.10100000352E+00 0. -1.
       -3    1    3    3    0  502 -0.77296010148E+03 -0.15424616906E+04  0.12364879320E+04  0.21226299258E+04  0.10100000352E+00 0.  1.
</event>
<event>
 5   0  0.2907071E-07  0.3391916E+04  0.7818609E-02  0.8139893E-01
       -1   -1    0    0    0  501  0.00000000000E+00  0.00000000000E+00  0.20052805265E+04  0.20052805265E+04  0.50400001928E-02 0. -1.
        1   -1    0    0  501    0  0.00000000000E+00  0.00000000000E+00 -0.14343496802E+04  0.14343496802E+04  0.50400001928E-02 0.  1.
    10030    2    1    2    0    0  0.00000000000E+00  0.00000000000E+00  0.57093084624E+03  0.34396302067E+04  0.33919159671E+04 0.  0.
        2    1    3    3  502    0 -0.15936066116E+04 -0.56667309936E+03  0.15891794984E+03  0.16988099802E+04  0.25500000920E-02 0.  1.
       -2    1    3    3    0  502  0.15936066116E+04  0.56667309936E+03  0.41201289640E+03  0.17408202265E+04  0.25500000920E-02 0. -1.
</event>
<event>
 5   0  0.7551495E-07  0.3432054E+04  0.7818609E-02  0.8130084E-01
        2   -1    0    0  501    0  0.00000000000E+00  0.00000000000E+00  0.15742585933E+04  0.15742585933E+04  0.25500000920E-02 0. -1.
       -2   -1    0    0    0  501  0.00000000000E+00  0.00000000000E+00 -0.18705627033E+04  0.18705627033E+04  0.25500000920E-02 0.  1.
    10030    2    1    2    0    0  0.00000000000E+00  0.00000000000E+00 -0.29630410997E+03  0.34448212966E+04  0.34320544343E+04 0.  0.
        1    1    3    3  502    0 -0.77627609155E+03  0.13481767770E+04 -0.87511430837E+03  0.17849398436E+04  0.50400001928E-02 0.  1.
       -1    1    3    3    0  502  0.77627609155E+03 -0.13481767770E+04  0.57881019840E+03  0.16598814531E+04  0.50400001928E-02 0. -1.
</event>
<event>
 5   0  0.2529875E-07  0.2923531E+04  0.7818609E-02  0.8265910E-01
        1   -1    0    0  501    0  0.00000000000E+00  0.00000000000E+00  0.15078826832E+04  0.15078826832E+04  0.50400001928E-02 0.  1.
       -1   -1    0    0    0  501  0.00000000000E+00  0.00000000000E+00 -0.14170591797E+04  0.14170591797E+04  0.50400001928E-02 0. -1.
    10030    2    1    2    0    0  0.00000000000E+00  0.00000000000E+00  0.90823503504E+02  0.29249418629E+04  0.29235314250E+04 0.  0.
        4    1    3    3  502    0  0.45234885712E+03 -0.71562947235E+02  0.14342517145E+04  0.15055963395E+04  0.12699999809E+01 0.  1.
       -4    1    3    3    0  502 -0.45234885712E+03  0.71562947235E+02 -0.13434282110E+04  0.14193455235E+04  0.12699999809E+01 0. -1.
</event>
<event>
 5   0  0.7649458E-07  0.3169848E+04  0.7818609E-02  0.8196826E-01
        2   -1    0    0  501    0  0.00000000000E+00  0.00000000000E+00  0.13148260787E+04  0.13148260787E+04  0.25500000920E-02 0.  1.
       -2   -1    0    0    0  501  0.00000000000E+00  0.00000000000E+00 -0.19105062327E+04  0.19105062327E+04  0.25500000920E-02 0. -1.
    10030    2    1    2    0    0  0.00000000000E+00  0.00000000000E+00 -0.59568015404E+03  0.32253323113E+04  0.31698475788E+04 0.  0.
        4    1    3    3  502    0 -0.50103054919E+02 -0.10290619943E+04  0.92760933687E+03  0.13863403619E+04  0.12699999809E+01 0.  1.
       -4    1    3    3    0  502  0.50103054919E+02  0.10290619943E+04 -0.15232894909E+04  0.18389919495E+04  0.12699999809E+01 0. -1.
</event>
<event>
 5   0  0.8038352E-07  0.3821888E+04  0.7818609E-02  0.8041474E-01
       -2   -1    0    0    0  501  0.00000000000E+00  0.00000000000E+00  0.15351304417E+04  0.15351304417E+04  0.25500000920E-02 0.  1.
        2   -1    0    0  501    0  0.00000000000E+00  0.00000000000E+00 -0.23787598434E+04  0.23787598434E+04  0.25500000920E-02 0. -1.
    10030    2    1    2    0    0  0.00000000000E+00  0.00000000000E+00 -0.84362940170E+03  0.39138902852E+04  0.38218878315E+04 0.  0.
        2    1    3    3  502    0 -0.14312226951E+02  0.15627023694E+04  0.70441512464E+03  0.17141890803E+04  0.25500000920E-02 0.  1.
       -2    1    3    3    0  502  0.14312226951E+02 -0.15627023694E+04 -0.15480445263E+04  0.21997012049E+04  0.25500000920E-02 0. -1.
</event>
<event>
 5   0  0.2529875E-07  0.2676701E+04  0.7818609E-02  0.8342605E-01
        1   -1    0    0  501    0  0.00000000000E+00  0.00000000000E+00  0.20464030106E+04  0.20464030106E+04  0.50400001928E-02 0. -1.
       -1   -1    0    0    0  501  0.00000000000E+00  0.00000000000E+00 -0.87528297005E+03  0.87528297007E+03  0.50400001928E-02 0.  1.
    10030    2    1    2    0    0  0.00000000000E+00  0.00000000000E+00  0.11711200405E+04  0.29216859807E+04  0.26767007342E+04 0.  0.
        4    1    3    3  502    0  0.18766156146E+03  0.13864228034E+03 -0.85291165836E+03  0.88425022104E+03  0.12699999809E+01 0.  1.
       -4    1    3    3    0  502 -0.18766156146E+03 -0.13864228034E+03  0.20240316989E+04  0.20374357596E+04  0.12699999809E+01 0. -1.
</event>
<event>
 5   0  0.7649458E-07  0.3662851E+04  0.7818609E-02  0.8076245E-01
        2   -1    0    0  501    0  0.00000000000E+00  0.00000000000E+00  0.32767995132E+04  0.32767995132E+04  0.25500000920E-02 0.  1.
       -2   -1    0    0    0  501  0.00000000000E+00  0.00000000000E+00 -0.10235958830E+04  0.10235958830E+04  0.25500000920E-02 0. -1.
    10030    2    1    2    0    0  0.00000000000E+00  0.00000000000E+00  0.22532036302E+04  0.43003953962E+04  0.36628505244E+04 0.  0.
        4    1    3    3  502    0 -0.15747037479E+04  0.91958512527E+03  0.13258050157E+04  0.22545707460E+04  0.12699999809E+01 0. -1.
       -4    1    3    3    0  502  0.15747037479E+04 -0.91958512527E+03  0.92739861458E+03  0.20458246502E+04  0.12699999809E+01 0.  1.
</event>
<event>
 5   0  0.2529875E-07  0.3852833E+04  0.7818609E-02  0.8034911E-01
        1   -1    0    0  501    0  0.00000000000E+00  0.00000000000E+00  0.24064314449E+04  0.24064314449E+04  0.50400001928E-02 0. -1.
       -1   -1    0    0    0  501  0.00000000000E+00  0.00000000000E+00 -0.15421511448E+04  0.15421511448E+04  0.50400001928E-02 0.  1.
    10030    2    1    2    0    0  0.00000000000E+00  0.00000000000E+00  0.86428030014E+03  0.39485825897E+04  0.38528332472E+04 0.  0.
        3    1    3    3  502    0 -0.53862332314E+03 -0.69134997386E+03 -0.13260110748E+04  0.15894606794E+04  0.10100000352E+00 0.  1.
       -3    1    3    3    0  502  0.53862332314E+03  0.69134997386E+03  0.21902913749E+04  0.23591219104E+04  0.10100000352E+00 0. -1.
</event>
<event>
 5   0  0.7638805E-07  0.2367336E+04  0.7818609E-02  0.8451835E-01
       -2   -1    0    0    0  501  0.00000000000E+00  0.00000000000E+00  0.10671295787E+04  0.10671295787E+04  0.25500000920E-02 0.  1.
        2   -1    0    0  501    0  0.00000000000E+00  0.00000000000E+00 -0.13129335419E+04  0.13129335419E+04  0.25500000920E-02 0. -1.
    10030    2    1    2    0    0  0.00000000000E+00  0.00000000000E+00 -0.24580396324E+03  0.23800631206E+04  0.23673362392E+04 0.  0.
        5    1    3    3  502    0  0.91860449521E+03  0.74628416742E+03 -0.10626459617E+03  0.11883133137E+04  0.46999998093E+01 0.  1.
       -5    1    3    3    0  502 -0.91860449521E+03 -0.74628416742E+03 -0.13953936707E+03  0.11917498068E+04  0.46999998093E+01 0. -1.
</event>
<event>
 5   0  0.7638805E-07  0.3604171E+04  0.7818609E-02  0.8089537E-01
        2   -1    0    0  501    0  0.00000000000E+00  0.00000000000E+00  0.18603741892E+04  0.18603741892E+04  0.25500000920E-02 0. -1.
       -2   -1    0    0    0  501  0.00000000000E+00  0.00000000000E+00 -0.17456231450E+04  0.17456231450E+04  0.25500000920E-02 0.  1.
    10030    2    1    2    0    0  0.00000000000E+00  0.00000000000E+00  0.11475104415E+03  0.36059973342E+04  0.36041710520E+04 0.  0.
        5    1    3    3  502    0  0.17950372355E+04 -0.14998902775E+03  0.11064503752E+03  0.18046938243E+04  0.46999998093E+01 0. -1.
       -5    1    3    3    0  502 -0.17950372355E+04  0.14998902775E+03  0.41060066279E+01  0.18013035099E+04  0.46999998093E+01 0.  1.
</event>
<event>
 5   0  0.7551495E-07  0.2422015E+04  0.7818609E-02  0.8431307E-01
        2   -1    0    0  501    0  0.00000000000E+00  0.00000000000E+00  0.17328100053E+04  0.17328100053E+04  0.25500000920E-02 0. -1.
       -2   -1    0    0    0  501  0.00000000000E+00  0.00000000000E+00 -0.84633562330E+03  0.84633562330E+03  0.25500000920E-02 0.  1.
    10030    2    1    2    0    0  0.00000000000E+00  0.00000000000E+00  0.88647438197E+03  0.25791456286E+04  0.24220147282E+04 0.  0.
        1    1    3    3  502    0  0.78081324482E+03 -0.87828800677E+03  0.13190032197E+03  0.11825636732E+04  0.50400001928E-02 0.  1.
       -1    1    3    3    0  502 -0.78081324482E+03  0.87828800677E+03  0.75457406001E+03  0.13965819554E+04  0.50400001928E-02 0. -1.
</event>
<event>
 5   0  0.2529875E-07  0.3765364E+04  0.7818609E-02  0.8053629E-01
        1   -1    0    0  501    0  0.00000000000E+00  0.00000000000E+00  0.15060689383E+04  0.15060689383E+04  0.50400001928E-02 0. -1.
       -1   -1    0    0    0  501  0.00000000000E+00  0.00000000000E+00 -0.23534717236E+04  0.23534717236E+04  0.50400001928E-02 0.  1.
    10030    2    1    2    0    0  0.00000000000E+00  0.00000000000E+00 -0.84740278527E+03  0.38595406620E+04  0.37653635470E+04 0.  0.
        4    1    3    3  502    0  0.16999529119E+04  0.46993758586E+02 -0.12516421071E+04  0.21115534313E+04  0.12699999809E+01 0.  1.
       -4    1    3    3    0  502 -0.16999529119E+04 -0.46993758586E+02  0.40423932187E+03  0.17479872306E+04  0.12699999809E+01 0. -1.
</event>
<event>
 5   0  0.2529875E-07  0.4308653E+04  0.7818609E-02  0.7945020E-01
       -1   -1    0    0    0  501  0.00000000000E+00  0.00000000000E+00  0.19350691002E+04  0.19350691002E+04  0.50400001928E-02 0.  1.
        1   -1    0    0  501    0  0.00000000000E+00  0.00000000000E+00 -0.23984278234E+04  0.23984278234E+04  0.50400001928E-02 0. -1.
    10030    2    1    2    0    0  0.00000000000E+00  0.00000000000E+00 -0.46335872315E+03  0.43334969236E+04  0.43086534185E+04 0.  0.
        3    1    3    3  502    0 -0.15782414549E+04  0.14331672117E+04 -0.54380600977E+03  0.22001225723E+04  0.10100000352E+00 0. -1.
       -3    1    3    3    0  502  0.15782414549E+04 -0.14331672117E+04  0.80447286619E+02  0.21333743513E+04  0.10100000352E+00 0.  1.
</event>
<event>
 5   0  0.2529875E-07  0.3758373E+04  0.7818609E-02  0.8055147E-01
       -1   -1    0    0    0  501  0.00000000000E+00  0.00000000000E+00  0.25213021998E+04  0.25213021998E+04  0.50400001928E-02 0. -1.
        1   -1    0    0  501    0  0.00000000000E+00  0.00000000000E+00 -0.14006025258E+04  0.14006025258E+04  0.50400001928E-02 0.  1.
    10030    2    1    2    0    0  0.00000000000E+00  0.00000000000E+00  0.11206996740E+04  0.39219047257E+04  0.37583731744E+04 0.  0.
        3    1    3    3  502    0 -0.60571281463E+03  0.15196558192E+03 -0.12891574229E+04  0.14324484016E+04  0.10100000352E+00 0.  1.
       -3    1    3    3    0  502  0.60571281463E+03 -0.15196558192E+03  0.24098570969E+04  0.24894563241E+04  0.10100000352E+00 0. -1.
</event>
<event>
 5   0  0.7649458E-07  0.2443697E+04  0.7818609E-02  0.8423323E-01
       -2   -1    0    0    0  501  0.00000000000E+00  0.00000000000E+00  0.12944481761E+04  0.12944481761E+04  0.25500000920E-02 0. -1.
        2   -1    0    0  501    0  0.00000000000E+00  0.00000000000E+00 -0.11533208294E+04  0.11533208294E+04  0.25500000920E-02 0.  1.
    10030    2    1    2    0    0  0.00000000000E+00  0.00000000000E+00  0.14112734674E+03  0.24477690055E+04  0.24436972350E+04 0.  0.
        4    1    3    3  502    0 -0.12341714525E+03  0.37612989863E+03  0.12284339228E+04  0.12906420913E+04  0.12699999809E+01 0. -1.
       -4    1    3    3    0  502  0.12341714525E+03 -0.37612989863E+03 -0.10873065760E+04  0.11571269142E+04  0.12699999809E+01 0.  1.
</event>
<event>
 5   0  0.2529875E-07  0.2938499E+04  0.7818609E-02  0.8261514E-01
       -1   -1    0    0    0  501  0.00000000000E+00  0.00000000000E+00  0.12359723147E+04  0.12359723147E+04  0.50400001928E-02 0. -1.
        1   -1    0    0  501    0  0.00000000000E+00  0.00000000000E+00 -0.17465550874E+04  0.17465550874E+04  0.50400001928E-02 0.  1.
    10030    2    1    2    0    0  0.00000000000E+00  0.00000000000E+00 -0.51058277270E+03  0.29825274022E+04  0.29384987557E+04 0.  0.
        5    1    3    3  502    0  0.31808216557E+03  0.14130124864E+04 -0.48328618610E+01  0.14483873782E+04  0.46999998093E+01 0.  1.
       -5    1    3    3    0  502 -0.31808216557E+03 -0.14130124864E+04 -0.50574991084E+03  0.15341400240E+04  0.46999998093E+01 0. -1.
</event>
<event>
 5   0  0.2529875E-07  0.3103312E+04  0.7818609E-02  0.8214830E-01
        1   -1    0    0  501    0  0.00000000000E+00  0.00000000000E+00  0.25775614525E+04  0.25775614525E+04  0.50400001928E-02 0. -1.
       -1   -1    0    0    0  501  0.00000000000E+00  0.00000000000E+00 -0.93407521016E+03  0.93407521017E+03  0.50400001928E-02 0.  1.
    10030    2    1    2    0    0  0.00000000000E+00  0.00000000000E+00  0.16434862423E+04  0.35116366626E+04  0.31033119440E+04 0.  0.
        4    1    3    3  502    0 -0.80118187108E+03  0.13237232645E+04  0.95321548529E+03  0.18173489059E+04  0.12699999809E+01 0.  1.
       -4    1    3    3    0  502  0.80118187108E+03 -0.13237232645E+04  0.69027075701E+03  0.16942877567E+04  0.12699999809E+01 0. -1.
</event>
<event>
 5   0  0.2907071E-07  0.3718698E+04  0.7818609E-02  0.8063831E-01
       -1   -1    0    0    0  501  0.00000000000E+00  0.00000000000E+00  0.22172674024E+04  0.22172674024E+04  0.50400001928E-02 0.  1.
        1   -1    0    0  501    0  0.00000000000E+00  0.00000000000E+00 -0.15592070472E+04  0.15592070473E+04  0.50400001928E-02 0. -1.
    10030    2    1    2    0    0  0.00000000000E+00  0.00000000000E+00  0.65806035511E+03  0.37764744496E+04  0.37186981375E+04 0.  0.
        2    1    3    3  502    0  0.22231457166E+03  0.15505836728E+04 -0.68825451976E+03  0.17109727581E+04  0.25500000920E-02 0.  1.
       -2    1    3    3    0  502 -0.22231457166E+03 -0.15505836728E+04  0.13463148749E+04  0.20655016915E+04  0.25500000920E-02 0. -1.
</event>
<event>
 5   0  0.8421677E-07  0.2454277E+04  0.7818609E-02  0.8419458E-01
       -2   -1    0    0    0  501  0.00000000000E+00  0.00000000000E+00  0.14870156467E+04  0.14870156467E+04  0.25500000920E-02 0. -1.
        2   -1    0    0  501    0  0.00000000000E+00  0.00000000000E+00 -0.10126784053E+04  0.10126784053E+04  0.25500000920E-02 0.  1.
    10030    2    1    2    0    0  0.00000000000E+00  0.00000000000E+00  0.47433724139E+03  0.24996940520E+04  0.24542767845E+04 0.  0.
        3    1    3    3  502    0  0.40963560477E+03 -0.29150095493E+03 -0.90296362130E+03  0.10334976763E+04  0.10100000352E+00 0.  1.
       -3    1    3    3    0  502 -0.40963560477E+03  0.29150095493E+03  0.13773008627E+04  0.14661963757E+04  0.10100000352E+00 0. -1.
</event>
<event>
 5   0  0.7649458E-07  0.3837649E+04  0.7818609E-02  0.8038123E-01
       -2   -1    0    0    0  501  0.00000000000E+00  0.00000000000E+00  0.14236736503E+04  0.14236736503E+04  0.25500000920E-02 0.  1.
        2   -1    0    0  501    0  0.00000000000E+00  0.00000000000E+00 -0.25861879467E+04  0.25861879467E+04  0.25500000920E-02 0. -1.
    10030    2    1    2    0    0  0.00000000000E+00  0.00000000000E+00 -0.11625142964E+04  0.40098615970E+04  0.38376490900E+04 0.  0.
        4    1    3    3  502    0 -0.25509016340E+03 -0.13499160790E+04  0.81846195040E+03  0.15991328866E+04  0.12699999809E+01 0.  1.
       -4    1    3    3    0  502  0.25509016340E+03  0.13499160790E+04 -0.19809762468E+04  0.24107287104E+04  0.12699999809E+01 0. -1.
</event>
<event>
 5   0  0.7551495E-07  0.3702749E+04  0.7818609E-02  0.8067353E-01
        2   -1    0    0  501    0  0.00000000000E+00  0.00000000000E+00  0.28918491507E+04  0.28918491507E+04  0.25500000920E-02 0. -1.
       -2   -1    0    0    0  501  0.00000000000E+00  0.00000000000E+00 -0.11852583636E+04  0.11852583636E+04  0.25500000920E-02 0.  1.
    10030    2    1    2    0    0  0.00000000000E+00  0.00000000000E+00  0.17065907872E+04  0.40771075143E+04  0.37027494606E+04 0.  0.
        1    1    3    3  502    0  0.75247471303E+03 -0.85585743062E+03 -0.75328791230E+03  0.13660720384E+04  0.50400001928E-02 0.  1.
       -1    1    3    3    0  502 -0.75247471303E+03  0.85585743062E+03  0.24598786995E+04  0.27110354759E+04  0.50400001928E-02 0. -1.
</event>
<event>
 5   0  0.8421677E-07  0.2347727E+04  0.7818609E-02  0.8459337E-01
        2   -1    0    0  501    0  0.00000000000E+00  0.00000000000E+00  0.24088110131E+04  0.24088110131E+04  0.25500000920E-02 0.  1.
       -2   -1    0    0    0  501  0.00000000000E+00  0.00000000000E+00 -0.57204783995E+03  0.57204783995E+03  0.25500000920E-02 0. -1.
    10030    2    1    2    0    0  0.00000000000E+00  0.00000000000E+00  0.18367631732E+04  0.29808588531E+04  0.23477266765E+04 0.  0.
        3    1    3    3  502    0  0.46949473170E+03 -0.96885697409E+03  0.32441341773E+03  0.11244346202E+04  0.10100000352E+00 0. -1.
       -3    1    3    3    0  502 -0.46949473170E+03  0.96885697409E+03  0.15123497554E+04  0.18564242328E+04  0.10100000352E+00 0.  1.
</event>
<event>
 5   0  0.2529875E-07  0.3862323E+04  0.7818609E-02  0.8032911E-01
       -1   -1    0    0    0  501  0.00000000000E+00  0.00000000000E+00  0.21316431346E+04  0.21316431347E+04  0.50400001928E-02 0. -1.
        1   -1    0    0  501    0  0.00000000000E+00  0.00000000000E+00 -0.17495353245E+04  0.17495353245E+04  0.50400001928E-02 0.  1.
    10030    2    1    2    0    0  0.00000000000E+00  0.00000000000E+00  0.38210781018E+03  0.38811784591E+04  0.38623231161E+04 0.  0.
        5    1    3    3  502    0  0.65399831382E+03 -0.16552328379E+04 -0.56217415232E+03  0.18664328035E+04  0.46999998093E+01 0.  1.
       -5    1    3    3    0  502 -0.65399831382E+03  0.16552328379E+04  0.94428196250E+03  0.20147456557E+04  0.46999998093E+01 0. -1.
</event>
<event>
 5   0  0.2529875E-07  0.3815443E+04  0.7818609E-02  0.8042849E-01
       -1   -1    0    0    0  501  0.00000000000E+00  0.00000000000E+00  0.20202985910E+04  0.20202985910E+04  0.50400001928E-02 0.  1.
        1   -1    0    0  501    0  0.00000000000E+00  0.00000000000E+00 -0.18014174534E+04  0.18014174534E+04  0.50400001928E-02 0. -1.
    10030    2    1    2    0    0  0.00000000000E+00  0.00000000000E+00  0.21888113761E+03  0.38217160445E+04  0.38154429064E+04 0.  0.
        4    1    3    3  502    0 -0.90861771171E+03  0.83685998889E+03 -0.13467305007E+04  0.18274587386E+04  0.12699999809E+01 0. -1.
       -4    1    3    3    0  502  0.90861771171E+03 -0.83685998889E+03  0.15656116383E+04  0.19942573058E+04  0.12699999809E+01 0.  1.
</event>
<event>
 5   0  0.2529875E-07  0.3816289E+04  0.7818609E-02  0.8042668E-01
        1   -1    0    0  501    0  0.00000000000E+00  0.00000000000E+00  0.12682422748E+04  0.12682422748E+04  0.50400001928E-02 0.  1.
       -1   -1    0    0    0  501  0.00000000000E+00  0.00000000000E+00 -0.28709153133E+04  0.28709153133E+04  0.50400001928E-02 0. -1.
    10030    2    1    2    0    0  0.00000000000E+00  0.00000000000E+00 -0.16026730385E+04  0.41391575882E+04  0.38162893852E+04 0.  0.
        5    1    3    3  502    0 -0.17788284161E+04 -0.66874510825E+03 -0.61491252439E+03  0.19973958187E+04  0.46999998093E+01 0.  1.
       -5    1    3    3    0  502  0.17788284161E+04  0.66874510825E+03 -0.98776051410E+03  0.21417617695E+04  0.46999998093E+01 0. -1.
</event>
<event>
 5   0  0.2529875E-07  0.3870910E+04  0.7818609E-02  0.8031107E-01
        1   -1    0    0  501    0  0.00000000000E+00  0.00000000000E+00  0.10877055404E+04  0.10877055404E+04  0.50400001928E-02 0. -1.
       -1   -1    0    0    0  501  0.00000000000E+00  0.00000000000E+00 -0.34439335175E+04  0.34439335175E+04  0.50400001928E-02 0.  1.
    10030    2    1    2    0    0  0.00000000000E+00  0.00000000000E+00 -0.23562279771E+04  0.45316390578E+04  0.38709097471E+04 0.  0.
        1    1    3    3  502    0 -0.15805891492E+04 -0.15296937734E+03  0.11724584288E+03  0.15922965417E+04  0.50400001928E-02 0. -1.
       -1    1    3    3    0  502  0.15805891492E+04  0.15296937734E+03 -0.24734738200E+04  0.29393425161E+04  0.50400001928E-02 0.  1.
</event>
<event>
 5   0  0.7649458E-07  0.3791986E+04  0.7818609E-02  0.8047877E-01
       -2   -1    0    0    0  501  0.00000000000E+00  0.00000000000E+00  0.27062864432E+04  0.27062864432E+04  0.25500000920E-02 0.  1.
        2   -1    0    0  501    0  0.00000000000E+00  0.00000000000E+00 -0.13283111019E+04  0.13283111019E+04  0.25500000920E-02 0. -1.
    10030    2    1    2    0    0  0.00000000000E+00  0.00000000000E+00  0.13779753413E+04  0.40345975450E+04  0.37919864595E+04 0.  0.
        4    1    3    3  502    0 -0.16301867270E+04  0.59180931067E+03  0.15041946968E+04  0.22957243571E+04  0.12699999809E+01 0. -1.
       -4    1    3    3    0  502  0.16301867270E+04 -0.59180931067E+03 -0.12621935550E+03  0.17388731879E+04  0.12699999809E+01 0.  1.
</event>
<event>
 5   0  0.7551495E-07  0.3840108E+04  0.7818609E-02  0.8037602E-01
        2   -1    0    0  501    0  0.00000000000E+00  0.00000000000E+00  0.10032405694E+04  0.10032405694E+04  0.25500000920E-02 0. -1.
       -2   -1    0    0    0  501  0.00000000000E+00  0.00000000000E+00 -0.36746991044E+04  0.36746991044E+04  0.25500000920E-02 0.  1.
    10030    2    1    2    0    0  0.00000000000E+00  0.00000000000E+00 -0.26714585350E+04  0.46779396738E+04  0.38401079265E+04 0.  0.
        1    1    3    3  502    0  0.61574844939E+03 -0.18071771638E+04 -0.15841057263E+04  0.24808116427E+04  0.50400001928E-02 0.  1.
       -1    1    3    3    0  502 -0.61574844939E+03  0.18071771638E+04 -0.10873528087E+04  0.21971280311E+04  0.50400001928E-02 0. -1.
</event>
<event>
 5   0  0.8038352E-07  0.3779226E+04  0.7818609E-02  0.8050628E-01
       -2   -1    0    0    0  501  0.00000000000E+00  0.00000000000E+00  0.15398845351E+04  0.15398845351E+04  0.25500000920E-02 0.  1.
        2   -1    0    0  501    0  0.00000000000E+00  0.00000000000E+00 -0.23187694235E+04  0.23187694235E+04  0.25500000920E-02 0. -1.
    10030    2    1    2    0    0  0.00000000000E+00  0.00000000000E+00 -0.77888488842E+03  0.38586539587E+04  0.37792259397E+04 0.  0.
        2    1    3    3  502    0  0.12597998869E+04 -0.11245385549E+04 -0.12551748361E+04  0.21040785597E+04  0.25500000920E-02 0.  1.
       -2    1    3    3    0  502 -0.12597998869E+04  0.11245385549E+04  0.47628994767E+03  0.17545753989E+04  0.25500000920E-02 0. -1.
</event>
<event>
 5   0  0.2529875E-07  0.3325465E+04  0.7818609E-02  0.8156446E-01
        1   -1    0    0  501    0  0.00000000000E+00  0.00000000000E+00  0.17385887284E+04  0.17385887284E+04  0.50400001928E-02 0. -1.
       -1   -1    0    0    0  501  0.00000000000E+00  0.00000000000E+00 -0.15901861762E+04  0.15901861762E+04  0.50400001928E-02 0.  1.
    10030    2    1    2    0    0  0.00000000000E+00  0.00000000000E+00  0.14840255215E+03  0.33287749046E+04  0.33254652379E+04 0.  0.
        3    1    3    3  502    0  0.31838236905E+03  0.88894964076E+03  0.14441688579E+04  0.17254629805E+04  0.10100000352E+00 0. -1.
       -3    1    3    3    0  502 -0.31838236905E+03 -0.88894964076E+03 -0.12957663057E+04  0.16033119241E+04  0.10100000352E+00 0.  1.
</event>
<event>
 5   0  0.8421677E-07  0.3750248E+04  0.7818609E-02  0.8056917E-01
       -2   -1    0    0    0  501  0.00000000000E+00  0.00000000000E+00  0.16925727167E+04  0.16925727167E+04  0.25500000920E-02 0. -1.
        2   -1    0    0  501    0  0.00000000000E+00  0.00000000000E+00 -0.20773642637E+04  0.20773642637E+04  0.25500000920E-02 0.  1.
    10030    2    1    2    0    0  0.00000000000E+00  0.00000000000E+00 -0.38479154702E+03  0.37699369804E+04  0.37502480320E+04 0.  0.
        3    1    3    3  502    0 -0.73268969309E+03 -0.76932131945E+03  0.13608377190E+04  0.17264323869E+04  0.10100000352E+00 0. -1.
       -3    1    3    3    0  502  0.73268969309E+03  0.76932131945E+03 -0.17456292660E+04  0.20435045935E+04  0.10100000352E+00 0.  1.
</event>
<event>
 5   0  0.7638805E-07  0.3776887E+04  0.7818609E-02  0.8051133E-01
       -2   -1    0    0    0  501  0.00000000000E+00  0.00000000000E+00  0.28529592347E+04  0.28529592347E+04  0.25500000920E-02 0.  1.
        2   -1    0    0  501    0  0.00000000000E+00  0.00000000000E+00 -0.12500071270E+04  0.12500071270E+04  0.25500000920E-02 0. -1.
    10030    2    1    2    0    0  0.00000000000E+00  0.00000000000E+00  0.16029521076E+04  0.41029663617E+04  0.37768872774E+04 0.  0.
        5    1    3    3  502    0 -0.11173085287E+03  0.18527326672E+04  0.42344512093E+03  0.19037935760E+04  0.46999998093E+01 0.  1.
       -5    1    3    3    0  502  0.11173085287E+03 -0.18527326672E+04  0.11795069867E+04  0.21991727857E+04  0.46999998093E+01 0. -1.
</event>
<event>
 5   0  0.7551495E-07  0.3908075E+04  0.7818609E-02  0.8023352E-01
       -2   -1    0    0    0  501  0.00000000000E+00  0.00000000000E+00  0.24089881043E+04  0.24089881043E+04  0.25500000920E-02 0. -1.
        2   -1    0    0  501    0  0.00000000000E+00  0.00000000000E+00 -0.15850069316E+04  0.15850069316E+04  0.25500000920E-02 0.  1.
    10030    2    1    2    0    0  0.00000000000E+00  0.00000000000E+00  0.82398117278E+03  0.39939950359E+04  0.39080751494E+04 0.  0.
        1    1    3    3  502    0  0.28454345513E+03  0.18119586512E+04 -0.27669681837E+03  0.18549178583E+04  0.50400001928E-02 0.  1.
       -1    1    3    3    0  502 -0.28454345513E+03 -0.18119586512E+04  0.11006779911E+04  0.21390771776E+04  0.50400001928E-02 0. -1.
</event>
<event>
 5   0  0.2529875E-07  0.3743143E+04  0.7818609E-02  0.8058467E-01
       -1   -1    0    0    0  501  0.00000000000E+00  0.00000000000E+00  0.14216530208E+04  0.14216530208E+04  0.50400001928E-02 0. -1.
        1   -1    0    0  501    0  0.00000000000E+00  0.00000000000E+00 -0.24638787811E+04  0.24638787811E+04  0.50400001928E-02 0.  1.
    10030    2    1    2    0    0  0.00000000000E+00  0.00000000000E+00 -0.10422257603E+04  0.38855318019E+04  0.37431434447E+04 0.  0.
        3    1    3    3  502    0 -0.11126678251E+04  0.41363882530E+03 -0.20231008225E+04  0.23456478242E+04  0.10100000352E+00 0.  1.
       -3    1    3    3    0  502  0.11126678251E+04 -0.41363882530E+03  0.98087506223E+03  0.15398839777E+04  0.10100000352E+00 0. -1.
</event>
<event>
 5   0  0.2529875E-07  0.3786645E+04  0.7818609E-02  0.8049027E-01
       -1   -1    0    0    0  501  0.00000000000E+00  0.00000000000E+00  0.13819369191E+04  0.13819369192E+04  0.50400001928E-02 0.  1.
        1   -1    0    0  501    0  0.00000000000E+00  0.00000000000E+00 -0.25939458301E+04  0.25939458301E+04  0.50400001928E-02 0. -1.
    10030    2    1    2    0    0  0.00000000000E+00  0.00000000000E+00 -0.12120089110E+04  0.39758827493E+04  0.37866446936E+04 0.  0.
        4    1    3    3  502    0  0.15947543178E+04  0.18767981688E+03  0.44722205712E+03  0.16668755890E+04  0.12699999809E+01 0. -1.
       -4    1    3    3    0  502 -0.15947543178E+04 -0.18767981688E+03 -0.16592309681E+04  0.23090071603E+04  0.12699999809E+01 0.  1.
</event>
<event>
 5   0  0.2529875E-07  0.2754378E+04  0.7818609E-02  0.8317574E-01
       -1   -1    0    0    0  501  0.00000000000E+00  0.00000000000E+00  0.91904493090E+03  0.91904493091E+03  0.50400001928E-02 0.  1.
        1   -1    0    0  501    0  0.00000000000E+00  0.00000000000E+00 -0.20637172936E+04  0.20637172936E+04  0.50400001928E-02 0. -1.
    10030    2    1    2    0    0  0.00000000000E+00  0.00000000000E+00 -0.11446723627E+04  0.29827622245E+04  0.27543775467E+04 0.  0.
        3    1    3    3  502    0  0.13137634220E+04  0.16294017155E+03 -0.98345271575E+03  0.16491522316E+04  0.10100000352E+00 0. -1.
       -3    1    3    3    0  502 -0.13137634220E+04 -0.16294017155E+03 -0.16121964691E+03  0.13336099929E+04  0.10100000352E+00 0.  1.
</event>
<event>
 5   0  0.7649458E-07  0.3785321E+04  0.7818609E-02  0.8049312E-01
       -2   -1    0    0    0  501  0.00000000000E+00  0.00000000000E+00  0.12585307958E+04  0.12585307958E+04  0.25500000920E-02 0.  1.
        2   -1    0    0  501    0  0.00000000000E+00  0.00000000000E+00 -0.28463063976E+04  0.28463063976E+04  0.25500000920E-02 0. -1.
    10030    2    1    2    0    0  0.00000000000E+00  0.00000000000E+00 -0.15877756019E+04  0.41048371934E+04  0.37853212575E+04 0.  0.
        4    1    3    3  502    0  0.15585744910E+04  0.99436780521E+03 -0.12333624290E+04  0.22224100139E+04  0.12699999809E+01 0. -1.
       -4    1    3    3    0  502 -0.15585744910E+04 -0.99436780521E+03 -0.35441317287E+03  0.18824271794E+04  0.12699999809E+01 0.  1.
</event>
<event>
 5   0  0.7638805E-07  0.3750672E+04  0.7818609E-02  0.8056824E-01
       -2   -1    0    0    0  501  0.00000000000E+00  0.00000000000E+00  0.15789013694E+04  0.15789013694E+04  0.25500000920E-02 0. -1.
        2   -1    0    0  501    0  0.00000000000E+00  0.00000000000E+00 -0.22274248868E+04  0.22274248868E+04  0.25500000920E-02 0.  1.
    10030    2    1    2    0    0  0.00000000000E+00  0.00000000000E+00 -0.64852351738E+03  0.38063262563E+04  0.37506715154E+04 0.  0.
        5    1    3    3  502    0 -0.12115076184E+03 -0.17575916398E+04 -0.97649296124E+03  0.20142905631E+04  0.46999998093E+01 0.  1.
       -5    1    3    3    0  502  0.12115076184E+03  0.17575916398E+04  0.32796944386E+03  0.17920356931E+04  0.46999998093E+01 0. -1.
</event>
<event>
 5   0  0.8038352E-07  0.3629096E+04  0.7818609E-02  0.8083859E-01
        2   -1    0    0  501    0  0.00000000000E+00  0.00000000000E+00  0.18386835174E+04  0.18386835174E+04  0.25500000920E-02 0. -1.
       -2   -1    0    0    0  501  0.00000000000E+00  0.00000000000E+00 -0.17907293080E+04  0.17907293080E+04  0.25500000920E-02 0.  1.
    10030    2    1    2    0    0  0.00000000000E+00  0.00000000000E+00  0.47954209367E+02  0.36294128254E+04  0.36290960102E+04 0.  0.
        2    1    3    3  502    0  0.28454754740E+03 -0.14008697829E+04 -0.10937881304E+04  0.17999377571E+04  0.25500000920E-02 0. -1.
       -2    1    3    3    0  502 -0.28454754740E+03  0.14008697829E+04  0.11417423398E+04  0.18294750683E+04  0.25500000920E-02 0.  1.
</event>
<event>
 5   0  0.8421677E-07  0.3675116E+04  0.7818609E-02  0.8073499E-01
       -2   -1    0    0    0  501  0.00000000000E+00  0.00000000000E+00  0.12990914523E+04  0.12990914523E+04  0.25500000920E-02 0.  1.
        2   -1    0    0  501    0  0.00000000000E+00  0.00000000000E+00 -0.25992167261E+04  0.25992167261E+04  0.25500000920E-02 0. -1.
    10030    2    1    2    0    0  0.00000000000E+00  0.00000000000E+00 -0.13001252738E+04  0.38983081784E+04  0.36751164507E+04 0.  0.
        3    1    3    3  502    0  0.13586328068E+04  0.86925459877E+03  0.28382222244E+03  0.16376940268E+04  0.10100000352E+00 0.  1.
       -3    1    3    3    0  502 -0.13586328068E+04 -0.86925459877E+03 -0.15839474963E+04  0.22606141516E+04  0.10100000352E+00 0. -1.
</event>
<event>
 5   0  0.8038352E-07  0.3806886E+04  0.7818609E-02  0.8044679E-01
       -2   -1    0    0    0  501  0.00000000000E+00  0.00000000000E+00  0.12888394881E+04  0.12888394881E+04  0.25500000920E-02 0. -1.
        2   -1    0    0  501    0  0.00000000000E+00  0.00000000000E+00 -0.28111304281E+04  0.28111304281E+04  0.25500000920E-02 0.  1.
    10030    2    1    2    0    0  0.00000000000E+00  0.00000000000E+00 -0.15222909400E+04  0.40999699162E+04  0.38068863403E+04 0.  0.
        2    1    3    3  502    0  0.13718355855E+04 -0.11290840441E+04 -0.14966045003E+04  0.23230558931E+04  0.25500000920E-02 0.  1.
       -2    1    3    3    0  502 -0.13718355855E+04  0.11290840441E+04 -0.25686439717E+02  0.17769140231E+04  0.25500000920E-02 0. -1.
</event>
<event>
 5   0  0.8421677E-07  0.3847827E+04  0.7818609E-02  0.8035968E-01
       -2   -1    0    0    0  501  0.00000000000E+00  0.00000000000E+00  0.14789155144E+04  0.14789155145E+04  0.25500000920E-02 0. -1.
        2   -1    0    0  501    0  0.00000000000E+00  0.00000000000E+00 -0.25028096782E+04  0.25028096782E+04  0.25500000920E-02 0.  1.
    10030    2    1    2    0    0  0.00000000000E+00  0.00000000000E+00 -0.10238941638E+04  0.39817251927E+04  0.38478274716E+04 0.  0.
        3    1    3    3  502    0  0.91530307785E+03 -0.42271993306E+03 -0.22075555921E+04  0.24268855697E+04  0.10100000352E+00 0.  1.
       -3    1    3    3    0  502 -0.91530307785E+03  0.42271993306E+03  0.11836614283E+04  0.15548396230E+04  0.10100000352E+00 0. -1.
</event>
<event>
 5   0  0.8421677E-07  0.3196864E+04  0.7818609E-02  0.8189646E-01
        2   -1    0    0  501    0  0.00000000000E+00  0.00000000000E+00  0.23787565624E+04  0.23787565624E+04  0.25500000920E-02 0.  1.
       -2   -1    0    0    0  501  0.00000000000E+00  0.00000000000E+00 -0.10740840401E+04  0.10740840401E+04  0.25500000920E-02 0. -1.
    10030    2    1    2    0    0  0.00000000000E+00  0.00000000000E+00  0.13046725222E+04  0.34528406025E+04  0.31968637500E+04 0.  0.
        3    1    3    3  502    0  0.61051048746E+03 -0.14642020466E+04  0.86391381024E+03  0.18063659016E+04  0.10100000352E+00 0.  1.
       -3    1    3    3    0  502 -0.61051048746E+03  0.14642020466E+04  0.44075871200E+03  0.16464747010E+04  0.10100000352E+00 0. -1.
</event>
<event>
 5   0  0.7649458E-07  0.3787834E+04  0.7818609E-02  0.8048771E-01
       -2   -1    0    0    0  501  0.00000000000E+00  0.00000000000E+00  0.14156120790E+04  0.14156120790E+04  0.25500000920E-02 0.  1.
        2   -1    0    0  501    0  0.00000000000E+00  0.00000000000E+00 -0.25338303529E+04  0.25338303529E+04  0.25500000920E-02 0. -1.
    10030    2    1    2    0    0  0.00000000000E+00  0.00000000000E+00 -0.11182182738E+04  0.39494424319E+04  0.37878336044E+04 0.  0.
        4    1    3    3  502    0 -0.17473763568E+03 -0.14745790238E+04  0.66663363594E+03  0.16276727423E+04  0.12699999809E+01 0.  1.
       -4    1    3    3    0  502  0.17473763568E+03  0.14745790238E+04 -0.17848519098E+04  0.23217696896E+04  0.12699999809E+01 0. -1.
</event>
<event>
 5   0  0.2529875E-07  0.3754155E+04  0.7818609E-02  0.8056065E-01
        1   -1    0    0  501    0  0.00000000000E+00  0.00000000000E+00  0.16684770796E+04  0.16684770796E+04  0.50400001928E-02 0. -1.
       -1   -1    0    0    0  501  0.00000000000E+00  0.00000000000E+00 -0.21117585281E+04  0.21117585281E+04  0.50400001928E-02 0.  1.
    10030    2    1    2    0    0  0.00000000000E+00  0.00000000000E+00 -0.44328144849E+03  0.37802356076E+04  0.37541554052E+04 0.  0.
        5    1    3    3  502    0 -0.10958341992E+04  0.10466744250E+03  0.13093131132E+04  0.17105936934E+04  0.46999998093E+01 0. -1.
       -5    1    3    3    0  502  0.10958341992E+04 -0.10466744250E+03 -0.17525945617E+04  0.20696419142E+04  0.46999998093E+01 0.  1.
</event>
<event>
 5   0  0.2907071E-07  0.3498439E+04  0.7818609E-02  0.8114160E-01
       -1   -1    0    0    0  501  0.00000000000E+00  0.00000000000E+00  0.15677045122E+04  0.15677045122E+04  0.50400001928E-02 0. -1.
        1   -1    0    0  501    0  0.00000000000E+00  0.00000000000E+00 -0.19517505820E+04  0.19517505820E+04  0.50400001928E-02 0.  1.
    10030    2    1    2    0    0  0.00000000000E+00  0.00000000000E+00 -0.38404606988E+03  0.35194550942E+04  0.34984386198E+04 0.  0.
        2    1    3    3  502    0  0.29248146902E+03  0.78440553052E+03  0.13530846954E+04  0.15911240174E+04  0.25500000920E-02 0. -1.
       -2    1    3    3    0  502 -0.29248146902E+03 -0.78440553052E+03 -0.17371307652E+04  0.19283310768E+04  0.25500000920E-02 0.  1.
</event>
<event>
 5   0  0.2907071E-07  0.3782249E+04  0.7818609E-02  0.8049975E-01
       -1   -1    0    0    0  501  0.00000000000E+00  0.00000000000E+00  0.27934855247E+04  0.27934855247E+04  0.50400001928E-02 0. -1.
        1   -1    0    0  501    0  0.00000000000E+00  0.00000000000E+00 -0.12802472276E+04  0.12802472276E+04  0.50400001928E-02 0.  1.
    10030    2    1    2    0    0  0.00000000000E+00  0.00000000000E+00  0.15132382971E+04  0.40737327524E+04  0.37822491185E+04 0.  0.
        2    1    3    3  502    0 -0.17666954567E+04  0.50886341410E+03  0.12336966147E+04  0.22140826877E+04  0.25500000920E-02 0. -1.
       -2    1    3    3    0  502  0.17666954567E+04 -0.50886341410E+03  0.27954168236E+03  0.18596500647E+04  0.25500000920E-02 0.  1.
</event>
<event>
 5   0  0.2529875E-07  0.3779833E+04  0.7818609E-02  0.8050497E-01
        1   -1    0    0  501    0  0.00000000000E+00  0.00000000000E+00  0.11937877774E+04  0.11937877774E+04  0.50400001928E-02 0.  1.
       -1   -1    0    0    0  501  0.00000000000E+00  0.00000000000E+00 -0.29919754928E+04  0.29919754928E+04  0.50400001928E-02 0. -1.
    10030    2    1    2    0    0  0.00000000000E+00  0.00000000000E+00 -0.17981877154E+04  0.41857632703E+04  0.37798326808E+04 0.  0.
        3    1    3    3  502    0  0.12819404614E+04 -0.66712698397E+02  0.63693831873E+03  0.14330081516E+04  0.10100000352E+00 0.  1.
       -3    1    3    3    0  502 -0.12819404614E+04  0.66712698397E+02 -0.24351260342E+04  0.27527551186E+04  0.10100000352E+00 0. -1.
</event>
<event>
 5   0  0.7551495E-07  0.3376543E+04  0.7818609E-02  0.8143687E-01
       -2   -1    0    0    0  501  0.00000000000E+00  0.00000000000E+00  0.15351673802E+04  0.15351673802E+04  0.25500000920E-02 0. -1.
        2   -1    0    0  501    0  0.00000000000E+00  0.00000000000E+00 -0.18566451894E+04  0.18566451894E+04  0.25500000920E-02 0.  1.
    10030    2    1    2    0    0  0.00000000000E+00  0.00000000000E+00 -0.32147780915E+03  0.33918125696E+04  0.33765432806E+04 0.  0.
        1    1    3    3  502    0 -0.11754119340E+04 -0.11790676326E+04 -0.44212604859E+03  0.17225763088E+04  0.50400001928E-02 0. -1.
       -1    1    3    3    0  502  0.11754119340E+04  0.11790676326E+04  0.12064823944E+03  0.16692362608E+04  0.50400001928E-02 0.  1.
</event>
<event>
 5   0  0.2529875E-07  0.3668201E+04  0.7818609E-02  0.8075046E-01
       -1   -1    0    0    0  501  0.00000000000E+00  0.00000000000E+00  0.12420400639E+04  0.12420400639E+04  0.50400001928E-02 0.  1.
        1   -1    0    0  501    0  0.00000000000E+00  0.00000000000E+00 -0.27083862522E+04  0.27083862522E+04  0.50400001928E-02 0. -1.
    10030    2    1    2    0    0  0.00000000000E+00  0.00000000000E+00 -0.14663461883E+04  0.39504263161E+04  0.36682007762E+04 0.  0.
        3    1    3    3  502    0 -0.14118345389E+04 -0.11301004282E+04 -0.40383328334E+03  0.18529665604E+04  0.10100000352E+00 0.  1.
       -3    1    3    3    0  502  0.14118345389E+04  0.11301004282E+04 -0.10625129050E+04  0.20974597557E+04  0.10100000352E+00 0. -1.
</event>
<event>
 5   0  0.8421677E-07  0.3812921E+04  0.7818609E-02  0.8043388E-01
        2   -1    0    0  501    0  0.00000000000E+00  0.00000000000E+00  0.24827042929E+04  0.24827042929E+04  0.25500000920E-02 0. -1.
       -2   -1    0    0    0  501  0.00000000000E+00  0.00000000000E+00 -0.14639647464E+04  0.14639647464E+04  0.25500000920E-02 0.  1.
    10030    2    1    2    0    0  0.00000000000E+00  0.00000000000E+00  0.10187395465E+04  0.39466690393E+04  0.38129209594E+04 0.  0.
        3    1    3    3  502    0  0.50194574843E+03 -0.32375578527E+03 -0.13646136086E+04  0.14896098999E+04  0.10100000352E+00 0.  1.
       -3    1    3    3    0  502 -0.50194574843E+03  0.32375578527E+03  0.23833531551E+04  0.24570591395E+04  0.10100000352E+00 0. -1.
</event>
<event>
 5   0  0.2529875E-07  0.3739668E+04  0.7818609E-02  0.8059227E-01
       -1   -1    0    0    0  501  0.00000000000E+00  0.00000000000E+00  0.24837066509E+04  0.24837066509E+04  0.50400001928E-02 0.  1.
        1   -1    0    0  501    0  0.00000000000E+00  0.00000000000E+00 -0.14076858021E+04  0.14076858021E+04  0.50400001928E-02 0. -1.
    10030    2    1    2    0    0  0.00000000000E+00  0.00000000000E+00  0.10760208488E+04  0.38913924529E+04  0.37396676798E+04 0.  0.
        1    1    3    3  502    0  0.74732197522E+03  0.34060982711E+03 -0.12099560105E+04  0.14623606725E+04  0.50400001928E-02 0. -1.
       -1    1    3    3    0  502 -0.74732197522E+03 -0.34060982711E+03  0.22859768593E+04  0.24290317804E+04  0.50400001928E-02 0.  1.
</event>
<event>
 5   0  0.7649458E-07  0.3772292E+04  0.7818609E-02  0.8052127E-01
        2   -1    0    0  501    0  0.00000000000E+00  0.00000000000E+00  0.21342304352E+04  0.21342304352E+04  0.25500000920E-02 0.  1.
       -2   -1    0    0    0  501  0.00000000000E+00  0.00000000000E+00 -0.16668988415E+04  0.16668988415E+04  0.25500000920E-02 0. -1.
    10030    2    1    2    0    0  0.00000000000E+00  0.00000000000E+00  0.46733159372E+03  0.38011292768E+04  0.37722917385E+04 0.  0.
        4    1    3    3  502    0 -0.19137090771E+03 -0.12707248050E+04  0.16248651053E+04  0.20716062796E+04  0.12699999809E+01 0.  1.
       -4    1    3    3    0  502  0.19137090771E+03  0.12707248050E+04 -0.11575335116E+04  0.17295229972E+04  0.12699999809E+01 0. -1.
</event>
<event>
 5   0  0.7649458E-07  0.3867022E+04  0.7818609E-02  0.8031923E-01
       -2   -1    0    0    0  501  0.00000000000E+00  0.00000000000E+00  0.12193113199E+04  0.12193113199E+04  0.25500000920E-02 0. -1.
        2   -1    0    0  501    0  0.00000000000E+00  0.00000000000E+00 -0.30660465428E+04  0.30660465428E+04  0.25500000920E-02 0.  1.
    10030    2    1    2    0    0  0.00000000000E+00  0.00000000000E+00 -0.18467352229E+04  0.42853578626E+04  0.38670222429E+04 0.  0.
        4    1    3    3  502    0 -0.12967060183E+04  0.42833262678E+03 -0.24402184376E+04  0.27963517256E+04  0.12699999809E+01 0.  1.
       -4    1    3    3    0  502  0.12967060183E+04 -0.42833262678E+03  0.59348321472E+03  0.14890061370E+04  0.12699999809E+01 0. -1.
</event>
<event>
 5   0  0.2529875E-07  0.3776371E+04  0.7818609E-02  0.8051245E-01
        1   -1    0    0  501    0  0.00000000000E+00  0.00000000000E+00  0.25551327821E+04  0.25551327821E+04  0.50400001928E-02 0.  1.
       -1   -1    0    0    0  501  0.00000000000E+00  0.00000000000E+00 -0.13953268511E+04  0.13953268511E+04  0.50400001928E-02 0. -1.
    10030    2    1    2    0    0  0.00000000000E+00  0.00000000000E+00  0.11598059309E+04  0.39504596332E+04  0.37763714749E+04 0.  0.
        5    1    3    3  502    0  0.15798753095E+04  0.57682376722E+03 -0.31784996171E+03  0.17116606965E+04  0.46999998093E+01 0.  1.
       -5    1    3    3    0  502 -0.15798753095E+04 -0.57682376722E+03  0.14776558926E+04  0.22387989367E+04  0.46999998093E+01 0. -1.
</event>
<event>
 5   0  0.2529875E-07  0.3633086E+04  0.7818609E-02  0.8082955E-01
        1   -1    0    0  501    0  0.00000000000E+00  0.00000000000E+00  0.28727384039E+04  0.28727384039E+04  0.50400001928E-02 0.  1.
       -1   -1    0    0    0  501  0.00000000000E+00  0.00000000000E+00 -0.11486700657E+04  0.11486700657E+04  0.50400001928E-02 0. -1.
    10030    2    1    2    0    0  0.00000000000E+00  0.00000000000E+00  0.17240683382E+04  0.40214084696E+04  0.36330860773E+04 0.  0.
        3    1    3    3  502    0  0.52251631236E+03 -0.15817925649E+04  0.60220257090E+02  0.16669485609E+04  0.10100000352E+00 0. -1.
       -3    1    3    3    0  502 -0.52251631236E+03  0.15817925649E+04  0.16638480811E+04  0.23544599088E+04  0.10100000352E+00 0.  1.
</event>
<event>
 5   0  0.2907071E-07  0.3776536E+04  0.7818609E-02  0.8051209E-01
       -1   -1    0    0    0  501  0.00000000000E+00  0.00000000000E+00  0.28332177718E+04  0.28332177718E+04  0.50400001928E-02 0. -1.
        1   -1    0    0  501    0  0.00000000000E+00  0.00000000000E+00 -0.12584828195E+04  0.12584828195E+04  0.50400001928E-02 0.  1.
    10030    2    1    2    0    0  0.00000000000E+00  0.00000000000E+00  0.15747349522E+04  0.40917005913E+04  0.37765359205E+04 0.  0.
        2    1    3    3  502    0 -0.13831997620E+04 -0.57089670917E+03 -0.46043560038E+03  0.15656198696E+04  0.25500000920E-02 0.  1.
       -2    1    3    3    0  502  0.13831997620E+04  0.57089670917E+03  0.20351705526E+04  0.25260807217E+04  0.25500000920E-02 0. -1.
</event>
<event>
 5   0  0.7649458E-07  0.3826643E+04  0.7818609E-02  0.8040461E-01
        2   -1    0    0  501    0  0.00000000000E+00  0.00000000000E+00  0.27165940043E+04  0.27165940043E+04  0.25500000920E-02 0. -1.
       -2   -1    0    0    0  501  0.00000000000E+00  0.00000000000E+00 -0.13475696549E+04  0.13475696549E+04  0.25500000920E-02 0.  1.
    10030    2    1    2    0    0  0.00000000000E+00  0.00000000000E+00  0.13690243493E+04  0.40641636592E+04  0.38266432522E+04 0.  0.
        4    1    3    3  502    0  0.24767752852E+03  0.18844026370E+04  0.45066232452E+03  0.19533088850E+04  0.12699999809E+01 0. -1.
       -4    1    3    3    0  502 -0.24767752852E+03 -0.18844026370E+04  0.91836202481E+03  0.21108547742E+04  0.12699999809E+01 0.  1.
</event>
<event>
 5   0  0.2529875E-07  0.3611306E+04  0.7818609E-02  0.8087907E-01
        1   -1    0    0  501    0  0.00000000000E+00  0.00000000000E+00  0.31628250237E+04  0.31628250237E+04  0.50400001928E-02 0. -1.
       -1   -1    0    0    0  501  0.00000000000E+00  0.00000000000E+00 -0.10308453150E+04  0.10308453150E+04  0.50400001928E-02 0.  1.
    10030    2    1    2    0    0  0.00000000000E+00  0.00000000000E+00  0.21319797087E+04  0.41936703387E+04  0.36113063331E+04 0.  0.
        3    1    3    3  502    0 -0.58765486983E+03  0.12191902044E+04 -0.32200665539E+03  0.13912049802E+04  0.10100000352E+00 0.  1.
       -3    1    3    3    0  502  0.58765486983E+03 -0.12191902044E+04  0.24539863641E+04  0.28024653585E+04  0.10100000352E+00 0. -1.
</event>
<event>
 5   0  0.8038352E-07  0.3783140E+04  0.7818609E-02  0.8049783E-01
        2   -1    0    0  501    0  0.00000000000E+00  0.00000000000E+00  0.22651676456E+04  0.22651676456E+04  0.25500000920E-02 0. -1.
       -2   -1    0    0    0  501  0.00000000000E+00  0.00000000000E+00 -0.15795905186E+04  0.15795905186E+04  0.25500000920E-02 0.  1.
    10030    2    1    2    0    0  0.00000000000E+00  0.00000000000E+00  0.68557712700E+03  0.38447581642E+04  0.37831401433E+04 0.  0.
        2    1    3    3  502    0 -0.11846469866E+04  0.14238254525E+04  0.73292906907E+03  0.19919468925E+04  0.25500000920E-02 0.  1.
       -2    1    3    3    0  502  0.11846469866E+04 -0.14238254525E+04 -0.47351942073E+02  0.18528112717E+04  0.25500000920E-02 0. -1.
</event>
<event>
 5   0  0.7649458E-07  0.3830590E+04  0.7818609E-02  0.8039622E-01
        2   -1    0    0  501    0  0.00000000000E+00  0.00000000000E+00  0.19669536714E+04  0.19669536714E+04  0.25500000920E-02 0. -1.
       -2   -1    0    0    0  501  0.00000000000E+00  0.00000000000E+00 -0.18649929763E+04  0.18649929763E+04  0.25500000920E-02 0.  1.
    10030    2    1    2    0    0  0.00000000000E+00  0.00000000000E+00  0.10196069515E+03  0.38319466477E+04  0.38305899190E+04 0.  0.
        4    1    3    3  502    0 -0.22019871495E+03 -0.14622979846E+04  0.12686009634E+04  0.19483718554E+04  0.12699999809E+01 0. -1.
       -4    1    3    3    0  502  0.22019871495E+03  0.14622979846E+04 -0.11666402682E+04  0.18835747923E+04  0.12699999809E+01 0.  1.
</event>
<event>
 5   0  0.2529875E-07  0.3953788E+04  0.7818609E-02  0.8013934E-01
       -1   -1    0    0    0  501  0.00000000000E+00  0.00000000000E+00  0.13315913640E+04  0.13315913640E+04  0.50400001928E-02 0.  1.
        1   -1    0    0  501    0  0.00000000000E+00  0.00000000000E+00 -0.29349161516E+04  0.29349161516E+04  0.50400001928E-02 0. -1.
    10030    2    1    2    0    0  0.00000000000E+00  0.00000000000E+00 -0.16033247876E+04  0.42665075156E+04  0.39537875520E+04 0.  0.
        5    1    3    3  502    0 -0.11116255095E+04  0.93493906257E+03  0.64539574837E+03  0.15894590545E+04  0.46999998093E+01 0.  1.
       -5    1    3    3    0  502  0.11116255095E+04 -0.93493906257E+03 -0.22487205360E+04  0.26770484611E+04  0.46999998093E+01 0. -1.
</event>
<event>
 5   0  0.2907071E-07  0.2584672E+04  0.7818609E-02  0.8373426E-01
        1   -1    0    0  501    0  0.00000000000E+00  0.00000000000E+00  0.13278408523E+04  0.13278408523E+04  0.50400001928E-02 0.  1.
       -1   -1    0    0    0  501  0.00000000000E+00  0.00000000000E+00 -0.12577809574E+04  0.12577809574E+04  0.50400001928E-02 0. -1.
    10030    2    1    2    0    0  0.00000000000E+00  0.00000000000E+00  0.70059894930E+02  0.25856218098E+04  0.25846724656E+04 0.  0.
        2    1    3    3  502    0 -0.28754237058E+03 -0.10328332865E+04 -0.68683590277E+03  0.12732512595E+04  0.25500000920E-02 0. -1.
       -2    1    3    3    0  502  0.28754237058E+03  0.10328332865E+04  0.75689579770E+03  0.13123705502E+04  0.25500000920E-02 0.  1.
</event>
<event>
 5   0  0.8038352E-07  0.3876276E+04  0.7818609E-02  0.8029982E-01
        2   -1    0    0  501    0  0.00000000000E+00  0.00000000000E+00  0.21902779609E+04  0.21902779609E+04  0.25500000920E-02 0. -1.
       -2   -1    0    0    0  501  0.00000000000E+00  0.00000000000E+00 -0.17150237148E+04  0.17150237148E+04  0.25500000920E-02 0.  1.
    10030    2    1    2    0    0  0.00000000000E+00  0.00000000000E+00  0.47525424606E+03  0.39053016757E+04  0.38762758648E+04 0.  0.
        2    1    3    3  502    0 -0.17751471503E+04  0.43810877161E+03 -0.41006464987E+03  0.18738302266E+04  0.25500000920E-02 0.  1.
       -2    1    3    3    0  502  0.17751471503E+04 -0.43810877161E+03  0.88531889593E+03  0.20314714491E+04  0.25500000920E-02 0. -1.
</event>
<event>
 5   0  0.8421677E-07  0.3879041E+04  0.7818609E-02  0.8029402E-01
       -2   -1    0    0    0  501  0.00000000000E+00  0.00000000000E+00  0.13845034767E+04  0.13845034767E+04  0.25500000920E-02 0.  1.
        2   -1    0    0  501    0  0.00000000000E+00  0.00000000000E+00 -0.27170322866E+04  0.27170322866E+04  0.25500000920E-02 0. -1.
    10030    2    1    2    0    0  0.00000000000E+00  0.00000000000E+00 -0.13325288100E+04  0.41015357633E+04  0.38790414523E+04 0.  0.
        3    1    3    3  502    0 -0.26797428103E+03 -0.52076819060E+03 -0.26212994270E+04  0.26859300847E+04  0.10100000352E+00 0. -1.
       -3    1    3    3    0  502  0.26797428103E+03  0.52076819060E+03  0.12887706171E+04  0.14156056786E+04  0.10100000352E+00 0.  1.
</event>
<event>
 5   0  0.7638805E-07  0.3815199E+04  0.7818609E-02  0.8042901E-01
       -2   -1    0    0    0  501  0.00000000000E+00  0.00000000000E+00  0.13185615477E+04  0.13185615477E+04  0.25500000920E-02 0. -1.
        2   -1    0    0  501    0  0.00000000000E+00  0.00000000000E+00 -0.27597774721E+04  0.27597774721E+04  0.25500000920E-02 0.  1.
    10030    2    1    2    0    0  0.00000000000E+00  0.00000000000E+00 -0.14412159245E+04  0.40783390198E+04  0.38151993158E+04 0.  0.
        5    1    3    3  502    0  0.53072924937E+03 -0.18100153470E+04 -0.10250026600E+04  0.21467374398E+04  0.46999998093E+01 0.  1.
       -5    1    3    3    0  502 -0.53072924937E+03  0.18100153470E+04 -0.41621326448E+03  0.19316015800E+04  0.46999998093E+01 0. -1.
</event>
<event>
 5   0  0.2907071E-07  0.3769001E+04  0.7818609E-02  0.8052840E-01
       -1   -1    0    0    0  501  0.00000000000E+00  0.00000000000E+00  0.27701804430E+04  0.27701804430E+04  0.50400001928E-02 0.  1.
        1   -1    0    0  501    0  0.00000000000E+00  0.00000000000E+00 -0.12819896920E+04  0.12819896921E+04  0.50400001928E-02 0. -1.
    10030    2    1    2    0    0  0.00000000000E+00  0.00000000000E+00  0.14881907510E+04  0.40521701351E+04  0.37690013389E+04 0.  0.
        2    1    3    3  502    0 -0.59130229587E+02  0.14309294821E+04  0.20609825944E+04  0.25097220605E+04  0.25500000920E-02 0.  1.
       -2    1    3    3    0  502  0.59130229587E+02 -0.14309294821E+04 -0.57279184346E+03  0.15424480745E+04  0.25500000920E-02 0. -1.
</event>
<event>
 5   0  0.8038352E-07  0.3753996E+04  0.7818609E-02  0.8056100E-01
        2   -1    0    0  501    0  0.00000000000E+00  0.00000000000E+00  0.17006199123E+04  0.17006199123E+04  0.25500000920E-02 0.  1.
       -2   -1    0    0    0  501  0.00000000000E+00  0.00000000000E+00 -0.20716688826E+04  0.20716688826E+04  0.25500000920E-02 0. -1.
    10030    2    1    2    0    0  0.00000000000E+00  0.00000000000E+00 -0.37104897026E+03  0.37722887949E+04  0.37539959262E+04 0.  0.
        2    1    3    3  502    0 -0.39442395210E+03 -0.40312523892E+03  0.16134621666E+04  0.17091929017E+04  0.25500000920E-02 0.  1.
       -2    1    3    3    0  502  0.39442395210E+03  0.40312523892E+03 -0.19845111369E+04  0.20630958932E+04  0.25500000920E-02 0. -1.
</event>
<event>
 5   0  0.2907071E-07  0.3882316E+04  0.7818609E-02  0.8028717E-01
        1   -1    0    0  501    0  0.00000000000E+00  0.00000000000E+00  0.24041047941E+04  0.24041047941E+04  0.50400001928E-02 0. -1.
       -1   -1    0    0    0  501  0.00000000000E+00  0.00000000000E+00 -0.15673589554E+04  0.15673589554E+04  0.50400001928E-02 0.  1.
    10030    2    1    2    0    0  0.00000000000E+00  0.00000000000E+00  0.83674583871E+03  0.39714637495E+04  0.38823164110E+04 0.  0.
        2    1    3    3  502    0 -0.35615104292E+03 -0.79496306958E+02 -0.15319558068E+04  0.15748180282E+04  0.25500000920E-02 0.  1.
       -2    1    3    3    0  502  0.35615104292E+03  0.79496306958E+02  0.23687016455E+04  0.23966457213E+04  0.25500000920E-02 0. -1.
</event>
<event>
 5   0  0.7638805E-07  0.2375250E+04  0.7818609E-02  0.8448828E-01
       -2   -1    0    0    0  501  0.00000000000E+00  0.00000000000E+00  0.13265287504E+04  0.13265287504E+04  0.25500000920E-02 0. -1.
        2   -1    0    0  501    0  0.00000000000E+00  0.00000000000E+00 -0.10632657727E+04  0.10632657727E+04  0.25500000920E-02 0.  1.
    10030    2    1    2    0    0  0.00000000000E+00  0.00000000000E+00  0.26326297768E+03  0.23897945231E+04  0.23752495589E+04 0.  0.
        5    1    3    3  502    0  0.44959406295E+03 -0.64275644559E+03  0.10288093303E+04  0.12937315788E+04  0.46999998093E+01 0. -1.
       -5    1    3    3    0  502 -0.44959406295E+03  0.64275644559E+03 -0.76554635265E+03  0.10960629443E+04  0.46999998093E+01 0.  1.
</event>
<event>
 5   0  0.2529875E-07  0.2678010E+04  0.7818609E-02  0.8342175E-01
       -1   -1    0    0    0  501  0.00000000000E+00  0.00000000000E+00  0.12598020715E+04  0.12598020715E+04  0.50400001928E-02 0.  1.
        1   -1    0    0  501    0  0.00000000000E+00  0.00000000000E+00 -0.14231876128E+04  0.14231876129E+04  0.50400001928E-02 0. -1.
    10030    2    1    2    0    0  0.00000000000E+00  0.00000000000E+00 -0.16338554135E+03  0.26829896844E+04  0.26780102336E+04 0.  0.
        1    1    3    3  502    0  0.74666692049E+03  0.26001038189E+03 -0.11643583221E+04  0.14074257320E+04  0.50400001928E-02 0. -1.
       -1    1    3    3    0  502 -0.74666692049E+03 -0.26001038189E+03  0.10009727807E+04  0.12755639524E+04  0.50400001928E-02 0.  1.
</event>
<event>
 5   0  0.2529875E-07  0.3885549E+04  0.7818609E-02  0.8028041E-01
        1   -1    0    0  501    0  0.00000000000E+00  0.00000000000E+00  0.11644508362E+04  0.11644508362E+04  0.50400001928E-02 0.  1.
       -1   -1    0    0    0  501  0.00000000000E+00  0.00000000000E+00 -0.32413326488E+04  0.32413326488E+04  0.50400001928E-02 0. -1.
    10030    2    1    2    0    0  0.00000000000E+00  0.00000000000E+00 -0.20768818126E+04  0.44057834850E+04  0.38855488741E+04 0.  0.
        4    1    3    3  502    0 -0.11183808111E+04  0.54202445411E+03 -0.27316250510E+04  0.30010570104E+04  0.12699999809E+01 0. -1.
       -4    1    3    3    0  502  0.11183808111E+04 -0.54202445411E+03  0.65474323837E+03  0.14047264746E+04  0.12699999809E+01 0.  1.
</event>
<event>
 5   0  0.2529875E-07  0.3816507E+04  0.7818609E-02  0.8042622E-01
       -1   -1    0    0    0  501  0.00000000000E+00  0.00000000000E+00  0.15577734381E+04  0.15577734381E+04  0.50400001928E-02 0.  1.
        1   -1    0    0  501    0  0.00000000000E+00  0.00000000000E+00 -0.23375875444E+04  0.23375875445E+04  0.50400001928E-02 0. -1.
    10030    2    1    2    0    0  0.00000000000E+00  0.00000000000E+00 -0.77981410632E+03  0.38953609826E+04  0.38165071917E+04 0.  0.
        1    1    3    3  502    0 -0.44729099266E+03  0.18113634599E+04  0.18771839981E+02  0.18658668758E+04  0.50400001928E-02 0.  1.
       -1    1    3    3    0  502  0.44729099266E+03 -0.18113634599E+04 -0.79858594630E+03  0.20294941068E+04  0.50400001928E-02 0. -1.
</event>
<event>
 5   0  0.7638805E-07  0.2332952E+04  0.7818609E-02  0.8465041E-01
        2   -1    0    0  501    0  0.00000000000E+00  0.00000000000E+00  0.13684956783E+04  0.13684956783E+04  0.25500000920E-02 0.  1.
       -2   -1    0    0    0  501  0.00000000000E+00  0.00000000000E+00 -0.99427885717E+03  0.99427885717E+03  0.25500000920E-02 0. -1.
    10030    2    1    2    0    0  0.00000000000E+00  0.00000000000E+00  0.37421682118E+03  0.23627745355E+04  0.23329520519E+04 0.  0.
        5    1    3    3  502    0 -0.62682749266E+03 -0.47777960310E+03  0.10580184076E+04  0.13193222106E+04  0.46999998093E+01 0.  1.
       -5    1    3    3    0  502  0.62682749266E+03  0.47777960310E+03 -0.68380158642E+03  0.10434523249E+04  0.46999998093E+01 0. -1.
</event>
<event>
 5   0  0.2529875E-07  0.3226107E+04  0.7818609E-02  0.8181956E-01
        1   -1    0    0  501    0  0.00000000000E+00  0.00000000000E+00  0.20724627852E+04  0.20724627853E+04  0.50400001928E-02 0. -1.
       -1   -1    0    0    0  501  0.00000000000E+00  0.00000000000E+00 -0.12554825396E+04  0.12554825396E+04  0.50400001928E-02 0.  1.
    10030    2    1    2    0    0  0.00000000000E+00  0.00000000000E+00  0.81698024566E+03  0.33279453248E+04  0.32261065332E+04 0.  0.
        5    1    3    3  502    0 -0.18557649808E+03  0.15993827251E+04  0.50879649902E+03  0.16885969636E+04  0.46999998093E+01 0. -1.
       -5    1    3    3    0  502  0.18557649808E+03 -0.15993827251E+04  0.30818374665E+03  0.16393483613E+04  0.46999998093E+01 0.  1.
</event>
<event>
 5   0  0.2529875E-07  0.2577875E+04  0.7818609E-02  0.8375755E-01
       -1   -1    0    0    0  501  0.00000000000E+00  0.00000000000E+00  0.11922140483E+04  0.11922140483E+04  0.50400001928E-02 0. -1.
        1   -1    0    0  501    0  0.00000000000E+00  0.00000000000E+00 -0.13935084249E+04  0.13935084249E+04  0.50400001928E-02 0.  1.
    10030    2    1    2    0    0  0.00000000000E+00  0.00000000000E+00 -0.20129437661E+03  0.25857224732E+04  0.25778753427E+04 0.  0.
        3    1    3    3  502    0 -0.66418118917E+03  0.10496667963E+04 -0.44582155058E+03  0.13197325110E+04  0.10100000352E+00 0.  1.
       -3    1    3    3    0  502  0.66418118917E+03 -0.10496667963E+04  0.24452717397E+03  0.12659899622E+04  0.10100000352E+00 0. -1.
</event>
<event>
 5   0  0.7551495E-07  0.2585103E+04  0.7818609E-02  0.8373279E-01
       -2   -1    0    0    0  501  0.00000000000E+00  0.00000000000E+00  0.10663618136E+04  0.10663618136E+04  0.25500000920E-02 0.  1.
        2   -1    0    0  501    0  0.00000000000E+00  0.00000000000E+00 -0.15667185769E+04  0.15667185769E+04  0.25500000920E-02 0. -1.
    10030    2    1    2    0    0  0.00000000000E+00  0.00000000000E+00 -0.50035676331E+03  0.26330803905E+04  0.25851025999E+04 0.  0.
        1    1    3    3  502    0 -0.43241978585E+03 -0.54806141330E+02  0.98924481511E+03  0.10810161371E+04  0.50400001928E-02 0.  1.
       -1    1    3    3    0  502  0.43241978585E+03  0.54806141330E+02 -0.14896015784E+04  0.15520642534E+04  0.50400001928E-02 0. -1.
</event>
<event>
 5   0  0.2529875E-07  0.3769609E+04  0.7818609E-02  0.8052708E-01
        1   -1    0    0  501    0  0.00000000000E+00  0.00000000000E+00  0.26795883069E+04  0.26795883069E+04  0.50400001928E-02 0.  1.
       -1   -1    0    0    0  501  0.00000000000E+00  0.00000000000E+00 -0.13257586561E+04  0.13257586561E+04  0.50400001928E-02 0. -1.
    10030    2    1    2    0    0  0.00000000000E+00  0.00000000000E+00  0.13538296508E+04  0.40053469630E+04  0.37696086761E+04 0.  0.
        3    1    3    3  502    0 -0.52366392417E+03 -0.73800361727E+03  0.24336750117E+04  0.25964682392E+04  0.10100000352E+00 0.  1.
       -3    1    3    3    0  502  0.52366392417E+03  0.73800361727E+03 -0.10798453609E+04  0.14088787238E+04  0.10100000352E+00 0. -1.
</event>
<event>
 5   0  0.8421677E-07  0.3781242E+04  0.7818609E-02  0.8050192E-01
       -2   -1    0    0    0  501  0.00000000000E+00  0.00000000000E+00  0.13379141320E+04  0.13379141320E+04  0.25500000920E-02 0.  1.
        2   -1    0    0  501    0  0.00000000000E+00  0.00000000000E+00 -0.26716571945E+04  0.26716571945E+04  0.25500000920E-02 0. -1.
    10030    2    1    2    0    0  0.00000000000E+00  0.00000000000E+00 -0.13337430625E+04  0.40095713265E+04  0.37812420797E+04 0.  0.
        3    1    3    3  502    0  0.18241736770E+04 -0.49376683616E+03 -0.72526604154E+03  0.20242100023E+04  0.10100000352E+00 0. -1.
       -3    1    3    3    0  502 -0.18241736770E+04  0.49376683616E+03 -0.60847702100E+03  0.19853613242E+04  0.10100000352E+00 0.  1.
</event>
<event>
 5   0  0.2529875E-07  0.3600260E+04  0.7818609E-02  0.8090432E-01
       -1   -1    0    0    0  501  0.00000000000E+00  0.00000000000E+00  0.20698896746E+04  0.20698896746E+04  0.50400001928E-02 0.  1.
        1   -1    0    0  501    0  0.00000000000E+00  0.00000000000E+00 -0.15655269497E+04  0.15655269497E+04  0.50400001928E-02 0. -1.
    10030    2    1    2    0    0  0.00000000000E+00  0.00000000000E+00  0.50436272485E+03  0.36354166243E+04  0.36002600287E+04 0.  0.
        1    1    3    3  502    0  0.28272233983E+03 -0.34866499227E+03 -0.15081054921E+04  0.15734933662E+04  0.50400001928E-02 0. -1.
       -1    1    3    3    0  502 -0.28272233983E+03  0.34866499227E+03  0.20124682169E+04  0.20619232581E+04  0.50400001928E-02 0.  1.
</event>
<event>
 5   0  0.2529875E-07  0.3595908E+04  0.7818609E-02  0.8091430E-01
        1   -1    0    0  501    0  0.00000000000E+00  0.00000000000E+00  0.14185607584E+04  0.14185607584E+04  0.50400001928E-02 0. -1.
       -1   -1    0    0    0  501  0.00000000000E+00  0.00000000000E+00 -0.22788158366E+04  0.22788158366E+04  0.50400001928E-02 0.  1.
    10030    2    1    2    0    0  0.00000000000E+00  0.00000000000E+00 -0.86025507820E+03  0.36973765951E+04  0.35959080753E+04 0.  0.
        1    1    3    3  502    0 -0.61788235056E+03 -0.11561272692E+04 -0.16953911262E+04  0.21430725449E+04  0.50400001928E-02 0.  1.
       -1    1    3    3    0  502  0.61788235056E+03  0.11561272692E+04  0.83513604800E+03  0.15543040502E+04  0.50400001928E-02 0. -1.
</event>
<event>
 5   0  0.7551495E-07  0.3373062E+04  0.7818609E-02  0.8144550E-01
       -2   -1    0    0    0  501  0.00000000000E+00  0.00000000000E+00  0.27691489107E+04  0.27691489107E+04  0.25500000920E-02 0. -1.
        2   -1    0    0  501    0  0.00000000000E+00  0.00000000000E+00 -0.10271701049E+04  0.10271701049E+04  0.25500000920E-02 0.  1.
    10030    2    1    2    0    0  0.00000000000E+00  0.00000000000E+00  0.17419788059E+04  0.37963190156E+04  0.33730620967E+04 0.  0.
        1    1    3    3  502    0 -0.10517625149E+04 -0.15172284543E+03  0.23449675137E+04  0.25745090503E+04  0.50400001928E-02 0. -1.
       -1    1    3    3    0  502  0.10517625149E+04  0.15172284543E+03 -0.60298870788E+03  0.12218099653E+04  0.50400001928E-02 0.  1.
</event>
<event>
 5   0  0.2529875E-07  0.3271012E+04  0.7818609E-02  0.8170311E-01
        1   -1    0    0  501    0  0.00000000000E+00  0.00000000000E+00  0.21053915918E+04  0.21053915919E+04  0.50400001928E-02 0. -1.
       -1   -1    0    0    0  501  0.00000000000E+00  0.00000000000E+00 -0.12704902286E+04  0.12704902286E+04  0.50400001928E-02 0.  1.
    10030    2    1    2    0    0  0.00000000000E+00  0.00000000000E+00  0.83490136323E+03  0.33758818205E+04  0.32710117364E+04 0.  0.
        3    1    3    3  502    0  0.16008104035E+03  0.14832698295E+04  0.11091345628E+04  0.18590037158E+04  0.10100000352E+00 0. -1.
       -3    1    3    3    0  502 -0.16008104035E+03 -0.14832698295E+04 -0.27423319953E+03  0.15168781047E+04  0.10100000352E+00 0.  1.
</event>
<event>
 5   0  0.2529875E-07  0.3789513E+04  0.7818609E-02  0.8048409E-01
        1   -1    0    0  501    0  0.00000000000E+00  0.00000000000E+00  0.27138855440E+04  0.27138855440E+04  0.50400001928E-02 0.  1.
       -1   -1    0    0    0  501  0.00000000000E+00  0.00000000000E+00 -0.13228646082E+04  0.13228646082E+04  0.50400001928E-02 0. -1.
    10030    2    1    2    0    0  0.00000000000E+00  0.00000000000E+00  0.13910209357E+04  0.40367501522E+04  0.37895134975E+04 0.  0.
        1    1    3    3  502    0 -0.49647167610E+03  0.65522480627E+03  0.25140196587E+04  0.26450138971E+04  0.50400001928E-02 0.  1.
       -1    1    3    3    0  502  0.49647167610E+03 -0.65522480627E+03 -0.11229987229E+04  0.13917362550E+04  0.50400001928E-02 0. -1.
</event>
<event>
 5   0  0.8421677E-07  0.3508069E+04  0.7818609E-02  0.8111880E-01
        2   -1    0    0  501    0  0.00000000000E+00  0.00000000000E+00  0.11608970277E+04  0.11608970277E+04  0.25500000920E-02 0. -1.
       -2   -1    0    0    0  501  0.00000000000E+00  0.00000000000E+00 -0.26502243031E+04  0.26502243031E+04  0.25500000920E-02 0.  1.
    10030    2    1    2    0    0  0.00000000000E+00  0.00000000000E+00 -0.14893272754E+04  0.38111213307E+04  0.35080692787E+04 0.  0.
        3    1    3    3  502    0  0.15396299152E+03  0.17200742227E+04 -0.10782350373E+04  0.20359152095E+04  0.10100000352E+00 0.  1.
       -3    1    3    3    0  502 -0.15396299152E+03 -0.17200742227E+04 -0.41109223809E+03  0.17752061212E+04  0.10100000352E+00 0. -1.
</event>
<event>
 5   0  0.7638805E-07  0.3805634E+04  0.7818609E-02  0.8044947E-01
        2   -1    0    0  501    0  0.00000000000E+00  0.00000000000E+00  0.20660990218E+04  0.20660990218E+04  0.25500000920E-02 0. -1.
       -2   -1    0    0    0  501  0.00000000000E+00  0.00000000000E+00 -0.17524389648E+04  0.17524389648E+04  0.25500000920E-02 0.  1.
    10030    2    1    2    0    0  0.00000000000E+00  0.00000000000E+00  0.31366005697E+03  0.38185379865E+04  0.38056339450E+04 0.  0.
        5    1    3    3  502    0  0.12023385395E+03  0.61799013903E+03 -0.16448983950E+04  0.17612724978E+04  0.46999998093E+01 0.  1.
       -5    1    3    3    0  502 -0.12023385395E+03 -0.61799013903E+03  0.19585584520E+04  0.20572654888E+04  0.46999998093E+01 0. -1.
</event>
<event>
 5   0  0.8038352E-07  0.3689127E+04  0.7818609E-02  0.8070376E-01
        2   -1    0    0  501    0  0.00000000000E+00  0.00000000000E+00  0.20330770005E+04  0.20330770005E+04  0.25500000920E-02 0. -1.
       -2   -1    0    0    0  501  0.00000000000E+00  0.00000000000E+00 -0.16735299860E+04  0.16735299860E+04  0.25500000920E-02 0.  1.
    10030    2    1    2    0    0  0.00000000000E+00  0.00000000000E+00  0.35954701453E+03  0.37066069865E+04  0.36891274438E+04 0.  0.
        2    1    3    3  502    0  0.13475562237E+04  0.33235565727E+03 -0.10409098225E+04  0.17348951893E+04  0.25500000920E-02 0.  1.
       -2    1    3    3    0  502 -0.13475562237E+04 -0.33235565727E+03  0.14004568371E+04  0.19717117973E+04  0.25500000920E-02 0. -1.
</event>
<event>
 5   0  0.8038352E-07  0.3847162E+04  0.7818609E-02  0.8036109E-01
        2   -1    0    0  501    0  0.00000000000E+00  0.00000000000E+00  0.16484848054E+04  0.16484848054E+04  0.25500000920E-02 0. -1.
       -2   -1    0    0    0  501  0.00000000000E+00  0.00000000000E+00 -0.22445851009E+04  0.22445851009E+04  0.25500000920E-02 0.  1.
    10030    2    1    2    0    0  0.00000000000E+00  0.00000000000E+00 -0.59610029545E+03  0.38930699063E+04  0.38471622961E+04 0.  0.
        2    1    3    3  502    0  0.12789688543E+04  0.63119739097E+03 -0.16041857723E+04  0.21465282362E+04  0.25500000920E-02 0.  1.
       -2    1    3    3    0  502 -0.12789688543E+04 -0.63119739097E+03  0.10080854769E+04  0.17465416701E+04  0.25500000920E-02 0. -1.
</event>
<event>
 5   0  0.8421677E-07  0.3786138E+04  0.7818609E-02  0.8049136E-01
        2   -1    0    0  501    0  0.00000000000E+00  0.00000000000E+00  0.20963296428E+04  0.20963296428E+04  0.25500000920E-02 0. -1.
       -2   -1    0    0    0  501  0.00000000000E+00  0.00000000000E+00 -0.17095167522E+04  0.17095167522E+04  0.25500000920E-02 0.  1.
    10030    2    1    2    0    0  0.00000000000E+00  0.00000000000E+00  0.38681289062E+03  0.38058463950E+04  0.37861382132E+04 0.  0.
        3    1    3    3  502    0 -0.44817137583E+03 -0.13970147128E+04 -0.10091498118E+04  0.17806995937E+04  0.10100000352E+00 0.  1.
       -3    1    3    3    0  502  0.44817137583E+03  0.13970147128E+04  0.13959627024E+04  0.20251468013E+04  0.10100000352E+00 0. -1.
</event>
<event>
 5   0  0.2907071E-07  0.2332799E+04  0.7818609E-02  0.8465100E-01
        1   -1    0    0  501    0  0.00000000000E+00  0.00000000000E+00  0.21534248652E+04  0.21534248652E+04  0.50400001928E-02 0. -1.
       -1   -1    0    0    0  501  0.00000000000E+00  0.00000000000E+00 -0.63177865402E+03  0.63177865404E+03  0.50400001928E-02 0.  1.
    10030    2    1    2    0    0  0.00000000000E+00  0.00000000000E+00  0.15216462112E+04  0.27852035193E+04  0.23327990594E+04 0.  0.
        2    1    3    3  502    0  0.52762196870E+03 -0.79969749357E+03 -0.33466449868E+02  0.95865584354E+03  0.25500000920E-02 0.  1.
       -2    1    3    3    0  502 -0.52762196870E+03  0.79969749357E+03  0.15551126611E+04  0.18265476757E+04  0.25500000920E-02 0. -1.
</event>
<event>
 5   0  0.7551495E-07  0.3593630E+04  0.7818609E-02  0.8091952E-01
        2   -1    0    0  501    0  0.00000000000E+00  0.00000000000E+00  0.26377112526E+04  0.26377112526E+04  0.25500000920E-02 0.  1.
       -2   -1    0    0    0  501  0.00000000000E+00  0.00000000000E+00 -0.12239942285E+04  0.12239942285E+04  0.25500000920E-02 0. -1.
    10030    2    1    2    0    0  0.00000000000E+00  0.00000000000E+00  0.14137170241E+04  0.38617054811E+04  0.35936295578E+04 0.  0.
        1    1    3    3  502    0 -0.10657033045E+04 -0.42912215935E+03 -0.77774922442E+03  0.13873583593E+04  0.50400001928E-02 0. -1.
       -1    1    3    3    0  502  0.10657033045E+04  0.42912215935E+03  0.21914662485E+04  0.24743471218E+04  0.50400001928E-02 0.  1.
</event>
<event>
 5   0  0.2529875E-07  0.3794316E+04  0.7818609E-02  0.8047376E-01
       -1   -1    0    0    0  501  0.00000000000E+00  0.00000000000E+00  0.15082794633E+04  0.15082794633E+04  0.50400001928E-02 0.  1.
        1   -1    0    0  501    0  0.00000000000E+00  0.00000000000E+00 -0.23863002310E+04  0.23863002310E+04  0.50400001928E-02 0. -1.
    10030    2    1    2    0    0  0.00000000000E+00  0.00000000000E+00 -0.87802076768E+03  0.38945796943E+04  0.37943155545E+04 0.  0.
        3    1    3    3  502    0 -0.77543256590E+03  0.16389936289E+03  0.13302104833E+04  0.15484245560E+04  0.10100000352E+00 0.  1.
       -3    1    3    3    0  502  0.77543256590E+03 -0.16389936289E+03 -0.22082312510E+04  0.23461551384E+04  0.10100000352E+00 0. -1.
</event>
<event>
 5   0  0.2529875E-07  0.3914232E+04  0.7818609E-02  0.8022076E-01
       -1   -1    0    0    0  501  0.00000000000E+00  0.00000000000E+00  0.18399817031E+04  0.18399817031E+04  0.50400001928E-02 0. -1.
        1   -1    0    0  501    0  0.00000000000E+00  0.00000000000E+00 -0.20817070998E+04  0.20817070998E+04  0.50400001928E-02 0.  1.
    10030    2    1    2    0    0  0.00000000000E+00  0.00000000000E+00 -0.24172539675E+03  0.39216888029E+04  0.39142319680E+04 0.  0.
        3    1    3    3  502    0  0.13593730909E+04  0.12541972312E+04  0.52019767711E+03  0.19213306661E+04  0.10100000352E+00 0. -1.
       -3    1    3    3    0  502 -0.13593730909E+04 -0.12541972312E+04 -0.76192307386E+03  0.20003581368E+04  0.10100000352E+00 0.  1.
</event>
<event>
 5   0  0.3103684E-07  0.2387694E+04  0.7818609E-02  0.8444125E-01
        1   -1    0    0  501    0  0.00000000000E+00  0.00000000000E+00  0.13572596999E+04  0.13572596999E+04  0.50400001928E-02 0.  1.
       -1   -1    0    0    0  501  0.00000000000E+00  0.00000000000E+00 -0.10501092504E+04  0.10501092504E+04  0.50400001928E-02 0. -1.
    10030    2    1    2    0    0  0.00000000000E+00  0.00000000000E+00  0.30715044946E+03  0.24073689503E+04  0.23876942568E+04 0.  0.
        4    1    3    3  502    0  0.48369589465E+03  0.10337001690E+04  0.50685021193E+03  0.12487579862E+04  0.12699999809E+01 0.  1.
       -4    1    3    3    0  502 -0.48369589465E+03 -0.10337001690E+04 -0.19969976247E+03  0.11586109640E+04  0.12699999809E+01 0. -1.
</event>
<event>
 5   0  0.7649458E-07  0.2452991E+04  0.7818609E-02  0.8419927E-01
       -2   -1    0    0    0  501  0.00000000000E+00  0.00000000000E+00  0.95113197093E+03  0.95113197094E+03  0.25500000920E-02 0. -1.
        2   -1    0    0  501    0  0.00000000000E+00  0.00000000000E+00 -0.15815795233E+04  0.15815795233E+04  0.25500000920E-02 0.  1.
    10030    2    1    2    0    0  0.00000000000E+00  0.00000000000E+00 -0.63044755238E+03  0.25327114943E+04  0.24529907046E+04 0.  0.
        4    1    3    3  502    0 -0.12221814165E+04 -0.70580137312E+02 -0.23809485438E+03  0.12471566634E+04  0.12699999809E+01 0. -1.
       -4    1    3    3    0  502  0.12221814165E+04  0.70580137312E+02 -0.39235269800E+03  0.12855548308E+04  0.12699999809E+01 0.  1.
</event>
<event>
 5   0  0.2529875E-07  0.2546579E+04  0.7818609E-02  0.8386577E-01
       -1   -1    0    0    0  501  0.00000000000E+00  0.00000000000E+00  0.14356044399E+04  0.14356044399E+04  0.50400001928E-02 0.  1.
        1   -1    0    0  501    0  0.00000000000E+00  0.00000000000E+00 -0.11293261766E+04  0.11293261766E+04  0.50400001928E-02 0. -1.
    10030    2    1    2    0    0  0.00000000000E+00  0.00000000000E+00  0.30627826330E+03  0.25649306165E+04  0.25465786249E+04 0.  0.
        3    1    3    3  502    0 -0.65547351430E+03  0.10790910586E+04  0.31919881618E+03  0.13022944886E+04  0.10100000352E+00 0.  1.
       -3    1    3    3    0  502  0.65547351430E+03 -0.10790910586E+04 -0.12920552886E+02  0.12626361279E+04  0.10100000352E+00 0. -1.
</event>
<event>
 5   0  0.7638805E-07  0.3903253E+04  0.7818609E-02  0.8024353E-01
       -2   -1    0    0    0  501  0.00000000000E+00  0.00000000000E+00  0.15853074914E+04  0.15853074914E+04  0.25500000920E-02 0.  1.
        2   -1    0    0  501    0  0.00000000000E+00  0.00000000000E+00 -0.24025918875E+04  0.24025918875E+04  0.25500000920E-02 0. -1.
    10030    2    1    2    0    0  0.00000000000E+00  0.00000000000E+00 -0.81728439604E+03  0.39878993789E+04  0.39032534727E+04 0.  0.
        5    1    3    3  502    0 -0.12496293098E+04  0.59397775215E+03 -0.18148777589E+04  0.22821451207E+04  0.46999998093E+01 0. -1.
       -5    1    3    3    0  502  0.12496293098E+04 -0.59397775215E+03  0.99759336290E+03  0.17057542583E+04  0.46999998093E+01 0.  1.
</event>
<event>
 5   0  0.2529875E-07  0.3787304E+04  0.7818609E-02  0.8048885E-01
        1   -1    0    0  501    0  0.00000000000E+00  0.00000000000E+00  0.22351044290E+04  0.22351044290E+04  0.50400001928E-02 0. -1.
       -1   -1    0    0    0  501  0.00000000000E+00  0.00000000000E+00 -0.16043627911E+04  0.16043627911E+04  0.50400001928E-02 0.  1.
    10030    2    1    2    0    0  0.00000000000E+00  0.00000000000E+00  0.63074163786E+03  0.38394672201E+04  0.37873042551E+04 0.  0.
        3    1    3    3  502    0 -0.18305358131E+04 -0.48058628730E+03  0.38023508656E+03  0.19303894099E+04  0.10100000352E+00 0. -1.
       -3    1    3    3    0  502  0.18305358131E+04  0.48058628730E+03  0.25050655130E+03  0.19090778101E+04  0.10100000352E+00 0.  1.
</event>
<event>
 5   0  0.7551495E-07  0.2526070E+04  0.7818609E-02  0.8393756E-01
       -2   -1    0    0    0  501  0.00000000000E+00  0.00000000000E+00  0.92100277670E+03  0.92100277670E+03  0.25500000920E-02 0.  1.
        2   -1    0    0  501    0  0.00000000000E+00  0.00000000000E+00 -0.17320880411E+04  0.17320880412E+04  0.25500000920E-02 0. -1.
    10030    2    1    2    0    0  0.00000000000E+00  0.00000000000E+00 -0.81108526445E+03  0.26530908179E+04  0.25260703833E+04 0.  0.
        1    1    3    3  502    0  0.75798007694E+02 -0.11394972826E+04  0.16108377834E+03  0.11533201545E+04  0.50400001928E-02 0.  1.
       -1    1    3    3    0  502 -0.75798007694E+02  0.11394972826E+04 -0.97216904278E+03  0.14997706634E+04  0.50400001928E-02 0. -1.
</event>
<event>
 5   0  0.2529875E-07  0.3721395E+04  0.7818609E-02  0.8063237E-01
       -1   -1    0    0    0  501  0.00000000000E+00  0.00000000000E+00  0.23023344271E+04  0.23023344271E+04  0.50400001928E-02 0. -1.
        1   -1    0    0  501    0  0.00000000000E+00  0.00000000000E+00 -0.15037756154E+04  0.15037756154E+04  0.50400001928E-02 0.  1.
    10030    2    1    2    0    0  0.00000000000E+00  0.00000000000E+00  0.79855881167E+03  0.38061100425E+04  0.37213945612E+04 0.  0.
        3    1    3    3  502    0  0.12871505799E+04 -0.80634674825E+03 -0.70001047936E+03  0.16724133386E+04  0.10100000352E+00 0.  1.
       -3    1    3    3    0  502 -0.12871505799E+04  0.80634674825E+03  0.14985692910E+04  0.21336967039E+04  0.10100000352E+00 0. -1.
</event>
<event>
 5   0  0.7638805E-07  0.2984029E+04  0.7818609E-02  0.8248306E-01
       -2   -1    0    0    0  501  0.00000000000E+00  0.00000000000E+00  0.15183524039E+04  0.15183524039E+04  0.25500000920E-02 0.  1.
        2   -1    0    0  501    0  0.00000000000E+00  0.00000000000E+00 -0.14661330194E+04  0.14661330194E+04  0.25500000920E-02 0. -1.
    10030    2    1    2    0    0  0.00000000000E+00  0.00000000000E+00  0.52219384503E+02  0.29844854233E+04  0.29840285484E+04 0.  0.
        5    1    3    3  502    0 -0.38910330195E+03  0.14394706530E+04  0.77179864024E+02  0.14931362838E+04  0.46999998093E+01 0.  1.
       -5    1    3    3    0  502  0.38910330195E+03 -0.14394706530E+04 -0.24960479521E+02  0.14913491395E+04  0.46999998093E+01 0. -1.
</event>
<event>
 5   0  0.8421677E-07  0.3782280E+04  0.7818609E-02  0.8049968E-01
        2   -1    0    0  501    0  0.00000000000E+00  0.00000000000E+00  0.19395822317E+04  0.19395822317E+04  0.25500000920E-02 0.  1.
       -2   -1    0    0    0  501  0.00000000000E+00  0.00000000000E+00 -0.18439076387E+04  0.18439076387E+04  0.25500000920E-02 0. -1.
    10030    2    1    2    0    0  0.00000000000E+00  0.00000000000E+00  0.95674593025E+02  0.37834898705E+04  0.37822799965E+04 0.  0.
        3    1    3    3  502    0 -0.14337824549E+04 -0.30444761255E+03 -0.11475303129E+04  0.18615172054E+04  0.10100000352E+00 0. -1.
       -3    1    3    3    0  502  0.14337824549E+04  0.30444761255E+03  0.12432049059E+04  0.19219726650E+04  0.10100000352E+00 0.  1.
</event>
<event>
 5   0  0.8421677E-07  0.3740139E+04  0.7818609E-02  0.8059124E-01
       -2   -1    0    0    0  501  0.00000000000E+00  0.00000000000E+00  0.15431285006E+04  0.15431285006E+04  0.25500000920E-02 0.  1.
        2   -1    0    0  501    0  0.00000000000E+00  0.00000000000E+00 -0.22662792736E+04  0.22662792736E+04  0.25500000920E-02 0. -1.
    10030    2    1    2    0    0  0.00000000000E+00  0.00000000000E+00 -0.72315077304E+03  0.38094077742E+04  0.37401391083E+04 0.  0.
        3    1    3    3  502    0 -0.68024250542E+03  0.20281484100E+03  0.14005814948E+04  0.15701886064E+04  0.10100000352E+00 0.  1.
       -3    1    3    3    0  502  0.68024250542E+03 -0.20281484100E+03 -0.21237322678E+04  0.22392191678E+04  0.10100000352E+00 0. -1.
</event>
<event>
 5   0  0.2529875E-07  0.3768846E+04  0.7818609E-02  0.8052874E-01
       -1   -1    0    0    0  501  0.00000000000E+00  0.00000000000E+00  0.25367745550E+04  0.25367745550E+04  0.50400001928E-02 0. -1.
        1   -1    0    0  501    0  0.00000000000E+00  0.00000000000E+00 -0.13998291188E+04  0.13998291188E+04  0.50400001928E-02 0.  1.
    10030    2    1    2    0    0  0.00000000000E+00  0.00000000000E+00  0.11369454362E+04  0.39366036738E+04  0.37688464495E+04 0.  0.
        1    1    3    3  502    0  0.67057626408E+03 -0.73636225016E+02  0.24063251805E+04  0.24990989764E+04  0.50400001928E-02 0. -1.
       -1    1    3    3    0  502 -0.67057626408E+03  0.73636225016E+02 -0.12693797444E+04  0.14375046974E+04  0.50400001928E-02 0.  1.
</event>
<event>
 5   0  0.2529875E-07  0.3808766E+04  0.7818609E-02  0.8044276E-01
       -1   -1    0    0    0  501  0.00000000000E+00  0.00000000000E+00  0.21933229519E+04  0.21933229519E+04  0.50400001928E-02 0.  1.
        1   -1    0    0  501    0  0.00000000000E+00  0.00000000000E+00 -0.16535064983E+04  0.16535064984E+04  0.50400001928E-02 0. -1.
    10030    2    1    2    0    0  0.00000000000E+00  0.00000000000E+00  0.53981645359E+03  0.38468294503E+04  0.38087655502E+04 0.  0.
        4    1    3    3  502    0 -0.98698321835E+03 -0.14536382070E+04  0.10117362568E+04  0.20275136933E+04  0.12699999809E+01 0.  1.
       -4    1    3    3    0  502  0.98698321835E+03  0.14536382070E+04 -0.47191980319E+03  0.18193157570E+04  0.12699999809E+01 0. -1.
</event>
<event>
 5   0  0.2529875E-07  0.3752953E+04  0.7818609E-02  0.8056327E-01
        1   -1    0    0  501    0  0.00000000000E+00  0.00000000000E+00  0.28588656868E+04  0.28588656868E+04  0.50400001928E-02 0.  1.
       -1   -1    0    0    0  501  0.00000000000E+00  0.00000000000E+00 -0.12316647475E+04  0.12316647475E+04  0.50400001928E-02 0. -1.
    10030    2    1    2    0    0  0.00000000000E+00  0.00000000000E+00  0.16272009393E+04  0.40905304344E+04  0.37529530156E+04 0.  0.
        1    1    3    3  502    0 -0.90505410634E+03 -0.15520076106E+04  0.14039001472E+04  0.22800846875E+04  0.50400001928E-02 0.  1.
       -1    1    3    3    0  502  0.90505410634E+03  0.15520076106E+04  0.22330079210E+03  0.18104457469E+04  0.50400001928E-02 0. -1.
</event>
<event>
 5   0  0.2529875E-07  0.3751156E+04  0.7818609E-02  0.8056719E-01
       -3   -1    0    0    0  501  0.00000000000E+00  0.00000000000E+00  0.27301565280E+04  0.27301565299E+04  0.10100000352E+00 0.  1.
        3   -1    0    0  501    0  0.00000000000E+00  0.00000000000E+00 -0.12884952186E+04  0.12884952225E+04  0.10100000352E+00 0. -1.
    10030    2    1    2    0    0  0.00000000000E+00  0.00000000000E+00  0.14416613094E+04  0.40186517524E+04  0.37511564318E+04 0.  0.
        3    1    3    3  502    0 -0.78757958114E+03  0.16580158852E+04  0.11336610269E+04  0.21574256897E+04  0.10100000352E+00 0.  1.
       -3    1    3    3    0  502  0.78757958114E+03 -0.16580158852E+04  0.30800028252E+03  0.18612260627E+04  0.10100000352E+00 0. -1.
</event>
<event>
 5   0  0.2529875E-07  0.3860908E+04  0.7818609E-02  0.8033209E-01
        1   -1    0    0  501    0  0.00000000000E+00  0.00000000000E+00  0.27072918795E+04  0.27072918795E+04  0.50400001928E-02 0. -1.
       -1   -1    0    0    0  501  0.00000000000E+00  0.00000000000E+00 -0.13765240536E+04  0.13765240536E+04  0.50400001928E-02 0.  1.
    10030    2    1    2    0    0  0.00000000000E+00  0.00000000000E+00  0.13307678259E+04  0.40838159331E+04  0.38609078685E+04 0.  0.
        5    1    3    3  502    0 -0.17764437612E+04  0.75282928068E+03  0.59744193951E+03  0.20197681361E+04  0.46999998093E+01 0. -1.
       -5    1    3    3    0  502  0.17764437612E+04 -0.75282928068E+03  0.73332588635E+03  0.20640477970E+04  0.46999998093E+01 0.  1.
</event>
<event>
 5   0  0.2529875E-07  0.3737409E+04  0.7818609E-02  0.8059722E-01
       -1   -1    0    0    0  501  0.00000000000E+00  0.00000000000E+00  0.17428898981E+04  0.17428898981E+04  0.50400001928E-02 0. -1.
        1   -1    0    0  501    0  0.00000000000E+00  0.00000000000E+00 -0.20036018362E+04  0.20036018362E+04  0.50400001928E-02 0.  1.
    10030    2    1    2    0    0  0.00000000000E+00  0.00000000000E+00 -0.26071193809E+03  0.37464917342E+04  0.37374094772E+04 0.  0.
        4    1    3    3  502    0 -0.73664684155E+03  0.22253313221E+03  0.15766874813E+04  0.17544556394E+04  0.12699999809E+01 0. -1.
       -4    1    3    3    0  502  0.73664684155E+03 -0.22253313221E+03 -0.18373994193E+04  0.19920360949E+04  0.12699999809E+01 0.  1.
</event>
<event>
 5   0  0.2907071E-07  0.3876689E+04  0.7818609E-02  0.8029895E-01
       -1   -1    0    0    0  501  0.00000000000E+00  0.00000000000E+00  0.14287043499E+04  0.14287043499E+04  0.50400001928E-02 0.  1.
        1   -1    0    0  501    0  0.00000000000E+00  0.00000000000E+00 -0.26297810172E+04  0.26297810172E+04  0.50400001928E-02 0. -1.
    10030    2    1    2    0    0  0.00000000000E+00  0.00000000000E+00 -0.12010766674E+04  0.40584853671E+04  0.38766890917E+04 0.  0.
        2    1    3    3  502    0  0.65289662836E+03  0.22825788003E+03  0.12951229246E+04  0.14682367169E+04  0.25500000920E-02 0.  1.
       -2    1    3    3    0  502 -0.65289662836E+03 -0.22825788003E+03 -0.24961995919E+04  0.25902486502E+04  0.25500000920E-02 0. -1.
</event>
<event>
 5   0  0.8038352E-07  0.3668002E+04  0.7818609E-02  0.8075090E-01
       -2   -1    0    0    0  501  0.00000000000E+00  0.00000000000E+00  0.16447814583E+04  0.16447814583E+04  0.25500000920E-02 0.  1.
        2   -1    0    0  501    0  0.00000000000E+00  0.00000000000E+00 -0.20449890759E+04  0.20449890759E+04  0.25500000920E-02 0. -1.
    10030    2    1    2    0    0  0.00000000000E+00  0.00000000000E+00 -0.40020761763E+03  0.36897705342E+04  0.36680022435E+04 0.  0.
        2    1    3    3  502    0  0.16527204739E+04 -0.37152898889E+03  0.50694829685E+03  0.17681955011E+04  0.25500000920E-02 0.  1.
       -2    1    3    3    0  502 -0.16527204739E+04  0.37152898889E+03 -0.90715591448E+03  0.19215750331E+04  0.25500000920E-02 0. -1.
</event>
<event>
 5   0  0.2529875E-07  0.3801207E+04  0.7818609E-02  0.8045896E-01
        1   -1    0    0  501    0  0.00000000000E+00  0.00000000000E+00  0.21009144945E+04  0.21009144945E+04  0.50400001928E-02 0.  1.
       -1   -1    0    0    0  501  0.00000000000E+00  0.00000000000E+00 -0.17193908296E+04  0.17193908296E+04  0.50400001928E-02 0. -1.
    10030    2    1    2    0    0  0.00000000000E+00  0.00000000000E+00  0.38152366492E+03  0.38203053241E+04  0.38012067114E+04 0.  0.
        5    1    3    3  502    0  0.11537596010E+04  0.12401425626E+04 -0.67563458670E+03  0.18236279712E+04  0.46999998093E+01 0.  1.
       -5    1    3    3    0  502 -0.11537596010E+04 -0.12401425626E+04  0.10571582516E+04  0.19966773529E+04  0.46999998093E+01 0. -1.
</event>
<event>
 5   0  0.2529875E-07  0.3814618E+04  0.7818609E-02  0.8043025E-01
        1   -1    0    0  501    0  0.00000000000E+00  0.00000000000E+00  0.22128112197E+04  0.22128112197E+04  0.50400001928E-02 0. -1.
       -1   -1    0    0    0  501  0.00000000000E+00  0.00000000000E+00 -0.16439847393E+04  0.16439847393E+04  0.50400001928E-02 0.  1.
    10030    2    1    2    0    0  0.00000000000E+00  0.00000000000E+00  0.56882648041E+03  0.38567959590E+04  0.38146181335E+04 0.  0.
        3    1    3    3  502    0 -0.26800962670E+03  0.10811548467E+04 -0.12809637057E+04  0.16975255486E+04  0.10100000352E+00 0.  1.
       -3    1    3    3    0  502  0.26800962670E+03 -0.10811548467E+04  0.18497901861E+04  0.21592704104E+04  0.10100000352E+00 0. -1.
</event>
<event>
 5   0  0.8038352E-07  0.3550846E+04  0.7818609E-02  0.8101845E-01
        2   -1    0    0  501    0  0.00000000000E+00  0.00000000000E+00  0.14195089276E+04  0.14195089276E+04  0.25500000920E-02 0. -1.
       -2   -1    0    0    0  501  0.00000000000E+00  0.00000000000E+00 -0.22205760675E+04  0.22205760675E+04  0.25500000920E-02 0.  1.
    10030    2    1    2    0    0  0.00000000000E+00  0.00000000000E+00 -0.80106713990E+03  0.36400849952E+04  0.35508464075E+04 0.  0.
        2    1    3    3  502    0  0.25396040419E+02  0.44301954690E+02 -0.22198230896E+04  0.22204103610E+04  0.25500000920E-02 0.  1.
       -2    1    3    3    0  502 -0.25396040419E+02 -0.44301954690E+02  0.14187559497E+04  0.14196746342E+04  0.25500000920E-02 0. -1.
</event>
<event>
 5   0  0.2907071E-07  0.3789132E+04  0.7818609E-02  0.8048491E-01
        1   -1    0    0  501    0  0.00000000000E+00  0.00000000000E+00  0.28048350615E+04  0.28048350615E+04  0.50400001928E-02 0.  1.
       -1   -1    0    0    0  501  0.00000000000E+00  0.00000000000E+00 -0.12797119863E+04  0.12797119863E+04  0.50400001928E-02 0. -1.
    10030    2    1    2    0    0  0.00000000000E+00  0.00000000000E+00  0.15251230752E+04  0.40845470478E+04  0.37891323797E+04 0.  0.
        2    1    3    3  502    0  0.17536088512E+04  0.60355751898E+03  0.11799929528E+04  0.21981376322E+04  0.25500000920E-02 0. -1.
       -2    1    3    3    0  502 -0.17536088512E+04 -0.60355751898E+03  0.34513012244E+03  0.18864094155E+04  0.25500000920E-02 0.  1.
</event>
<event>
 5   0  0.2884080E-07  0.2506939E+04  0.7818609E-02  0.8400518E-01
        1   -1    0    0  501    0  0.00000000000E+00  0.00000000000E+00  0.13549643632E+04  0.13549643632E+04  0.50400001928E-02 0.  1.
       -1   -1    0    0    0  501  0.00000000000E+00  0.00000000000E+00 -0.11595767943E+04  0.11595767943E+04  0.50400001928E-02 0. -1.
    10030    2    1    2    0    0  0.00000000000E+00  0.00000000000E+00  0.19538756894E+03  0.25145411575E+04  0.25069385574E+04 0.  0.
        5    1    3    3  502    0 -0.88273043235E+03 -0.58706827740E+03  0.76852764501E+03  0.13093964295E+04  0.46999998093E+01 0.  1.
       -5    1    3    3    0  502  0.88273043235E+03  0.58706827740E+03 -0.57314007607E+03  0.12051447280E+04  0.46999998093E+01 0. -1.
</event>
<event>
 5   0  0.7551495E-07  0.3663591E+04  0.7818609E-02  0.8076079E-01
        2   -1    0    0  501    0  0.00000000000E+00  0.00000000000E+00  0.21753930485E+04  0.21753930485E+04  0.25500000920E-02 0. -1.
       -2   -1    0    0    0  501  0.00000000000E+00  0.00000000000E+00 -0.15424680268E+04  0.15424680268E+04  0.25500000920E-02 0.  1.
    10030    2    1    2    0    0  0.00000000000E+00  0.00000000000E+00  0.63292502173E+03  0.37178610752E+04  0.36635907102E+04 0.  0.
        1    1    3    3  502    0  0.94942267158E+03  0.15465787364E+04  0.63439938095E+02  0.18158562231E+04  0.50400001928E-02 0.  1.
       -1    1    3    3    0  502 -0.94942267158E+03 -0.15465787364E+04  0.56948508364E+03  0.19020048522E+04  0.50400001928E-02 0. -1.
</event>
<event>
 5   0  0.8038352E-07  0.3289505E+04  0.7818609E-02  0.8165571E-01
        2   -1    0    0  501    0  0.00000000000E+00  0.00000000000E+00  0.28723049078E+04  0.28723049078E+04  0.25500000920E-02 0.  1.
       -2   -1    0    0    0  501  0.00000000000E+00  0.00000000000E+00 -0.94182596759E+03  0.94182596759E+03  0.25500000920E-02 0. -1.
    10030    2    1    2    0    0  0.00000000000E+00  0.00000000000E+00  0.19304789402E+04  0.38141308754E+04  0.32895053421E+04 0.  0.
        2    1    3    3  502    0 -0.10615873906E+03  0.13001067191E+04  0.21268464409E+04  0.24949995876E+04  0.25500000920E-02 0. -1.
       -2    1    3    3    0  502  0.10615873906E+03 -0.13001067191E+04 -0.19636750075E+03  0.13191312877E+04  0.25500000920E-02 0.  1.
</event>
<event>
 5   0  0.7649458E-07  0.3765385E+04  0.7818609E-02  0.8053624E-01
       -2   -1    0    0    0  501  0.00000000000E+00  0.00000000000E+00  0.12926928067E+04  0.12926928067E+04  0.25500000920E-02 0.  1.
        2   -1    0    0  501    0  0.00000000000E+00  0.00000000000E+00 -0.27419746838E+04  0.27419746838E+04  0.25500000920E-02 0. -1.
    10030    2    1    2    0    0  0.00000000000E+00  0.00000000000E+00 -0.14492818771E+04  0.40346674905E+04  0.37653849470E+04 0.  0.
        4    1    3    3  502    0  0.12607205513E+03  0.60708459483E+03 -0.26294333134E+04  0.27015490058E+04  0.12699999809E+01 0. -1.
       -4    1    3    3    0  502 -0.12607205513E+03 -0.60708459483E+03  0.11801514364E+04  0.13331184846E+04  0.12699999809E+01 0.  1.
</event>
<event>
 5   0  0.7638805E-07  0.3868712E+04  0.7818609E-02  0.8031568E-01
       -2   -1    0    0    0  501  0.00000000000E+00  0.00000000000E+00  0.16672986196E+04  0.16672986196E+04  0.25500000920E-02 0. -1.
        2   -1    0    0  501    0  0.00000000000E+00  0.00000000000E+00 -0.22441886242E+04  0.22441886242E+04  0.25500000920E-02 0.  1.
    10030    2    1    2    0    0  0.00000000000E+00  0.00000000000E+00 -0.57689000457E+03  0.39114872438E+04  0.38687117211E+04 0.  0.
        5    1    3    3  502    0 -0.41290818695E+03 -0.59459401526E+03  0.15251765026E+04  0.16882596566E+04  0.46999998093E+01 0. -1.
       -5    1    3    3    0  502  0.41290818695E+03  0.59459401526E+03 -0.21020665072E+04  0.22232275872E+04  0.46999998093E+01 0.  1.
</event>
<event>
 5   0  0.7649458E-07  0.3437067E+04  0.7818609E-02  0.8128868E-01
       -2   -1    0    0    0  501  0.00000000000E+00  0.00000000000E+00  0.16318861781E+04  0.16318861781E+04  0.25500000920E-02 0. -1.
        2   -1    0    0  501    0  0.00000000000E+00  0.00000000000E+00 -0.18097814514E+04  0.18097814514E+04  0.25500000920E-02 0.  1.
    10030    2    1    2    0    0  0.00000000000E+00  0.00000000000E+00 -0.17789527329E+03  0.34416676295E+04  0.34370669682E+04 0.  0.
        4    1    3    3  502    0  0.11437149965E+03 -0.84321527488E+03  0.14061225307E+04  0.16435556041E+04  0.12699999809E+01 0. -1.
       -4    1    3    3    0  502 -0.11437149965E+03  0.84321527488E+03 -0.15840178040E+04  0.17981120254E+04  0.12699999809E+01 0.  1.
</event>
<event>
 5   0  0.7551495E-07  0.3804849E+04  0.7818609E-02  0.8045115E-01
        2   -1    0    0  501    0  0.00000000000E+00  0.00000000000E+00  0.28740707763E+04  0.28740707763E+04  0.25500000920E-02 0. -1.
       -2   -1    0    0    0  501  0.00000000000E+00  0.00000000000E+00 -0.12592658227E+04  0.12592658227E+04  0.25500000920E-02 0.  1.
    10030    2    1    2    0    0  0.00000000000E+00  0.00000000000E+00  0.16148049536E+04  0.41333365990E+04  0.38048490644E+04 0.  0.
        1    1    3    3  502    0  0.16406835239E+04 -0.35330123478E+03  0.17805993815E+04  0.24468752207E+04  0.50400001928E-02 0. -1.
       -1    1    3    3    0  502 -0.16406835239E+04  0.35330123478E+03 -0.16579442792E+03  0.16864613783E+04  0.50400001928E-02 0.  1.
</event>
<event>
 5   0  0.2529875E-07  0.2383598E+04  0.7818609E-02  0.8445670E-01
       -1   -1    0    0    0  501  0.00000000000E+00  0.00000000000E+00  0.55860309146E+03  0.55860309148E+03  0.50400001928E-02 0. -1.
        1   -1    0    0  501    0  0.00000000000E+00  0.00000000000E+00 -0.25427447733E+04  0.25427447733E+04  0.50400001928E-02 0.  1.
    10030    2    1    2    0    0  0.00000000000E+00  0.00000000000E+00 -0.19841416818E+04  0.31013478648E+04  0.23835981970E+04 0.  0.
        4    1    3    3  502    0 -0.13605966792E+03 -0.75535923457E+03  0.19423667808E+03  0.79171289398E+03  0.12699999809E+01 0. -1.
       -4    1    3    3    0  502  0.13605966792E+03  0.75535923457E+03 -0.21783783599E+04  0.23096349708E+04  0.12699999809E+01 0.  1.
</event>
<event>
 5   0  0.8038352E-07  0.3849809E+04  0.7818609E-02  0.8035550E-01
        2   -1    0    0  501    0  0.00000000000E+00  0.00000000000E+00  0.21493182619E+04  0.21493182619E+04  0.25500000920E-02 0. -1.
       -2   -1    0    0    0  501  0.00000000000E+00  0.00000000000E+00 -0.17239219132E+04  0.17239219132E+04  0.25500000920E-02 0.  1.
    10030    2    1    2    0    0  0.00000000000E+00  0.00000000000E+00  0.42539634866E+03  0.38732401751E+04  0.38498087485E+04 0.  0.
        2    1    3    3  502    0 -0.13185287650E+04  0.13638030200E+04  0.54145923324E+03  0.19727277771E+04  0.25500000920E-02 0. -1.
       -2    1    3    3    0  502  0.13185287650E+04 -0.13638030200E+04 -0.11606288458E+03  0.19005123979E+04  0.25500000920E-02 0.  1.
</event>
<event>
 5   0  0.8421677E-07  0.3843088E+04  0.7818609E-02  0.8036971E-01
       -2   -1    0    0    0  501  0.00000000000E+00  0.00000000000E+00  0.24883373729E+04  0.24883373729E+04  0.25500000920E-02 0. -1.
        2   -1    0    0  501    0  0.00000000000E+00  0.00000000000E+00 -0.14838545839E+04  0.14838545839E+04  0.25500000920E-02 0.  1.
    10030    2    1    2    0    0  0.00000000000E+00  0.00000000000E+00  0.10044827890E+04  0.39721919568E+04  0.38430877258E+04 0.  0.
        3    1    3    3  502    0 -0.16259611240E+04  0.85021997070E+03  0.10921213380E+04  0.21352640592E+04  0.10100000352E+00 0. -1.
       -3    1    3    3    0  502  0.16259611240E+04 -0.85021997070E+03 -0.87638549048E+02  0.18369278976E+04  0.10100000352E+00 0.  1.
</event>
<event>
 5   0  0.7638805E-07  0.3809053E+04  0.7818609E-02  0.8044215E-01
        2   -1    0    0  501    0  0.00000000000E+00  0.00000000000E+00  0.18222425498E+04  0.18222425498E+04  0.25500000920E-02 0. -1.
       -2   -1    0    0    0  501  0.00000000000E+00  0.00000000000E+00 -0.19905258008E+04  0.19905258008E+04  0.25500000920E-02 0.  1.
    10030    2    1    2    0    0  0.00000000000E+00  0.00000000000E+00 -0.16828325095E+03  0.38127683506E+04  0.38090528013E+04 0.  0.
        5    1    3    3  502    0  0.30897744945E+03 -0.18622308269E+04  0.16874686140E+03  0.18952224962E+04  0.46999998093E+01 0.  1.
       -5    1    3    3    0  502 -0.30897744945E+03  0.18622308269E+04 -0.33703011236E+03  0.19175458544E+04  0.46999998093E+01 0. -1.
</event>
<event>
 5   0  0.7551495E-07  0.3742364E+04  0.7818609E-02  0.8058638E-01
        2   -1    0    0  501    0  0.00000000000E+00  0.00000000000E+00  0.19217799622E+04  0.19217799622E+04  0.25500000920E-02 0. -1.
       -2   -1    0    0    0  501  0.00000000000E+00  0.00000000000E+00 -0.18219159541E+04  0.18219159542E+04  0.25500000920E-02 0.  1.
    10030    2    1    2    0    0  0.00000000000E+00  0.00000000000E+00  0.99864008008E+02  0.37436959163E+04  0.37423637308E+04 0.  0.
        1    1    3    3  502    0  0.70762550456E+03  0.56382973388E+03 -0.15885410727E+04  0.18281412864E+04  0.50400001928E-02 0.  1.
       -1    1    3    3    0  502 -0.70762550456E+03 -0.56382973388E+03  0.16884050807E+04  0.19155546299E+04  0.50400001928E-02 0. -1.
</event>
<event>
 5   0  0.2529875E-07  0.3765216E+04  0.7818609E-02  0.8053661E-01
       -1   -1    0    0    0  501  0.00000000000E+00  0.00000000000E+00  0.17454468213E+04  0.17454468213E+04  0.50400001928E-02 0. -1.
        1   -1    0    0  501    0  0.00000000000E+00  0.00000000000E+00 -0.20305479694E+04  0.20305479694E+04  0.50400001928E-02 0.  1.
    10030    2    1    2    0    0  0.00000000000E+00  0.00000000000E+00 -0.28510114811E+03  0.37759947907E+04  0.37652163278E+04 0.  0.
        1    1    3    3  502    0 -0.13585417139E+02 -0.10986547166E+04 -0.16756473773E+04  0.20037517020E+04  0.50400001928E-02 0.  1.
       -1    1    3    3    0  502  0.13585417139E+02  0.10986547166E+04  0.13905462292E+04  0.17722430887E+04  0.50400001928E-02 0. -1.
</event>
<event>
 5   0  0.8038352E-07  0.4225516E+04  0.7818609E-02  0.7960536E-01
        2   -1    0    0  501    0  0.00000000000E+00  0.00000000000E+00  0.28163094761E+04  0.28163094761E+04  0.25500000920E-02 0.  1.
       -2   -1    0    0    0  501  0.00000000000E+00  0.00000000000E+00 -0.15849631705E+04  0.15849631705E+04  0.25500000920E-02 0. -1.
    10030    2    1    2    0    0  0.00000000000E+00  0.00000000000E+00  0.12313463055E+04  0.44012726466E+04  0.42255162035E+04 0.  0.
        2    1    3    3  502    0 -0.18220219261E+04  0.10217822560E+04  0.28638455905E+03  0.21085110846E+04  0.25500000920E-02 0. -1.
       -2    1    3    3    0  502  0.18220219261E+04 -0.10217822560E+04  0.94496174648E+03  0.22927615620E+04  0.25500000920E-02 0.  1.
</event>
<event>
 5   0  0.2529875E-07  0.3499604E+04  0.7818609E-02  0.8113884E-01
        1   -1    0    0  501    0  0.00000000000E+00  0.00000000000E+00  0.16175061633E+04  0.16175061633E+04  0.50400001928E-02 0.  1.
       -1   -1    0    0    0  501  0.00000000000E+00  0.00000000000E+00 -0.18929178546E+04  0.18929178546E+04  0.50400001928E-02 0. -1.
    10030    2    1    2    0    0  0.00000000000E+00  0.00000000000E+00 -0.27541169136E+03  0.35104240179E+04  0.34996035755E+04 0.  0.
        5    1    3    3  502    0  0.12144543640E+04 -0.48647967929E+03  0.10278775930E+04  0.16637657037E+04  0.46999998093E+01 0.  1.
       -5    1    3    3    0  502 -0.12144543640E+04  0.48647967929E+03 -0.13032892844E+04  0.18466583142E+04  0.46999998093E+01 0. -1.
</event>
<event>
 5   0  0.7638805E-07  0.3846122E+04  0.7818609E-02  0.8036329E-01
        2   -1    0    0  501    0  0.00000000000E+00  0.00000000000E+00  0.29688539487E+04  0.29688539487E+04  0.25500000920E-02 0.  1.
       -2   -1    0    0    0  501  0.00000000000E+00  0.00000000000E+00 -0.12456534464E+04  0.12456534464E+04  0.25500000920E-02 0. -1.
    10030    2    1    2    0    0  0.00000000000E+00  0.00000000000E+00  0.17232005023E+04  0.42145073951E+04  0.38461217626E+04 0.  0.
        5    1    3    3  502    0  0.17224739253E+04 -0.66969954063E+03  0.27895050691E+03  0.18690236418E+04  0.46999998093E+01 0. -1.
       -5    1    3    3    0  502 -0.17224739253E+04  0.66969954063E+03  0.14442499954E+04  0.23454837534E+04  0.46999998093E+01 0.  1.
</event>
<event>
 5   0  0.2529875E-07  0.2579189E+04  0.7818609E-02  0.8375305E-01
        1   -1    0    0  501    0  0.00000000000E+00  0.00000000000E+00  0.21203889608E+04  0.21203889608E+04  0.50400001928E-02 0.  1.
       -1   -1    0    0    0  501  0.00000000000E+00  0.00000000000E+00 -0.78431532659E+03  0.78431532660E+03  0.50400001928E-02 0. -1.
    10030    2    1    2    0    0  0.00000000000E+00  0.00000000000E+00  0.13360736342E+04  0.29047042874E+04  0.25791886789E+04 0.  0.
        4    1    3    3  502    0 -0.10243112937E+04  0.78229098479E+03  0.61947729537E+03  0.14300162739E+04  0.12699999809E+01 0. -1.
       -4    1    3    3    0  502  0.10243112937E+04 -0.78229098479E+03  0.71659633883E+03  0.14746880135E+04  0.12699999809E+01 0.  1.
</event>
<event>
 5   0  0.7649458E-07  0.3801716E+04  0.7818609E-02  0.8045787E-01
       -2   -1    0    0    0  501  0.00000000000E+00  0.00000000000E+00  0.31430438863E+04  0.31430438863E+04  0.25500000920E-02 0.  1.
        2   -1    0    0  501    0  0.00000000000E+00  0.00000000000E+00 -0.11496055135E+04  0.11496055135E+04  0.25500000920E-02 0. -1.
    10030    2    1    2    0    0  0.00000000000E+00  0.00000000000E+00  0.19934383728E+04  0.42926493998E+04  0.38017157078E+04 0.  0.
        4    1    3    3  502    0  0.16418476302E+04 -0.41545171973E+03  0.19713104590E+04  0.25989094464E+04  0.12699999809E+01 0.  1.
       -4    1    3    3    0  502 -0.16418476302E+04  0.41545171973E+03  0.22127913826E+02  0.16937399533E+04  0.12699999809E+01 0. -1.
</event>
<event>
 5   0  0.2529875E-07  0.3755087E+04  0.7818609E-02  0.8055862E-01
        1   -1    0    0  501    0  0.00000000000E+00  0.00000000000E+00  0.21457257743E+04  0.21457257743E+04  0.50400001928E-02 0. -1.
       -1   -1    0    0    0  501  0.00000000000E+00  0.00000000000E+00 -0.16428798707E+04  0.16428798707E+04  0.50400001928E-02 0.  1.
    10030    2    1    2    0    0  0.00000000000E+00  0.00000000000E+00  0.50284590361E+03  0.37886056451E+04  0.37550870471E+04 0.  0.
        1    1    3    3  502    0 -0.11763349836E+04  0.72541735567E+03  0.15336626899E+04  0.20644891814E+04  0.50400001928E-02 0. -1.
       -1    1    3    3    0  502  0.11763349836E+04 -0.72541735567E+03 -0.10308167863E+04  0.17241164637E+04  0.50400001928E-02 0.  1.
</event>
<event>
 5   0  0.7551495E-07  0.3821064E+04  0.7818609E-02  0.8041650E-01
        2   -1    0    0  501    0  0.00000000000E+00  0.00000000000E+00  0.28541488561E+04  0.28541488561E+04  0.25500000920E-02 0.  1.
       -2   -1    0    0    0  501  0.00000000000E+00  0.00000000000E+00 -0.12788863625E+04  0.12788863625E+04  0.25500000920E-02 0. -1.
    10030    2    1    2    0    0  0.00000000000E+00  0.00000000000E+00  0.15752624935E+04  0.41330352186E+04  0.38210637517E+04 0.  0.
        1    1    3    3  502    0 -0.52572154678E+03  0.25062598599E+03 -0.11805277683E+04  0.13163746964E+04  0.50400001928E-02 0. -1.
       -1    1    3    3    0  502  0.52572154678E+03 -0.25062598599E+03  0.27557902619E+04  0.28166605221E+04  0.50400001928E-02 0.  1.
</event>
<event>
 5   0  0.2529875E-07  0.3692410E+04  0.7818609E-02  0.8069646E-01
        1   -1    0    0  501    0  0.00000000000E+00  0.00000000000E+00  0.11882060813E+04  0.11882060813E+04  0.50400001928E-02 0.  1.
       -1   -1    0    0    0  501  0.00000000000E+00  0.00000000000E+00 -0.28685869665E+04  0.28685869665E+04  0.50400001928E-02 0. -1.
    10030    2    1    2    0    0  0.00000000000E+00  0.00000000000E+00 -0.16803808852E+04  0.40567930478E+04  0.36924097705E+04 0.  0.
        4    1    3    3  502    0 -0.10266649344E+04  0.13612014280E+04 -0.62091741808E+02  0.17060970701E+04  0.12699999809E+01 0.  1.
       -4    1    3    3    0  502  0.10266649344E+04 -0.13612014280E+04 -0.16182891434E+04  0.23506959777E+04  0.12699999809E+01 0. -1.
</event>
<event>
 5   0  0.8421677E-07  0.3827946E+04  0.7818609E-02  0.8040184E-01
        2   -1    0    0  501    0  0.00000000000E+00  0.00000000000E+00  0.31010988996E+04  0.31010988996E+04  0.25500000920E-02 0.  1.
       -2   -1    0    0    0  501  0.00000000000E+00  0.00000000000E+00 -0.11812888226E+04  0.11812888226E+04  0.25500000920E-02 0. -1.
    10030    2    1    2    0    0  0.00000000000E+00  0.00000000000E+00  0.19198100770E+04  0.42823877222E+04  0.38279464301E+04 0.  0.
        3    1    3    3  502    0 -0.81553784746E+03 -0.88971359229E+03  0.26217176820E+04  0.28861905466E+04  0.10100000352E+00 0.  1.
       -3    1    3    3    0  502  0.81553784746E+03  0.88971359229E+03 -0.70190760500E+03  0.13961971756E+04  0.10100000352E+00 0. -1.
</event>
<event>
 5   0  0.2529875E-07  0.3778605E+04  0.7818609E-02  0.8050762E-01
        1   -1    0    0  501    0  0.00000000000E+00  0.00000000000E+00  0.24922782291E+04  0.24922782291E+04  0.50400001928E-02 0. -1.
       -1   -1    0    0    0  501  0.00000000000E+00  0.00000000000E+00 -0.14322089419E+04  0.14322089419E+04  0.50400001928E-02 0.  1.
    10030    2    1    2    0    0  0.00000000000E+00  0.00000000000E+00  0.10600692872E+04  0.39244871711E+04  0.37786045919E+04 0.  0.
        3    1    3    3  502    0 -0.11183143930E+04  0.13949362960E+04 -0.10427215102E+03  0.17909067656E+04  0.10100000352E+00 0.  1.
       -3    1    3    3    0  502  0.11183143930E+04 -0.13949362960E+04  0.11643414382E+04  0.21335804054E+04  0.10100000352E+00 0. -1.
</event>
<event>
 5   0  0.7551495E-07  0.3701002E+04  0.7818609E-02  0.8067740E-01
        2   -1    0    0  501    0  0.00000000000E+00  0.00000000000E+00  0.20747610983E+04  0.20747610983E+04  0.25500000920E-02 0. -1.
       -2   -1    0    0    0  501  0.00000000000E+00  0.00000000000E+00 -0.16504808209E+04  0.16504808209E+04  0.25500000920E-02 0.  1.
    10030    2    1    2    0    0  0.00000000000E+00  0.00000000000E+00  0.42428027740E+03  0.37252419193E+04  0.37010017027E+04 0.  0.
        1    1    3    3  502    0 -0.36367241572E+03 -0.16516166515E+03  0.20308551214E+04  0.20697604996E+04  0.50400001928E-02 0. -1.
       -1    1    3    3    0  502  0.36367241572E+03  0.16516166515E+03 -0.16065748440E+04  0.16554814197E+04  0.50400001928E-02 0.  1.
</event>
<event>
 5   0  0.2529875E-07  0.3787683E+04  0.7818609E-02  0.8048803E-01
        1   -1    0    0  501    0  0.00000000000E+00  0.00000000000E+00  0.29115884561E+04  0.29115884561E+04  0.50400001928E-02 0.  1.
       -1   -1    0    0    0  501  0.00000000000E+00  0.00000000000E+00 -0.12318481332E+04  0.12318481332E+04  0.50400001928E-02 0. -1.
    10030    2    1    2    0    0  0.00000000000E+00  0.00000000000E+00  0.16797403229E+04  0.41434365893E+04  0.37876825655E+04 0.  0.
        4    1    3    3  502    0  0.57746658109E+03  0.45102591415E+03 -0.10705047798E+04  0.12972563833E+04  0.12699999809E+01 0. -1.
       -4    1    3    3    0  502 -0.57746658109E+03 -0.45102591415E+03  0.27502451027E+04  0.28461802060E+04  0.12699999809E+01 0.  1.
</event>
<event>
 5   0  0.8421677E-07  0.3824215E+04  0.7818609E-02  0.8040978E-01
        2   -1    0    0  501    0  0.00000000000E+00  0.00000000000E+00  0.21892681728E+04  0.21892681728E+04  0.25500000920E-02 0.  1.
       -2   -1    0    0    0  501  0.00000000000E+00  0.00000000000E+00 -0.16700356216E+04  0.16700356216E+04  0.25500000920E-02 0. -1.
    10030    2    1    2    0    0  0.00000000000E+00  0.00000000000E+00  0.51923255125E+03  0.38593037944E+04  0.38242153882E+04 0.  0.
        3    1    3    3  502    0  0.76617070156E+03 -0.63290453116E+03 -0.13889481818E+04  0.17078532582E+04  0.10100000352E+00 0. -1.
       -3    1    3    3    0  502 -0.76617070156E+03  0.63290453116E+03  0.19081807331E+04  0.21514505362E+04  0.10100000352E+00 0.  1.
</event>
<event>
 5   0  0.2529875E-07  0.3804507E+04  0.7818609E-02  0.8045188E-01
       -1   -1    0    0    0  501  0.00000000000E+00  0.00000000000E+00  0.13704553465E+04  0.13704553465E+04  0.50400001928E-02 0. -1.
        1   -1    0    0  501    0  0.00000000000E+00  0.00000000000E+00 -0.26404132703E+04  0.26404132703E+04  0.50400001928E-02 0.  1.
    10030    2    1    2    0    0  0.00000000000E+00  0.00000000000E+00 -0.12699579238E+04  0.40108686168E+04  0.38045070552E+04 0.  0.
        4    1    3    3  502    0 -0.16345706808E+04  0.85722963252E+03 -0.14968095276E+03  0.18517748119E+04  0.12699999809E+01 0. -1.
       -4    1    3    3    0  502  0.16345706808E+04 -0.85722963252E+03 -0.11202769710E+04  0.21590938049E+04  0.12699999809E+01 0.  1.
</event>
<event>
 5   0  0.2529875E-07  0.3954931E+04  0.7818609E-02  0.8013701E-01
        3   -1    0    0  501    0  0.00000000000E+00  0.00000000000E+00  0.25680151328E+04  0.25680151348E+04  0.10100000352E+00 0. -1.
       -3   -1    0    0    0  501  0.00000000000E+00  0.00000000000E+00 -0.15227208341E+04  0.15227208375E+04  0.10100000352E+00 0.  1.
    10030    2    1    2    0    0  0.00000000000E+00  0.00000000000E+00  0.10452942987E+04  0.40907359723E+04  0.39549311782E+04 0.  0.
        5    1    3    3  502    0  0.58233849121E+03  0.11263044948E+04  0.20922081337E+04  0.24464335058E+04  0.46999998093E+01 0. -1.
       -5    1    3    3    0  502 -0.58233849121E+03 -0.11263044948E+04 -0.10469138350E+04  0.16443024665E+04  0.46999998093E+01 0.  1.
</event>
<event>
 5   0  0.2529875E-07  0.3781187E+04  0.7818609E-02  0.8050204E-01
        1   -1    0    0  501    0  0.00000000000E+00  0.00000000000E+00  0.20493562730E+04  0.20493562730E+04  0.50400001928E-02 0.  1.
       -1   -1    0    0    0  501  0.00000000000E+00  0.00000000000E+00 -0.17441299784E+04  0.17441299784E+04  0.50400001928E-02 0. -1.
    10030    2    1    2    0    0  0.00000000000E+00  0.00000000000E+00  0.30522629454E+03  0.37934862514E+04  0.37811869629E+04 0.  0.
        4    1    3    3  502    0  0.80920517414E+03  0.16739211408E+04 -0.19130959514E+03  0.18690708851E+04  0.12699999809E+01 0. -1.
       -4    1    3    3    0  502 -0.80920517414E+03 -0.16739211408E+04  0.49653588967E+03  0.19244153663E+04  0.12699999809E+01 0.  1.
</event>
<event>
 5   0  0.2529875E-07  0.2871371E+04  0.7818609E-02  0.8281447E-01
       -1   -1    0    0    0  501  0.00000000000E+00  0.00000000000E+00  0.25111617654E+04  0.25111617654E+04  0.50400001928E-02 0. -1.
        1   -1    0    0  501    0  0.00000000000E+00  0.00000000000E+00 -0.82081273382E+03  0.82081273383E+03  0.50400001928E-02 0.  1.
    10030    2    1    2    0    0  0.00000000000E+00  0.00000000000E+00  0.16903490315E+04  0.33319744992E+04  0.28713714867E+04 0.  0.
        5    1    3    3  502    0 -0.39996620501E+03  0.91166375556E+03 -0.35520316588E+03  0.10570218292E+04  0.46999998093E+01 0.  1.
       -5    1    3    3    0  502  0.39996620501E+03 -0.91166375556E+03  0.20455521974E+04  0.22749526700E+04  0.46999998093E+01 0. -1.
</event>
<event>
 5   0  0.8038352E-07  0.3790195E+04  0.7818609E-02  0.8048262E-01
       -2   -1    0    0    0  501  0.00000000000E+00  0.00000000000E+00  0.21494187367E+04  0.21494187367E+04  0.25500000920E-02 0. -1.
        2   -1    0    0  501    0  0.00000000000E+00  0.00000000000E+00 -0.16708681309E+04  0.16708681309E+04  0.25500000920E-02 0.  1.
    10030    2    1    2    0    0  0.00000000000E+00  0.00000000000E+00  0.47855060579E+03  0.38202868676E+04  0.37901953866E+04 0.  0.
        2    1    3    3  502    0 -0.54198474472E+03  0.81875684263E+03 -0.13944836220E+04  0.17054896080E+04  0.25500000920E-02 0.  1.
       -2    1    3    3    0  502  0.54198474472E+03 -0.81875684263E+03  0.18730342278E+04  0.21147972596E+04  0.25500000920E-02 0. -1.
</event>
<event>
 5   0  0.7649458E-07  0.3809909E+04  0.7818609E-02  0.8044032E-01
        2   -1    0    0  501    0  0.00000000000E+00  0.00000000000E+00  0.11973879020E+04  0.11973879020E+04  0.25500000920E-02 0. -1.
       -2   -1    0    0    0  501  0.00000000000E+00  0.00000000000E+00 -0.30306407623E+04  0.30306407623E+04  0.25500000920E-02 0.  1.
    10030    2    1    2    0    0  0.00000000000E+00  0.00000000000E+00 -0.18332528603E+04  0.42280286644E+04  0.38099094920E+04 0.  0.
        4    1    3    3  502    0  0.10892498646E+03  0.16969891019E+04 -0.18694667837E+04  0.25271613192E+04  0.12699999809E+01 0.  1.
       -4    1    3    3    0  502 -0.10892498646E+03 -0.16969891019E+04  0.36213923442E+02  0.17008673452E+04  0.12699999809E+01 0. -1.
</event>
<event>
 5   0  0.7638805E-07  0.2651152E+04  0.7818609E-02  0.8351031E-01
        2   -1    0    0  501    0  0.00000000000E+00  0.00000000000E+00  0.21831007440E+04  0.21831007440E+04  0.25500000920E-02 0. -1.
       -2   -1    0    0    0  501  0.00000000000E+00  0.00000000000E+00 -0.80488795960E+03  0.80488795960E+03  0.25500000920E-02 0.  1.
    10030    2    1    2    0    0  0.00000000000E+00  0.00000000000E+00  0.13782127844E+04  0.29879887036E+04  0.26511518277E+04 0.  0.
        5    1    3    3  502    0 -0.29286768288E+03  0.18879708982E+03  0.21305510824E+04  0.21588621599E+04  0.46999998093E+01 0. -1.
       -5    1    3    3    0  502  0.29286768288E+03 -0.18879708982E+03 -0.75233829800E+03  0.82912654368E+03  0.46999998093E+01 0.  1.
</event>
<event>
 5   0  0.7638805E-07  0.2568032E+04  0.7818609E-02  0.8379142E-01
        2   -1    0    0  501    0  0.00000000000E+00  0.00000000000E+00  0.19654767978E+04  0.19654767978E+04  0.25500000920E-02 0.  1.
       -2   -1    0    0    0  501  0.00000000000E+00  0.00000000000E+00 -0.83882807082E+03  0.83882807083E+03  0.25500000920E-02 0. -1.
    10030    2    1    2    0    0  0.00000000000E+00  0.00000000000E+00  0.11266487270E+04  0.28043048687E+04  0.25680320174E+04 0.  0.
        5    1    3    3  502    0 -0.24180886450E+03  0.53703646025E+03  0.18092615475E+04  0.19027162489E+04  0.46999998093E+01 0.  1.
       -5    1    3    3    0  502  0.24180886450E+03 -0.53703646025E+03 -0.68261282048E+03  0.90158861976E+03  0.46999998093E+01 0. -1.
</event>
<event>
 5   0  0.2529875E-07  0.3961310E+04  0.7818609E-02  0.8012397E-01
        1   -1    0    0  501    0  0.00000000000E+00  0.00000000000E+00  0.20671619842E+04  0.20671619842E+04  0.50400001928E-02 0. -1.
       -1   -1    0    0    0  501  0.00000000000E+00  0.00000000000E+00 -0.18977684917E+04  0.18977684917E+04  0.50400001928E-02 0.  1.
    10030    2    1    2    0    0  0.00000000000E+00  0.00000000000E+00  0.16939349258E+03  0.39649304759E+04  0.39613103291E+04 0.  0.
        4    1    3    3  502    0  0.52681661006E+02  0.19288327070E+04  0.53212013783E+03  0.20015804813E+04  0.12699999809E+01 0.  1.
       -4    1    3    3    0  502 -0.52681661006E+02 -0.19288327070E+04 -0.36272664525E+03  0.19633499946E+04  0.12699999809E+01 0. -1.
</event>
<event>
 5   0  0.2529875E-07  0.3812425E+04  0.7818609E-02  0.8043494E-01
       -1   -1    0    0    0  501  0.00000000000E+00  0.00000000000E+00  0.32527637853E+04  0.32527637853E+04  0.50400001928E-02 0. -1.
        1   -1    0    0  501    0  0.00000000000E+00  0.00000000000E+00 -0.11170947022E+04  0.11170947022E+04  0.50400001928E-02 0.  1.
    10030    2    1    2    0    0  0.00000000000E+00  0.00000000000E+00  0.21356690831E+04  0.43698584876E+04  0.38124245263E+04 0.  0.
        1    1    3    3  502    0 -0.56518663492E+03  0.12815908203E+04 -0.41417068661E+03  0.14606328493E+04  0.50400001928E-02 0.  1.
       -1    1    3    3    0  502  0.56518663492E+03 -0.12815908203E+04  0.25498397697E+04  0.29092256382E+04  0.50400001928E-02 0. -1.
</event>
<event>
 5   0  0.8421677E-07  0.3361075E+04  0.7818609E-02  0.8147526E-01
        2   -1    0    0  501    0  0.00000000000E+00  0.00000000000E+00  0.29116690686E+04  0.29116690686E+04  0.25500000920E-02 0.  1.
       -2   -1    0    0    0  501  0.00000000000E+00  0.00000000000E+00 -0.96996128262E+03  0.96996128262E+03  0.25500000920E-02 0. -1.
    10030    2    1    2    0    0  0.00000000000E+00  0.00000000000E+00  0.19417077860E+04  0.38816303512E+04  0.33610749854E+04 0.  0.
        3    1    3    3  502    0  0.14980132794E+04 -0.73379528453E+03  0.73500155479E+03  0.18228347705E+04  0.10100000352E+00 0.  1.
       -3    1    3    3    0  502 -0.14980132794E+04  0.73379528453E+03  0.12067062312E+04  0.20587955808E+04  0.10100000352E+00 0. -1.
</event>
<event>
 5   0  0.7551495E-07  0.3776139E+04  0.7818609E-02  0.8051295E-01
       -2   -1    0    0    0  501  0.00000000000E+00  0.00000000000E+00  0.11757119856E+04  0.11757119856E+04  0.25500000920E-02 0.  1.
        2   -1    0    0  501    0  0.00000000000E+00  0.00000000000E+00 -0.30320407613E+04  0.30320407613E+04  0.25500000920E-02 0. -1.
    10030    2    1    2    0    0  0.00000000000E+00  0.00000000000E+00 -0.18563287757E+04  0.42077527469E+04  0.37761391203E+04 0.  0.
        1    1    3    3  502    0  0.13824886047E+04  0.12857805412E+04 -0.94747497417E+03  0.21123955996E+04  0.50400001928E-02 0.  1.
       -1    1    3    3    0  502 -0.13824886047E+04 -0.12857805412E+04 -0.90885380149E+03  0.20953571473E+04  0.50400001928E-02 0. -1.
</event>
<event>
 5   0  0.7638805E-07  0.3732466E+04  0.7818609E-02  0.8060805E-01
       -2   -1    0    0    0  501  0.00000000000E+00  0.00000000000E+00  0.23125121465E+04  0.23125121465E+04  0.25500000920E-02 0. -1.
        2   -1    0    0  501    0  0.00000000000E+00  0.00000000000E+00 -0.15060786259E+04  0.15060786259E+04  0.25500000920E-02 0.  1.
    10030    2    1    2    0    0  0.00000000000E+00  0.00000000000E+00  0.80643352052E+03  0.38185907724E+04  0.37324657351E+04 0.  0.
        5    1    3    3  502    0  0.70688306662E+03 -0.14647621487E+04 -0.53310117657E+03  0.17115579969E+04  0.46999998093E+01 0. -1.
       -5    1    3    3    0  502 -0.70688306662E+03  0.14647621487E+04  0.13395346971E+04  0.21070327755E+04  0.46999998093E+01 0.  1.
</event>
<event>
 5   0  0.2529875E-07  0.3803355E+04  0.7818609E-02  0.8045435E-01
        1   -1    0    0  501    0  0.00000000000E+00  0.00000000000E+00  0.19279825830E+04  0.19279825830E+04  0.50400001928E-02 0.  1.
       -1   -1    0    0    0  501  0.00000000000E+00  0.00000000000E+00 -0.18757312582E+04  0.18757312582E+04  0.50400001928E-02 0. -1.
    10030    2    1    2    0    0  0.00000000000E+00  0.00000000000E+00  0.52251324735E+02  0.38037138412E+04  0.38033549381E+04 0.  0.
        3    1    3    3  502    0  0.10102324087E+04 -0.16111160394E+04  0.15505144650E+02  0.19017110274E+04  0.10100000352E+00 0. -1.
       -3    1    3    3    0  502 -0.10102324087E+04  0.16111160394E+04  0.36746180085E+02  0.19020028138E+04  0.10100000352E+00 0.  1.
</event>
<event>
 5   0  0.8038352E-07  0.3797100E+04  0.7818609E-02  0.8046777E-01
       -2   -1    0    0    0  501  0.00000000000E+00  0.00000000000E+00  0.18709863703E+04  0.18709863703E+04  0.25500000920E-02 0.  1.
        2   -1    0    0  501    0  0.00000000000E+00  0.00000000000E+00 -0.19265201654E+04  0.19265201654E+04  0.25500000920E-02 0. -1.
    10030    2    1    2    0    0  0.00000000000E+00  0.00000000000E+00 -0.55533795070E+02  0.37975065358E+04  0.37971004578E+04 0.  0.
        2    1    3    3  502    0  0.92567510277E+03  0.12354901737E+02  0.16299585365E+04  0.18745111017E+04  0.25500000920E-02 0.  1.
       -2    1    3    3    0  502 -0.92567510277E+03 -0.12354901737E+02 -0.16854923316E+04  0.19229954341E+04  0.25500000920E-02 0. -1.
</event>
<event>
 5   0  0.2529875E-07  0.3492865E+04  0.7818609E-02  0.8115483E-01
       -1   -1    0    0    0  501  0.00000000000E+00  0.00000000000E+00  0.18418780506E+04  0.18418780506E+04  0.50400001928E-02 0. -1.
        1   -1    0    0  501    0  0.00000000000E+00  0.00000000000E+00 -0.16559330499E+04  0.16559330499E+04  0.50400001928E-02 0.  1.
    10030    2    1    2    0    0  0.00000000000E+00  0.00000000000E+00  0.18594500079E+03  0.34978111005E+04  0.34928651493E+04 0.  0.
        1    1    3    3  502    0  0.10540504248E+04 -0.61515922153E+02 -0.13001192823E+04  0.16748482484E+04  0.50400001928E-02 0.  1.
       -1    1    3    3    0  502 -0.10540504248E+04  0.61515922153E+02  0.14860642831E+04  0.18229628521E+04  0.50400001928E-02 0. -1.
</event>
<event>
 5   0  0.8421677E-07  0.3800579E+04  0.7818609E-02  0.8046031E-01
       -2   -1    0    0    0  501  0.00000000000E+00  0.00000000000E+00  0.15231415635E+04  0.15231415635E+04  0.25500000920E-02 0.  1.
        2   -1    0    0  501    0  0.00000000000E+00  0.00000000000E+00 -0.23708237286E+04  0.23708237286E+04  0.25500000920E-02 0. -1.
    10030    2    1    2    0    0  0.00000000000E+00  0.00000000000E+00 -0.84768216516E+03  0.38939652921E+04  0.38005789879E+04 0.  0.
        3    1    3    3  502    0  0.11981235016E+04 -0.31692987258E+02 -0.19347266885E+04  0.22758892196E+04  0.10100000352E+00 0. -1.
       -3    1    3    3    0  502 -0.11981235016E+04  0.31692987258E+02  0.10870445233E+04  0.16180760725E+04  0.10100000352E+00 0.  1.
</event>
<event>
 5   0  0.8038352E-07  0.3698724E+04  0.7818609E-02  0.8068245E-01
       -2   -1    0    0    0  501  0.00000000000E+00  0.00000000000E+00  0.16261368656E+04  0.16261368656E+04  0.25500000920E-02 0. -1.
        2   -1    0    0  501    0  0.00000000000E+00  0.00000000000E+00 -0.21032304597E+04  0.21032304597E+04  0.25500000920E-02 0.  1.
    10030    2    1    2    0    0  0.00000000000E+00  0.00000000000E+00 -0.47709359405E+03  0.37293673253E+04  0.36987244220E+04 0.  0.
        2    1    3    3  502    0  0.47495777503E+03  0.69648312293E+03  0.14211360908E+04  0.16523623747E+04  0.25500000920E-02 0. -1.
       -2    1    3    3    0  502 -0.47495777503E+03 -0.69648312293E+03 -0.18982296849E+04  0.20770049507E+04  0.25500000920E-02 0.  1.
</event>
<event>
 5   0  0.2529875E-07  0.3845588E+04  0.7818609E-02  0.8036442E-01
       -1   -1    0    0    0  501  0.00000000000E+00  0.00000000000E+00  0.22692818978E+04  0.22692818978E+04  0.50400001928E-02 0. -1.
        1   -1    0    0  501    0  0.00000000000E+00  0.00000000000E+00 -0.16292096978E+04  0.16292096978E+04  0.50400001928E-02 0.  1.
    10030    2    1    2    0    0  0.00000000000E+00  0.00000000000E+00  0.64007220000E+03  0.38984915957E+04  0.38455876404E+04 0.  0.
        1    1    3    3  502    0 -0.13428042264E+04  0.94465657690E+03  0.13346224915E+04  0.21158252370E+04  0.50400001928E-02 0. -1.
       -1    1    3    3    0  502  0.13428042264E+04 -0.94465657690E+03 -0.69455029154E+03  0.17826663586E+04  0.50400001928E-02 0.  1.
</event>
<event>
 5   0  0.7638805E-07  0.3263990E+04  0.7818609E-02  0.8172119E-01
       -2   -1    0    0    0  501  0.00000000000E+00  0.00000000000E+00  0.18774218996E+04  0.18774218996E+04  0.25500000920E-02 0. -1.
        2   -1    0    0  501    0  0.00000000000E+00  0.00000000000E+00 -0.14186520735E+04  0.14186520736E+04  0.25500000920E-02 0.  1.
    10030    2    1    2    0    0  0.00000000000E+00  0.00000000000E+00  0.45876982604E+03  0.32960739731E+04  0.32639904845E+04 0.  0.
        5    1    3    3  502    0 -0.10095836110E+04  0.62829263241E+03  0.13581266656E+04  0.18051428834E+04  0.46999998093E+01 0. -1.
       -5    1    3    3    0  502  0.10095836110E+04 -0.62829263241E+03 -0.89935683955E+03  0.14909310898E+04  0.46999998093E+01 0.  1.
</event>
<event>
 5   0  0.8038352E-07  0.3811406E+04  0.7818609E-02  0.8043712E-01
        2   -1    0    0  501    0  0.00000000000E+00  0.00000000000E+00  0.21648398862E+04  0.21648398862E+04  0.25500000920E-02 0. -1.
       -2   -1    0    0    0  501  0.00000000000E+00  0.00000000000E+00 -0.16775851925E+04  0.16775851925E+04  0.25500000920E-02 0.  1.
    10030    2    1    2    0    0  0.00000000000E+00  0.00000000000E+00  0.48725469361E+03  0.38424250787E+04  0.38114056920E+04 0.  0.
        2    1    3    3  502    0 -0.78988714289E+03  0.10229370036E+04  0.16555186727E+04  0.21002532913E+04  0.25500000920E-02 0. -1.
       -2    1    3    3    0  502  0.78988714289E+03 -0.10229370036E+04 -0.11682639791E+04  0.17421717874E+04  0.25500000920E-02 0.  1.
</event>
<event>
 5   0  0.7638805E-07  0.3777368E+04  0.7818609E-02  0.8051029E-01
       -2   -1    0    0    0  501  0.00000000000E+00  0.00000000000E+00  0.11846070710E+04  0.11846070710E+04  0.25500000920E-02 0. -1.
        2   -1    0    0  501    0  0.00000000000E+00  0.00000000000E+00 -0.30112327106E+04  0.30112327106E+04  0.25500000920E-02 0.  1.
    10030    2    1    2    0    0  0.00000000000E+00  0.00000000000E+00 -0.18266256396E+04  0.41958397815E+04  0.37773681638E+04 0.  0.
        5    1    3    3  502    0 -0.11963723622E+04  0.65646624048E+03 -0.23636626182E+04  0.27293181962E+04  0.46999998093E+01 0.  1.
       -5    1    3    3    0  502  0.11963723622E+04 -0.65646624048E+03  0.53703697854E+03  0.14665215853E+04  0.46999998093E+01 0. -1.
</event>
<event>
 5   0  0.2529875E-07  0.3771527E+04  0.7818609E-02  0.8052293E-01
       -1   -1    0    0    0  501  0.00000000000E+00  0.00000000000E+00  0.13863105648E+04  0.13863105648E+04  0.50400001928E-02 0. -1.
        1   -1    0    0  501    0  0.00000000000E+00  0.00000000000E+00 -0.25651569307E+04  0.25651569307E+04  0.50400001928E-02 0.  1.
    10030    2    1    2    0    0  0.00000000000E+00  0.00000000000E+00 -0.11788463659E+04  0.39514674955E+04  0.37715270930E+04 0.  0.
        1    1    3    3  502    0 -0.97515311523E+03  0.48294267442E+03  0.10241685708E+04  0.14943488503E+04  0.50400001928E-02 0. -1.
       -1    1    3    3    0  502  0.97515311523E+03 -0.48294267442E+03 -0.22030149367E+04  0.24571186452E+04  0.50400001928E-02 0.  1.
</event>
<event>
 5   0  0.7649458E-07  0.3834363E+04  0.7818609E-02  0.8038821E-01
       -2   -1    0    0    0  501  0.00000000000E+00  0.00000000000E+00  0.18346648800E+04  0.18346648800E+04  0.25500000920E-02 0.  1.
        2   -1    0    0  501    0  0.00000000000E+00  0.00000000000E+00 -0.20034090864E+04  0.20034090864E+04  0.25500000920E-02 0. -1.
    10030    2    1    2    0    0  0.00000000000E+00  0.00000000000E+00 -0.16874420640E+03  0.38380739664E+04  0.38343626803E+04 0.  0.
        4    1    3    3  502    0 -0.19703291261E+03 -0.17733607543E+03 -0.19849760019E+04  0.20025986601E+04  0.12699999809E+01 0. -1.
       -4    1    3    3    0  502  0.19703291261E+03  0.17733607543E+03  0.18162317955E+04  0.18354753063E+04  0.12699999809E+01 0.  1.
</event>
<event>
 5   0  0.8421677E-07  0.3779781E+04  0.7818609E-02  0.8050508E-01
       -2   -1    0    0    0  501  0.00000000000E+00  0.00000000000E+00  0.14509316725E+04  0.14509316725E+04  0.25500000920E-02 0. -1.
        2   -1    0    0  501    0  0.00000000000E+00  0.00000000000E+00 -0.24616496418E+04  0.24616496418E+04  0.25500000920E-02 0.  1.
    10030    2    1    2    0    0  0.00000000000E+00  0.00000000000E+00 -0.10107179693E+04  0.39125813143E+04  0.37797806454E+04 0.  0.
        3    1    3    3  502    0 -0.62446626530E+03  0.81620001020E+03  0.11364128917E+04  0.15321797688E+04  0.10100000352E+00 0. -1.
       -3    1    3    3    0  502  0.62446626530E+03 -0.81620001020E+03 -0.21471308610E+04  0.23804015455E+04  0.10100000352E+00 0.  1.
</event>
<event>
 5   0  0.7638805E-07  0.3696689E+04  0.7818609E-02  0.8068696E-01
        2   -1    0    0  501    0  0.00000000000E+00  0.00000000000E+00  0.21246769410E+04  0.21246769410E+04  0.25500000920E-02 0. -1.
       -2   -1    0    0    0  501  0.00000000000E+00  0.00000000000E+00 -0.16079518452E+04  0.16079518452E+04  0.25500000920E-02 0.  1.
    10030    2    1    2    0    0  0.00000000000E+00  0.00000000000E+00  0.51672509573E+03  0.37326287862E+04  0.36966894420E+04 0.  0.
        5    1    3    3  502    0 -0.98119535720E+03  0.70620090860E+03 -0.11534051016E+04  0.16708768568E+04  0.46999998093E+01 0.  1.
       -5    1    3    3    0  502  0.98119535720E+03 -0.70620090860E+03  0.16701301973E+04  0.20617519294E+04  0.46999998093E+01 0. -1.
</event>
<event>
 5   0  0.8421677E-07  0.3839522E+04  0.7818609E-02  0.8037726E-01
       -2   -1    0    0    0  501  0.00000000000E+00  0.00000000000E+00  0.16066522093E+04  0.16066522093E+04  0.25500000920E-02 0.  1.
        2   -1    0    0  501    0  0.00000000000E+00  0.00000000000E+00 -0.22938894219E+04  0.22938894219E+04  0.25500000920E-02 0. -1.
    10030    2    1    2    0    0  0.00000000000E+00  0.00000000000E+00 -0.68723721257E+03  0.39005416311E+04  0.38395221096E+04 0.  0.
        3    1    3    3  502    0 -0.31693264479E+02 -0.90978025728E+03  0.13734434247E+04  0.16477413118E+04  0.10100000352E+00 0.  1.
       -3    1    3    3    0  502  0.31693264479E+02  0.90978025728E+03 -0.20606806373E+04  0.22528003193E+04  0.10100000352E+00 0. -1.
</event>
<event>
 5   0  0.2529875E-07  0.3352787E+04  0.7818609E-02  0.8149592E-01
       -1   -1    0    0    0  501  0.00000000000E+00  0.00000000000E+00  0.13481866341E+04  0.13481866341E+04  0.50400001928E-02 0.  1.
        1   -1    0    0  501    0  0.00000000000E+00  0.00000000000E+00 -0.20844999318E+04  0.20844999318E+04  0.50400001928E-02 0. -1.
    10030    2    1    2    0    0  0.00000000000E+00  0.00000000000E+00 -0.73631329768E+03  0.34326865659E+04  0.33527868688E+04 0.  0.
        3    1    3    3  502    0  0.78050729459E+03  0.60651165439E+03  0.10180841758E+04  0.14189938066E+04  0.10100000352E+00 0.  1.
       -3    1    3    3    0  502 -0.78050729459E+03 -0.60651165439E+03 -0.17543974735E+04  0.20136927594E+04  0.10100000352E+00 0. -1.
</event>
<event>
 5   0  0.2529875E-07  0.3171333E+04  0.7818609E-02  0.8196429E-01
       -1   -1    0    0    0  501  0.00000000000E+00  0.00000000000E+00  0.18441602056E+04  0.18441602056E+04  0.50400001928E-02 0. -1.
        1   -1    0    0  501    0  0.00000000000E+00  0.00000000000E+00 -0.13634055117E+04  0.13634055117E+04  0.50400001928E-02 0.  1.
    10030    2    1    2    0    0  0.00000000000E+00  0.00000000000E+00  0.48075469393E+03  0.32075657173E+04  0.31713329619E+04 0.  0.
        3    1    3    3  502    0 -0.28753008224E+02  0.11635495774E+04  0.13295576435E+04  0.17670308125E+04  0.10100000352E+00 0. -1.
       -3    1    3    3    0  502  0.28753008224E+02 -0.11635495774E+04 -0.84880294957E+03  0.14405349048E+04  0.10100000352E+00 0.  1.
</event>
<event>
 5   0  0.7649458E-07  0.3873760E+04  0.7818609E-02  0.8030509E-01
        2   -1    0    0  501    0  0.00000000000E+00  0.00000000000E+00  0.27650168109E+04  0.27650168109E+04  0.25500000920E-02 0.  1.
       -2   -1    0    0    0  501  0.00000000000E+00  0.00000000000E+00 -0.13567746792E+04  0.13567746792E+04  0.25500000920E-02 0. -1.
    10030    2    1    2    0    0  0.00000000000E+00  0.00000000000E+00  0.14082421317E+04  0.41217914902E+04  0.38737603420E+04 0.  0.
        4    1    3    3  502    0 -0.66841589689E+03  0.74832629058E+03 -0.10586794705E+04  0.14586212266E+04  0.12699999809E+01 0. -1.
       -4    1    3    3    0  502  0.66841589689E+03 -0.74832629058E+03  0.24669216022E+04  0.26631702636E+04  0.12699999809E+01 0.  1.
</event>
<event>
 5   0  0.2529875E-07  0.3398836E+04  0.7818609E-02  0.8138192E-01
       -1   -1    0    0    0  501  0.00000000000E+00  0.00000000000E+00  0.15309711902E+04  0.15309711902E+04  0.50400001928E-02 0. -1.
        1   -1    0    0  501    0  0.00000000000E+00  0.00000000000E+00 -0.18863980501E+04  0.18863980501E+04  0.50400001928E-02 0.  1.
    10030    2    1    2    0    0  0.00000000000E+00  0.00000000000E+00 -0.35542685985E+03  0.34173692403E+04  0.33988357230E+04 0.  0.
        5    1    3    3  502    0  0.33410043194E+03 -0.12396579027E+04 -0.12971687083E+04  0.18251146710E+04  0.46999998093E+01 0.  1.
       -5    1    3    3    0  502 -0.33410043194E+03  0.12396579027E+04  0.94174184847E+03  0.15922545693E+04  0.46999998093E+01 0. -1.
</event>
<event>
 5   0  0.2529875E-07  0.3884217E+04  0.7818609E-02  0.8028320E-01
       -1   -1    0    0    0  501  0.00000000000E+00  0.00000000000E+00  0.14895189624E+04  0.14895189624E+04  0.50400001928E-02 0. -1.
        1   -1    0    0  501    0  0.00000000000E+00  0.00000000000E+00 -0.25322168625E+04  0.25322168625E+04  0.50400001928E-02 0.  1.
    10030    2    1    2    0    0  0.00000000000E+00  0.00000000000E+00 -0.10426979001E+04  0.40217358249E+04  0.38842167981E+04 0.  0.
        5    1    3    3  502    0  0.20027683403E+03 -0.14232163717E+04  0.83107622781E+03  0.16602305374E+04  0.46999998093E+01 0. -1.
       -5    1    3    3    0  502 -0.20027683403E+03  0.14232163717E+04 -0.18737741279E+04  0.23615052876E+04  0.46999998093E+01 0.  1.
</event>
<event>
 5   0  0.2529875E-07  0.2833197E+04  0.7818609E-02  0.8293036E-01
        1   -1    0    0  501    0  0.00000000000E+00  0.00000000000E+00  0.13583594432E+04  0.13583594432E+04  0.50400001928E-02 0.  1.
       -1   -1    0    0    0  501  0.00000000000E+00  0.00000000000E+00 -0.14773341187E+04  0.14773341187E+04  0.50400001928E-02 0. -1.
    10030    2    1    2    0    0  0.00000000000E+00  0.00000000000E+00 -0.11897467556E+03  0.28356935619E+04  0.28331966052E+04 0.  0.
        3    1    3    3  502    0  0.35581170130E+03 -0.11094494536E+04  0.74699615264E+03  0.13840098696E+04  0.10100000352E+00 0.  1.
       -3    1    3    3    0  502 -0.35581170130E+03  0.11094494536E+04 -0.86597082820E+03  0.14516836923E+04  0.10100000352E+00 0. -1.
</event>
<event>
 5   0  0.8205424E-07  0.2349924E+04  0.7818609E-02  0.8458493E-01
        2   -1    0    0  501    0  0.00000000000E+00  0.00000000000E+00  0.12848495238E+04  0.12848495238E+04  0.25500000920E-02 0.  1.
       -2   -1    0    0    0  501  0.00000000000E+00  0.00000000000E+00 -0.10744722730E+04  0.10744722731E+04  0.25500000920E-02 0. -1.
    10030    2    1    2    0    0  0.00000000000E+00  0.00000000000E+00  0.21037725079E+03  0.23593217969E+04  0.23499235634E+04 0.  0.
        1    1    3    3  502    0 -0.50318815661E+03  0.16236717524E+03  0.11586580361E+04  0.12735972147E+04  0.50400001928E-02 0.  1.
       -1    1    3    3    0  502  0.50318815661E+03 -0.16236717524E+03 -0.94828078534E+03  0.10857245822E+04  0.50400001928E-02 0. -1.
</event>
<event>
 5   0  0.2907071E-07  0.3255564E+04  0.7818609E-02  0.8174295E-01
       -1   -1    0    0    0  501  0.00000000000E+00  0.00000000000E+00  0.99903720318E+03  0.99903720319E+03  0.50400001928E-02 0. -1.
        1   -1    0    0  501    0  0.00000000000E+00  0.00000000000E+00 -0.26522279107E+04  0.26522279107E+04  0.50400001928E-02 0.  1.
    10030    2    1    2    0    0  0.00000000000E+00  0.00000000000E+00 -0.16531907075E+04  0.36512651139E+04  0.32555640704E+04 0.  0.
        2    1    3    3  502    0  0.93567739852E+03  0.47652549279E+03 -0.22216046510E+04  0.24572537444E+04  0.25500000920E-02 0.  1.
       -2    1    3    3    0  502 -0.93567739852E+03 -0.47652549279E+03  0.56841394341E+03  0.11940113695E+04  0.25500000920E-02 0. -1.
</event>
<event>
 5   0  0.2529875E-07  0.3653017E+04  0.7818609E-02  0.8078454E-01
        1   -1    0    0  501    0  0.00000000000E+00  0.00000000000E+00  0.35234621099E+04  0.35234621099E+04  0.50400001928E-02 0.  1.
       -1   -1    0    0    0  501  0.00000000000E+00  0.00000000000E+00 -0.94683410338E+03  0.94683410340E+03  0.50400001928E-02 0. -1.
    10030    2    1    2    0    0  0.00000000000E+00  0.00000000000E+00  0.25766280065E+04  0.44702962133E+04  0.36530174309E+04 0.  0.
        3    1    3    3  502    0 -0.14037816330E+04  0.73539471377E+02  0.27154773172E+04  0.30577488448E+04  0.10100000352E+00 0.  1.
       -3    1    3    3    0  502  0.14037816330E+04 -0.73539471377E+02 -0.13884931075E+03  0.14125473685E+04  0.10100000352E+00 0. -1.
</event>
<event>
 5   0  0.2907071E-07  0.3800154E+04  0.7818609E-02  0.8046122E-01
        1   -1    0    0  501    0  0.00000000000E+00  0.00000000000E+00  0.19615374872E+04  0.19615374872E+04  0.50400001928E-02 0.  1.
       -1   -1    0    0    0  501  0.00000000000E+00  0.00000000000E+00 -0.18405425457E+04  0.18405425457E+04  0.50400001928E-02 0. -1.
    10030    2    1    2    0    0  0.00000000000E+00  0.00000000000E+00  0.12099494147E+03  0.38020800330E+04  0.38001543128E+04 0.  0.
        2    1    3    3  502    0 -0.40443898070E+03  0.36404622331E+03 -0.17609174819E+04  0.18430764824E+04  0.25500000920E-02 0. -1.
       -2    1    3    3    0  502  0.40443898070E+03 -0.36404622331E+03  0.18819124234E+04  0.19590035506E+04  0.25500000920E-02 0.  1.
</event>
<event>
 5   0  0.2529875E-07  0.3792405E+04  0.7818609E-02  0.8047787E-01
        1   -1    0    0  501    0  0.00000000000E+00  0.00000000000E+00  0.14713960686E+04  0.14713960686E+04  0.50400001928E-02 0.  1.
       -1   -1    0    0    0  501  0.00000000000E+00  0.00000000000E+00 -0.24436543352E+04  0.24436543352E+04  0.50400001928E-02 0. -1.
    10030    2    1    2    0    0  0.00000000000E+00  0.00000000000E+00 -0.97225826664E+03  0.39150504038E+04  0.37924047156E+04 0.  0.
        3    1    3    3  502    0 -0.28069631410E+03  0.49353257916E+03 -0.23538423036E+04  0.24213505380E+04  0.10100000352E+00 0. -1.
       -3    1    3    3    0  502  0.28069631410E+03 -0.49353257916E+03  0.13815840370E+04  0.14936998657E+04  0.10100000352E+00 0.  1.
</event>
<event>
 5   0  0.7638805E-07  0.3123893E+04  0.7818609E-02  0.8209211E-01
       -2   -1    0    0    0  501  0.00000000000E+00  0.00000000000E+00  0.14815962421E+04  0.14815962421E+04  0.25500000920E-02 0. -1.
        2   -1    0    0  501    0  0.00000000000E+00  0.00000000000E+00 -0.16466539818E+04  0.16466539818E+04  0.25500000920E-02 0.  1.
    10030    2    1    2    0    0  0.00000000000E+00  0.00000000000E+00 -0.16505773971E+03  0.31282502239E+04  0.31238926688E+04 0.  0.
        5    1    3    3  502    0 -0.97500548497E+02 -0.41912827234E+03 -0.15861157090E+04  0.16434597647E+04  0.46999998093E+01 0.  1.
       -5    1    3    3    0  502  0.97500548497E+02  0.41912827234E+03  0.14210579693E+04  0.14847904592E+04  0.46999998093E+01 0. -1.
</event>
<event>
 5   0  0.7551495E-07  0.2856014E+04  0.7818609E-02  0.8286086E-01
        2   -1    0    0  501    0  0.00000000000E+00  0.00000000000E+00  0.16187673678E+04  0.16187673678E+04  0.25500000920E-02 0. -1.
       -2   -1    0    0    0  501  0.00000000000E+00  0.00000000000E+00 -0.12597259787E+04  0.12597259787E+04  0.25500000920E-02 0.  1.
    10030    2    1    2    0    0  0.00000000000E+00  0.00000000000E+00  0.35904138906E+03  0.28784933465E+04  0.28560135201E+04 0.  0.
        1    1    3    3  502    0 -0.53566515760E+02  0.41643422870E+03 -0.11961093798E+04  0.12676610299E+04  0.50400001928E-02 0.  1.
       -1    1    3    3    0  502  0.53566515760E+02 -0.41643422870E+03  0.15551507688E+04  0.16108323166E+04  0.50400001928E-02 0. -1.
</event>
<event>
 5   0  0.2529875E-07  0.4050698E+04  0.7818609E-02  0.7994397E-01
       -1   -1    0    0    0  501  0.00000000000E+00  0.00000000000E+00  0.29745133094E+04  0.29745133094E+04  0.50400001928E-02 0. -1.
        1   -1    0    0  501    0  0.00000000000E+00  0.00000000000E+00 -0.13790620263E+04  0.13790620263E+04  0.50400001928E-02 0.  1.
    10030    2    1    2    0    0  0.00000000000E+00  0.00000000000E+00  0.15954512832E+04  0.43535753357E+04  0.40506978913E+04 0.  0.
        1    1    3    3  502    0 -0.37395591715E+03  0.10354161065E+04  0.26248718755E+04  0.28463804918E+04  0.50400001928E-02 0. -1.
       -1    1    3    3    0  502  0.37395591715E+03 -0.10354161065E+04 -0.10294205923E+04  0.15071948439E+04  0.50400001928E-02 0.  1.
</event>
<event>
 5   0  0.8038352E-07  0.3789049E+04  0.7818609E-02  0.8048509E-01
       -2   -1    0    0    0  501  0.00000000000E+00  0.00000000000E+00  0.29302394589E+04  0.29302394589E+04  0.25500000920E-02 0.  1.
        2   -1    0    0  501    0  0.00000000000E+00  0.00000000000E+00 -0.12248906076E+04  0.12248906076E+04  0.25500000920E-02 0. -1.
    10030    2    1    2    0    0  0.00000000000E+00  0.00000000000E+00  0.17053488513E+04  0.41551300665E+04  0.37890488471E+04 0.  0.
        2    1    3    3  502    0  0.17655187573E+04 -0.68714354277E+03  0.85240483620E+03  0.20774543884E+04  0.25500000920E-02 0. -1.
       -2    1    3    3    0  502 -0.17655187573E+04  0.68714354277E+03  0.85294401507E+03  0.20776756782E+04  0.25500000920E-02 0.  1.
</event>
<event>
 5   0  0.7638805E-07  0.3790412E+04  0.7818609E-02  0.8048216E-01
        2   -1    0    0  501    0  0.00000000000E+00  0.00000000000E+00  0.23896198589E+04  0.23896198589E+04  0.25500000920E-02 0. -1.
       -2   -1    0    0    0  501  0.00000000000E+00  0.00000000000E+00 -0.15030864369E+04  0.15030864369E+04  0.25500000920E-02 0.  1.
    10030    2    1    2    0    0  0.00000000000E+00  0.00000000000E+00  0.88653342205E+03  0.38927062958E+04  0.37904116923E+04 0.  0.
        5    1    3    3  502    0  0.63430180037E+02  0.25063146937E+03 -0.14848856121E+04  0.15072315324E+04  0.46999998093E+01 0.  1.
       -5    1    3    3    0  502 -0.63430180037E+02 -0.25063146937E+03  0.23714190342E+04  0.23854747634E+04  0.46999998093E+01 0. -1.
</event>
<event>
 5   0  0.2907071E-07  0.3780727E+04  0.7818609E-02  0.8050304E-01
       -1   -1    0    0    0  501  0.00000000000E+00  0.00000000000E+00  0.16037365834E+04  0.16037365834E+04  0.50400001928E-02 0. -1.
        1   -1    0    0  501    0  0.00000000000E+00  0.00000000000E+00 -0.22282171351E+04  0.22282171351E+04  0.50400001928E-02 0.  1.
    10030    2    1    2    0    0  0.00000000000E+00  0.00000000000E+00 -0.62448055177E+03  0.38319537185E+04  0.37807265626E+04 0.  0.
        2    1    3    3  502    0 -0.10096893108E+03 -0.52222542119E+03  0.15263283384E+04  0.16163515435E+04  0.25500000920E-02 0. -1.
       -2    1    3    3    0  502  0.10096893108E+03  0.52222542119E+03 -0.21508088902E+04  0.22156021750E+04  0.25500000920E-02 0.  1.
</event>
<event>
 5   0  0.8038352E-07  0.3955808E+04  0.7818609E-02  0.8013521E-01
       -2   -1    0    0    0  501  0.00000000000E+00  0.00000000000E+00  0.21499621954E+04  0.21499621954E+04  0.25500000920E-02 0.  1.
        2   -1    0    0  501    0  0.00000000000E+00  0.00000000000E+00 -0.18196154952E+04  0.18196154952E+04  0.25500000920E-02 0. -1.
    10030    2    1    2    0    0  0.00000000000E+00  0.00000000000E+00  0.33034670025E+03  0.39695776906E+04  0.39558081474E+04 0.  0.
        2    1    3    3  502    0  0.50644138580E+03 -0.18880903493E+04 -0.13710013266E+03  0.19596337645E+04  0.25500000920E-02 0.  1.
       -2    1    3    3    0  502 -0.50644138580E+03  0.18880903493E+04  0.46744683291E+03  0.20099439261E+04  0.25500000920E-02 0. -1.
</event>
<event>
 5   0  0.8421677E-07  0.2610871E+04  0.7818609E-02  0.8364518E-01
       -2   -1    0    0    0  501  0.00000000000E+00  0.00000000000E+00  0.10453387948E+04  0.10453387948E+04  0.25500000920E-02 0. -1.
        2   -1    0    0  501    0  0.00000000000E+00  0.00000000000E+00 -0.16302485176E+04  0.16302485176E+04  0.25500000920E-02 0.  1.
    10030    2    1    2    0    0  0.00000000000E+00  0.00000000000E+00 -0.58490972283E+03  0.26755873124E+04  0.26108711348E+04 0.  0.
        3    1    3    3  502    0 -0.68580418658E+03 -0.32278389220E+03 -0.13816475546E+04  0.15759019001E+04  0.10100000352E+00 0.  1.
       -3    1    3    3    0  502  0.68580418658E+03  0.32278389220E+03  0.79673783172E+03  0.10996854123E+04  0.10100000352E+00 0. -1.
</event>
<event>
 5   0  0.2529875E-07  0.3785496E+04  0.7818609E-02  0.8049275E-01
        3   -1    0    0  501    0  0.00000000000E+00  0.00000000000E+00  0.19193851904E+04  0.19193851931E+04  0.10100000352E+00 0. -1.
       -3   -1    0    0    0  501  0.00000000000E+00  0.00000000000E+00 -0.18664805927E+04  0.18664805955E+04  0.10100000352E+00 0.  1.
    10030    2    1    2    0    0  0.00000000000E+00  0.00000000000E+00  0.52904597704E+02  0.37858657886E+04  0.37854961198E+04 0.  0.
        3    1    3    3  502    0  0.17220423830E+03  0.11000212975E+04  0.15572206164E+04  0.19143242184E+04  0.10100000352E+00 0. -1.
       -3    1    3    3    0  502 -0.17220423830E+03 -0.11000212975E+04 -0.15043160187E+04  0.18715415702E+04  0.10100000352E+00 0.  1.
</event>
<event>
 5   0  0.2529875E-07  0.3797345E+04  0.7818609E-02  0.8046725E-01
       -1   -1    0    0    0  501  0.00000000000E+00  0.00000000000E+00  0.21727523689E+04  0.21727523689E+04  0.50400001928E-02 0. -1.
        1   -1    0    0  501    0  0.00000000000E+00  0.00000000000E+00 -0.16591662459E+04  0.16591662459E+04  0.50400001928E-02 0.  1.
    10030    2    1    2    0    0  0.00000000000E+00  0.00000000000E+00  0.51358612308E+03  0.38319186148E+04  0.37973450679E+04 0.  0.
        5    1    3    3  502    0  0.57068760890E+03  0.43988191790E+03 -0.15158321559E+04  0.16783770922E+04  0.46999998093E+01 0.  1.
       -5    1    3    3    0  502 -0.57068760890E+03 -0.43988191790E+03  0.20294182790E+04  0.21535415226E+04  0.46999998093E+01 0. -1.
</event>
<event>
 5   0  0.7551495E-07  0.2927291E+04  0.7818609E-02  0.8264804E-01
       -2   -1    0    0    0  501  0.00000000000E+00  0.00000000000E+00  0.24641246536E+04  0.24641246536E+04  0.25500000920E-02 0. -1.
        2   -1    0    0  501    0  0.00000000000E+00  0.00000000000E+00 -0.86937917670E+03  0.86937917670E+03  0.25500000920E-02 0.  1.
    10030    2    1    2    0    0  0.00000000000E+00  0.00000000000E+00  0.15947454769E+04  0.33335038303E+04  0.29272913505E+04 0.  0.
        1    1    3    3  502    0 -0.34832905429E+03  0.73944804273E+03 -0.58525315924E+03  0.10053048286E+04  0.50400001928E-02 0.  1.
       -1    1    3    3    0  502  0.34832905429E+03 -0.73944804273E+03  0.21799986362E+04  0.23281990018E+04  0.50400001928E-02 0. -1.
</event>
<event>
 5   0  0.2529875E-07  0.3765869E+04  0.7818609E-02  0.8053519E-01
       -1   -1    0    0    0  501  0.00000000000E+00  0.00000000000E+00  0.18985661199E+04  0.18985661199E+04  0.50400001928E-02 0. -1.
        1   -1    0    0  501    0  0.00000000000E+00  0.00000000000E+00 -0.18674317150E+04  0.18674317150E+04  0.50400001928E-02 0.  1.
    10030    2    1    2    0    0  0.00000000000E+00  0.00000000000E+00  0.31134404904E+02  0.37659978348E+04  0.37658691348E+04 0.  0.
        4    1    3    3  502    0 -0.18612595513E+04  0.28068389118E+03 -0.33121300335E+02  0.18825963979E+04  0.12699999809E+01 0. -1.
       -4    1    3    3    0  502  0.18612595513E+04 -0.28068389118E+03  0.64255705239E+02  0.18834014369E+04  0.12699999809E+01 0.  1.
</event>
<event>
 5   0  0.2907071E-07  0.3909644E+04  0.7818609E-02  0.8023026E-01
        1   -1    0    0  501    0  0.00000000000E+00  0.00000000000E+00  0.22650838096E+04  0.22650838096E+04  0.50400001928E-02 0.  1.
       -1   -1    0    0    0  501  0.00000000000E+00  0.00000000000E+00 -0.16870586026E+04  0.16870586026E+04  0.50400001928E-02 0. -1.
    10030    2    1    2    0    0  0.00000000000E+00  0.00000000000E+00  0.57802520699E+03  0.39521424121E+04  0.39096440383E+04 0.  0.
        2    1    3    3  502    0  0.14460604796E+04 -0.12722175266E+04 -0.48837045182E+02  0.19266586109E+04  0.25500000920E-02 0. -1.
       -2    1    3    3    0  502 -0.14460604796E+04  0.12722175266E+04  0.62686225217E+03  0.20254838012E+04  0.25500000920E-02 0.  1.
</event>
<event>
 5   0  0.7649458E-07  0.3847684E+04  0.7818609E-02  0.8035999E-01
        2   -1    0    0  501    0  0.00000000000E+00  0.00000000000E+00  0.12575472035E+04  0.12575472035E+04  0.25500000920E-02 0. -1.
       -2   -1    0    0    0  501  0.00000000000E+00  0.00000000000E+00 -0.29431645866E+04  0.29431645866E+04  0.25500000920E-02 0.  1.
    10030    2    1    2    0    0  0.00000000000E+00  0.00000000000E+00 -0.16856173830E+04  0.42007117901E+04  0.38476841842E+04 0.  0.
        4    1    3    3  502    0  0.16545929009E+04  0.15335186872E+03  0.21566727080E+03  0.16756218093E+04  0.12699999809E+01 0. -1.
       -4    1    3    3    0  502 -0.16545929009E+04 -0.15335186872E+03 -0.19012846538E+04  0.25250899808E+04  0.12699999809E+01 0.  1.
</event>
<event>
 5   0  0.8038352E-07  0.3666826E+04  0.7818609E-02  0.8075354E-01
       -2   -1    0    0    0  501  0.00000000000E+00  0.00000000000E+00  0.16727898042E+04  0.16727898042E+04  0.25500000920E-02 0. -1.
        2   -1    0    0  501    0  0.00000000000E+00  0.00000000000E+00 -0.20094597492E+04  0.20094597492E+04  0.25500000920E-02 0.  1.
    10030    2    1    2    0    0  0.00000000000E+00  0.00000000000E+00 -0.33666994508E+03  0.36822495534E+04  0.36668263010E+04 0.  0.
        2    1    3    3  502    0 -0.46792596162E+03  0.14201015066E+04 -0.12338165346E+04  0.19385422966E+04  0.25500000920E-02 0.  1.
       -2    1    3    3    0  502  0.46792596162E+03 -0.14201015066E+04  0.89714658951E+03  0.17437072568E+04  0.25500000920E-02 0. -1.
</event>
<event>
 5   0  0.8421677E-07  0.3842215E+04  0.7818609E-02  0.8037156E-01
        2   -1    0    0  501    0  0.00000000000E+00  0.00000000000E+00  0.23933751465E+04  0.23933751465E+04  0.25500000920E-02 0.  1.
       -2   -1    0    0    0  501  0.00000000000E+00  0.00000000000E+00 -0.15420288437E+04  0.15420288437E+04  0.25500000920E-02 0. -1.
    10030    2    1    2    0    0  0.00000000000E+00  0.00000000000E+00  0.85134630277E+03  0.39354039902E+04  0.38422147310E+04 0.  0.
        3    1    3    3  502    0 -0.12294052051E+04 -0.11898049045E+04  0.13206980982E+04  0.21613228232E+04  0.10100000352E+00 0.  1.
       -3    1    3    3    0  502  0.12294052051E+04  0.11898049045E+04 -0.46935179542E+03  0.17740811670E+04  0.10100000352E+00 0. -1.
</event>
<event>
 5   0  0.2529875E-07  0.3662873E+04  0.7818609E-02  0.8076240E-01
       -4   -1    0    0    0  501  0.00000000000E+00  0.00000000000E+00  0.16301738432E+04  0.16301743379E+04  0.12699999809E+01 0. -1.
        4   -1    0    0  501    0  0.00000000000E+00  0.00000000000E+00 -0.20575459329E+04  0.20575463248E+04  0.12699999809E+01 0.  1.
    10030    2    1    2    0    0  0.00000000000E+00  0.00000000000E+00 -0.42737208971E+03  0.36877206627E+04  0.36628727500E+04 0.  0.
        1    1    3    3  502    0 -0.15792229283E+04  0.90678744007E+03 -0.40981691228E+03  0.18665900515E+04  0.50400001928E-02 0. -1.
       -1    1    3    3    0  502  0.15792229283E+04 -0.90678744007E+03 -0.17555177431E+02  0.18211306112E+04  0.50400001928E-02 0.  1.
</event>
<event>
 5   0  0.7649458E-07  0.3777299E+04  0.7818609E-02  0.8051044E-01
       -2   -1    0    0    0  501  0.00000000000E+00  0.00000000000E+00  0.13789761132E+04  0.13789761132E+04  0.25500000920E-02 0. -1.
        2   -1    0    0  501    0  0.00000000000E+00  0.00000000000E+00 -0.25866998541E+04  0.25866998541E+04  0.25500000920E-02 0.  1.
    10030    2    1    2    0    0  0.00000000000E+00  0.00000000000E+00 -0.12077237409E+04  0.39656759673E+04  0.37772991996E+04 0.  0.
        4    1    3    3  502    0 -0.76115165038E+03 -0.14363455521E+04  0.40562875273E+03  0.16754034373E+04  0.12699999809E+01 0. -1.
       -4    1    3    3    0  502  0.76115165038E+03  0.14363455521E+04 -0.16133524936E+04  0.22902725300E+04  0.12699999809E+01 0.  1.
</event>
<event>
 5   0  0.8421677E-07  0.3677435E+04  0.7818609E-02  0.8072981E-01
       -2   -1    0    0    0  501  0.00000000000E+00  0.00000000000E+00  0.15989190107E+04  0.15989190107E+04  0.25500000920E-02 0. -1.
        2   -1    0    0  501    0  0.00000000000E+00  0.00000000000E+00 -0.21144796490E+04  0.21144796490E+04  0.25500000920E-02 0.  1.
    10030    2    1    2    0    0  0.00000000000E+00  0.00000000000E+00 -0.51556063834E+03  0.37133986597E+04  0.36774348171E+04 0.  0.
        3    1    3    3  502    0  0.10971554611E+04 -0.62535470480E+03  0.10917262099E+04  0.16693366168E+04  0.10100000352E+00 0. -1.
       -3    1    3    3    0  502 -0.10971554611E+04  0.62535470480E+03 -0.16072868482E+04  0.20440620429E+04  0.10100000352E+00 0.  1.
</event>
<event>
 5   0  0.2529875E-07  0.3753452E+04  0.7818609E-02  0.8056218E-01
        1   -1    0    0  501    0  0.00000000000E+00  0.00000000000E+00  0.23334719595E+04  0.23334719595E+04  0.50400001928E-02 0. -1.
       -1   -1    0    0    0  501  0.00000000000E+00  0.00000000000E+00 -0.15093819555E+04  0.15093819555E+04  0.50400001928E-02 0.  1.
    10030    2    1    2    0    0  0.00000000000E+00  0.00000000000E+00  0.82409000403E+03  0.38428539151E+04  0.37534519949E+04 0.  0.
        3    1    3    3  502    0  0.13597706632E+04 -0.79731365326E+02 -0.90973893772E+03  0.16379738375E+04  0.10100000352E+00 0.  1.
       -3    1    3    3    0  502 -0.13597706632E+04  0.79731365326E+02  0.17338289417E+04  0.22048800776E+04  0.10100000352E+00 0. -1.
</event>
<event>
 5   0  0.7551495E-07  0.3793882E+04  0.7818609E-02  0.8047469E-01
        2   -1    0    0  501    0  0.00000000000E+00  0.00000000000E+00  0.20874014980E+04  0.20874014980E+04  0.25500000920E-02 0. -1.
       -2   -1    0    0    0  501  0.00000000000E+00  0.00000000000E+00 -0.17238585057E+04  0.17238585057E+04  0.25500000920E-02 0.  1.
    10030    2    1    2    0    0  0.00000000000E+00  0.00000000000E+00  0.36354299229E+03  0.38112600037E+04  0.37938818259E+04 0.  0.
        1    1    3    3  502    0 -0.12094502663E+04  0.12359674373E+04  0.96508631809E+03  0.19803477104E+04  0.50400001928E-02 0. -1.
       -1    1    3    3    0  502  0.12094502663E+04 -0.12359674373E+04 -0.60154332580E+03  0.18309122933E+04  0.50400001928E-02 0.  1.
</event>
<event>
 5   0  0.2907071E-07  0.3842806E+04  0.7818609E-02  0.8037031E-01
       -1   -1    0    0    0  501  0.00000000000E+00  0.00000000000E+00  0.12949631695E+04  0.12949631695E+04  0.50400001928E-02 0. -1.
        1   -1    0    0  501    0  0.00000000000E+00  0.00000000000E+00 -0.28508843701E+04  0.28508843701E+04  0.50400001928E-02 0.  1.
    10030    2    1    2    0    0  0.00000000000E+00  0.00000000000E+00 -0.15559212006E+04  0.41458475397E+04  0.38428064015E+04 0.  0.
        2    1    3    3  502    0 -0.13937794059E+04  0.12156855144E+04 -0.13398774762E+04  0.22838090887E+04  0.25500000920E-02 0. -1.
       -2    1    3    3    0  502  0.13937794059E+04 -0.12156855144E+04 -0.21604372441E+03  0.18620384510E+04  0.25500000920E-02 0.  1.
</event>
<event>
 5   0  0.2529875E-07  0.3846468E+04  0.7818609E-02  0.8036256E-01
        1   -1    0    0  501    0  0.00000000000E+00  0.00000000000E+00  0.25502980188E+04  0.25502980188E+04  0.50400001928E-02 0.  1.
       -1   -1    0    0    0  501  0.00000000000E+00  0.00000000000E+00 -0.14503520035E+04  0.14503520035E+04  0.50400001928E-02 0. -1.
    10030    2    1    2    0    0  0.00000000000E+00  0.00000000000E+00  0.10999460153E+04  0.40006500224E+04  0.38464684276E+04 0.  0.
        1    1    3    3  502    0 -0.42682406322E+03  0.66847694324E+02 -0.13992293267E+04  0.14644077656E+04  0.50400001928E-02 0. -1.
       -1    1    3    3    0  502  0.42682406322E+03 -0.66847694324E+02  0.24991753420E+04  0.25362422568E+04  0.50400001928E-02 0.  1.
</event>
<event>
 5   0  0.7649458E-07  0.3817370E+04  0.7818609E-02  0.8042438E-01
        2   -1    0    0  501    0  0.00000000000E+00  0.00000000000E+00  0.16906306691E+04  0.16906306691E+04  0.25500000920E-02 0. -1.
       -2   -1    0    0    0  501  0.00000000000E+00  0.00000000000E+00 -0.21548636420E+04  0.21548636420E+04  0.25500000920E-02 0.  1.
    10030    2    1    2    0    0  0.00000000000E+00  0.00000000000E+00 -0.46423297292E+03  0.38454943111E+04  0.38173700689E+04 0.  0.
        4    1    3    3  502    0  0.14872617111E+04 -0.11927952647E+03  0.96699015249E+03  0.17779894743E+04  0.12699999809E+01 0. -1.
       -4    1    3    3    0  502 -0.14872617111E+04  0.11927952647E+03 -0.14312231254E+04  0.20675048368E+04  0.12699999809E+01 0.  1.
</event>
<event>
 5   0  0.7649458E-07  0.3749695E+04  0.7818609E-02  0.8057037E-01
        2   -1    0    0  501    0  0.00000000000E+00  0.00000000000E+00  0.26958562894E+04  0.26958562894E+04  0.25500000920E-02 0.  1.
       -2   -1    0    0    0  501  0.00000000000E+00  0.00000000000E+00 -0.13038724551E+04  0.13038724551E+04  0.25500000920E-02 0. -1.
    10030    2    1    2    0    0  0.00000000000E+00  0.00000000000E+00  0.13919838343E+04  0.39997287444E+04  0.37496947921E+04 0.  0.
        4    1    3    3  502    0 -0.12843176700E+04 -0.89803757529E+03 -0.40176125064E+03  0.16178247987E+04  0.12699999809E+01 0. -1.
       -4    1    3    3    0  502  0.12843176700E+04  0.89803757529E+03  0.17937450849E+04  0.23819039457E+04  0.12699999809E+01 0.  1.
</event>
<event>
 5   0  0.7649458E-07  0.3859243E+04  0.7818609E-02  0.8033560E-01
        2   -1    0    0  501    0  0.00000000000E+00  0.00000000000E+00  0.22107486894E+04  0.22107486894E+04  0.25500000920E-02 0.  1.
       -2   -1    0    0    0  501  0.00000000000E+00  0.00000000000E+00 -0.16842432912E+04  0.16842432912E+04  0.25500000920E-02 0. -1.
    10030    2    1    2    0    0  0.00000000000E+00  0.00000000000E+00  0.52650539823E+03  0.38949919805E+04  0.38592427488E+04 0.  0.
        4    1    3    3  502    0  0.17370486130E+04  0.95710422553E+02  0.11058144717E+04  0.20613892470E+04  0.12699999809E+01 0.  1.
       -4    1    3    3    0  502 -0.17370486130E+04 -0.95710422553E+02 -0.57930907344E+03  0.18336027335E+04  0.12699999809E+01 0. -1.
</event>
<event>
 5   0  0.2529875E-07  0.3813097E+04  0.7818609E-02  0.8043350E-01
       -1   -1    0    0    0  501  0.00000000000E+00  0.00000000000E+00  0.14281216800E+04  0.14281216800E+04  0.50400001928E-02 0. -1.
        1   -1    0    0  501    0  0.00000000000E+00  0.00000000000E+00 -0.25452507620E+04  0.25452507620E+04  0.50400001928E-02 0.  1.
    10030    2    1    2    0    0  0.00000000000E+00  0.00000000000E+00 -0.11171290820E+04  0.39733724421E+04  0.38130973207E+04 0.  0.
        1    1    3    3  502    0 -0.11494850734E+04 -0.13447733936E+04 -0.12992119375E+04  0.21949221109E+04  0.50400001928E-02 0. -1.
       -1    1    3    3    0  502  0.11494850734E+04  0.13447733936E+04  0.18208285548E+03  0.17784503312E+04  0.50400001928E-02 0.  1.
</event>
<event>
 5   0  0.8421677E-07  0.2814427E+04  0.7818609E-02  0.8298803E-01
       -2   -1    0    0    0  501  0.00000000000E+00  0.00000000000E+00  0.81838067647E+03  0.81838067648E+03  0.25500000920E-02 0. -1.
        2   -1    0    0  501    0  0.00000000000E+00  0.00000000000E+00 -0.24197175709E+04  0.24197175709E+04  0.25500000920E-02 0.  1.
    10030    2    1    2    0    0  0.00000000000E+00  0.00000000000E+00 -0.16013368944E+04  0.32380982474E+04  0.28144271904E+04 0.  0.
        3    1    3    3  502    0  0.54795256525E+03 -0.27436327209E+03  0.65680289863E+03  0.89828574334E+03  0.10100000352E+00 0. -1.
       -3    1    3    3    0  502 -0.54795256525E+03  0.27436327209E+03 -0.22581397931E+04  0.23398125040E+04  0.10100000352E+00 0.  1.
</event>
<event>
 5   0  0.7551495E-07  0.3830676E+04  0.7818609E-02  0.8039604E-01
       -2   -1    0    0    0  501  0.00000000000E+00  0.00000000000E+00  0.20842764688E+04  0.20842764688E+04  0.25500000920E-02 0. -1.
        2   -1    0    0  501    0  0.00000000000E+00  0.00000000000E+00 -0.17600928727E+04  0.17600928727E+04  0.25500000920E-02 0.  1.
    10030    2    1    2    0    0  0.00000000000E+00  0.00000000000E+00  0.32418359615E+03  0.38443693415E+04  0.38306762627E+04 0.  0.
        1    1    3    3  502    0  0.82346387552E+02  0.20883217811E+03  0.20710289890E+04  0.20831593504E+04  0.50400001928E-02 0. -1.
       -1    1    3    3    0  502 -0.82346387552E+02 -0.20883217811E+03 -0.17468453928E+04  0.17612099910E+04  0.50400001928E-02 0.  1.
</event>
<event>
 5   0  0.2907071E-07  0.3867894E+04  0.7818609E-02  0.8031740E-01
       -1   -1    0    0    0  501  0.00000000000E+00  0.00000000000E+00  0.15214226606E+04  0.15214226606E+04  0.50400001928E-02 0.  1.
        1   -1    0    0  501    0  0.00000000000E+00  0.00000000000E+00 -0.24583252975E+04  0.24583252975E+04  0.50400001928E-02 0. -1.
    10030    2    1    2    0    0  0.00000000000E+00  0.00000000000E+00 -0.93690263689E+03  0.39797479581E+04  0.38678944219E+04 0.  0.
        2    1    3    3  502    0  0.35827441269E+03  0.14303673706E+04  0.81907083630E+03  0.16867686280E+04  0.25500000920E-02 0.  1.
       -2    1    3    3    0  502 -0.35827441269E+03 -0.14303673706E+04 -0.17559734732E+04  0.22929793301E+04  0.25500000920E-02 0. -1.
</event>
<event>
 5   0  0.2529875E-07  0.3351180E+04  0.7818609E-02  0.8149993E-01
        1   -1    0    0  501    0  0.00000000000E+00  0.00000000000E+00  0.19978276759E+04  0.19978276759E+04  0.50400001928E-02 0.  1.
       -1   -1    0    0    0  501  0.00000000000E+00  0.00000000000E+00 -0.14053276058E+04  0.14053276058E+04  0.50400001928E-02 0. -1.
    10030    2    1    2    0    0  0.00000000000E+00  0.00000000000E+00  0.59250007014E+03  0.34031552817E+04  0.33511803202E+04 0.  0.
        1    1    3    3  502    0 -0.10302905833E+04  0.12126715716E+04  0.82930192225E+03  0.17943836560E+04  0.50400001928E-02 0.  1.
       -1    1    3    3    0  502  0.10302905833E+04 -0.12126715716E+04 -0.23680185211E+03  0.16087716257E+04  0.50400001928E-02 0. -1.
</event>
<event>
 5   0  0.2907071E-07  0.3903291E+04  0.7818609E-02  0.8024345E-01
       -1   -1    0    0    0  501  0.00000000000E+00  0.00000000000E+00  0.22058379450E+04  0.22058379450E+04  0.50400001928E-02 0. -1.
        1   -1    0    0  501    0  0.00000000000E+00  0.00000000000E+00 -0.17267452673E+04  0.17267452673E+04  0.50400001928E-02 0.  1.
    10030    2    1    2    0    0  0.00000000000E+00  0.00000000000E+00  0.47909267775E+03  0.39325832123E+04  0.39032910380E+04 0.  0.
        2    1    3    3  502    0 -0.27191877181E+02  0.98309973810E+03  0.19379298879E+04  0.21731996557E+04  0.25500000920E-02 0. -1.
       -2    1    3    3    0  502  0.27191877181E+02 -0.98309973810E+03 -0.14588372102E+04  0.17593835565E+04  0.25500000920E-02 0.  1.
</event>
<event>
 5   0  0.8421677E-07  0.3893943E+04  0.7818609E-02  0.8026290E-01
       -2   -1    0    0    0  501  0.00000000000E+00  0.00000000000E+00  0.14250515903E+04  0.14250515903E+04  0.25500000920E-02 0.  1.
        2   -1    0    0  501    0  0.00000000000E+00  0.00000000000E+00 -0.26600423328E+04  0.26600423328E+04  0.25500000920E-02 0. -1.
    10030    2    1    2    0    0  0.00000000000E+00  0.00000000000E+00 -0.12349907425E+04  0.40850939231E+04  0.38939427611E+04 0.  0.
        3    1    3    3  502    0  0.18919870297E+04 -0.42824220515E+03 -0.79207102659E+03  0.20953240390E+04  0.10100000352E+00 0.  1.
       -3    1    3    3    0  502 -0.18919870297E+04  0.42824220515E+03 -0.44291971591E+03  0.19897698841E+04  0.10100000352E+00 0. -1.
</event>
<event>
 5   0  0.2907071E-07  0.3595570E+04  0.7818609E-02  0.8091507E-01
        1   -1    0    0  501    0  0.00000000000E+00  0.00000000000E+00  0.26279564526E+04  0.26279564526E+04  0.50400001928E-02 0.  1.
       -1   -1    0    0    0  501  0.00000000000E+00  0.00000000000E+00 -0.12298645095E+04  0.12298645095E+04  0.50400001928E-02 0. -1.
    10030    2    1    2    0    0  0.00000000000E+00  0.00000000000E+00  0.13980919431E+04  0.38578209621E+04  0.35955697037E+04 0.  0.
        2    1    3    3  502    0 -0.75124331447E+02  0.27068242246E+03  0.26042629793E+04  0.26193698296E+04  0.25500000920E-02 0.  1.
       -2    1    3    3    0  502  0.75124331447E+02 -0.27068242246E+03 -0.12061710362E+04  0.12384511325E+04  0.25500000920E-02 0. -1.
</event>
<event>
 5   0  0.7649458E-07  0.2879769E+04  0.7818609E-02  0.8278922E-01
       -2   -1    0    0    0  501  0.00000000000E+00  0.00000000000E+00  0.23336366874E+04  0.23336366874E+04  0.25500000920E-02 0.  1.
        2   -1    0    0  501    0  0.00000000000E+00  0.00000000000E+00 -0.88842757669E+03  0.88842757670E+03  0.25500000920E-02 0. -1.
    10030    2    1    2    0    0  0.00000000000E+00  0.00000000000E+00  0.14452091107E+04  0.32220642641E+04  0.28797688706E+04 0.  0.
        4    1    3    3  502    0 -0.86489808760E+03 -0.98664060604E+03  0.59017271768E+02  0.13133899035E+04  0.12699999809E+01 0. -1.
       -4    1    3    3    0  502  0.86489808760E+03  0.98664060604E+03  0.13861918389E+04  0.19086743606E+04  0.12699999809E+01 0.  1.
</event>
<event>
 5   0  0.2529875E-07  0.3983683E+04  0.7818609E-02  0.8007846E-01
       -1   -1    0    0    0  501  0.00000000000E+00  0.00000000000E+00  0.15860855236E+04  0.15860855236E+04  0.50400001928E-02 0. -1.
        1   -1    0    0  501    0  0.00000000000E+00  0.00000000000E+00 -0.25013990370E+04  0.25013990370E+04  0.50400001928E-02 0.  1.
    10030    2    1    2    0    0  0.00000000000E+00  0.00000000000E+00 -0.91531351333E+03  0.40874845606E+04  0.39836831206E+04 0.  0.
        3    1    3    3  502    0 -0.78778364396E+03  0.91993408987E+03  0.11648600249E+04  0.16804108686E+04  0.10100000352E+00 0. -1.
       -3    1    3    3    0  502  0.78778364396E+03 -0.91993408987E+03 -0.20801735383E+04  0.24070736920E+04  0.10100000352E+00 0.  1.
</event>
<event>
 5   0  0.2529875E-07  0.3707178E+04  0.7818609E-02  0.8066373E-01
       -1   -1    0    0    0  501  0.00000000000E+00  0.00000000000E+00  0.18477846758E+04  0.18477846758E+04  0.50400001928E-02 0. -1.
        1   -1    0    0  501    0  0.00000000000E+00  0.00000000000E+00 -0.18594111113E+04  0.18594111113E+04  0.50400001928E-02 0.  1.
    10030    2    1    2    0    0  0.00000000000E+00  0.00000000000E+00 -0.11626435479E+02  0.37071957871E+04  0.37071775557E+04 0.  0.
        1    1    3    3  502    0  0.17458971766E+04 -0.37478321064E+03 -0.50297957049E+03  0.18551570970E+04  0.50400001928E-02 0. -1.
       -1    1    3    3    0  502 -0.17458971766E+04  0.37478321064E+03  0.49135313502E+03  0.18520386901E+04  0.50400001928E-02 0.  1.
</event>
<event>
 5   0  0.7649458E-07  0.3397881E+04  0.7818609E-02  0.8138427E-01
       -2   -1    0    0    0  501  0.00000000000E+00  0.00000000000E+00  0.16892558936E+04  0.16892558936E+04  0.25500000920E-02 0. -1.
        2   -1    0    0  501    0  0.00000000000E+00  0.00000000000E+00 -0.17086802524E+04  0.17086802524E+04  0.25500000920E-02 0.  1.
    10030    2    1    2    0    0  0.00000000000E+00  0.00000000000E+00 -0.19424358738E+02  0.33979361460E+04  0.33978806257E+04 0.  0.
        4    1    3    3  502    0  0.75615908172E+03  0.34679569390E+02 -0.15307292555E+04  0.17076629925E+04  0.12699999809E+01 0.  1.
       -4    1    3    3    0  502 -0.75615908172E+03 -0.34679569390E+02  0.15113048968E+04  0.16902731535E+04  0.12699999809E+01 0. -1.
</event>
<event>
 5   0  0.7638805E-07  0.3849401E+04  0.7818609E-02  0.8035636E-01
       -2   -1    0    0    0  501  0.00000000000E+00  0.00000000000E+00  0.23541529651E+04  0.23541529651E+04  0.25500000920E-02 0. -1.
        2   -1    0    0  501    0  0.00000000000E+00  0.00000000000E+00 -0.15735905402E+04  0.15735905402E+04  0.25500000920E-02 0.  1.
    10030    2    1    2    0    0  0.00000000000E+00  0.00000000000E+00  0.78056242491E+03  0.39277435052E+04  0.38494014267E+04 0.  0.
        5    1    3    3  502    0 -0.12025176336E+04  0.20896408545E+03 -0.11282051936E+04  0.16621021921E+04  0.46999998093E+01 0.  1.
       -5    1    3    3    0  502  0.12025176336E+04 -0.20896408545E+03  0.19087676185E+04  0.22656413131E+04  0.46999998093E+01 0. -1.
</event>
<event>
 5   0  0.2907071E-07  0.2876876E+04  0.7818609E-02  0.8279791E-01
       -1   -1    0    0    0  501  0.00000000000E+00  0.00000000000E+00  0.93203500031E+03  0.93203500032E+03  0.50400001928E-02 0.  1.
        1   -1    0    0  501    0  0.00000000000E+00  0.00000000000E+00 -0.22199849749E+04  0.22199849749E+04  0.50400001928E-02 0. -1.
    10030    2    1    2    0    0  0.00000000000E+00  0.00000000000E+00 -0.12879499745E+04  0.31520199752E+04  0.28768758727E+04 0.  0.
        2    1    3    3  502    0 -0.54177377318E+03 -0.81731815744E+03 -0.17970421030E+04  0.20471658730E+04  0.25500000920E-02 0. -1.
       -2    1    3    3    0  502  0.54177377318E+03  0.81731815744E+03  0.50909212845E+03  0.11048541022E+04  0.25500000920E-02 0.  1.
</event>
<event>
 5   0  0.2529875E-07  0.3691568E+04  0.7818609E-02  0.8069833E-01
        1   -1    0    0  501    0  0.00000000000E+00  0.00000000000E+00  0.11704752313E+04  0.11704752313E+04  0.50400001928E-02 0. -1.
       -1   -1    0    0    0  501  0.00000000000E+00  0.00000000000E+00 -0.29107137577E+04  0.29107137577E+04  0.50400001928E-02 0.  1.
    10030    2    1    2    0    0  0.00000000000E+00  0.00000000000E+00 -0.17402385263E+04  0.40811889890E+04  0.36915678831E+04 0.  0.
        4    1    3    3  502    0  0.89439915678E+03 -0.77994000023E+03  0.69283173082E+03  0.13741447070E+04  0.12699999809E+01 0. -1.
       -4    1    3    3    0  502 -0.89439915678E+03  0.77994000023E+03 -0.24330702572E+04  0.27070442820E+04  0.12699999809E+01 0.  1.
</event>
<event>
 5   0  0.2529875E-07  0.3688858E+04  0.7818609E-02  0.8070435E-01
        1   -1    0    0  501    0  0.00000000000E+00  0.00000000000E+00  0.28229245101E+04  0.28229245101E+04  0.50400001928E-02 0. -1.
       -1   -1    0    0    0  501  0.00000000000E+00  0.00000000000E+00 -0.12051044332E+04  0.12051044332E+04  0.50400001928E-02 0.  1.
    10030    2    1    2    0    0  0.00000000000E+00  0.00000000000E+00  0.16178200769E+04  0.40280289433E+04  0.36888582742E+04 0.  0.
        1    1    3    3  502    0  0.36282704117E+03 -0.85568945436E+03  0.25485224223E+04  0.27127134831E+04  0.50400001928E-02 0. -1.
       -1    1    3    3    0  502 -0.36282704117E+03  0.85568945436E+03 -0.93070234548E+03  0.13153154603E+04  0.50400001928E-02 0.  1.
</event>
<event>
 5   0  0.2529875E-07  0.3771991E+04  0.7818609E-02  0.8052192E-01
       -1   -1    0    0    0  501  0.00000000000E+00  0.00000000000E+00  0.13089067366E+04  0.13089067366E+04  0.50400001928E-02 0.  1.
        1   -1    0    0  501    0  0.00000000000E+00  0.00000000000E+00 -0.27175189223E+04  0.27175189223E+04  0.50400001928E-02 0. -1.
    10030    2    1    2    0    0  0.00000000000E+00  0.00000000000E+00 -0.14086121858E+04  0.40264256589E+04  0.37719908930E+04 0.  0.
        5    1    3    3  502    0  0.28566886872E+03  0.15884680238E+04  0.33727898537E+03  0.16488227828E+04  0.46999998093E+01 0.  1.
       -5    1    3    3    0  502 -0.28566886872E+03 -0.15884680238E+04 -0.17458911711E+04  0.23776028761E+04  0.46999998093E+01 0. -1.
</event>
<event>
 5   0  0.2529875E-07  0.3812397E+04  0.7818609E-02  0.8043500E-01
       -1   -1    0    0    0  501  0.00000000000E+00  0.00000000000E+00  0.20291536103E+04  0.20291536103E+04  0.50400001928E-02 0. -1.
        1   -1    0    0  501    0  0.00000000000E+00  0.00000000000E+00 -0.17906939539E+04  0.17906939539E+04  0.50400001928E-02 0.  1.
    10030    2    1    2    0    0  0.00000000000E+00  0.00000000000E+00  0.23845965641E+03  0.38198475642E+04  0.38123971994E+04 0.  0.
        3    1    3    3  502    0  0.33263653775E+03 -0.15553686784E+04  0.11718896068E+04  0.19756376319E+04  0.10100000352E+00 0. -1.
       -3    1    3    3    0  502 -0.33263653775E+03  0.15553686784E+04 -0.93342995038E+03  0.18442099323E+04  0.10100000352E+00 0.  1.
</event>
<event>
 5   0  0.7551495E-07  0.3663183E+04  0.7818609E-02  0.8076170E-01
        2   -1    0    0  501    0  0.00000000000E+00  0.00000000000E+00  0.19705231809E+04  0.19705231809E+04  0.25500000920E-02 0.  1.
       -2   -1    0    0    0  501  0.00000000000E+00  0.00000000000E+00 -0.17024556096E+04  0.17024556096E+04  0.25500000920E-02 0. -1.
    10030    2    1    2    0    0  0.00000000000E+00  0.00000000000E+00  0.26806757132E+03  0.36729787904E+04  0.36631834478E+04 0.  0.
        1    1    3    3  502    0 -0.20640117957E+03 -0.66595068414E+03  0.18322677054E+04  0.19604327851E+04  0.50400001928E-02 0.  1.
       -1    1    3    3    0  502  0.20640117957E+03  0.66595068414E+03 -0.15642001341E+04  0.17125460053E+04  0.50400001928E-02 0. -1.
</event>
<event>
 5   0  0.2529875E-07  0.3789237E+04  0.7818609E-02  0.8048469E-01
       -1   -1    0    0    0  501  0.00000000000E+00  0.00000000000E+00  0.13748869333E+04  0.13748869333E+04  0.50400001928E-02 0.  1.
        1   -1    0    0  501    0  0.00000000000E+00  0.00000000000E+00 -0.26108175727E+04  0.26108175727E+04  0.50400001928E-02 0. -1.
    10030    2    1    2    0    0  0.00000000000E+00  0.00000000000E+00 -0.12359306394E+04  0.39857045060E+04  0.37892368445E+04 0.  0.
        5    1    3    3  502    0  0.12963250143E+04 -0.34934751476E+03 -0.20240849223E+04  0.24288771256E+04  0.46999998093E+01 0. -1.
       -5    1    3    3    0  502 -0.12963250143E+04  0.34934751476E+03  0.78815428287E+03  0.15568273804E+04  0.46999998093E+01 0.  1.
</event>
<event>
 5   0  0.2529875E-07  0.3837717E+04  0.7818609E-02  0.8038109E-01
        1   -1    0    0  501    0  0.00000000000E+00  0.00000000000E+00  0.29280872459E+04  0.29280872459E+04  0.50400001928E-02 0.  1.
       -1   -1    0    0    0  501  0.00000000000E+00  0.00000000000E+00 -0.12574822788E+04  0.12574822788E+04  0.50400001928E-02 0. -1.
    10030    2    1    2    0    0  0.00000000000E+00  0.00000000000E+00  0.16706049671E+04  0.41855695247E+04  0.38377169372E+04 0.  0.
        1    1    3    3  502    0  0.17060688619E+03  0.17435012980E+04  0.16892916418E+04  0.24336412506E+04  0.50400001928E-02 0.  1.
       -1    1    3    3    0  502 -0.17060688619E+03 -0.17435012980E+04 -0.18686674702E+02  0.17519282741E+04  0.50400001928E-02 0. -1.
</event>
<event>
 5   0  0.3682715E-07  0.2319956E+04  0.7818609E-02  0.8470094E-01
       -1   -1    0    0    0  501  0.00000000000E+00  0.00000000000E+00  0.11969907258E+04  0.11969907258E+04  0.50400001928E-02 0. -1.
        1   -1    0    0  501    0  0.00000000000E+00  0.00000000000E+00 -0.11241093840E+04  0.11241093840E+04  0.50400001928E-02 0.  1.
    10030    2    1    2    0    0  0.00000000000E+00  0.00000000000E+00  0.72881341791E+02  0.23211001097E+04  0.23199556094E+04 0.  0.
        3    1    3    3  502    0 -0.82938925972E+02 -0.56859350238E+03 -0.97171265622E+03  0.11288945623E+04  0.10100000352E+00 0.  1.
       -3    1    3    3    0  502  0.82938925972E+02  0.56859350238E+03  0.10445939980E+04  0.11922055474E+04  0.10100000352E+00 0. -1.
</event>
<event>
 5   0  0.2529875E-07  0.3735886E+04  0.7818609E-02  0.8060055E-01
       -1   -1    0    0    0  501  0.00000000000E+00  0.00000000000E+00  0.27651870890E+04  0.27651870890E+04  0.50400001928E-02 0. -1.
        1   -1    0    0  501    0  0.00000000000E+00  0.00000000000E+00 -0.12618357285E+04  0.12618357286E+04  0.50400001928E-02 0.  1.
    10030    2    1    2    0    0  0.00000000000E+00  0.00000000000E+00  0.15033513604E+04  0.40270228176E+04  0.37358864357E+04 0.  0.
        4    1    3    3  502    0  0.55838287057E+03 -0.47888659054E+03 -0.10991287574E+04  0.13225768163E+04  0.12699999809E+01 0.  1.
       -4    1    3    3    0  502 -0.55838287057E+03  0.47888659054E+03  0.26024801179E+04  0.27044460012E+04  0.12699999809E+01 0. -1.
</event>
<event>
 5   0  0.2529875E-07  0.3767313E+04  0.7818609E-02  0.8053206E-01
       -1   -1    0    0    0  501  0.00000000000E+00  0.00000000000E+00  0.17757751444E+04  0.17757751444E+04  0.50400001928E-02 0. -1.
        1   -1    0    0  501    0  0.00000000000E+00  0.00000000000E+00 -0.19980915236E+04  0.19980915236E+04  0.50400001928E-02 0.  1.
    10030    2    1    2    0    0  0.00000000000E+00  0.00000000000E+00 -0.22231637919E+03  0.37738666681E+04  0.37673127101E+04 0.  0.
        3    1    3    3  502    0 -0.41480600838E+03  0.18303608212E+04 -0.27229976063E+03  0.18964260940E+04  0.10100000352E+00 0.  1.
       -3    1    3    3    0  502  0.41480600838E+03 -0.18303608212E+04  0.49983381447E+02  0.18774405740E+04  0.10100000352E+00 0. -1.
</event>
<event>
 5   0  0.7551495E-07  0.3913888E+04  0.7818609E-02  0.8022147E-01
        2   -1    0    0  501    0  0.00000000000E+00  0.00000000000E+00  0.27597138256E+04  0.27597138256E+04  0.25500000920E-02 0. -1.
       -2   -1    0    0    0  501  0.00000000000E+00  0.00000000000E+00 -0.13876909391E+04  0.13876909391E+04  0.25500000920E-02 0.  1.
    10030    2    1    2    0    0  0.00000000000E+00  0.00000000000E+00  0.13720228865E+04  0.41474047647E+04  0.39138880261E+04 0.  0.
        1    1    3    3  502    0 -0.14230790793E+03 -0.17504054033E+04  0.16009248270E+04  0.23763692723E+04  0.50400001928E-02 0. -1.
       -1    1    3    3    0  502  0.14230790793E+03  0.17504054033E+04 -0.22890194052E+03  0.17710354923E+04  0.50400001928E-02 0.  1.
</event>
<event>
 5   0  0.8421677E-07  0.3794866E+04  0.7818609E-02  0.8047258E-01
        2   -1    0    0  501    0  0.00000000000E+00  0.00000000000E+00  0.27997283123E+04  0.27997283123E+04  0.25500000920E-02 0.  1.
       -2   -1    0    0    0  501  0.00000000000E+00  0.00000000000E+00 -0.12859290868E+04  0.12859290868E+04  0.25500000920E-02 0. -1.
    10030    2    1    2    0    0  0.00000000000E+00  0.00000000000E+00  0.15137992254E+04  0.40856573991E+04  0.37948660435E+04 0.  0.
        3    1    3    3  502    0 -0.43741221112E+03 -0.12570028827E+04  0.22128832133E+04  0.25822931312E+04  0.10100000352E+00 0.  1.
       -3    1    3    3    0  502  0.43741221112E+03  0.12570028827E+04 -0.69908398786E+03  0.15033642679E+04  0.10100000352E+00 0. -1.
</event>
<event>
 5   0  0.2529875E-07  0.3610175E+04  0.7818609E-02  0.8088165E-01
        1   -1    0    0  501    0  0.00000000000E+00  0.00000000000E+00  0.20243682102E+04  0.20243682102E+04  0.50400001928E-02 0.  1.
       -1   -1    0    0    0  501  0.00000000000E+00  0.00000000000E+00 -0.16095596277E+04  0.16095596277E+04  0.50400001928E-02 0. -1.
    10030    2    1    2    0    0  0.00000000000E+00  0.00000000000E+00  0.41480858251E+03  0.36339278378E+04  0.36101752548E+04 0.  0.
        3    1    3    3  502    0  0.68611016246E+03 -0.14385262208E+04 -0.64565996738E+03  0.17195876386E+04  0.10100000352E+00 0.  1.
       -3    1    3    3    0  502 -0.68611016246E+03  0.14385262208E+04  0.10604685499E+04  0.19143401993E+04  0.10100000352E+00 0. -1.
</event>
<event>
 5   0  0.7638805E-07  0.3773395E+04  0.7818609E-02  0.8051888E-01
        2   -1    0    0  501    0  0.00000000000E+00  0.00000000000E+00  0.17806282434E+04  0.17806282434E+04  0.25500000920E-02 0.  1.
       -2   -1    0    0    0  501  0.00000000000E+00  0.00000000000E+00 -0.19990856234E+04  0.19990856234E+04  0.25500000920E-02 0. -1.
    10030    2    1    2    0    0  0.00000000000E+00  0.00000000000E+00 -0.21845738001E+03  0.37797138667E+04  0.37733954587E+04 0.  0.
        5    1    3    3  502    0  0.39400123205E+03 -0.17483931937E+04 -0.69969900669E+03  0.19239845427E+04  0.46999998093E+01 0.  1.
       -5    1    3    3    0  502 -0.39400123205E+03  0.17483931937E+04  0.48124162668E+03  0.18557293240E+04  0.46999998093E+01 0. -1.
</event>
<event>
 5   0  0.2529875E-07  0.3853482E+04  0.7818609E-02  0.8034774E-01
       -1   -1    0    0    0  501  0.00000000000E+00  0.00000000000E+00  0.20244334222E+04  0.20244334222E+04  0.50400001928E-02 0. -1.
        1   -1    0    0  501    0  0.00000000000E+00  0.00000000000E+00 -0.18337631114E+04  0.18337631114E+04  0.50400001928E-02 0.  1.
    10030    2    1    2    0    0  0.00000000000E+00  0.00000000000E+00  0.19067031085E+03  0.38581965336E+04  0.38534822336E+04 0.  0.
        4    1    3    3  502    0 -0.18445701732E+03 -0.63401849894E+03 -0.17169416453E+04  0.18395363749E+04  0.12699999809E+01 0.  1.
       -4    1    3    3    0  502  0.18445701732E+03  0.63401849894E+03  0.19076119562E+04  0.20186601587E+04  0.12699999809E+01 0. -1.
</event>
<event>
 5   0  0.2907071E-07  0.3803851E+04  0.7818609E-02  0.8045329E-01
       -1   -1    0    0    0  501  0.00000000000E+00  0.00000000000E+00  0.25454409782E+04  0.25454409782E+04  0.50400001928E-02 0.  1.
        1   -1    0    0  501    0  0.00000000000E+00  0.00000000000E+00 -0.14210976363E+04  0.14210976363E+04  0.50400001928E-02 0. -1.
    10030    2    1    2    0    0  0.00000000000E+00  0.00000000000E+00  0.11243433420E+04  0.39665386145E+04  0.38038507633E+04 0.  0.
        2    1    3    3  502    0 -0.35835949107E+03  0.59022175113E+03  0.24101214657E+04  0.25070837081E+04  0.25500000920E-02 0.  1.
       -2    1    3    3    0  502  0.35835949107E+03 -0.59022175113E+03 -0.12857781237E+04  0.14594549064E+04  0.25500000920E-02 0. -1.
</event>
<event>
 5   0  0.2529875E-07  0.2617427E+04  0.7818609E-02  0.8362306E-01
        1   -1    0    0  501    0  0.00000000000E+00  0.00000000000E+00  0.12317024643E+04  0.12317024643E+04  0.50400001928E-02 0.  1.
       -1   -1    0    0    0  501  0.00000000000E+00  0.00000000000E+00 -0.13905394978E+04  0.13905394978E+04  0.50400001928E-02 0. -1.
    10030    2    1    2    0    0  0.00000000000E+00  0.00000000000E+00 -0.15883703359E+03  0.26222419621E+04  0.26174269244E+04 0.  0.
        1    1    3    3  502    0 -0.98484041202E+03 -0.71321172953E+03  0.40536142899E+03  0.12817564107E+04  0.50400001928E-02 0.  1.
       -1    1    3    3    0  502  0.98484041202E+03  0.71321172953E+03 -0.56419846258E+03  0.13404855514E+04  0.50400001928E-02 0. -1.
</event>
<event>
 5   0  0.2529875E-07  0.2586374E+04  0.7818609E-02  0.8372844E-01
        1   -1    0    0  501    0  0.00000000000E+00  0.00000000000E+00  0.76496909250E+03  0.76496909252E+03  0.50400001928E-02 0.  1.
       -1   -1    0    0    0  501  0.00000000000E+00  0.00000000000E+00 -0.21861437542E+04  0.21861437542E+04  0.50400001928E-02 0. -1.
    10030    2    1    2    0    0  0.00000000000E+00  0.00000000000E+00 -0.14211746617E+04  0.29511128467E+04  0.25863738351E+04 0.  0.
        5    1    3    3  502    0 -0.23992093299E+03 -0.11438236833E+03 -0.21546310843E+04  0.21709681203E+04  0.46999998093E+01 0. -1.
       -5    1    3    3    0  502  0.23992093299E+03  0.11438236833E+03  0.73345642258E+03  0.78014472637E+03  0.46999998093E+01 0.  1.
</event>
<event>
 5   0  0.7638805E-07  0.3830447E+04  0.7818609E-02  0.8039652E-01
       -2   -1    0    0    0  501  0.00000000000E+00  0.00000000000E+00  0.14209349242E+04  0.14209349242E+04  0.25500000920E-02 0. -1.
        2   -1    0    0  501    0  0.00000000000E+00  0.00000000000E+00 -0.25814563779E+04  0.25814563779E+04  0.25500000920E-02 0.  1.
    10030    2    1    2    0    0  0.00000000000E+00  0.00000000000E+00 -0.11605214536E+04  0.40023913021E+04  0.38304472442E+04 0.  0.
        5    1    3    3  502    0 -0.86576811730E+03  0.29506733589E+03  0.11779614873E+04  0.14913867779E+04  0.46999998093E+01 0. -1.
       -5    1    3    3    0  502  0.86576811730E+03 -0.29506733589E+03 -0.23384829409E+04  0.25110045242E+04  0.46999998093E+01 0.  1.
</event>
<event>
 5   0  0.7649458E-07  0.3857808E+04  0.7818609E-02  0.8033862E-01
       -2   -1    0    0    0  501  0.00000000000E+00  0.00000000000E+00  0.32127198157E+04  0.32127198157E+04  0.25500000920E-02 0.  1.
        2   -1    0    0  501    0  0.00000000000E+00  0.00000000000E+00 -0.11581064128E+04  0.11581064128E+04  0.25500000920E-02 0. -1.
    10030    2    1    2    0    0  0.00000000000E+00  0.00000000000E+00  0.20546134029E+04  0.43708262285E+04  0.38578084043E+04 0.  0.
        4    1    3    3  502    0  0.29966444066E+03  0.93173336779E+03  0.29104926496E+04  0.30706505698E+04  0.12699999809E+01 0.  1.
       -4    1    3    3    0  502 -0.29966444066E+03 -0.93173336779E+03 -0.85587924666E+03  0.13001756587E+04  0.12699999809E+01 0. -1.
</event>
<event>
 5   0  0.2529875E-07  0.2945957E+04  0.7818609E-02  0.8259334E-01
        1   -1    0    0  501    0  0.00000000000E+00  0.00000000000E+00  0.15635952954E+04  0.15635952954E+04  0.50400001928E-02 0. -1.
       -1   -1    0    0    0  501  0.00000000000E+00  0.00000000000E+00 -0.13876133464E+04  0.13876133464E+04  0.50400001928E-02 0.  1.
    10030    2    1    2    0    0  0.00000000000E+00  0.00000000000E+00  0.17598194897E+03  0.29512086418E+04  0.29459570263E+04 0.  0.
        5    1    3    3  502    0 -0.90790459717E+02 -0.12168733921E+03 -0.13797463899E+04  0.13880824567E+04  0.46999998093E+01 0.  1.
       -5    1    3    3    0  502  0.90790459717E+02  0.12168733921E+03  0.15557283389E+04  0.15631261851E+04  0.46999998093E+01 0. -1.
</event>
<event>
 5   0  0.2529875E-07  0.3717469E+04  0.7818609E-02  0.8064101E-01
       -3   -1    0    0    0  501  0.00000000000E+00  0.00000000000E+00  0.24160958238E+04  0.24160958259E+04  0.10100000352E+00 0. -1.
        3   -1    0    0  501    0  0.00000000000E+00  0.00000000000E+00 -0.14299492845E+04  0.14299492880E+04  0.10100000352E+00 0.  1.
    10030    2    1    2    0    0  0.00000000000E+00  0.00000000000E+00  0.98614653931E+03  0.38460451139E+04  0.37174693034E+04 0.  0.
        5    1    3    3  502    0  0.66788574875E+03 -0.61377574037E+03 -0.11854082242E+04  0.14926509239E+04  0.46999998093E+01 0.  1.
       -5    1    3    3    0  502 -0.66788574875E+03  0.61377574037E+03  0.21715547635E+04  0.23533941900E+04  0.46999998093E+01 0. -1.
</event>
<event>
 5   0  0.7551495E-07  0.4015460E+04  0.7818609E-02  0.8001435E-01
       -2   -1    0    0    0  501  0.00000000000E+00  0.00000000000E+00  0.14000654217E+04  0.14000654217E+04  0.25500000920E-02 0.  1.
        2   -1    0    0  501    0  0.00000000000E+00  0.00000000000E+00 -0.28791365597E+04  0.28791365597E+04  0.25500000920E-02 0. -1.
    10030    2    1    2    0    0  0.00000000000E+00  0.00000000000E+00 -0.14790711380E+04  0.42792019813E+04  0.40154598947E+04 0.  0.
        1    1    3    3  502    0  0.51788470372E+03  0.82293206868E+03  0.11324148228E+04  0.14925766603E+04  0.50400001928E-02 0.  1.
       -1    1    3    3    0  502 -0.51788470372E+03 -0.82293206868E+03 -0.26114859608E+04  0.27866253210E+04  0.50400001928E-02 0. -1.
</event>
<event>
 5   0  0.7649458E-07  0.4252820E+04  0.7818609E-02  0.7955400E-01
       -2   -1    0    0    0  501  0.00000000000E+00  0.00000000000E+00  0.15078831923E+04  0.15078831923E+04  0.25500000920E-02 0. -1.
        2   -1    0    0  501    0  0.00000000000E+00  0.00000000000E+00 -0.29986542760E+04  0.29986542760E+04  0.25500000920E-02 0.  1.
    10030    2    1    2    0    0  0.00000000000E+00  0.00000000000E+00 -0.14907710837E+04  0.45065374683E+04  0.42528204206E+04 0.  0.
        4    1    3    3  502    0 -0.71308642463E+03  0.84200868022E+03 -0.26715602734E+04  0.28904509638E+04  0.12699999809E+01 0.  1.
       -4    1    3    3    0  502  0.71308642463E+03 -0.84200868022E+03  0.11807891898E+04  0.16160865045E+04  0.12699999809E+01 0. -1.
</event>
<event>
 5   0  0.7649458E-07  0.3790748E+04  0.7818609E-02  0.8048143E-01
        2   -1    0    0  501    0  0.00000000000E+00  0.00000000000E+00  0.27752538630E+04  0.27752538630E+04  0.25500000920E-02 0. -1.
       -2   -1    0    0    0  501  0.00000000000E+00  0.00000000000E+00 -0.12944552249E+04  0.12944552249E+04  0.25500000920E-02 0.  1.
    10030    2    1    2    0    0  0.00000000000E+00  0.00000000000E+00  0.14807986381E+04  0.40697090880E+04  0.37907476115E+04 0.  0.
        4    1    3    3  502    0 -0.11236180913E+04  0.18848369979E+03  0.23665947429E+04  0.26265597290E+04  0.12699999809E+01 0. -1.
       -4    1    3    3    0  502  0.11236180913E+04 -0.18848369979E+03 -0.88579610477E+03  0.14431493590E+04  0.12699999809E+01 0.  1.
</event>
<event>
 5   0  0.2529875E-07  0.3783222E+04  0.7818609E-02  0.8049765E-01
        1   -1    0    0  501    0  0.00000000000E+00  0.00000000000E+00  0.18423108195E+04  0.18423108195E+04  0.50400001928E-02 0. -1.
       -1   -1    0    0    0  501  0.00000000000E+00  0.00000000000E+00 -0.19422309490E+04  0.19422309490E+04  0.50400001928E-02 0.  1.
    10030    2    1    2    0    0  0.00000000000E+00  0.00000000000E+00 -0.99920129428E+02  0.37845417685E+04  0.37832224843E+04 0.  0.
        1    1    3    3  502    0 -0.17078176714E+04  0.21590102252E+03  0.73449362936E+03  0.18715596015E+04  0.50400001928E-02 0. -1.
       -1    1    3    3    0  502  0.17078176714E+04 -0.21590102252E+03 -0.83441375879E+03  0.19129821670E+04  0.50400001928E-02 0.  1.
</event>
<event>
 5   0  0.2529875E-07  0.3047812E+04  0.7818609E-02  0.8230208E-01
       -1   -1    0    0    0  501  0.00000000000E+00  0.00000000000E+00  0.12958781896E+04  0.12958781896E+04  0.50400001928E-02 0.  1.
        1   -1    0    0  501    0  0.00000000000E+00  0.00000000000E+00 -0.17920584428E+04  0.17920584428E+04  0.50400001928E-02 0. -1.
    10030    2    1    2    0    0  0.00000000000E+00  0.00000000000E+00 -0.49618025320E+03  0.30879366324E+04  0.30478119696E+04 0.  0.
        3    1    3    3  502    0 -0.14208535916E+03 -0.14787546290E+04  0.96066908767E+02  0.14886679829E+04  0.10100000352E+00 0.  1.
       -3    1    3    3    0  502  0.14208535916E+03  0.14787546290E+04 -0.59224716197E+03  0.15992686495E+04  0.10100000352E+00 0. -1.
</event>
<event>
 5   0  0.2529875E-07  0.3748887E+04  0.7818609E-02  0.8057214E-01
       -1   -1    0    0    0  501  0.00000000000E+00  0.00000000000E+00  0.24321272484E+04  0.24321272484E+04  0.50400001928E-02 0. -1.
        1   -1    0    0  501    0  0.00000000000E+00  0.00000000000E+00 -0.14446355560E+04  0.14446355560E+04  0.50400001928E-02 0.  1.
    10030    2    1    2    0    0  0.00000000000E+00  0.00000000000E+00  0.98749169245E+03  0.38767628044E+04  0.37488865012E+04 0.  0.
        3    1    3    3  502    0  0.12034839794E+04  0.12300752675E+04  0.12621105541E+04  0.21340997900E+04  0.10100000352E+00 0. -1.
       -3    1    3    3    0  502 -0.12034839794E+04 -0.12300752675E+04 -0.27461886165E+03  0.17426630144E+04  0.10100000352E+00 0.  1.
</event>
<event>
 5   0  0.7649458E-07  0.3669089E+04  0.7818609E-02  0.8074847E-01
       -2   -1    0    0    0  501  0.00000000000E+00  0.00000000000E+00  0.23101703945E+04  0.23101703945E+04  0.25500000920E-02 0. -1.
        2   -1    0    0  501    0  0.00000000000E+00  0.00000000000E+00 -0.14568418797E+04  0.14568418797E+04  0.25500000920E-02 0.  1.
    10030    2    1    2    0    0  0.00000000000E+00  0.00000000000E+00  0.85332851482E+03  0.37670122743E+04  0.36690887043E+04 0.  0.
        4    1    3    3  502    0  0.98579747813E+03 -0.14348050867E+04 -0.16765383320E+03  0.17488772757E+04  0.12699999809E+01 0.  1.
       -4    1    3    3    0  502 -0.98579747813E+03  0.14348050867E+04  0.10209823480E+04  0.20181349986E+04  0.12699999809E+01 0. -1.
</event>
<event>
 5   0  0.2529875E-07  0.3187570E+04  0.7818609E-02  0.8192108E-01
        1   -1    0    0  501    0  0.00000000000E+00  0.00000000000E+00  0.22231498379E+04  0.22231498379E+04  0.50400001928E-02 0.  1.
       -1   -1    0    0    0  501  0.00000000000E+00  0.00000000000E+00 -0.11425911529E+04  0.11425911529E+04  0.50400001928E-02 0. -1.
    10030    2    1    2    0    0  0.00000000000E+00  0.00000000000E+00  0.10805586850E+04  0.33657409908E+04  0.31875704455E+04 0.  0.
        4    1    3    3  502    0  0.27822853215E+03  0.15889491530E+03  0.21887924783E+04  0.22121195348E+04  0.12699999809E+01 0.  1.
       -4    1    3    3    0  502 -0.27822853215E+03 -0.15889491530E+03 -0.11082337933E+04  0.11536214560E+04  0.12699999809E+01 0. -1.
</event>
<event>
 5   0  0.7551495E-07  0.3260386E+04  0.7818609E-02  0.8173049E-01
       -2   -1    0    0    0  501  0.00000000000E+00  0.00000000000E+00  0.19028928100E+04  0.19028928100E+04  0.25500000920E-02 0.  1.
        2   -1    0    0  501    0  0.00000000000E+00  0.00000000000E+00 -0.13965733261E+04  0.13965733261E+04  0.25500000920E-02 0. -1.
    10030    2    1    2    0    0  0.00000000000E+00  0.00000000000E+00  0.50631948389E+03  0.32994661361E+04  0.32603860759E+04 0.  0.
        1    1    3    3  502    0  0.11077381448E+04  0.72383443441E+03 -0.71036033130E+03  0.15018761221E+04  0.50400001928E-02 0. -1.
       -1    1    3    3    0  502 -0.11077381448E+04 -0.72383443441E+03  0.12166798152E+04  0.17975900140E+04  0.50400001928E-02 0.  1.
</event>
<event>
 5   0  0.2529875E-07  0.3814955E+04  0.7818609E-02  0.8042953E-01
       -1   -1    0    0    0  501  0.00000000000E+00  0.00000000000E+00  0.18752957825E+04  0.18752957825E+04  0.50400001928E-02 0. -1.
        1   -1    0    0  501    0  0.00000000000E+00  0.00000000000E+00 -0.19402111234E+04  0.19402111234E+04  0.50400001928E-02 0.  1.
    10030    2    1    2    0    0  0.00000000000E+00  0.00000000000E+00 -0.64915340883E+02  0.38155069059E+04  0.38149546455E+04 0.  0.
        5    1    3    3  502    0  0.11687917387E+04  0.10920532840E+04  0.10068237120E+04  0.18900715808E+04  0.46999998093E+01 0. -1.
       -5    1    3    3    0  502 -0.11687917387E+04 -0.10920532840E+04 -0.10717390529E+04  0.19254353251E+04  0.46999998093E+01 0.  1.
</event>
<event>
 5   0  0.8421677E-07  0.3809940E+04  0.7818609E-02  0.8044025E-01
       -2   -1    0    0    0  501  0.00000000000E+00  0.00000000000E+00  0.14189560275E+04  0.14189560275E+04  0.25500000920E-02 0.  1.
        2   -1    0    0  501    0  0.00000000000E+00  0.00000000000E+00 -0.25574511472E+04  0.25574511472E+04  0.25500000920E-02 0. -1.
    10030    2    1    2    0    0  0.00000000000E+00  0.00000000000E+00 -0.11384951197E+04  0.39764071747E+04  0.38099400102E+04 0.  0.
        3    1    3    3  502    0 -0.15440849947E+04 -0.11023542002E+04 -0.74859109746E+03  0.20395518858E+04  0.10100000352E+00 0. -1.
       -3    1    3    3    0  502  0.15440849947E+04  0.11023542002E+04 -0.38990402227E+03  0.19368552889E+04  0.10100000352E+00 0.  1.
</event>
<event>
 5   0  0.7551495E-07  0.3705035E+04  0.7818609E-02  0.8066847E-01
       -2   -1    0    0    0  501  0.00000000000E+00  0.00000000000E+00  0.28482928942E+04  0.28482928942E+04  0.25500000920E-02 0.  1.
        2   -1    0    0  501    0  0.00000000000E+00  0.00000000000E+00 -0.12048691763E+04  0.12048691763E+04  0.25500000920E-02 0. -1.
    10030    2    1    2    0    0  0.00000000000E+00  0.00000000000E+00  0.16434237179E+04  0.40531620705E+04  0.37050345820E+04 0.  0.
        1    1    3    3  502    0 -0.53693035252E+02  0.89880903707E+03 -0.94938297481E+03  0.13084604159E+04  0.50400001928E-02 0. -1.
       -1    1    3    3    0  502  0.53693035252E+02 -0.89880903707E+03  0.25928066927E+04  0.27447016546E+04  0.50400001928E-02 0.  1.
</event>
<event>
 5   0  0.2529875E-07  0.3725806E+04  0.7818609E-02  0.8062267E-01
       -1   -1    0    0    0  501  0.00000000000E+00  0.00000000000E+00  0.22488674816E+04  0.22488674816E+04  0.50400001928E-02 0.  1.
        1   -1    0    0  501    0  0.00000000000E+00  0.00000000000E+00 -0.15431799654E+04  0.15431799654E+04  0.50400001928E-02 0. -1.
    10030    2    1    2    0    0  0.00000000000E+00  0.00000000000E+00  0.70568751621E+03  0.37920474470E+04  0.37258058148E+04 0.  0.
        5    1    3    3  502    0 -0.44118183807E+03 -0.19871785718E+03  0.21837871216E+04  0.22367562414E+04  0.46999998093E+01 0.  1.
       -5    1    3    3    0  502  0.44118183807E+03  0.19871785718E+03 -0.14780996054E+04  0.15552912056E+04  0.46999998093E+01 0. -1.
</event>
<event>
 5   0  0.2907071E-07  0.3372458E+04  0.7818609E-02  0.8144699E-01
        1   -1    0    0  501    0  0.00000000000E+00  0.00000000000E+00  0.27200895224E+04  0.27200895224E+04  0.50400001928E-02 0. -1.
       -1   -1    0    0    0  501  0.00000000000E+00  0.00000000000E+00 -0.10453218625E+04  0.10453218626E+04  0.50400001928E-02 0.  1.
    10030    2    1    2    0    0  0.00000000000E+00  0.00000000000E+00  0.16747676598E+04  0.37654113849E+04  0.33724584776E+04 0.  0.
        2    1    3    3  502    0  0.69084029201E+03 -0.13681249513E+04  0.16224024367E+04  0.22318637633E+04  0.25500000920E-02 0. -1.
       -2    1    3    3    0  502 -0.69084029201E+03  0.13681249513E+04  0.52365223159E+02  0.15335476217E+04  0.25500000920E-02 0.  1.
</event>
<event>
 5   0  0.8038352E-07  0.3791002E+04  0.7818609E-02  0.8048088E-01
       -2   -1    0    0    0  501  0.00000000000E+00  0.00000000000E+00  0.23278051983E+04  0.23278051983E+04  0.25500000920E-02 0. -1.
        2   -1    0    0  501    0  0.00000000000E+00  0.00000000000E+00 -0.15434817990E+04  0.15434817990E+04  0.25500000920E-02 0.  1.
    10030    2    1    2    0    0  0.00000000000E+00  0.00000000000E+00  0.78432339928E+03  0.38712869973E+04  0.37910024823E+04 0.  0.
        2    1    3    3  502    0 -0.10400769741E+04 -0.53132470766E+02 -0.12251534564E+04  0.16079751749E+04  0.25500000920E-02 0.  1.
       -2    1    3    3    0  502  0.10400769741E+04  0.53132470766E+02  0.20094768557E+04  0.22633118223E+04  0.25500000920E-02 0. -1.
</event>
<event>
 5   0  0.8038352E-07  0.3662492E+04  0.7818609E-02  0.8076325E-01
        2   -1    0    0  501    0  0.00000000000E+00  0.00000000000E+00  0.22933786096E+04  0.22933786096E+04  0.25500000920E-02 0.  1.
       -2   -1    0    0    0  501  0.00000000000E+00  0.00000000000E+00 -0.14622365470E+04  0.14622365470E+04  0.25500000920E-02 0. -1.
    10030    2    1    2    0    0  0.00000000000E+00  0.00000000000E+00  0.83114206261E+03  0.37556151566E+04  0.36624920582E+04 0.  0.
        2    1    3    3  502    0  0.14588948305E+04 -0.48997568148E+03 -0.60214142792E+03  0.16525811914E+04  0.25500000920E-02 0. -1.
       -2    1    3    3    0  502 -0.14588948305E+04  0.48997568148E+03  0.14332834905E+04  0.21030339653E+04  0.25500000920E-02 0.  1.
</event>
<event>
 5   0  0.2529875E-07  0.2887545E+04  0.7818609E-02  0.8276593E-01
       -1   -1    0    0    0  501  0.00000000000E+00  0.00000000000E+00  0.12691852878E+04  0.12691852878E+04  0.50400001928E-02 0. -1.
        1   -1    0    0  501    0  0.00000000000E+00  0.00000000000E+00 -0.16423755002E+04  0.16423755002E+04  0.50400001928E-02 0.  1.
    10030    2    1    2    0    0  0.00000000000E+00  0.00000000000E+00 -0.37319021240E+03  0.29115607880E+04  0.28875448547E+04 0.  0.
        3    1    3    3  502    0 -0.21453117373E+03 -0.12390780033E+04  0.52862864637E+03  0.13641063664E+04  0.10100000352E+00 0. -1.
       -3    1    3    3    0  502  0.21453117373E+03  0.12390780033E+04 -0.90181885877E+03  0.15474544217E+04  0.10100000352E+00 0.  1.
</event>
<event>
 5   0  0.2907071E-07  0.3792020E+04  0.7818609E-02  0.8047870E-01
        1   -1    0    0  501    0  0.00000000000E+00  0.00000000000E+00  0.16577091661E+04  0.16577091661E+04  0.50400001928E-02 0. -1.
       -1   -1    0    0    0  501  0.00000000000E+00  0.00000000000E+00 -0.21685667493E+04  0.21685667493E+04  0.50400001928E-02 0.  1.
    10030    2    1    2    0    0  0.00000000000E+00  0.00000000000E+00 -0.51085758320E+03  0.38262759154E+04  0.37920195029E+04 0.  0.
        2    1    3    3  502    0  0.52488948818E+03 -0.36889610203E+02  0.15825597962E+04  0.16677425841E+04  0.25500000920E-02 0. -1.
       -2    1    3    3    0  502 -0.52488948818E+03  0.36889610203E+02 -0.20934173794E+04  0.21585333313E+04  0.25500000920E-02 0.  1.
</event>
<event>
 5   0  0.7551495E-07  0.3756643E+04  0.7818609E-02  0.8055524E-01
       -2   -1    0    0    0  501  0.00000000000E+00  0.00000000000E+00  0.18976758501E+04  0.18976758501E+04  0.25500000920E-02 0. -1.
        2   -1    0    0  501    0  0.00000000000E+00  0.00000000000E+00 -0.18591643213E+04  0.18591643213E+04  0.25500000920E-02 0.  1.
    10030    2    1    2    0    0  0.00000000000E+00  0.00000000000E+00  0.38511528728E+02  0.37568401714E+04  0.37566427746E+04 0.  0.
        1    1    3    3  502    0  0.85730528689E+03  0.15338734141E+04  0.68288028717E+03  0.18852229290E+04  0.50400001928E-02 0. -1.
       -1    1    3    3    0  502 -0.85730528689E+03 -0.15338734141E+04 -0.64436875845E+03  0.18716172424E+04  0.50400001928E-02 0.  1.
</event>
<event>
 5   0  0.2529875E-07  0.2453439E+04  0.7818609E-02  0.8419764E-01
        1   -1    0    0  501    0  0.00000000000E+00  0.00000000000E+00  0.13086816545E+04  0.13086816545E+04  0.50400001928E-02 0.  1.
       -1   -1    0    0    0  501  0.00000000000E+00  0.00000000000E+00 -0.11498902228E+04  0.11498902228E+04  0.50400001928E-02 0. -1.
    10030    2    1    2    0    0  0.00000000000E+00  0.00000000000E+00  0.15879143176E+03  0.24585718773E+04  0.24534385986E+04 0.  0.
        4    1    3    3  502    0 -0.58943306616E+03  0.10746523691E+04  0.12979580300E+03  0.12325411219E+04  0.12699999809E+01 0. -1.
       -4    1    3    3    0  502  0.58943306616E+03 -0.10746523691E+04  0.28995628758E+02  0.12260307554E+04  0.12699999809E+01 0.  1.
</event>
<event>
 5   0  0.7551495E-07  0.3582836E+04  0.7818609E-02  0.8094435E-01
        2   -1    0    0  501    0  0.00000000000E+00  0.00000000000E+00  0.16023104790E+04  0.16023104790E+04  0.25500000920E-02 0. -1.
       -2   -1    0    0    0  501  0.00000000000E+00  0.00000000000E+00 -0.20028439954E+04  0.20028439954E+04  0.25500000920E-02 0.  1.
    10030    2    1    2    0    0  0.00000000000E+00  0.00000000000E+00 -0.40053351641E+03  0.36051544743E+04  0.35828357046E+04 0.  0.
        1    1    3    3  502    0 -0.17589948722E+04  0.17811213931E+03  0.90307170531E+02  0.17702944048E+04  0.50400001928E-02 0. -1.
       -1    1    3    3    0  502  0.17589948722E+04 -0.17811213931E+03 -0.49084068694E+03  0.18348600695E+04  0.50400001928E-02 0.  1.
</event>
<event>
 5   0  0.2529875E-07  0.2966064E+04  0.7818609E-02  0.8253488E-01
        1   -1    0    0  501    0  0.00000000000E+00  0.00000000000E+00  0.11103543258E+04  0.11103543258E+04  0.50400001928E-02 0. -1.
       -1   -1    0    0    0  501  0.00000000000E+00  0.00000000000E+00 -0.19807950387E+04  0.19807950387E+04  0.50400001928E-02 0.  1.
    10030    2    1    2    0    0  0.00000000000E+00  0.00000000000E+00 -0.87044071291E+03  0.30911493645E+04  0.29660642877E+04 0.  0.
        1    1    3    3  502    0  0.68645323629E+03 -0.79278793186E+03  0.65764681109E+03  0.12378328153E+04  0.50400001928E-02 0. -1.
       -1    1    3    3    0  502 -0.68645323629E+03  0.79278793186E+03 -0.15280875240E+04  0.18533165492E+04  0.50400001928E-02 0.  1.
</event>
<event>
 5   0  0.7649458E-07  0.3796468E+04  0.7818609E-02  0.8046913E-01
       -2   -1    0    0    0  501  0.00000000000E+00  0.00000000000E+00  0.12792024900E+04  0.12792024900E+04  0.25500000920E-02 0. -1.
        2   -1    0    0  501    0  0.00000000000E+00  0.00000000000E+00 -0.28168270804E+04  0.28168270804E+04  0.25500000920E-02 0.  1.
    10030    2    1    2    0    0  0.00000000000E+00  0.00000000000E+00 -0.15376245904E+04  0.40960295704E+04  0.37964679454E+04 0.  0.
        4    1    3    3  502    0 -0.13303729966E+04  0.56928254920E+03  0.55666833806E+03  0.15504374165E+04  0.12699999809E+01 0. -1.
       -4    1    3    3    0  502  0.13303729966E+04 -0.56928254920E+03 -0.20942929284E+04  0.25455921539E+04  0.12699999809E+01 0.  1.
</event>
<event>
 5   0  0.2529875E-07  0.3724546E+04  0.7818609E-02  0.8062544E-01
       -3   -1    0    0    0  501  0.00000000000E+00  0.00000000000E+00  0.13560395879E+04  0.13560395917E+04  0.10100000352E+00 0.  1.
        3   -1    0    0  501    0  0.00000000000E+00  0.00000000000E+00 -0.25574917183E+04  0.25574917203E+04  0.10100000352E+00 0. -1.
    10030    2    1    2    0    0  0.00000000000E+00  0.00000000000E+00 -0.12014521304E+04  0.39135313120E+04  0.37245456244E+04 0.  0.
        5    1    3    3  502    0  0.36304169205E+02  0.16593880794E+04  0.28660626749E+03  0.16843550793E+04  0.46999998093E+01 0.  1.
       -5    1    3    3    0  502 -0.36304169205E+02 -0.16593880794E+04 -0.14880583979E+04  0.22291762327E+04  0.46999998093E+01 0. -1.
</event>
<event>
 5   0  0.8421677E-07  0.3667556E+04  0.7818609E-02  0.8075190E-01
       -2   -1    0    0    0  501  0.00000000000E+00  0.00000000000E+00  0.14401640027E+04  0.14401640027E+04  0.25500000920E-02 0. -1.
        2   -1    0    0  501    0  0.00000000000E+00  0.00000000000E+00 -0.23349711610E+04  0.23349711610E+04  0.25500000920E-02 0.  1.
    10030    2    1    2    0    0  0.00000000000E+00  0.00000000000E+00 -0.89480715826E+03  0.37751351637E+04  0.36675558147E+04 0.  0.
        3    1    3    3  502    0  0.14951122632E+04  0.10609994750E+04 -0.48935236421E+03  0.18975105565E+04  0.10100000352E+00 0.  1.
       -3    1    3    3    0  502 -0.14951122632E+04 -0.10609994750E+04 -0.40545479405E+03  0.18776246072E+04  0.10100000352E+00 0. -1.
</event>
<event>
 5   0  0.8038352E-07  0.2837806E+04  0.7818609E-02  0.8291626E-01
        2   -1    0    0  501    0  0.00000000000E+00  0.00000000000E+00  0.13075202306E+04  0.13075202306E+04  0.25500000920E-02 0. -1.
       -2   -1    0    0    0  501  0.00000000000E+00  0.00000000000E+00 -0.15397744554E+04  0.15397744554E+04  0.25500000920E-02 0.  1.
    10030    2    1    2    0    0  0.00000000000E+00  0.00000000000E+00 -0.23225422487E+03  0.28472946860E+04  0.28378063718E+04 0.  0.
        2    1    3    3  502    0 -0.55528900614E+03  0.79639534453E+02  0.11915332251E+04  0.13169813068E+04  0.25500000920E-02 0. -1.
       -2    1    3    3    0  502  0.55528900614E+03 -0.79639534453E+02 -0.14237874500E+04  0.15303133792E+04  0.25500000920E-02 0.  1.
</event>
<event>
 5   0  0.7551495E-07  0.3749854E+04  0.7818609E-02  0.8057003E-01
       -2   -1    0    0    0  501  0.00000000000E+00  0.00000000000E+00  0.24463293280E+04  0.24463293280E+04  0.25500000920E-02 0. -1.
        2   -1    0    0  501    0  0.00000000000E+00  0.00000000000E+00 -0.14369900378E+04  0.14369900378E+04  0.25500000920E-02 0.  1.
    10030    2    1    2    0    0  0.00000000000E+00  0.00000000000E+00  0.10093392902E+04  0.38833193658E+04  0.37498537964E+04 0.  0.
        1    1    3    3  502    0  0.16742649404E+04 -0.76010651128E+03  0.88436056243E+03  0.20403476673E+04  0.50400001928E-02 0. -1.
       -1    1    3    3    0  502 -0.16742649404E+04  0.76010651128E+03  0.12497872779E+03  0.18429716985E+04  0.50400001928E-02 0.  1.
</event>
<event>
 5   0  0.2529875E-07  0.3794950E+04  0.7818609E-02  0.8047240E-01
       -1   -1    0    0    0  501  0.00000000000E+00  0.00000000000E+00  0.17476560612E+04  0.17476560612E+04  0.50400001928E-02 0. -1.
        1   -1    0    0  501    0  0.00000000000E+00  0.00000000000E+00 -0.20601368737E+04  0.20601368737E+04  0.50400001928E-02 0.  1.
    10030    2    1    2    0    0  0.00000000000E+00  0.00000000000E+00 -0.31248081249E+03  0.38077929349E+04  0.37949496409E+04 0.  0.
        4    1    3    3  502    0 -0.17968829417E+04 -0.59872083748E+03 -0.41160781809E+02  0.18944526308E+04  0.12699999809E+01 0.  1.
       -4    1    3    3    0  502  0.17968829417E+04  0.59872083748E+03 -0.27132003068E+03  0.19133403041E+04  0.12699999809E+01 0. -1.
</event>
<event>
 5   0  0.8038352E-07  0.3837795E+04  0.7818609E-02  0.8038092E-01
        2   -1    0    0  501    0  0.00000000000E+00  0.00000000000E+00  0.22501705598E+04  0.22501705598E+04  0.25500000920E-02 0.  1.
       -2   -1    0    0    0  501  0.00000000000E+00  0.00000000000E+00 -0.16363953057E+04  0.16363953057E+04  0.25500000920E-02 0. -1.
    10030    2    1    2    0    0  0.00000000000E+00  0.00000000000E+00  0.61377525402E+03  0.38865658655E+04  0.38377954824E+04 0.  0.
        2    1    3    3  502    0 -0.62577386200E+03  0.11990224617E+04  0.16854062175E+04  0.21609817001E+04  0.25500000920E-02 0.  1.
       -2    1    3    3    0  502  0.62577386200E+03 -0.11990224617E+04 -0.10716309635E+04  0.17255841654E+04  0.25500000920E-02 0. -1.
</event>
<event>
 5   0  0.2529875E-07  0.3824604E+04  0.7818609E-02  0.8040895E-01
        1   -1    0    0  501    0  0.00000000000E+00  0.00000000000E+00  0.19533477565E+04  0.19533477565E+04  0.50400001928E-02 0. -1.
       -1   -1    0    0    0  501  0.00000000000E+00  0.00000000000E+00 -0.18721188920E+04  0.18721188920E+04  0.50400001928E-02 0.  1.
    10030    2    1    2    0    0  0.00000000000E+00  0.00000000000E+00  0.81228864481E+02  0.38254666484E+04  0.38246041560E+04 0.  0.
        5    1    3    3  502    0 -0.13449430819E+04  0.13163041603E+04 -0.29909226783E+03  0.19055200893E+04  0.46999998093E+01 0.  1.
       -5    1    3    3    0  502  0.13449430819E+04 -0.13163041603E+04  0.38032113231E+03  0.19199465591E+04  0.46999998093E+01 0. -1.
</event>
<event>
 5   0  0.2529875E-07  0.3807004E+04  0.7818609E-02  0.8044654E-01
        1   -1    0    0  501    0  0.00000000000E+00  0.00000000000E+00  0.21513164037E+04  0.21513164038E+04  0.50400001928E-02 0.  1.
       -1   -1    0    0    0  501  0.00000000000E+00  0.00000000000E+00 -0.16842333866E+04  0.16842333866E+04  0.50400001928E-02 0. -1.
    10030    2    1    2    0    0  0.00000000000E+00  0.00000000000E+00  0.46708301714E+03  0.38355497904E+04  0.38070035001E+04 0.  0.
        4    1    3    3  502    0 -0.12518710551E+04  0.10144103378E+04  0.12546041068E+04  0.20421171734E+04  0.12699999809E+01 0.  1.
       -4    1    3    3    0  502  0.12518710551E+04 -0.10144103378E+04 -0.78752108968E+03  0.17934326170E+04  0.12699999809E+01 0. -1.
</event>
<event>
 5   0  0.2907071E-07  0.3873910E+04  0.7818609E-02  0.8030477E-01
        1   -1    0    0  501    0  0.00000000000E+00  0.00000000000E+00  0.26297557197E+04  0.26297557197E+04  0.50400001928E-02 0. -1.
       -1   -1    0    0    0  501  0.00000000000E+00  0.00000000000E+00 -0.14266704652E+04  0.14266704652E+04  0.50400001928E-02 0.  1.
    10030    2    1    2    0    0  0.00000000000E+00  0.00000000000E+00  0.12030852546E+04  0.40564261849E+04  0.38739100743E+04 0.  0.
        2    1    3    3  502    0  0.97049928898E+01  0.11058567295E+04  0.22666785768E+04  0.25220715818E+04  0.25500000920E-02 0. -1.
       -2    1    3    3    0  502 -0.97049928898E+01 -0.11058567295E+04 -0.10635933223E+04  0.15343546031E+04  0.25500000920E-02 0.  1.
</event>
<event>
 5   0  0.2529875E-07  0.3770983E+04  0.7818609E-02  0.8052411E-01
       -1   -1    0    0    0  501  0.00000000000E+00  0.00000000000E+00  0.22170050729E+04  0.22170050729E+04  0.50400001928E-02 0.  1.
        1   -1    0    0  501    0  0.00000000000E+00  0.00000000000E+00 -0.16035495405E+04  0.16035495405E+04  0.50400001928E-02 0. -1.
    10030    2    1    2    0    0  0.00000000000E+00  0.00000000000E+00  0.61345553240E+03  0.38205546134E+04  0.37709826125E+04 0.  0.
        5    1    3    3  502    0  0.16200516798E+03  0.62840749859E+03  0.21002856606E+04  0.21982637705E+04  0.46999998093E+01 0.  1.
       -5    1    3    3    0  502 -0.16200516798E+03 -0.62840749859E+03 -0.14868301282E+04  0.16222908429E+04  0.46999998093E+01 0. -1.
</event>
<event>
 5   0  0.7551495E-07  0.3762399E+04  0.7818609E-02  0.8054273E-01
        2   -1    0    0  501    0  0.00000000000E+00  0.00000000000E+00  0.12672223631E+04  0.12672223631E+04  0.25500000920E-02 0.  1.
       -2   -1    0    0    0  501  0.00000000000E+00  0.00000000000E+00 -0.27926518461E+04  0.27926518461E+04  0.25500000920E-02 0. -1.
    10030    2    1    2    0    0  0.00000000000E+00  0.00000000000E+00 -0.15254294831E+04  0.40598742092E+04  0.37623986347E+04 0.  0.
        1    1    3    3  502    0 -0.14148401173E+04  0.11167384875E+04 -0.13438427728E+04  0.22482861929E+04  0.50400001928E-02 0. -1.
       -1    1    3    3    0  502  0.14148401173E+04 -0.11167384875E+04 -0.18158671024E+03  0.18115880162E+04  0.50400001928E-02 0.  1.
</event>
<event>
 5   0  0.7649458E-07  0.3751039E+04  0.7818609E-02  0.8056744E-01
        2   -1    0    0  501    0  0.00000000000E+00  0.00000000000E+00  0.14073025836E+04  0.14073025836E+04  0.25500000920E-02 0. -1.
       -2   -1    0    0    0  501  0.00000000000E+00  0.00000000000E+00 -0.24995142788E+04  0.24995142788E+04  0.25500000920E-02 0.  1.
    10030    2    1    2    0    0  0.00000000000E+00  0.00000000000E+00 -0.10922116952E+04  0.39068168624E+04  0.37510387373E+04 0.  0.
        4    1    3    3  502    0  0.10610599501E+04  0.18936812320E+03  0.10525187840E+04  0.15064879380E+04  0.12699999809E+01 0. -1.
       -4    1    3    3    0  502 -0.10610599501E+04 -0.18936812320E+03 -0.21447304792E+04  0.24003289244E+04  0.12699999809E+01 0.  1.
</event>
<event>
 5   0  0.8421677E-07  0.2484402E+04  0.7818609E-02  0.8408563E-01
       -2   -1    0    0    0  501  0.00000000000E+00  0.00000000000E+00  0.92378840037E+03  0.92378840037E+03  0.25500000920E-02 0. -1.
        2   -1    0    0  501    0  0.00000000000E+00  0.00000000000E+00 -0.16703649947E+04  0.16703649947E+04  0.25500000920E-02 0.  1.
    10030    2    1    2    0    0  0.00000000000E+00  0.00000000000E+00 -0.74657659430E+03  0.25941533950E+04  0.24844023881E+04 0.  0.
        3    1    3    3  502    0 -0.69473400090E+03  0.30887091997E+03  0.65245572791E+03  0.10018757729E+04  0.10100000352E+00 0. -1.
       -3    1    3    3    0  502  0.69473400090E+03 -0.30887091997E+03 -0.13990323222E+04  0.15922776222E+04  0.10100000352E+00 0.  1.
</event>
<event>
 5   0  0.2907071E-07  0.3692094E+04  0.7818609E-02  0.8069716E-01
        1   -1    0    0  501    0  0.00000000000E+00  0.00000000000E+00  0.16723956877E+04  0.16723956877E+04  0.50400001928E-02 0. -1.
       -1   -1    0    0    0  501  0.00000000000E+00  0.00000000000E+00 -0.20377294862E+04  0.20377294862E+04  0.50400001928E-02 0.  1.
    10030    2    1    2    0    0  0.00000000000E+00  0.00000000000E+00 -0.36533379845E+03  0.37101251740E+04  0.36920942596E+04 0.  0.
        2    1    3    3  502    0  0.32343437997E+03 -0.10495151939E+04 -0.16737591909E+04  0.20018895497E+04  0.25500000920E-02 0.  1.
       -2    1    3    3    0  502 -0.32343437997E+03  0.10495151939E+04  0.13084253924E+04  0.17082356242E+04  0.25500000920E-02 0. -1.
</event>
<event>
 5   0  0.2907071E-07  0.3696083E+04  0.7818609E-02  0.8068830E-01
        1   -1    0    0  501    0  0.00000000000E+00  0.00000000000E+00  0.21430196863E+04  0.21430196863E+04  0.50400001928E-02 0. -1.
       -1   -1    0    0    0  501  0.00000000000E+00  0.00000000000E+00 -0.15936662849E+04  0.15936662849E+04  0.50400001928E-02 0.  1.
    10030    2    1    2    0    0  0.00000000000E+00  0.00000000000E+00  0.54935340136E+03  0.37366859712E+04  0.36960834525E+04 0.  0.
        2    1    3    3  502    0 -0.12221492757E+04  0.66604703520E+03  0.15037582134E+04  0.20490378887E+04  0.25500000920E-02 0. -1.
       -2    1    3    3    0  502  0.12221492757E+04 -0.66604703520E+03 -0.95440481202E+03  0.16876480825E+04  0.25500000920E-02 0.  1.
</event>
<event>
 5   0  0.2529875E-07  0.3097579E+04  0.7818609E-02  0.8216403E-01
        3   -1    0    0  501    0  0.00000000000E+00  0.00000000000E+00  0.15442100313E+04  0.15442100346E+04  0.10100000352E+00 0. -1.
       -3   -1    0    0    0  501  0.00000000000E+00  0.00000000000E+00 -0.15533828270E+04  0.15533828303E+04  0.10100000352E+00 0.  1.
    10030    2    1    2    0    0  0.00000000000E+00  0.00000000000E+00 -0.91727957626E+01  0.30975928649E+04  0.30975792833E+04 0.  0.
        5    1    3    3  502    0  0.12585108215E+04 -0.83610261512E+03  0.33572406172E+03  0.15477886827E+04  0.46999998093E+01 0. -1.
       -5    1    3    3    0  502 -0.12585108215E+04  0.83610261512E+03 -0.34489685748E+03  0.15498041822E+04  0.46999998093E+01 0.  1.
</event>
<event>
 5   0  0.2529875E-07  0.3894487E+04  0.7818609E-02  0.8026177E-01
        1   -1    0    0  501    0  0.00000000000E+00  0.00000000000E+00  0.18596731783E+04  0.18596731783E+04  0.50400001928E-02 0.  1.
       -1   -1    0    0    0  501  0.00000000000E+00  0.00000000000E+00 -0.20389379256E+04  0.20389379256E+04  0.50400001928E-02 0. -1.
    10030    2    1    2    0    0  0.00000000000E+00  0.00000000000E+00 -0.17926474736E+03  0.38986111039E+04  0.38944874746E+04 0.  0.
        4    1    3    3  502    0 -0.19908773441E+02  0.63691739557E+03  0.17523421191E+04  0.18646084423E+04  0.12699999809E+01 0.  1.
       -4    1    3    3    0  502  0.19908773441E+02 -0.63691739557E+03 -0.19316068664E+04  0.20340026616E+04  0.12699999809E+01 0. -1.
</event>
<event>
 5   0  0.2529875E-07  0.2845656E+04  0.7818609E-02  0.8289233E-01
       -1   -1    0    0    0  501  0.00000000000E+00  0.00000000000E+00  0.12919155292E+04  0.12919155292E+04  0.50400001928E-02 0. -1.
        1   -1    0    0  501    0  0.00000000000E+00  0.00000000000E+00 -0.15670056535E+04  0.15670056535E+04  0.50400001928E-02 0.  1.
    10030    2    1    2    0    0  0.00000000000E+00  0.00000000000E+00 -0.27509012435E+03  0.28589211827E+04  0.28456555928E+04 0.  0.
        3    1    3    3  502    0 -0.11769758454E+04 -0.13800513250E+03 -0.92869390108E+03  0.15055862411E+04  0.10100000352E+00 0.  1.
       -3    1    3    3    0  502  0.11769758454E+04  0.13800513250E+03  0.65360377672E+03  0.13533349417E+04  0.10100000352E+00 0. -1.
</event>
<event>
 5   0  0.7649458E-07  0.3853683E+04  0.7818609E-02  0.8034732E-01
        2   -1    0    0  501    0  0.00000000000E+00  0.00000000000E+00  0.20133719526E+04  0.20133719526E+04  0.25500000920E-02 0.  1.
       -2   -1    0    0    0  501  0.00000000000E+00  0.00000000000E+00 -0.18440296886E+04  0.18440296886E+04  0.25500000920E-02 0. -1.
    10030    2    1    2    0    0  0.00000000000E+00  0.00000000000E+00  0.16934226395E+03  0.38574016412E+04  0.38536827347E+04 0.  0.
        4    1    3    3  502    0 -0.17704675447E+04 -0.52617140999E+03  0.63411282711E+03  0.19528216432E+04  0.12699999809E+01 0.  1.
       -4    1    3    3    0  502  0.17704675447E+04  0.52617140999E+03 -0.46477056317E+03  0.19045799980E+04  0.12699999809E+01 0. -1.
</event>
<event>
 5   0  0.7638805E-07  0.3733596E+04  0.7818609E-02  0.8060557E-01
        2   -1    0    0  501    0  0.00000000000E+00  0.00000000000E+00  0.20784270008E+04  0.20784270008E+04  0.25500000920E-02 0.  1.
       -2   -1    0    0    0  501  0.00000000000E+00  0.00000000000E+00 -0.16767176374E+04  0.16767176374E+04  0.25500000920E-02 0. -1.
    10030    2    1    2    0    0  0.00000000000E+00  0.00000000000E+00  0.40170936343E+03  0.37551446382E+04  0.37335962343E+04 0.  0.
        5    1    3    3  502    0  0.15419804244E+04  0.75950443325E+03  0.93331774180E+03  0.19559280944E+04  0.46999998093E+01 0.  1.
       -5    1    3    3    0  502 -0.15419804244E+04 -0.75950443325E+03 -0.53160837837E+03  0.17992165438E+04  0.46999998093E+01 0. -1.
</event>
<event>
 5   0  0.2529875E-07  0.3756917E+04  0.7818609E-02  0.8055464E-01
        1   -1    0    0  501    0  0.00000000000E+00  0.00000000000E+00  0.20984678338E+04  0.20984678338E+04  0.50400001928E-02 0.  1.
       -1   -1    0    0    0  501  0.00000000000E+00  0.00000000000E+00 -0.16815157124E+04  0.16815157124E+04  0.50400001928E-02 0. -1.
    10030    2    1    2    0    0  0.00000000000E+00  0.00000000000E+00  0.41695212139E+03  0.37799835461E+04  0.37569171587E+04 0.  0.
        5    1    3    3  502    0  0.29017865943E+03  0.46739714040E+02 -0.16582307268E+04  0.16840841691E+04  0.46999998093E+01 0. -1.
       -5    1    3    3    0  502 -0.29017865943E+03 -0.46739714040E+02  0.20751828482E+04  0.20958993770E+04  0.46999998093E+01 0.  1.
</event>
<event>
 5   0  0.7551495E-07  0.3845043E+04  0.7818609E-02  0.8036557E-01
       -2   -1    0    0    0  501  0.00000000000E+00  0.00000000000E+00  0.13690969313E+04  0.13690969313E+04  0.25500000920E-02 0. -1.
        2   -1    0    0  501    0  0.00000000000E+00  0.00000000000E+00 -0.26996548335E+04  0.26996548335E+04  0.25500000920E-02 0.  1.
    10030    2    1    2    0    0  0.00000000000E+00  0.00000000000E+00 -0.13305579021E+04  0.40687517648E+04  0.38450431197E+04 0.  0.
        1    1    3    3  502    0  0.17981694799E+04  0.44068615829E+03 -0.11699065301E+03  0.18550753574E+04  0.50400001928E-02 0.  1.
       -1    1    3    3    0  502 -0.17981694799E+04 -0.44068615829E+03 -0.12135672491E+04  0.22136764074E+04  0.50400001928E-02 0. -1.
</event>
<event>
 5   0  0.8038352E-07  0.3816105E+04  0.7818609E-02  0.8042708E-01
        2   -1    0    0  501    0  0.00000000000E+00  0.00000000000E+00  0.11063054943E+04  0.11063054943E+04  0.25500000920E-02 0.  1.
       -2   -1    0    0    0  501  0.00000000000E+00  0.00000000000E+00 -0.32908309624E+04  0.32908309624E+04  0.25500000920E-02 0. -1.
    10030    2    1    2    0    0  0.00000000000E+00  0.00000000000E+00 -0.21845254681E+04  0.43971364568E+04  0.38161050167E+04 0.  0.
        2    1    3    3  502    0  0.14652777463E+04 -0.12220267501E+04 -0.10731157299E+04  0.21890558745E+04  0.25500000920E-02 0. -1.
       -2    1    3    3    0  502 -0.14652777463E+04  0.12220267501E+04 -0.11114097382E+04  0.22080805823E+04  0.25500000920E-02 0.  1.
</event>
<event>
 5   0  0.8038352E-07  0.3781715E+04  0.7818609E-02  0.8050090E-01
        2   -1    0    0  501    0  0.00000000000E+00  0.00000000000E+00  0.16838016584E+04  0.16838016584E+04  0.25500000920E-02 0.  1.
       -2   -1    0    0    0  501  0.00000000000E+00  0.00000000000E+00 -0.21233742995E+04  0.21233742995E+04  0.25500000920E-02 0. -1.
    10030    2    1    2    0    0  0.00000000000E+00  0.00000000000E+00 -0.43957264110E+03  0.38071759578E+04  0.37817145142E+04 0.  0.
        2    1    3    3  502    0 -0.56304451729E+03  0.18043521584E+04 -0.27146738398E+03  0.19095550216E+04  0.25500000920E-02 0. -1.
       -2    1    3    3    0  502  0.56304451729E+03 -0.18043521584E+04 -0.16810525712E+03  0.18976209362E+04  0.25500000920E-02 0.  1.
</event>
<event>
 5   0  0.3704020E-07  0.2343487E+04  0.7818609E-02  0.8460969E-01
       -1   -1    0    0    0  501  0.00000000000E+00  0.00000000000E+00  0.10152423590E+04  0.10152423591E+04  0.50400001928E-02 0. -1.
        1   -1    0    0  501    0  0.00000000000E+00  0.00000000000E+00 -0.13523696325E+04  0.13523696325E+04  0.50400001928E-02 0.  1.
    10030    2    1    2    0    0  0.00000000000E+00  0.00000000000E+00 -0.33712727346E+03  0.23676119916E+04  0.23434870907E+04 0.  0.
        4    1    3    3  502    0  0.69284764523E+03  0.42462068536E+03  0.68430724603E+03  0.10623646294E+04  0.12699999809E+01 0. -1.
       -4    1    3    3    0  502 -0.69284764523E+03 -0.42462068536E+03 -0.10214345195E+04  0.13052473622E+04  0.12699999809E+01 0.  1.
</event>
<event>
 5   0  0.2529875E-07  0.3781557E+04  0.7818609E-02  0.8050124E-01
        1   -1    0    0  501    0  0.00000000000E+00  0.00000000000E+00  0.22544806625E+04  0.22544806625E+04  0.50400001928E-02 0.  1.
       -1   -1    0    0    0  501  0.00000000000E+00  0.00000000000E+00 -0.15857506559E+04  0.15857506559E+04  0.50400001928E-02 0. -1.
    10030    2    1    2    0    0  0.00000000000E+00  0.00000000000E+00  0.66873000662E+03  0.38402313184E+04  0.37815574512E+04 0.  0.
        1    1    3    3  502    0 -0.17644478476E+04 -0.67062575801E+03  0.44574387045E+03  0.19395109467E+04  0.50400001928E-02 0. -1.
       -1    1    3    3    0  502  0.17644478476E+04  0.67062575801E+03  0.22298613617E+03  0.19007203717E+04  0.50400001928E-02 0.  1.
</event>
<event>
 5   0  0.7638805E-07  0.3807182E+04  0.7818609E-02  0.8044615E-01
       -2   -1    0    0    0  501  0.00000000000E+00  0.00000000000E+00  0.17946328490E+04  0.17946328490E+04  0.25500000920E-02 0.  1.
        2   -1    0    0  501    0  0.00000000000E+00  0.00000000000E+00 -0.20191648117E+04  0.20191648117E+04  0.25500000920E-02 0. -1.
    10030    2    1    2    0    0  0.00000000000E+00  0.00000000000E+00 -0.22453196262E+03  0.38137976607E+04  0.38071824220E+04 0.  0.
        5    1    3    3  502    0  0.12888006766E+04 -0.47282096359E+03  0.12087636620E+04  0.18291250718E+04  0.46999998093E+01 0.  1.
       -5    1    3    3    0  502 -0.12888006766E+04  0.47282096359E+03 -0.14332956246E+04  0.19846725889E+04  0.46999998093E+01 0. -1.
</event>
<event>
 5   0  0.2529875E-07  0.2653120E+04  0.7818609E-02  0.8350378E-01
       -1   -1    0    0    0  501  0.00000000000E+00  0.00000000000E+00  0.87519655546E+03  0.87519655547E+03  0.50400001928E-02 0.  1.
        1   -1    0    0  501    0  0.00000000000E+00  0.00000000000E+00 -0.20107040665E+04  0.20107040665E+04  0.50400001928E-02 0. -1.
    10030    2    1    2    0    0  0.00000000000E+00  0.00000000000E+00 -0.11355075110E+04  0.28859006219E+04  0.26531198790E+04 0.  0.
        5    1    3    3  502    0 -0.10967802063E+03 -0.48645648791E+03  0.76935517623E+03  0.91684167665E+03  0.46999998093E+01 0.  1.
       -5    1    3    3    0  502  0.10967802063E+03  0.48645648791E+03 -0.19048626872E+04  0.19690589453E+04  0.46999998093E+01 0. -1.
</event>
<event>
 5   0  0.8038352E-07  0.3761898E+04  0.7818609E-02  0.8054381E-01
       -2   -1    0    0    0  501  0.00000000000E+00  0.00000000000E+00  0.18320333697E+04  0.18320333697E+04  0.25500000920E-02 0. -1.
        2   -1    0    0  501    0  0.00000000000E+00  0.00000000000E+00 -0.19311708581E+04  0.19311708581E+04  0.25500000920E-02 0.  1.
    10030    2    1    2    0    0  0.00000000000E+00  0.00000000000E+00 -0.99137488332E+02  0.37632042278E+04  0.37618981669E+04 0.  0.
        2    1    3    3  502    0 -0.18531908177E+03 -0.10815734841E+04 -0.15777853170E+04  0.19218613035E+04  0.25500000920E-02 0.  1.
       -2    1    3    3    0  502  0.18531908177E+03  0.10815734841E+04  0.14786478286E+04  0.18413429242E+04  0.25500000920E-02 0. -1.
</event>
<event>
 5   0  0.7649458E-07  0.3485389E+04  0.7818609E-02  0.8117261E-01
        2   -1    0    0  501    0  0.00000000000E+00  0.00000000000E+00  0.19795517850E+04  0.19795517850E+04  0.25500000920E-02 0.  1.
       -2   -1    0    0    0  501  0.00000000000E+00  0.00000000000E+00 -0.15341775993E+04  0.15341775993E+04  0.25500000920E-02 0. -1.
    10030    2    1    2    0    0  0.00000000000E+00  0.00000000000E+00  0.44537418574E+03  0.35137293844E+04  0.34853889340E+04 0.  0.
        4    1    3    3  502    0 -0.45174165034E+03  0.98226558932E+03 -0.11551986047E+04  0.15822141561E+04  0.12699999809E+01 0. -1.
       -4    1    3    3    0  502  0.45174165034E+03 -0.98226558932E+03  0.16005727904E+04  0.19315152283E+04  0.12699999809E+01 0.  1.
</event>
<event>
 5   0  0.2529875E-07  0.3025968E+04  0.7818609E-02  0.8236354E-01
       -1   -1    0    0    0  501  0.00000000000E+00  0.00000000000E+00  0.86901385408E+03  0.86901385410E+03  0.50400001928E-02 0. -1.
        1   -1    0    0  501    0  0.00000000000E+00  0.00000000000E+00 -0.26341582081E+04  0.26341582081E+04  0.50400001928E-02 0.  1.
    10030    2    1    2    0    0  0.00000000000E+00  0.00000000000E+00 -0.17651443540E+04  0.35031720622E+04  0.30259675984E+04 0.  0.
        4    1    3    3  502    0 -0.58109667232E+03  0.19786468076E+03  0.71836611887E+03  0.94492077346E+03  0.12699999809E+01 0. -1.
       -4    1    3    3    0  502  0.58109667232E+03 -0.19786468076E+03 -0.24835104729E+04  0.25582512887E+04  0.12699999809E+01 0.  1.
</event>
<event>
 5   0  0.7638805E-07  0.3489882E+04  0.7818609E-02  0.8116192E-01
       -2   -1    0    0    0  501  0.00000000000E+00  0.00000000000E+00  0.13131167884E+04  0.13131167884E+04  0.25500000920E-02 0. -1.
        2   -1    0    0  501    0  0.00000000000E+00  0.00000000000E+00 -0.23187729258E+04  0.23187729258E+04  0.25500000920E-02 0.  1.
    10030    2    1    2    0    0  0.00000000000E+00  0.00000000000E+00 -0.10056561374E+04  0.36318897142E+04  0.34898823231E+04 0.  0.
        5    1    3    3  502    0 -0.17353069942E+02  0.13462609529E+03  0.13076073711E+04  0.13146423246E+04  0.46999998093E+01 0. -1.
       -5    1    3    3    0  502  0.17353069942E+02 -0.13462609529E+03 -0.23132635085E+04  0.23172473896E+04  0.46999998093E+01 0.  1.
</event>
<event>
 5   0  0.8421677E-07  0.3925018E+04  0.7818609E-02  0.8019846E-01
       -2   -1    0    0    0  501  0.00000000000E+00  0.00000000000E+00  0.29394657489E+04  0.29394657489E+04  0.25500000920E-02 0. -1.
        2   -1    0    0  501    0  0.00000000000E+00  0.00000000000E+00 -0.13102520946E+04  0.13102520946E+04  0.25500000920E-02 0.  1.
    10030    2    1    2    0    0  0.00000000000E+00  0.00000000000E+00  0.16292136543E+04  0.42497178435E+04  0.39250177857E+04 0.  0.
        3    1    3    3  502    0  0.18149758399E+04  0.57248670129E+03  0.13333701275E+04  0.23237371258E+04  0.10100000352E+00 0. -1.
       -3    1    3    3    0  502 -0.18149758399E+04 -0.57248670129E+03  0.29584352678E+03  0.19259807177E+04  0.10100000352E+00 0.  1.
</event>
<event>
 5   0  0.7649458E-07  0.3833348E+04  0.7818609E-02  0.8039036E-01
       -2   -1    0    0    0  501  0.00000000000E+00  0.00000000000E+00  0.20517517185E+04  0.20517517185E+04  0.25500000920E-02 0.  1.
        2   -1    0    0  501    0  0.00000000000E+00  0.00000000000E+00 -0.17904892908E+04  0.17904892908E+04  0.25500000920E-02 0. -1.
    10030    2    1    2    0    0  0.00000000000E+00  0.00000000000E+00  0.26126242769E+03  0.38422410092E+04  0.38333481341E+04 0.  0.
        4    1    3    3  502    0  0.71671842507E+03 -0.76875682848E+03  0.17371487736E+04  0.20303595338E+04  0.12699999809E+01 0.  1.
       -4    1    3    3    0  502 -0.71671842507E+03  0.76875682848E+03 -0.14758863459E+04  0.18118814754E+04  0.12699999809E+01 0. -1.
</event>
<event>
 5   0  0.2907071E-07  0.3787791E+04  0.7818609E-02  0.8048780E-01
       -1   -1    0    0    0  501  0.00000000000E+00  0.00000000000E+00  0.25975471686E+04  0.25975471686E+04  0.50400001928E-02 0.  1.
        1   -1    0    0  501    0  0.00000000000E+00  0.00000000000E+00 -0.13808568287E+04  0.13808568288E+04  0.50400001928E-02 0. -1.
    10030    2    1    2    0    0  0.00000000000E+00  0.00000000000E+00  0.12166903398E+04  0.39784039973E+04  0.37877913067E+04 0.  0.
        2    1    3    3  502    0  0.16951292319E+04  0.79013421810E+03  0.29488835425E+03  0.18933394669E+04  0.25500000920E-02 0. -1.
       -2    1    3    3    0  502 -0.16951292319E+04 -0.79013421810E+03  0.92180198557E+03  0.20850645304E+04  0.25500000920E-02 0.  1.
</event>
<event>
 5   0  0.8421677E-07  0.3894008E+04  0.7818609E-02  0.8026277E-01
       -2   -1    0    0    0  501  0.00000000000E+00  0.00000000000E+00  0.22292823442E+04  0.22292823442E+04  0.25500000920E-02 0. -1.
        2   -1    0    0  501    0  0.00000000000E+00  0.00000000000E+00 -0.17004685446E+04  0.17004685446E+04  0.25500000920E-02 0.  1.
    10030    2    1    2    0    0  0.00000000000E+00  0.00000000000E+00  0.52881379960E+03  0.39297508888E+04  0.38940079627E+04 0.  0.
        3    1    3    3  502    0  0.12900315650E+04 -0.12650743026E+04 -0.46766883710E+03  0.18663623928E+04  0.10100000352E+00 0.  1.
       -3    1    3    3    0  502 -0.12900315650E+04  0.12650743026E+04  0.99648263670E+03  0.20633884960E+04  0.10100000352E+00 0. -1.
</event>
<event>
 5   0  0.2529875E-07  0.3688708E+04  0.7818609E-02  0.8070469E-01
       -1   -1    0    0    0  501  0.00000000000E+00  0.00000000000E+00  0.17162761529E+04  0.17162761529E+04  0.50400001928E-02 0. -1.
        1   -1    0    0  501    0  0.00000000000E+00  0.00000000000E+00 -0.19819902270E+04  0.19819902271E+04  0.50400001928E-02 0.  1.
    10030    2    1    2    0    0  0.00000000000E+00  0.00000000000E+00 -0.26571407416E+03  0.36982663799E+04  0.36887084796E+04 0.  0.
        5    1    3    3  502    0  0.62458156948E+03 -0.15074053141E+04  0.72916586346E+03  0.17871983282E+04  0.46999998093E+01 0. -1.
       -5    1    3    3    0  502 -0.62458156948E+03  0.15074053141E+04 -0.99487993762E+03  0.19110680517E+04  0.46999998093E+01 0.  1.
</event>
<event>
 5   0  0.7649458E-07  0.3783487E+04  0.7818609E-02  0.8049708E-01
       -2   -1    0    0    0  501  0.00000000000E+00  0.00000000000E+00  0.27765038118E+04  0.27765038118E+04  0.25500000920E-02 0.  1.
        2   -1    0    0  501    0  0.00000000000E+00  0.00000000000E+00 -0.12889205119E+04  0.12889205119E+04  0.25500000920E-02 0. -1.
    10030    2    1    2    0    0  0.00000000000E+00  0.00000000000E+00  0.14875832999E+04  0.40654243237E+04  0.37834866006E+04 0.  0.
        4    1    3    3  502    0 -0.76749113340E+03 -0.44228253856E+03 -0.10523044603E+04  0.13755009174E+04  0.12699999809E+01 0. -1.
       -4    1    3    3    0  502  0.76749113340E+03  0.44228253856E+03  0.25398877603E+04  0.26899234062E+04  0.12699999809E+01 0.  1.
</event>
<event>
 5   0  0.2529875E-07  0.2534170E+04  0.7818609E-02  0.8390912E-01
        1   -1    0    0  501    0  0.00000000000E+00  0.00000000000E+00  0.16045436329E+04  0.16045436329E+04  0.50400001928E-02 0. -1.
       -1   -1    0    0    0  501  0.00000000000E+00  0.00000000000E+00 -0.10005988678E+04  0.10005988678E+04  0.50400001928E-02 0.  1.
    10030    2    1    2    0    0  0.00000000000E+00  0.00000000000E+00  0.60394476509E+03  0.26051425007E+04  0.25341701146E+04 0.  0.
        1    1    3    3  502    0 -0.17272048974E+03  0.54236799397E+02  0.15911800501E+04  0.16014455813E+04  0.50400001928E-02 0. -1.
       -1    1    3    3    0  502  0.17272048974E+03 -0.54236799397E+02 -0.98723528501E+03  0.10036969194E+04  0.50400001928E-02 0.  1.
</event>
<event>
 5   0  0.7638805E-07  0.3745895E+04  0.7818609E-02  0.8057866E-01
        2   -1    0    0  501    0  0.00000000000E+00  0.00000000000E+00  0.16164258586E+04  0.16164258586E+04  0.25500000920E-02 0. -1.
       -2   -1    0    0    0  501  0.00000000000E+00  0.00000000000E+00 -0.21701784657E+04  0.21701784657E+04  0.25500000920E-02 0.  1.
    10030    2    1    2    0    0  0.00000000000E+00  0.00000000000E+00 -0.55375260705E+03  0.37866043243E+04  0.37458951346E+04 0.  0.
        5    1    3    3  502    0  0.10074410696E+04 -0.63070129181E+03  0.11863311361E+04  0.16793228644E+04  0.46999998093E+01 0. -1.
       -5    1    3    3    0  502 -0.10074410696E+04  0.63070129181E+03 -0.17400837432E+04  0.21072814600E+04  0.46999998093E+01 0.  1.
</event>
<event>
 5   0  0.2529875E-07  0.3749689E+04  0.7818609E-02  0.8057039E-01
       -1   -1    0    0    0  501  0.00000000000E+00  0.00000000000E+00  0.21059033742E+04  0.21059033742E+04  0.50400001928E-02 0. -1.
        1   -1    0    0  501    0  0.00000000000E+00  0.00000000000E+00 -0.16691371616E+04  0.16691371616E+04  0.50400001928E-02 0.  1.
    10030    2    1    2    0    0  0.00000000000E+00  0.00000000000E+00  0.43676621260E+03  0.37750405358E+04  0.37496888301E+04 0.  0.
        5    1    3    3  502    0 -0.67432981667E+03  0.12848138123E+04 -0.97688954019E+03  0.17492291153E+04  0.46999998093E+01 0.  1.
       -5    1    3    3    0  502  0.67432981667E+03 -0.12848138123E+04  0.14136557528E+04  0.20258114205E+04  0.46999998093E+01 0. -1.
</event>
<event>
 5   0  0.2529875E-07  0.3735124E+04  0.7818609E-02  0.8060222E-01
       -1   -1    0    0    0  501  0.00000000000E+00  0.00000000000E+00  0.17351826768E+04  0.17351826768E+04  0.50400001928E-02 0.  1.
        1   -1    0    0  501    0  0.00000000000E+00  0.00000000000E+00 -0.20100408441E+04  0.20100408441E+04  0.50400001928E-02 0. -1.
    10030    2    1    2    0    0  0.00000000000E+00  0.00000000000E+00 -0.27485816732E+03  0.37452235209E+04  0.37351241223E+04 0.  0.
        5    1    3    3  502    0  0.84969579269E+03 -0.43066316142E+03 -0.17481074923E+04  0.19908178203E+04  0.46999998093E+01 0. -1.
       -5    1    3    3    0  502 -0.84969579269E+03  0.43066316142E+03  0.14732493250E+04  0.17544057006E+04  0.46999998093E+01 0.  1.
</event>
<event>
 5   0  0.7638805E-07  0.3736495E+04  0.7818609E-02  0.8059922E-01
       -2   -1    0    0    0  501  0.00000000000E+00  0.00000000000E+00  0.21006250175E+04  0.21006250175E+04  0.25500000920E-02 0.  1.
        2   -1    0    0  501    0  0.00000000000E+00  0.00000000000E+00 -0.16615759401E+04  0.16615759401E+04  0.25500000920E-02 0. -1.
    10030    2    1    2    0    0  0.00000000000E+00  0.00000000000E+00  0.43904907739E+03  0.37622009575E+04  0.37364946076E+04 0.  0.
        5    1    3    3  502    0  0.15025792243E+04 -0.93213662050E+03  0.82675144633E+03  0.19519638953E+04  0.46999998093E+01 0. -1.
       -5    1    3    3    0  502 -0.15025792243E+04  0.93213662050E+03 -0.38770236894E+03  0.18102370622E+04  0.46999998093E+01 0.  1.
</event>
<event>
 5   0  0.2529875E-07  0.3790499E+04  0.7818609E-02  0.8048197E-01
       -1   -1    0    0    0  501  0.00000000000E+00  0.00000000000E+00  0.22494568079E+04  0.22494568079E+04  0.50400001928E-02 0. -1.
        1   -1    0    0  501    0  0.00000000000E+00  0.00000000000E+00 -0.15968169344E+04  0.15968169344E+04  0.50400001928E-02 0.  1.
    10030    2    1    2    0    0  0.00000000000E+00  0.00000000000E+00  0.65263987352E+03  0.38462737423E+04  0.37904990300E+04 0.  0.
        4    1    3    3  502    0  0.46258185828E+03 -0.58345080623E+03  0.20948282741E+04  0.22232192717E+04  0.12699999809E+01 0. -1.
       -4    1    3    3    0  502 -0.46258185828E+03  0.58345080623E+03 -0.14421884006E+04  0.16230544706E+04  0.12699999809E+01 0.  1.
</event>
<event>
 5   0  0.2529875E-07  0.2656565E+04  0.7818609E-02  0.8349237E-01
       -1   -1    0    0    0  501  0.00000000000E+00  0.00000000000E+00  0.10708113049E+04  0.10708113049E+04  0.50400001928E-02 0.  1.
        1   -1    0    0  501    0  0.00000000000E+00  0.00000000000E+00 -0.16476612144E+04  0.16476612144E+04  0.50400001928E-02 0. -1.
    10030    2    1    2    0    0  0.00000000000E+00  0.00000000000E+00 -0.57684990946E+03  0.27184725193E+04  0.26565648910E+04 0.  0.
        4    1    3    3  502    0  0.73003139314E+03  0.10771701313E+04 -0.15581969162E+02  0.13013399777E+04  0.12699999809E+01 0.  1.
       -4    1    3    3    0  502 -0.73003139314E+03 -0.10771701313E+04 -0.56126794030E+03  0.14171325416E+04  0.12699999809E+01 0. -1.
</event>
<event>
 5   0  0.2529875E-07  0.3775863E+04  0.7818609E-02  0.8051355E-01
        1   -1    0    0  501    0  0.00000000000E+00  0.00000000000E+00  0.14436256883E+04  0.14436256883E+04  0.50400001928E-02 0. -1.
       -1   -1    0    0    0  501  0.00000000000E+00  0.00000000000E+00 -0.24689811236E+04  0.24689811236E+04  0.50400001928E-02 0.  1.
    10030    2    1    2    0    0  0.00000000000E+00  0.00000000000E+00 -0.10253554353E+04  0.39126068119E+04  0.37758625896E+04 0.  0.
        5    1    3    3  502    0 -0.13302706542E+04  0.70818332381E+02  0.87353958580E+03  0.15930250304E+04  0.46999998093E+01 0. -1.
       -5    1    3    3    0  502  0.13302706542E+04 -0.70818332381E+02 -0.18988950211E+04  0.23195817815E+04  0.46999998093E+01 0.  1.
</event>
<event>
 5   0  0.2529875E-07  0.3802119E+04  0.7818609E-02  0.8045700E-01
       -1   -1    0    0    0  501  0.00000000000E+00  0.00000000000E+00  0.17508545999E+04  0.17508545999E+04  0.50400001928E-02 0.  1.
        1   -1    0    0  501    0  0.00000000000E+00  0.00000000000E+00 -0.20641505245E+04  0.20641505245E+04  0.50400001928E-02 0. -1.
    10030    2    1    2    0    0  0.00000000000E+00  0.00000000000E+00 -0.31329592458E+03  0.38150051244E+04  0.38021191148E+04 0.  0.
        4    1    3    3  502    0  0.89882456233E+03  0.98452076915E+03  0.12032531465E+04  0.17958247371E+04  0.12699999809E+01 0.  1.
       -4    1    3    3    0  502 -0.89882456233E+03 -0.98452076915E+03 -0.15165490711E+04  0.20191803874E+04  0.12699999809E+01 0. -1.
</event>
<event>
 5   0  0.2529875E-07  0.3796381E+04  0.7818609E-02  0.8046932E-01
       -1   -1    0    0    0  501  0.00000000000E+00  0.00000000000E+00  0.10614492793E+04  0.10614492793E+04  0.50400001928E-02 0. -1.
        1   -1    0    0  501    0  0.00000000000E+00  0.00000000000E+00 -0.33945356013E+04  0.33945356013E+04  0.50400001928E-02 0.  1.
    10030    2    1    2    0    0  0.00000000000E+00  0.00000000000E+00 -0.23330863220E+04  0.44559848805E+04  0.37963811018E+04 0.  0.
        4    1    3    3  502    0  0.83548458632E+03  0.10798312937E+04 -0.27143994785E+04  0.30384266091E+04  0.12699999809E+01 0.  1.
       -4    1    3    3    0  502 -0.83548458632E+03 -0.10798312937E+04  0.38131315654E+03  0.14175582715E+04  0.12699999809E+01 0. -1.
</event>
<event>
 5   0  0.2529875E-07  0.3715999E+04  0.7818609E-02  0.8064426E-01
       -1   -1    0    0    0  501  0.00000000000E+00  0.00000000000E+00  0.13501633834E+04  0.13501633834E+04  0.50400001928E-02 0. -1.
        1   -1    0    0  501    0  0.00000000000E+00  0.00000000000E+00 -0.25568470706E+04  0.25568470706E+04  0.50400001928E-02 0.  1.
    10030    2    1    2    0    0  0.00000000000E+00  0.00000000000E+00 -0.12066836872E+04  0.39070104540E+04  0.37159985424E+04 0.  0.
        4    1    3    3  502    0 -0.15953814401E+04 -0.17037045515E+03  0.38177897430E+03  0.16492497778E+04  0.12699999809E+01 0. -1.
       -4    1    3    3    0  502  0.15953814401E+04  0.17037045515E+03 -0.15884626615E+04  0.22577606763E+04  0.12699999809E+01 0.  1.
</event>
<event>
 5   0  0.2529875E-07  0.2953713E+04  0.7818609E-02  0.8257073E-01
        1   -1    0    0  501    0  0.00000000000E+00  0.00000000000E+00  0.32900901981E+04  0.32900901981E+04  0.50400001928E-02 0.  1.
       -1   -1    0    0    0  501  0.00000000000E+00  0.00000000000E+00 -0.66293161168E+03  0.66293161170E+03  0.50400001928E-02 0. -1.
    10030    2    1    2    0    0  0.00000000000E+00  0.00000000000E+00  0.26271585864E+04  0.39530218098E+04  0.29537127806E+04 0.  0.
        1    1    3    3  502    0  0.16347322159E+03  0.47290913426E+03  0.31731926163E+04  0.32124006480E+04  0.50400001928E-02 0.  1.
       -1    1    3    3    0  502 -0.16347322159E+03 -0.47290913426E+03 -0.54603402987E+03  0.74062116176E+03  0.50400001928E-02 0. -1.
</event>
<event>
 5   0  0.8038352E-07  0.3731597E+04  0.7818609E-02  0.8060995E-01
       -2   -1    0    0    0  501  0.00000000000E+00  0.00000000000E+00  0.13787841949E+04  0.13787841949E+04  0.25500000920E-02 0.  1.
        2   -1    0    0  501    0  0.00000000000E+00  0.00000000000E+00 -0.25248354918E+04  0.25248354918E+04  0.25500000920E-02 0. -1.
    10030    2    1    2    0    0  0.00000000000E+00  0.00000000000E+00 -0.11460512969E+04  0.39036196867E+04  0.37315965863E+04 0.  0.
        2    1    3    3  502    0  0.17305150956E+04  0.44079709761E+03 -0.75332000302E+01  0.17857887127E+04  0.25500000920E-02 0.  1.
       -2    1    3    3    0  502 -0.17305150956E+04 -0.44079709761E+03 -0.11385180969E+04  0.21178309740E+04  0.25500000920E-02 0. -1.
</event>
<event>
 5   0  0.2529875E-07  0.3272413E+04  0.7818609E-02  0.8169951E-01
        1   -1    0    0  501    0  0.00000000000E+00  0.00000000000E+00  0.29090654878E+04  0.29090654878E+04  0.50400001928E-02 0.  1.
       -1   -1    0    0    0  501  0.00000000000E+00  0.00000000000E+00 -0.92028555123E+03  0.92028555124E+03  0.50400001928E-02 0. -1.
    10030    2    1    2    0    0  0.00000000000E+00  0.00000000000E+00  0.19887799366E+04  0.38293510390E+04  0.32724125266E+04 0.  0.
        1    1    3    3  502    0 -0.22723169186E+03  0.10817222439E+04 -0.41733585967E+03  0.11814933239E+04  0.50400001928E-02 0.  1.
       -1    1    3    3    0  502  0.22723169186E+03 -0.10817222439E+04  0.24061157962E+04  0.26478577151E+04  0.50400001928E-02 0. -1.
</event>
<event>
 5   0  0.2529875E-07  0.3808898E+04  0.7818609E-02  0.8044248E-01
       -1   -1    0    0    0  501  0.00000000000E+00  0.00000000000E+00  0.20379646349E+04  0.20379646349E+04  0.50400001928E-02 0.  1.
        1   -1    0    0  501    0  0.00000000000E+00  0.00000000000E+00 -0.17796804278E+04  0.17796804278E+04  0.50400001928E-02 0. -1.
    10030    2    1    2    0    0  0.00000000000E+00  0.00000000000E+00  0.25828420709E+03  0.38176450627E+04  0.38088978843E+04 0.  0.
        1    1    3    3  502    0  0.13908833762E+04 -0.52824604772E+03  0.13207058702E+04  0.19894382244E+04  0.50400001928E-02 0.  1.
       -1    1    3    3    0  502 -0.13908833762E+04  0.52824604772E+03 -0.10624216631E+04  0.18282068383E+04  0.50400001928E-02 0. -1.
</event>
<event>
 5   0  0.7638805E-07  0.2756347E+04  0.7818609E-02  0.8316950E-01
        2   -1    0    0  501    0  0.00000000000E+00  0.00000000000E+00  0.11550801897E+04  0.11550801897E+04  0.25500000920E-02 0. -1.
       -2   -1    0    0    0  501  0.00000000000E+00  0.00000000000E+00 -0.16443557703E+04  0.16443557703E+04  0.25500000920E-02 0.  1.
    10030    2    1    2    0    0  0.00000000000E+00  0.00000000000E+00 -0.48927558061E+03  0.27994359601E+04  0.27563474202E+04 0.  0.
        5    1    3    3  502    0 -0.11273685468E+04 -0.35797725739E+03  0.47369022580E+03  0.12741711334E+04  0.46999998093E+01 0. -1.
       -5    1    3    3    0  502  0.11273685468E+04  0.35797725739E+03 -0.96296580641E+03  0.15252648267E+04  0.46999998093E+01 0.  1.
</event>
<event>
 5   0  0.7638805E-07  0.3819926E+04  0.7818609E-02  0.8041892E-01
        2   -1    0    0  501    0  0.00000000000E+00  0.00000000000E+00  0.29893279002E+04  0.29893279002E+04  0.25500000920E-02 0.  1.
       -2   -1    0    0    0  501  0.00000000000E+00  0.00000000000E+00 -0.12203273052E+04  0.12203273052E+04  0.25500000920E-02 0. -1.
    10030    2    1    2    0    0  0.00000000000E+00  0.00000000000E+00  0.17690005950E+04  0.42096552053E+04  0.38199258949E+04 0.  0.
        5    1    3    3  502    0  0.60013126450E+03  0.16741474576E+04  0.16519793726E+04  0.24273411755E+04  0.46999998093E+01 0.  1.
       -5    1    3    3    0  502 -0.60013126450E+03 -0.16741474576E+04  0.11702122234E+03  0.17823140299E+04  0.46999998093E+01 0. -1.
</event>
<event>
 5   0  0.2529875E-07  0.2949629E+04  0.7818609E-02  0.8258263E-01
       -1   -1    0    0    0  501  0.00000000000E+00  0.00000000000E+00  0.14158749641E+04  0.14158749641E+04  0.50400001928E-02 0. -1.
        1   -1    0    0  501    0  0.00000000000E+00  0.00000000000E+00 -0.15362071775E+04  0.15362071775E+04  0.50400001928E-02 0.  1.
    10030    2    1    2    0    0  0.00000000000E+00  0.00000000000E+00 -0.12033221341E+03  0.29520821416E+04  0.29496286426E+04 0.  0.
        3    1    3    3  502    0 -0.10462134387E+04 -0.38562814660E+03  0.90593763548E+03  0.14366609330E+04  0.10100000352E+00 0. -1.
       -3    1    3    3    0  502  0.10462134387E+04  0.38562814660E+03 -0.10262698489E+04  0.15154212087E+04  0.10100000352E+00 0.  1.
</event>
<event>
 5   0  0.2529875E-07  0.3618131E+04  0.7818609E-02  0.8086351E-01
        1   -1    0    0  501    0  0.00000000000E+00  0.00000000000E+00  0.28396160633E+04  0.28396160633E+04  0.50400001928E-02 0.  1.
       -1   -1    0    0    0  501  0.00000000000E+00  0.00000000000E+00 -0.11525212613E+04  0.11525212613E+04  0.50400001928E-02 0. -1.
    10030    2    1    2    0    0  0.00000000000E+00  0.00000000000E+00  0.16870948020E+04  0.39921373246E+04  0.36181309468E+04 0.  0.
        4    1    3    3  502    0 -0.17450559658E+03  0.10678142121E+04  0.24432577596E+04  0.26721132999E+04  0.12699999809E+01 0.  1.
       -4    1    3    3    0  502  0.17450559658E+03 -0.10678142121E+04 -0.75616295756E+03  0.13200240248E+04  0.12699999809E+01 0. -1.
</event>
<event>
 5   0  0.2529875E-07  0.3543140E+04  0.7818609E-02  0.8103642E-01
        1   -1    0    0  501    0  0.00000000000E+00  0.00000000000E+00  0.16840909957E+04  0.16840909957E+04  0.50400001928E-02 0. -1.
       -1   -1    0    0    0  501  0.00000000000E+00  0.00000000000E+00 -0.18635931858E+04  0.18635931858E+04  0.50400001928E-02 0.  1.
    10030    2    1    2    0    0  0.00000000000E+00  0.00000000000E+00 -0.17950219006E+03  0.35476841815E+04  0.35431401349E+04 0.  0.
        4    1    3    3  502    0  0.25615565213E+02 -0.48896937821E+03 -0.17944949450E+04  0.18600970218E+04  0.12699999809E+01 0.  1.
       -4    1    3    3    0  502 -0.25615565213E+02  0.48896937821E+03  0.16149927550E+04  0.16875871597E+04  0.12699999809E+01 0. -1.
</event>
<event>
 5   0  0.7649458E-07  0.3302023E+04  0.7818609E-02  0.8162381E-01
       -2   -1    0    0    0  501  0.00000000000E+00  0.00000000000E+00  0.11864145375E+04  0.11864145375E+04  0.25500000920E-02 0. -1.
        2   -1    0    0  501    0  0.00000000000E+00  0.00000000000E+00 -0.22975428125E+04  0.22975428125E+04  0.25500000920E-02 0.  1.
    10030    2    1    2    0    0  0.00000000000E+00  0.00000000000E+00 -0.11111282749E+04  0.34839573500E+04  0.33020225277E+04 0.  0.
        4    1    3    3  502    0 -0.10132909967E+04  0.11551704726E+04  0.81578010189E+02  0.15387768030E+04  0.12699999809E+01 0. -1.
       -4    1    3    3    0  502  0.10132909967E+04 -0.11551704726E+04 -0.11927062851E+04  0.19451805470E+04  0.12699999809E+01 0.  1.
</event>
<event>
 5   0  0.2529875E-07  0.3110470E+04  0.7818609E-02  0.8212870E-01
       -1   -1    0    0    0  501  0.00000000000E+00  0.00000000000E+00  0.10454334484E+04  0.10454334484E+04  0.50400001928E-02 0. -1.
        1   -1    0    0  501    0  0.00000000000E+00  0.00000000000E+00 -0.23136392602E+04  0.23136392603E+04  0.50400001928E-02 0.  1.
    10030    2    1    2    0    0  0.00000000000E+00  0.00000000000E+00 -0.12682058118E+04  0.33590727087E+04  0.31104699775E+04 0.  0.
        3    1    3    3  502    0 -0.78922788603E+03 -0.10009061412E+04  0.32821955984E+03  0.13162149708E+04  0.10100000352E+00 0. -1.
       -3    1    3    3    0  502  0.78922788603E+03  0.10009061412E+04 -0.15964253717E+04  0.20428577379E+04  0.10100000352E+00 0.  1.
</event>
<event>
 5   0  0.8038352E-07  0.3825554E+04  0.7818609E-02  0.8040693E-01
        2   -1    0    0  501    0  0.00000000000E+00  0.00000000000E+00  0.28229070074E+04  0.28229070074E+04  0.25500000920E-02 0.  1.
       -2   -1    0    0    0  501  0.00000000000E+00  0.00000000000E+00 -0.12960809582E+04  0.12960809582E+04  0.25500000920E-02 0. -1.
    10030    2    1    2    0    0  0.00000000000E+00  0.00000000000E+00  0.15268260492E+04  0.41189879655E+04  0.38255540874E+04 0.  0.
        2    1    3    3  502    0 -0.97805226434E+03  0.89339006728E+03  0.22491017270E+04  0.26102089231E+04  0.25500000920E-02 0.  1.
       -2    1    3    3    0  502  0.97805226434E+03 -0.89339006728E+03 -0.72227567777E+03  0.15087790424E+04  0.25500000920E-02 0. -1.
</event>
<event>
 5   0  0.7638805E-07  0.3736005E+04  0.7818609E-02  0.8060029E-01
        2   -1    0    0  501    0  0.00000000000E+00  0.00000000000E+00  0.19811899898E+04  0.19811899898E+04  0.25500000920E-02 0. -1.
       -2   -1    0    0    0  501  0.00000000000E+00  0.00000000000E+00 -0.17612816737E+04  0.17612816737E+04  0.25500000920E-02 0.  1.
    10030    2    1    2    0    0  0.00000000000E+00  0.00000000000E+00  0.21990831602E+03  0.37424716635E+04  0.37360051505E+04 0.  0.
        5    1    3    3  502    0  0.57606784339E+03 -0.54939667651E+02  0.18891305416E+04  0.19757805598E+04  0.46999998093E+01 0. -1.
       -5    1    3    3    0  502 -0.57606784339E+03  0.54939667651E+02 -0.16692222256E+04  0.17666911037E+04  0.46999998093E+01 0.  1.
</event>
<event>
 5   0  0.8421677E-07  0.3649643E+04  0.7818609E-02  0.8079214E-01
        2   -1    0    0  501    0  0.00000000000E+00  0.00000000000E+00  0.25969423458E+04  0.25969423458E+04  0.25500000920E-02 0.  1.
       -2   -1    0    0    0  501  0.00000000000E+00  0.00000000000E+00 -0.12822669258E+04  0.12822669259E+04  0.25500000920E-02 0. -1.
    10030    2    1    2    0    0  0.00000000000E+00  0.00000000000E+00  0.13146754199E+04  0.38792092716E+04  0.36496428748E+04 0.  0.
        3    1    3    3  502    0 -0.38821007607E+03  0.24777903710E+03  0.25341548586E+04  0.25756634819E+04  0.10100000352E+00 0.  1.
       -3    1    3    3    0  502  0.38821007607E+03 -0.24777903710E+03 -0.12194794387E+04  0.13035457897E+04  0.10100000352E+00 0. -1.
</event>
<event>
 5   0  0.2907071E-07  0.4244052E+04  0.7818609E-02  0.7957045E-01
       -1   -1    0    0    0  501  0.00000000000E+00  0.00000000000E+00  0.19600985247E+04  0.19600985248E+04  0.50400001928E-02 0. -1.
        1   -1    0    0  501    0  0.00000000000E+00  0.00000000000E+00 -0.22973303535E+04  0.22973303535E+04  0.50400001928E-02 0.  1.
    10030    2    1    2    0    0  0.00000000000E+00  0.00000000000E+00 -0.33723182876E+03  0.42574288783E+04  0.42440517607E+04 0.  0.
        2    1    3    3  502    0  0.97816984170E+03  0.16151247999E+04  0.80270743335E+03  0.20517757143E+04  0.25500000920E-02 0. -1.
       -2    1    3    3    0  502 -0.97816984170E+03 -0.16151247999E+04 -0.11399392621E+04  0.22056531639E+04  0.25500000920E-02 0.  1.
</event>
<event>
 5   0  0.8421677E-07  0.3734361E+04  0.7818609E-02  0.8060389E-01
        2   -1    0    0  501    0  0.00000000000E+00  0.00000000000E+00  0.23150339250E+04  0.23150339250E+04  0.25500000920E-02 0. -1.
       -2   -1    0    0    0  501  0.00000000000E+00  0.00000000000E+00 -0.15059661840E+04  0.15059661840E+04  0.25500000920E-02 0.  1.
    10030    2    1    2    0    0  0.00000000000E+00  0.00000000000E+00  0.80906774099E+03  0.38210001090E+04  0.37343608856E+04 0.  0.
        3    1    3    3  502    0 -0.72555720927E+03 -0.13463441957E+04 -0.69143134464E+03  0.16784377474E+04  0.10100000352E+00 0.  1.
       -3    1    3    3    0  502  0.72555720927E+03  0.13463441957E+04  0.15004990856E+04  0.21425623616E+04  0.10100000352E+00 0. -1.
</event>
<event>
 5   0  0.2529875E-07  0.3841140E+04  0.7818609E-02  0.8037384E-01
       -1   -1    0    0    0  501  0.00000000000E+00  0.00000000000E+00  0.20347010904E+04  0.20347010904E+04  0.50400001928E-02 0. -1.
        1   -1    0    0  501    0  0.00000000000E+00  0.00000000000E+00 -0.18128405077E+04  0.18128405077E+04  0.50400001928E-02 0.  1.
    10030    2    1    2    0    0  0.00000000000E+00  0.00000000000E+00  0.22186058272E+03  0.38475415981E+04  0.38411397047E+04 0.  0.
        5    1    3    3  502    0  0.12187090148E+04  0.11448923166E+04  0.10572462988E+04  0.19783381677E+04  0.46999998093E+01 0. -1.
       -5    1    3    3    0  502 -0.12187090148E+04 -0.11448923166E+04 -0.83538571612E+03  0.18692034304E+04  0.46999998093E+01 0.  1.
</event>
<event>
 5   0  0.2529875E-07  0.2382947E+04  0.7818609E-02  0.8445916E-01
       -1   -1    0    0    0  501  0.00000000000E+00  0.00000000000E+00  0.56749062075E+03  0.56749062077E+03  0.50400001928E-02 0.  1.
        1   -1    0    0  501    0  0.00000000000E+00  0.00000000000E+00 -0.25015556986E+04  0.25015556986E+04  0.50400001928E-02 0. -1.
    10030    2    1    2    0    0  0.00000000000E+00  0.00000000000E+00 -0.19340650779E+04  0.30690463194E+04  0.23829472477E+04 0.  0.
        3    1    3    3  502    0 -0.22521998256E+03 -0.31593531424E+03 -0.24179137004E+04  0.24488458171E+04  0.10100000352E+00 0. -1.
       -3    1    3    3    0  502  0.22521998256E+03  0.31593531424E+03  0.48384862251E+03  0.62020050228E+03  0.10100000352E+00 0.  1.
</event>
<event>
 5   0  0.2529875E-07  0.3621282E+04  0.7818609E-02  0.8085634E-01
       -1   -1    0    0    0  501  0.00000000000E+00  0.00000000000E+00  0.16856058910E+04  0.16856058910E+04  0.50400001928E-02 0. -1.
        1   -1    0    0  501    0  0.00000000000E+00  0.00000000000E+00 -0.19449511146E+04  0.19449511146E+04  0.50400001928E-02 0.  1.
    10030    2    1    2    0    0  0.00000000000E+00  0.00000000000E+00 -0.25934522362E+03  0.36305570056E+04  0.36212821246E+04 0.  0.
        1    1    3    3  502    0 -0.56879061997E+03  0.13455774704E+04 -0.12021411480E+04  0.18918892245E+04  0.50400001928E-02 0.  1.
       -1    1    3    3    0  502  0.56879061997E+03 -0.13455774704E+04  0.94279592434E+03  0.17386677811E+04  0.50400001928E-02 0. -1.
</event>
<event>
 5   0  0.7649458E-07  0.3659612E+04  0.7818609E-02  0.8076972E-01
       -2   -1    0    0    0  501  0.00000000000E+00  0.00000000000E+00  0.13634528386E+04  0.13634528386E+04  0.25500000920E-02 0. -1.
        2   -1    0    0  501    0  0.00000000000E+00  0.00000000000E+00 -0.24556694487E+04  0.24556694487E+04  0.25500000920E-02 0.  1.
    10030    2    1    2    0    0  0.00000000000E+00  0.00000000000E+00 -0.10922166101E+04  0.38191222874E+04  0.36596117174E+04 0.  0.
        4    1    3    3  502    0  0.16996299799E+04  0.67780049706E+03 -0.54017862882E+03  0.19078653376E+04  0.12699999809E+01 0.  1.
       -4    1    3    3    0  502 -0.16996299799E+04 -0.67780049706E+03 -0.55203798132E+03  0.19112569498E+04  0.12699999809E+01 0. -1.
</event>
<event>
 5   0  0.2529875E-07  0.3654993E+04  0.7818609E-02  0.8078010E-01
        1   -1    0    0  501    0  0.00000000000E+00  0.00000000000E+00  0.22335735777E+04  0.22335735777E+04  0.50400001928E-02 0. -1.
       -1   -1    0    0    0  501  0.00000000000E+00  0.00000000000E+00 -0.14952468630E+04  0.14952468631E+04  0.50400001928E-02 0.  1.
    10030    2    1    2    0    0  0.00000000000E+00  0.00000000000E+00  0.73832671466E+03  0.37288204408E+04  0.36549932342E+04 0.  0.
        4    1    3    3  502    0  0.12056206183E+03 -0.80130226080E+03 -0.13019468159E+04  0.15335213230E+04  0.12699999809E+01 0.  1.
       -4    1    3    3    0  502 -0.12056206183E+03  0.80130226080E+03  0.20402735305E+04  0.21952991177E+04  0.12699999809E+01 0. -1.
</event>
<event>
 5   0  0.7638805E-07  0.3059978E+04  0.7818609E-02  0.8226808E-01
        2   -1    0    0  501    0  0.00000000000E+00  0.00000000000E+00  0.19761720788E+04  0.19761720788E+04  0.25500000920E-02 0. -1.
       -2   -1    0    0    0  501  0.00000000000E+00  0.00000000000E+00 -0.11845461537E+04  0.11845461537E+04  0.25500000920E-02 0.  1.
    10030    2    1    2    0    0  0.00000000000E+00  0.00000000000E+00  0.79162592505E+03  0.31607182325E+04  0.30599784542E+04 0.  0.
        5    1    3    3  502    0 -0.68780251826E+03  0.30847591101E+03 -0.97941487285E+03  0.12359228435E+04  0.46999998093E+01 0.  1.
       -5    1    3    3    0  502  0.68780251826E+03 -0.30847591101E+03  0.17710407979E+04  0.19247953890E+04  0.46999998093E+01 0. -1.
</event>
<event>
 5   0  0.2529875E-07  0.3293138E+04  0.7818609E-02  0.8164644E-01
       -1   -1    0    0    0  501  0.00000000000E+00  0.00000000000E+00  0.12217018795E+04  0.12217018795E+04  0.50400001928E-02 0.  1.
        1   -1    0    0  501    0  0.00000000000E+00  0.00000000000E+00 -0.22191901974E+04  0.22191901974E+04  0.50400001928E-02 0. -1.
    10030    2    1    2    0    0  0.00000000000E+00  0.00000000000E+00 -0.99748831787E+03  0.34408920769E+04  0.32931376134E+04 0.  0.
        3    1    3    3  502    0 -0.11240190885E+04 -0.10816611623E+04  0.51950559288E+02  0.15608038481E+04  0.10100000352E+00 0.  1.
       -3    1    3    3    0  502  0.11240190885E+04  0.10816611623E+04 -0.10494388772E+04  0.18800882289E+04  0.10100000352E+00 0. -1.
</event>
<event>
 5   0  0.8038352E-07  0.3749311E+04  0.7818609E-02  0.8057121E-01
        2   -1    0    0  501    0  0.00000000000E+00  0.00000000000E+00  0.26880680781E+04  0.26880680781E+04  0.25500000920E-02 0.  1.
       -2   -1    0    0    0  501  0.00000000000E+00  0.00000000000E+00 -0.13073823505E+04  0.13073823505E+04  0.25500000920E-02 0. -1.
    10030    2    1    2    0    0  0.00000000000E+00  0.00000000000E+00  0.13806857275E+04  0.39954504286E+04  0.37493107432E+04 0.  0.
        2    1    3    3  502    0 -0.93249825017E+03 -0.13786965430E+04  0.16095082510E+04  0.23153561183E+04  0.25500000920E-02 0.  1.
       -2    1    3    3    0  502  0.93249825017E+03  0.13786965430E+04 -0.22882252347E+03  0.16800943103E+04  0.25500000920E-02 0. -1.
</event>
<event>
 5   0  0.7649458E-07  0.3788009E+04  0.7818609E-02  0.8048733E-01
        2   -1    0    0  501    0  0.00000000000E+00  0.00000000000E+00  0.19188849704E+04  0.19188849704E+04  0.25500000920E-02 0.  1.
       -2   -1    0    0    0  501  0.00000000000E+00  0.00000000000E+00 -0.18694467997E+04  0.18694467997E+04  0.25500000920E-02 0. -1.
    10030    2    1    2    0    0  0.00000000000E+00  0.00000000000E+00  0.49438170653E+02  0.37883317701E+04  0.37880091695E+04 0.  0.
        4    1    3    3  502    0  0.29136305003E+03 -0.68490643410E+03 -0.17170556341E+04  0.18714355222E+04  0.12699999809E+01 0. -1.
       -4    1    3    3    0  502 -0.29136305003E+03  0.68490643410E+03  0.17664938047E+04  0.19168962479E+04  0.12699999809E+01 0.  1.
</event>
<event>
 5   0  0.8038352E-07  0.3004135E+04  0.7818609E-02  0.8242551E-01
       -2   -1    0    0    0  501  0.00000000000E+00  0.00000000000E+00  0.14461251865E+04  0.14461251865E+04  0.25500000920E-02 0.  1.
        2   -1    0    0  501    0  0.00000000000E+00  0.00000000000E+00 -0.15601741890E+04  0.15601741890E+04  0.25500000920E-02 0. -1.
    10030    2    1    2    0    0  0.00000000000E+00  0.00000000000E+00 -0.11404900250E+03  0.30062993756E+04  0.30041352767E+04 0.  0.
        2    1    3    3  502    0 -0.25442586388E+03 -0.42713991919E+03  0.13613977559E+04  0.14493394635E+04  0.25500000920E-02 0.  1.
       -2    1    3    3    0  502  0.25442586388E+03  0.42713991919E+03 -0.14754467584E+04  0.15569599120E+04  0.25500000920E-02 0. -1.
</event>
<event>
 5   0  0.2529875E-07  0.2844941E+04  0.7818609E-02  0.8289450E-01
        1   -1    0    0  501    0  0.00000000000E+00  0.00000000000E+00  0.15313118343E+04  0.15313118343E+04  0.50400001928E-02 0. -1.
       -1   -1    0    0    0  501  0.00000000000E+00  0.00000000000E+00 -0.13213656410E+04  0.13213656410E+04  0.50400001928E-02 0.  1.
    10030    2    1    2    0    0  0.00000000000E+00  0.00000000000E+00  0.20994619325E+03  0.28526774753E+04  0.28449413656E+04 0.  0.
        4    1    3    3  502    0 -0.18911150562E+03 -0.10867871232E+04 -0.79555131475E+03  0.13600635720E+04  0.12699999809E+01 0.  1.
       -4    1    3    3    0  502  0.18911150562E+03  0.10867871232E+04  0.10054975080E+04  0.14926139032E+04  0.12699999809E+01 0. -1.
</event>
<event>
 5   0  0.7638805E-07  0.2917030E+04  0.7818609E-02  0.8267828E-01
        2   -1    0    0  501    0  0.00000000000E+00  0.00000000000E+00  0.12160571095E+04  0.12160571095E+04  0.25500000920E-02 0. -1.
       -2   -1    0    0    0  501  0.00000000000E+00  0.00000000000E+00 -0.17493145876E+04  0.17493145876E+04  0.25500000920E-02 0.  1.
    10030    2    1    2    0    0  0.00000000000E+00  0.00000000000E+00 -0.53325747809E+03  0.29653716971E+04  0.29170302988E+04 0.  0.
        5    1    3    3  502    0 -0.88836446607E+03  0.28069601629E+03  0.87413672081E+03  0.12775440403E+04  0.46999998093E+01 0. -1.
       -5    1    3    3    0  502  0.88836446607E+03 -0.28069601629E+03 -0.14073941989E+04  0.16878276569E+04  0.46999998093E+01 0.  1.
</event>
<event>
 5   0  0.2907071E-07  0.3832102E+04  0.7818609E-02  0.8039301E-01
       -1   -1    0    0    0  501  0.00000000000E+00  0.00000000000E+00  0.19087494627E+04  0.19087494627E+04  0.50400001928E-02 0. -1.
        1   -1    0    0  501    0  0.00000000000E+00  0.00000000000E+00 -0.19233808792E+04  0.19233808792E+04  0.50400001928E-02 0.  1.
    10030    2    1    2    0    0  0.00000000000E+00  0.00000000000E+00 -0.14631416579E+02  0.38321303419E+04  0.38321024098E+04 0.  0.
        2    1    3    3  502    0  0.11103557360E+04  0.15608274678E+04  0.39374836085E+02  0.19158869023E+04  0.25500000920E-02 0. -1.
       -2    1    3    3    0  502 -0.11103557360E+04 -0.15608274678E+04 -0.54006252665E+02  0.19162434396E+04  0.25500000920E-02 0.  1.
</event>
<event>
 5   0  0.2529875E-07  0.3609309E+04  0.7818609E-02  0.8088363E-01
       -1   -1    0    0    0  501  0.00000000000E+00  0.00000000000E+00  0.15057963290E+04  0.15057963290E+04  0.50400001928E-02 0.  1.
        1   -1    0    0  501    0  0.00000000000E+00  0.00000000000E+00 -0.21628277173E+04  0.21628277173E+04  0.50400001928E-02 0. -1.
    10030    2    1    2    0    0  0.00000000000E+00  0.00000000000E+00 -0.65703138832E+03  0.36686240463E+04  0.36093090957E+04 0.  0.
        1    1    3    3  502    0  0.94079640920E+03  0.14690288399E+04  0.14128618137E+03  0.17501729632E+04  0.50400001928E-02 0. -1.
       -1    1    3    3    0  502 -0.94079640920E+03 -0.14690288399E+04 -0.79831756969E+03  0.19184510831E+04  0.50400001928E-02 0.  1.
</event>
<event>
 5   0  0.2529875E-07  0.2996230E+04  0.7818609E-02  0.8244808E-01
       -1   -1    0    0    0  501  0.00000000000E+00  0.00000000000E+00  0.64719064298E+03  0.64719064300E+03  0.50400001928E-02 0. -1.
        1   -1    0    0  501    0  0.00000000000E+00  0.00000000000E+00 -0.34678312312E+04  0.34678312312E+04  0.50400001928E-02 0.  1.
    10030    2    1    2    0    0  0.00000000000E+00  0.00000000000E+00 -0.28206405882E+04  0.41150218742E+04  0.29962295802E+04 0.  0.
        5    1    3    3  502    0  0.77160044875E+03  0.11472935964E+04 -0.61816963689E+03  0.15145314915E+04  0.46999998093E+01 0. -1.
       -5    1    3    3    0  502 -0.77160044875E+03 -0.11472935964E+04 -0.22024709513E+04  0.26004903826E+04  0.46999998093E+01 0.  1.
</event>
<event>
 5   0  0.2529875E-07  0.3701056E+04  0.7818609E-02  0.8067728E-01
        1   -1    0    0  501    0  0.00000000000E+00  0.00000000000E+00  0.13716267889E+04  0.13716267889E+04  0.50400001928E-02 0. -1.
       -1   -1    0    0    0  501  0.00000000000E+00  0.00000000000E+00 -0.24966370319E+04  0.24966370319E+04  0.50400001928E-02 0.  1.
    10030    2    1    2    0    0  0.00000000000E+00  0.00000000000E+00 -0.11250102430E+04  0.38682638207E+04  0.37010561925E+04 0.  0.
        4    1    3    3  502    0  0.17115158421E+04  0.65829473090E+02 -0.12947513069E+04  0.21470916507E+04  0.12699999809E+01 0.  1.
       -4    1    3    3    0  502 -0.17115158421E+04 -0.65829473090E+02  0.16974106386E+03  0.17211721700E+04  0.12699999809E+01 0. -1.
</event>
<event>
 5   0  0.7551495E-07  0.3650817E+04  0.7818609E-02  0.8078950E-01
       -2   -1    0    0    0  501  0.00000000000E+00  0.00000000000E+00  0.16604922464E+04  0.16604922464E+04  0.25500000920E-02 0.  1.
        2   -1    0    0  501    0  0.00000000000E+00  0.00000000000E+00 -0.20067033890E+04  0.20067033890E+04  0.25500000920E-02 0. -1.
    10030    2    1    2    0    0  0.00000000000E+00  0.00000000000E+00 -0.34621114262E+03  0.36671956354E+04  0.36508165762E+04 0.  0.
        1    1    3    3  502    0 -0.50520824079E+03  0.11659042956E+04 -0.14895375054E+04  0.19578789986E+04  0.50400001928E-02 0. -1.
       -1    1    3    3    0  502  0.50520824079E+03 -0.11659042956E+04  0.11433263627E+04  0.17093166368E+04  0.50400001928E-02 0.  1.
</event>
<event>
 5   0  0.2529875E-07  0.4046411E+04  0.7818609E-02  0.7995249E-01
       -1   -1    0    0    0  501  0.00000000000E+00  0.00000000000E+00  0.12915334405E+04  0.12915334405E+04  0.50400001928E-02 0. -1.
        1   -1    0    0  501    0  0.00000000000E+00  0.00000000000E+00 -0.31693804309E+04  0.31693804309E+04  0.50400001928E-02 0.  1.
    10030    2    1    2    0    0  0.00000000000E+00  0.00000000000E+00 -0.18778469904E+04  0.44609138714E+04  0.40464111566E+04 0.  0.
        1    1    3    3  502    0 -0.14626995739E+04  0.16381187001E+03 -0.24693017719E+04  0.28746783495E+04  0.50400001928E-02 0.  1.
       -1    1    3    3    0  502  0.14626995739E+04 -0.16381187001E+03  0.59145478158E+03  0.15862355219E+04  0.50400001928E-02 0. -1.
</event>
<event>
 5   0  0.8421677E-07  0.3901837E+04  0.7818609E-02  0.8024647E-01
        2   -1    0    0  501    0  0.00000000000E+00  0.00000000000E+00  0.20333470013E+04  0.20333470013E+04  0.25500000920E-02 0.  1.
       -2   -1    0    0    0  501  0.00000000000E+00  0.00000000000E+00 -0.18718317904E+04  0.18718317904E+04  0.25500000920E-02 0. -1.
    10030    2    1    2    0    0  0.00000000000E+00  0.00000000000E+00  0.16151521092E+03  0.39051787917E+04  0.39018372893E+04 0.  0.
        3    1    3    3  502    0  0.19113435591E+03  0.14400466323E+04 -0.12225929670E+04  0.18986838121E+04  0.10100000352E+00 0. -1.
       -3    1    3    3    0  502 -0.19113435591E+03 -0.14400466323E+04  0.13841081779E+04  0.20064949797E+04  0.10100000352E+00 0.  1.
</event>
<event>
 5   0  0.7551495E-07  0.3796541E+04  0.7818609E-02  0.8046898E-01
        2   -1    0    0  501    0  0.00000000000E+00  0.00000000000E+00  0.14985789734E+04  0.14985789734E+04  0.25500000920E-02 0. -1.
       -2   -1    0    0    0  501  0.00000000000E+00  0.00000000000E+00 -0.24045649236E+04  0.24045649236E+04  0.25500000920E-02 0.  1.
    10030    2    1    2    0    0  0.00000000000E+00  0.00000000000E+00 -0.90598595015E+03  0.39031438970E+04  0.37965407596E+04 0.  0.
        1    1    3    3  502    0  0.26559321162E+03  0.17619001077E+04 -0.11260500846E+04  0.21077999280E+04  0.50400001928E-02 0. -1.
       -1    1    3    3    0  502 -0.26559321162E+03 -0.17619001077E+04  0.22006413444E+03  0.17953439690E+04  0.50400001928E-02 0.  1.
</event>
<event>
 5   0  0.7551495E-07  0.3828711E+04  0.7818609E-02  0.8040021E-01
       -2   -1    0    0    0  501  0.00000000000E+00  0.00000000000E+00  0.17849264228E+04  0.17849264228E+04  0.25500000920E-02 0. -1.
        2   -1    0    0  501    0  0.00000000000E+00  0.00000000000E+00 -0.20531701572E+04  0.20531701572E+04  0.25500000920E-02 0.  1.
    10030    2    1    2    0    0  0.00000000000E+00  0.00000000000E+00 -0.26824373438E+03  0.38380965799E+04  0.38287113571E+04 0.  0.
        1    1    3    3  502    0  0.11946016373E+04  0.51808956558E+02 -0.16327782832E+04  0.20237890606E+04  0.50400001928E-02 0.  1.
       -1    1    3    3    0  502 -0.11946016373E+04 -0.51808956558E+02  0.13645345488E+04  0.18143075193E+04  0.50400001928E-02 0. -1.
</event>
<event>
 5   0  0.7638805E-07  0.3730015E+04  0.7818609E-02  0.8061343E-01
       -2   -1    0    0    0  501  0.00000000000E+00  0.00000000000E+00  0.22447668961E+04  0.22447668961E+04  0.25500000920E-02 0. -1.
        2   -1    0    0  501    0  0.00000000000E+00  0.00000000000E+00 -0.15494940848E+04  0.15494940848E+04  0.25500000920E-02 0.  1.
    10030    2    1    2    0    0  0.00000000000E+00  0.00000000000E+00  0.69527281129E+03  0.37942609810E+04  0.37300150281E+04 0.  0.
        5    1    3    3  502    0  0.75407427456E+03 -0.27055428949E+03 -0.13655341806E+04  0.15832035003E+04  0.46999998093E+01 0.  1.
       -5    1    3    3    0  502 -0.75407427456E+03  0.27055428949E+03  0.20608069919E+04  0.22110574807E+04  0.46999998093E+01 0. -1.
</event>
<event>
 5   0  0.2529875E-07  0.2720304E+04  0.7818609E-02  0.8328447E-01
        1   -1    0    0  501    0  0.00000000000E+00  0.00000000000E+00  0.76533752978E+03  0.76533752980E+03  0.50400001928E-02 0. -1.
       -1   -1    0    0    0  501  0.00000000000E+00  0.00000000000E+00 -0.24172508741E+04  0.24172508741E+04  0.50400001928E-02 0.  1.
    10030    2    1    2    0    0  0.00000000000E+00  0.00000000000E+00 -0.16519133443E+04  0.31825884039E+04  0.27203035219E+04 0.  0.
        5    1    3    3  502    0 -0.12071605021E+04 -0.62546575356E+03 -0.77994317188E+03  0.15674110272E+04  0.46999998093E+01 0. -1.
       -5    1    3    3    0  502  0.12071605021E+04  0.62546575356E+03 -0.87197017243E+03  0.16151773767E+04  0.46999998093E+01 0.  1.
</event>
<event>
 5   0  0.8421677E-07  0.3917937E+04  0.7818609E-02  0.8021309E-01
       -2   -1    0    0    0  501  0.00000000000E+00  0.00000000000E+00  0.16794218249E+04  0.16794218249E+04  0.25500000920E-02 0. -1.
        2   -1    0    0  501    0  0.00000000000E+00  0.00000000000E+00 -0.22850466346E+04  0.22850466346E+04  0.25500000920E-02 0.  1.
    10030    2    1    2    0    0  0.00000000000E+00  0.00000000000E+00 -0.60562480974E+03  0.39644684595E+04  0.39179367984E+04 0.  0.
        3    1    3    3  502    0  0.94101792859E+03 -0.16945540737E+04 -0.58995888761E+03  0.20260996397E+04  0.10100000352E+00 0.  1.
       -3    1    3    3    0  502 -0.94101792859E+03  0.16945540737E+04 -0.15665922135E+02  0.19383688199E+04  0.10100000352E+00 0. -1.
</event>
<event>
 5   0  0.2529875E-07  0.3815772E+04  0.7818609E-02  0.8042779E-01
        1   -1    0    0  501    0  0.00000000000E+00  0.00000000000E+00  0.12677578477E+04  0.12677578477E+04  0.50400001928E-02 0. -1.
       -1   -1    0    0    0  501  0.00000000000E+00  0.00000000000E+00 -0.28712335380E+04  0.28712335380E+04  0.50400001928E-02 0.  1.
    10030    2    1    2    0    0  0.00000000000E+00  0.00000000000E+00 -0.16034756903E+04  0.41389913856E+04  0.38157719273E+04 0.  0.
        4    1    3    3  502    0  0.12451148211E+04 -0.88487761796E+03 -0.20416798590E+04  0.25498583443E+04  0.12699999809E+01 0. -1.
       -4    1    3    3    0  502 -0.12451148211E+04  0.88487761796E+03  0.43820416870E+03  0.15891330413E+04  0.12699999809E+01 0.  1.
</event>
<event>
 5   0  0.2529875E-07  0.3850699E+04  0.7818609E-02  0.8035362E-01
        1   -1    0    0  501    0  0.00000000000E+00  0.00000000000E+00  0.20306488869E+04  0.20306488869E+04  0.50400001928E-02 0.  1.
       -1   -1    0    0    0  501  0.00000000000E+00  0.00000000000E+00 -0.18255104074E+04  0.18255104074E+04  0.50400001928E-02 0. -1.
    10030    2    1    2    0    0  0.00000000000E+00  0.00000000000E+00  0.20513847955E+03  0.38561592943E+04  0.38506989894E+04 0.  0.
        1    1    3    3  502    0  0.10505407120E+04  0.10939816052E+04  0.12902269850E+04  0.19912602072E+04  0.50400001928E-02 0.  1.
       -1    1    3    3    0  502 -0.10505407120E+04 -0.10939816052E+04 -0.10850885055E+04  0.18648990870E+04  0.50400001928E-02 0. -1.
</event>
<event>
 5   0  0.2529875E-07  0.3748262E+04  0.7818609E-02  0.8057350E-01
       -1   -1    0    0    0  501  0.00000000000E+00  0.00000000000E+00  0.14651248756E+04  0.14651248756E+04  0.50400001928E-02 0. -1.
        1   -1    0    0  501    0  0.00000000000E+00  0.00000000000E+00 -0.23973161378E+04  0.23973161378E+04  0.50400001928E-02 0.  1.
    10030    2    1    2    0    0  0.00000000000E+00  0.00000000000E+00 -0.93219126220E+03  0.38624410133E+04  0.37482622683E+04 0.  0.
        3    1    3    3  502    0  0.64232658700E+03 -0.63913343694E+02  0.13469605508E+04  0.14936435638E+04  0.10100000352E+00 0. -1.
       -3    1    3    3    0  502 -0.64232658700E+03  0.63913343694E+02 -0.22791518130E+04  0.23687974495E+04  0.10100000352E+00 0.  1.
</event>
<event>
 5   0  0.2529875E-07  0.3781877E+04  0.7818609E-02  0.8050055E-01
       -1   -1    0    0    0  501  0.00000000000E+00  0.00000000000E+00  0.27910880935E+04  0.27910880935E+04  0.50400001928E-02 0.  1.
        1   -1    0    0  501    0  0.00000000000E+00  0.00000000000E+00 -0.12810945478E+04  0.12810945478E+04  0.50400001928E-02 0. -1.
    10030    2    1    2    0    0  0.00000000000E+00  0.00000000000E+00  0.15099935457E+04  0.40721826413E+04  0.37818766448E+04 0.  0.
        3    1    3    3  502    0  0.19324694062E+03  0.10410281832E+03  0.27773234202E+04  0.27859840573E+04  0.10100000352E+00 0.  1.
       -3    1    3    3    0  502 -0.19324694062E+03 -0.10410281832E+03 -0.12673298744E+04  0.12861985841E+04  0.10100000352E+00 0. -1.
</event>
<event>
 5   0  0.8038352E-07  0.3875164E+04  0.7818609E-02  0.8030215E-01
        2   -1    0    0  501    0  0.00000000000E+00  0.00000000000E+00  0.32879920517E+04  0.32879920517E+04  0.25500000920E-02 0. -1.
       -2   -1    0    0    0  501  0.00000000000E+00  0.00000000000E+00 -0.11417981100E+04  0.11417981100E+04  0.25500000920E-02 0.  1.
    10030    2    1    2    0    0  0.00000000000E+00  0.00000000000E+00  0.21461939416E+04  0.44297901617E+04  0.38751635374E+04 0.  0.
        2    1    3    3  502    0 -0.33103154730E+03 -0.12081618129E+04  0.27628275914E+04  0.30335545407E+04  0.25500000920E-02 0. -1.
       -2    1    3    3    0  502  0.33103154730E+03  0.12081618129E+04 -0.61663364978E+03  0.13962356210E+04  0.25500000920E-02 0.  1.
</event>
<event>
 5   0  0.2529875E-07  0.3587586E+04  0.7818609E-02  0.8093341E-01
       -1   -1    0    0    0  501  0.00000000000E+00  0.00000000000E+00  0.21954164313E+04  0.21954164313E+04  0.50400001928E-02 0. -1.
        1   -1    0    0  501    0  0.00000000000E+00  0.00000000000E+00 -0.14656411435E+04  0.14656411435E+04  0.50400001928E-02 0.  1.
    10030    2    1    2    0    0  0.00000000000E+00  0.00000000000E+00  0.72977528779E+03  0.36610575748E+04  0.35875856221E+04 0.  0.
        5    1    3    3  502    0 -0.16217627576E+04 -0.36612544884E+03  0.10521093856E+04  0.19675158285E+04  0.46999998093E+01 0. -1.
       -5    1    3    3    0  502  0.16217627576E+04  0.36612544884E+03 -0.32233409779E+03  0.16935417464E+04  0.46999998093E+01 0.  1.
</event>
<event>
 5   0  0.7788159E-07  0.2320935E+04  0.7818609E-02  0.8469712E-01
        2   -1    0    0  501    0  0.00000000000E+00  0.00000000000E+00  0.15385773282E+04  0.15385773282E+04  0.25500000920E-02 0. -1.
       -2   -1    0    0    0  501  0.00000000000E+00  0.00000000000E+00 -0.87527950982E+03  0.87527950983E+03  0.25500000920E-02 0.  1.
    10030    2    1    2    0    0  0.00000000000E+00  0.00000000000E+00  0.66329781839E+03  0.24138568380E+04  0.23209353370E+04 0.  0.
        5    1    3    3  502    0  0.55209315851E+03 -0.31536916133E+03 -0.67798929194E+03  0.92949240641E+03  0.46999998093E+01 0.  1.
       -5    1    3    3    0  502 -0.55209315851E+03  0.31536916133E+03  0.13412871103E+04  0.14843644316E+04  0.46999998093E+01 0. -1.
</event>
<event>
 5   0  0.2907071E-07  0.4534349E+04  0.7818609E-02  0.7904651E-01
        1   -1    0    0  501    0  0.00000000000E+00  0.00000000000E+00  0.18006121275E+04  0.18006121275E+04  0.50400001928E-02 0. -1.
       -1   -1    0    0    0  501  0.00000000000E+00  0.00000000000E+00 -0.28546294064E+04  0.28546294064E+04  0.50400001928E-02 0.  1.
    10030    2    1    2    0    0  0.00000000000E+00  0.00000000000E+00 -0.10540172788E+04  0.46552415339E+04  0.45343490508E+04 0.  0.
        2    1    3    3  502    0 -0.98943495560E+03 -0.10217212573E+04 -0.23396359625E+04  0.27380270809E+04  0.25500000920E-02 0.  1.
       -2    1    3    3    0  502  0.98943495560E+03  0.10217212573E+04  0.12856186836E+04  0.19172144530E+04  0.25500000920E-02 0. -1.
</event>
<event>
 5   0  0.7638805E-07  0.3355257E+04  0.7818609E-02  0.8148976E-01
        2   -1    0    0  501    0  0.00000000000E+00  0.00000000000E+00  0.28925363746E+04  0.28925363746E+04  0.25500000920E-02 0.  1.
       -2   -1    0    0    0  501  0.00000000000E+00  0.00000000000E+00 -0.97300001601E+03  0.97300001602E+03  0.25500000920E-02 0. -1.
    10030    2    1    2    0    0  0.00000000000E+00  0.00000000000E+00  0.19195363586E+04  0.38655363906E+04  0.33552573307E+04 0.  0.
        5    1    3    3  502    0 -0.26863599572E+03  0.14439018362E+04  0.25657937025E+02  0.14689105591E+04  0.46999998093E+01 0. -1.
       -5    1    3    3    0  502  0.26863599572E+03 -0.14439018362E+04  0.18938784216E+04  0.23966258316E+04  0.46999998093E+01 0.  1.
</event>
<event>
 5   0  0.2529875E-07  0.3019125E+04  0.7818609E-02  0.8238291E-01
       -1   -1    0    0    0  501  0.00000000000E+00  0.00000000000E+00  0.17007678629E+04  0.17007678629E+04  0.50400001928E-02 0.  1.
        1   -1    0    0  501    0  0.00000000000E+00  0.00000000000E+00 -0.13398531311E+04  0.13398531311E+04  0.50400001928E-02 0. -1.
    10030    2    1    2    0    0  0.00000000000E+00  0.00000000000E+00  0.36091473180E+03  0.30406209941E+04  0.30191251359E+04 0.  0.
        1    1    3    3  502    0  0.19030127164E+03 -0.92252370118E+03  0.13684809400E+04  0.16613261680E+04  0.50400001928E-02 0.  1.
       -1    1    3    3    0  502 -0.19030127164E+03  0.92252370118E+03 -0.10075662082E+04  0.13792948261E+04  0.50400001928E-02 0. -1.
</event>
<event>
 5   0  0.2907071E-07  0.3565215E+04  0.7818609E-02  0.8098506E-01
        1   -1    0    0  501    0  0.00000000000E+00  0.00000000000E+00  0.23606528073E+04  0.23606528073E+04  0.50400001928E-02 0. -1.
       -1   -1    0    0    0  501  0.00000000000E+00  0.00000000000E+00 -0.13461063471E+04  0.13461063472E+04  0.50400001928E-02 0.  1.
    10030    2    1    2    0    0  0.00000000000E+00  0.00000000000E+00  0.10145464601E+04  0.37067591544E+04  0.35652151281E+04 0.  0.
        2    1    3    3  502    0  0.17139446860E+04  0.36959622124E+03  0.84173076188E+03  0.19449211883E+04  0.25500000920E-02 0. -1.
       -2    1    3    3    0  502 -0.17139446860E+04 -0.36959622124E+03  0.17281569825E+03  0.17618379661E+04  0.25500000920E-02 0.  1.
</event>
<event>
 5   0  0.7551495E-07  0.3812873E+04  0.7818609E-02  0.8043398E-01
        2   -1    0    0  501    0  0.00000000000E+00  0.00000000000E+00  0.12156229402E+04  0.12156229402E+04  0.25500000920E-02 0. -1.
       -2   -1    0    0    0  501  0.00000000000E+00  0.00000000000E+00 -0.29898255028E+04  0.29898255028E+04  0.25500000920E-02 0.  1.
    10030    2    1    2    0    0  0.00000000000E+00  0.00000000000E+00 -0.17742025626E+04  0.42054484430E+04  0.38128731782E+04 0.  0.
        1    1    3    3  502    0 -0.10311807416E+04 -0.14354292926E+04 -0.98882247531E+02  0.17701888811E+04  0.50400001928E-02 0. -1.
       -1    1    3    3    0  502  0.10311807416E+04  0.14354292926E+04 -0.16753203151E+04  0.24352595619E+04  0.50400001928E-02 0.  1.
</event>
<event>
 5   0  0.7551495E-07  0.2820575E+04  0.7818609E-02  0.8296909E-01
       -2   -1    0    0    0  501  0.00000000000E+00  0.00000000000E+00  0.10550395662E+04  0.10550395662E+04  0.25500000920E-02 0.  1.
        2   -1    0    0  501    0  0.00000000000E+00  0.00000000000E+00 -0.18851527929E+04  0.18851527929E+04  0.25500000920E-02 0. -1.
    10030    2    1    2    0    0  0.00000000000E+00  0.00000000000E+00 -0.83011322670E+03  0.29401923590E+04  0.28205749660E+04 0.  0.
        1    1    3    3  502    0  0.81884522193E+03 -0.82453416060E+03  0.41792311377E+03  0.12349185433E+04  0.50400001928E-02 0.  1.
       -1    1    3    3    0  502 -0.81884522193E+03  0.82453416060E+03 -0.12480363405E+04  0.17052738157E+04  0.50400001928E-02 0. -1.
</event>
<event>
 5   0  0.2529875E-07  0.3835773E+04  0.7818609E-02  0.8038521E-01
        1   -1    0    0  501    0  0.00000000000E+00  0.00000000000E+00  0.10964306055E+04  0.10964306055E+04  0.50400001928E-02 0.  1.
       -1   -1    0    0    0  501  0.00000000000E+00  0.00000000000E+00 -0.33547849312E+04  0.33547849312E+04  0.50400001928E-02 0. -1.
    10030    2    1    2    0    0  0.00000000000E+00  0.00000000000E+00 -0.22583543257E+04  0.44512155367E+04  0.38357731285E+04 0.  0.
        4    1    3    3  502    0  0.18541172747E+04  0.39092709044E+03 -0.78549561602E+03  0.20512386097E+04  0.12699999809E+01 0.  1.
       -4    1    3    3    0  502 -0.18541172747E+04 -0.39092709044E+03 -0.14728587097E+04  0.23999769270E+04  0.12699999809E+01 0. -1.
</event>
<event>
 5   0  0.7638805E-07  0.3781778E+04  0.7818609E-02  0.8050077E-01
       -2   -1    0    0    0  501  0.00000000000E+00  0.00000000000E+00  0.14499982964E+04  0.14499982964E+04  0.25500000920E-02 0. -1.
        2   -1    0    0  501    0  0.00000000000E+00  0.00000000000E+00 -0.24658376260E+04  0.24658376260E+04  0.25500000920E-02 0.  1.
    10030    2    1    2    0    0  0.00000000000E+00  0.00000000000E+00 -0.10158393296E+04  0.39158359224E+04  0.37817775487E+04 0.  0.
        5    1    3    3  502    0  0.42719331280E+03  0.12043846538E+04  0.93518568536E+03  0.15835500866E+04  0.46999998093E+01 0. -1.
       -5    1    3    3    0  502 -0.42719331280E+03 -0.12043846538E+04 -0.19510250150E+04  0.23322858358E+04  0.46999998093E+01 0.  1.
</event>
<event>
 5   0  0.2529875E-07  0.3762045E+04  0.7818609E-02  0.8054349E-01
       -1   -1    0    0    0  501  0.00000000000E+00  0.00000000000E+00  0.12003067893E+04  0.12003067893E+04  0.50400001928E-02 0. -1.
        1   -1    0    0  501    0  0.00000000000E+00  0.00000000000E+00 -0.29477838626E+04  0.29477838626E+04  0.50400001928E-02 0.  1.
    10030    2    1    2    0    0  0.00000000000E+00  0.00000000000E+00 -0.17474770733E+04  0.41480906520E+04  0.37620446482E+04 0.  0.
        5    1    3    3  502    0 -0.56326738550E+03 -0.69857477324E+03 -0.26965419000E+04  0.28419424994E+04  0.46999998093E+01 0.  1.
       -5    1    3    3    0  502  0.56326738550E+03  0.69857477324E+03  0.94906482667E+03  0.13061481526E+04  0.46999998093E+01 0. -1.
</event>
<event>
 5   0  0.2907071E-07  0.3761307E+04  0.7818609E-02  0.8054510E-01
        1   -1    0    0  501    0  0.00000000000E+00  0.00000000000E+00  0.23250751155E+04  0.23250751155E+04  0.50400001928E-02 0.  1.
       -1   -1    0    0    0  501  0.00000000000E+00  0.00000000000E+00 -0.15211802115E+04  0.15211802115E+04  0.50400001928E-02 0. -1.
    10030    2    1    2    0    0  0.00000000000E+00  0.00000000000E+00  0.80389490402E+03  0.38462553271E+04  0.37613073557E+04 0.  0.
        2    1    3    3  502    0 -0.80190753820E+03 -0.16144560012E+04 -0.14619454948E+03  0.18085620603E+04  0.25500000920E-02 0. -1.
       -2    1    3    3    0  502  0.80190753820E+03  0.16144560012E+04  0.95008945350E+03  0.20376932668E+04  0.25500000920E-02 0.  1.
</event>
<event>
 5   0  0.7638805E-07  0.3799119E+04  0.7818609E-02  0.8046344E-01
       -2   -1    0    0    0  501  0.00000000000E+00  0.00000000000E+00  0.20631455684E+04  0.20631455684E+04  0.25500000920E-02 0. -1.
        2   -1    0    0  501    0  0.00000000000E+00  0.00000000000E+00 -0.17489442036E+04  0.17489442036E+04  0.25500000920E-02 0.  1.
    10030    2    1    2    0    0  0.00000000000E+00  0.00000000000E+00  0.31420136482E+03  0.38120897720E+04  0.37991190995E+04 0.  0.
        5    1    3    3  502    0  0.10574702113E+04  0.44752035309E+03 -0.13612696977E+04  0.17808972441E+04  0.46999998093E+01 0. -1.
       -5    1    3    3    0  502 -0.10574702113E+04 -0.44752035309E+03  0.16754710625E+04  0.20311925279E+04  0.46999998093E+01 0.  1.
</event>
<event>
 5   0  0.7551495E-07  0.4338186E+04  0.7818609E-02  0.7939595E-01
       -2   -1    0    0    0  501  0.00000000000E+00  0.00000000000E+00  0.28785280818E+04  0.28785280818E+04  0.25500000920E-02 0. -1.
        2   -1    0    0  501    0  0.00000000000E+00  0.00000000000E+00 -0.16345036056E+04  0.16345036056E+04  0.25500000920E-02 0.  1.
    10030    2    1    2    0    0  0.00000000000E+00  0.00000000000E+00  0.12440244762E+04  0.45130316874E+04  0.43381860396E+04 0.  0.
        1    1    3    3  502    0 -0.10049306582E+04 -0.10970824783E+04 -0.10200502950E+04  0.18038786534E+04  0.50400001928E-02 0. -1.
       -1    1    3    3    0  502  0.10049306582E+04  0.10970824783E+04  0.22640747712E+04  0.27091530340E+04  0.50400001928E-02 0.  1.
</event>
<event>
 5   0  0.2529875E-07  0.3793177E+04  0.7818609E-02  0.8047621E-01
        1   -1    0    0  501    0  0.00000000000E+00  0.00000000000E+00  0.18871487891E+04  0.18871487891E+04  0.50400001928E-02 0.  1.
       -1   -1    0    0    0  501  0.00000000000E+00  0.00000000000E+00 -0.19060751079E+04  0.19060751079E+04  0.50400001928E-02 0. -1.
    10030    2    1    2    0    0  0.00000000000E+00  0.00000000000E+00 -0.18926318766E+02  0.37932238970E+04  0.37931766802E+04 0.  0.
        4    1    3    3  502    0  0.15856812241E+04  0.68583878895E+03 -0.79195991547E+03  0.19005162219E+04  0.12699999809E+01 0. -1.
       -4    1    3    3    0  502 -0.15856812241E+04 -0.68583878895E+03  0.77303359671E+03  0.18927076751E+04  0.12699999809E+01 0.  1.
</event>
<event>
 5   0  0.2529875E-07  0.3834217E+04  0.7818609E-02  0.8038852E-01
        3   -1    0    0  501    0  0.00000000000E+00  0.00000000000E+00  0.19078183596E+04  0.19078183623E+04  0.10100000352E+00 0. -1.
       -3   -1    0    0    0  501  0.00000000000E+00  0.00000000000E+00 -0.19264441985E+04  0.19264442011E+04  0.10100000352E+00 0.  1.
    10030    2    1    2    0    0  0.00000000000E+00  0.00000000000E+00 -0.18625838888E+02  0.38342625634E+04  0.38342173234E+04 0.  0.
        4    1    3    3  502    0 -0.82223556819E+03  0.17124060943E+04  0.24933669906E+03  0.19158748299E+04  0.12699999809E+01 0. -1.
       -4    1    3    3    0  502  0.82223556819E+03 -0.17124060943E+04 -0.26796253795E+03  0.19183877335E+04  0.12699999809E+01 0.  1.
</event>
<event>
 5   0  0.2529875E-07  0.3424270E+04  0.7818609E-02  0.8131975E-01
       -1   -1    0    0    0  501  0.00000000000E+00  0.00000000000E+00  0.11117803529E+04  0.11117803529E+04  0.50400001928E-02 0.  1.
        1   -1    0    0  501    0  0.00000000000E+00  0.00000000000E+00 -0.26366781638E+04  0.26366781638E+04  0.50400001928E-02 0. -1.
    10030    2    1    2    0    0  0.00000000000E+00  0.00000000000E+00 -0.15248978109E+04  0.37484585168E+04  0.34242704213E+04 0.  0.
        3    1    3    3  502    0  0.73143443468E+03 -0.57941905359E+03  0.80896421476E+03  0.12349679684E+04  0.10100000352E+00 0.  1.
       -3    1    3    3    0  502 -0.73143443468E+03  0.57941905359E+03 -0.23338620257E+04  0.25134905484E+04  0.10100000352E+00 0. -1.
</event>
<event>
 5   0  0.2529875E-07  0.4232901E+04  0.7818609E-02  0.7959143E-01
        1   -1    0    0  501    0  0.00000000000E+00  0.00000000000E+00  0.19287623230E+04  0.19287623230E+04  0.50400001928E-02 0. -1.
       -1   -1    0    0    0  501  0.00000000000E+00  0.00000000000E+00 -0.23224022189E+04  0.23224022189E+04  0.50400001928E-02 0.  1.
    10030    2    1    2    0    0  0.00000000000E+00  0.00000000000E+00 -0.39363989584E+03  0.42511645419E+04  0.42329006125E+04 0.  0.
        3    1    3    3  502    0  0.20759660143E+04 -0.48528115598E+02 -0.60769641683E+03  0.21636276980E+04  0.10100000352E+00 0.  1.
       -3    1    3    3    0  502 -0.20759660143E+04  0.48528115598E+02  0.21405652099E+03  0.20875368439E+04  0.10100000352E+00 0. -1.
</event>
<event>
 5   0  0.2529875E-07  0.3692995E+04  0.7818609E-02  0.8069516E-01
        1   -1    0    0  501    0  0.00000000000E+00  0.00000000000E+00  0.11615014364E+04  0.11615014364E+04  0.50400001928E-02 0. -1.
       -1   -1    0    0    0  501  0.00000000000E+00  0.00000000000E+00 -0.29354699394E+04  0.29354699394E+04  0.50400001928E-02 0.  1.
    10030    2    1    2    0    0  0.00000000000E+00  0.00000000000E+00 -0.17739685030E+04  0.40969713758E+04  0.36929947474E+04 0.  0.
        5    1    3    3  502    0 -0.57568970147E+03 -0.35065938500E+02 -0.28329700882E+04  0.28910880068E+04  0.46999998093E+01 0.  1.
       -5    1    3    3    0  502  0.57568970147E+03  0.35065938500E+02  0.10590015851E+04  0.12058833690E+04  0.46999998093E+01 0. -1.
</event>
<event>
 5   0  0.2529875E-07  0.3840395E+04  0.7818609E-02  0.8037541E-01
       -1   -1    0    0    0  501  0.00000000000E+00  0.00000000000E+00  0.12700286022E+04  0.12700286022E+04  0.50400001928E-02 0. -1.
        1   -1    0    0  501    0  0.00000000000E+00  0.00000000000E+00 -0.29032087493E+04  0.29032087493E+04  0.50400001928E-02 0.  1.
    10030    2    1    2    0    0  0.00000000000E+00  0.00000000000E+00 -0.16331801471E+04  0.41732373515E+04  0.38403948494E+04 0.  0.
        4    1    3    3  502    0 -0.71317015986E+03  0.17237382577E+04 -0.13113183926E+04  0.22802286722E+04  0.12699999809E+01 0. -1.
       -4    1    3    3    0  502  0.71317015986E+03 -0.17237382577E+04 -0.32186175447E+03  0.18930086793E+04  0.12699999809E+01 0.  1.
</event>
<event>
 5   0  0.2529875E-07  0.3885669E+04  0.7818609E-02  0.8028016E-01
        1   -1    0    0  501    0  0.00000000000E+00  0.00000000000E+00  0.19771801150E+04  0.19771801150E+04  0.50400001928E-02 0. -1.
       -1   -1    0    0    0  501  0.00000000000E+00  0.00000000000E+00 -0.19090856208E+04  0.19090856208E+04  0.50400001928E-02 0.  1.
    10030    2    1    2    0    0  0.00000000000E+00  0.00000000000E+00  0.68094494250E+02  0.38862657358E+04  0.38856691199E+04 0.  0.
        5    1    3    3  502    0 -0.11222636615E+04 -0.40688115659E+03  0.15671087610E+04  0.19699949138E+04  0.46999998093E+01 0. -1.
       -5    1    3    3    0  502  0.11222636615E+04  0.40688115659E+03 -0.14990142668E+04  0.19162708220E+04  0.46999998093E+01 0.  1.
</event>
<event>
 5   0  0.7649458E-07  0.3958091E+04  0.7818609E-02  0.8013055E-01
        2   -1    0    0  501    0  0.00000000000E+00  0.00000000000E+00  0.27355551702E+04  0.27355551702E+04  0.25500000920E-02 0. -1.
       -2   -1    0    0    0  501  0.00000000000E+00  0.00000000000E+00 -0.14317465107E+04  0.14317465107E+04  0.25500000920E-02 0.  1.
    10030    2    1    2    0    0  0.00000000000E+00  0.00000000000E+00  0.13038086595E+04  0.41673016810E+04  0.39580912419E+04 0.  0.
        4    1    3    3  502    0 -0.55634465561E+03  0.31684239425E+03 -0.13196972494E+04  0.14668029593E+04  0.12699999809E+01 0.  1.
       -4    1    3    3    0  502  0.55634465561E+03 -0.31684239425E+03  0.26235059089E+04  0.27004987216E+04  0.12699999809E+01 0. -1.
</event>
<event>
 5   0  0.2529875E-07  0.3813824E+04  0.7818609E-02  0.8043195E-01
       -1   -1    0    0    0  501  0.00000000000E+00  0.00000000000E+00  0.18509386873E+04  0.18509386873E+04  0.50400001928E-02 0.  1.
        1   -1    0    0  501    0  0.00000000000E+00  0.00000000000E+00 -0.19645780278E+04  0.19645780278E+04  0.50400001928E-02 0. -1.
    10030    2    1    2    0    0  0.00000000000E+00  0.00000000000E+00 -0.11363934058E+03  0.38155167151E+04  0.38138240525E+04 0.  0.
        5    1    3    3  502    0  0.95669882910E+03 -0.80370663593E+03  0.13843315083E+04  0.18648358698E+04  0.46999998093E+01 0.  1.
       -5    1    3    3    0  502 -0.95669882910E+03  0.80370663593E+03 -0.14979708489E+04  0.19506808453E+04  0.46999998093E+01 0. -1.
</event>
<event>
 5   0  0.8421677E-07  0.3790087E+04  0.7818609E-02  0.8048286E-01
        2   -1    0    0  501    0  0.00000000000E+00  0.00000000000E+00  0.22310807860E+04  0.22310807860E+04  0.25500000920E-02 0. -1.
       -2   -1    0    0    0  501  0.00000000000E+00  0.00000000000E+00 -0.16096186401E+04  0.16096186401E+04  0.25500000920E-02 0.  1.
    10030    2    1    2    0    0  0.00000000000E+00  0.00000000000E+00  0.62146214590E+03  0.38406994260E+04  0.37900866590E+04 0.  0.
        3    1    3    3  502    0  0.58799093606E+02  0.11066184837E+04  0.18685061424E+04  0.21724127177E+04  0.10100000352E+00 0. -1.
       -3    1    3    3    0  502 -0.58799093606E+02 -0.11066184837E+04 -0.12470439964E+04  0.16682867083E+04  0.10100000352E+00 0.  1.
</event>
<event>
 5   0  0.8421677E-07  0.3790754E+04  0.7818609E-02  0.8048142E-01
        2   -1    0    0  501    0  0.00000000000E+00  0.00000000000E+00  0.19912445555E+04  0.19912445555E+04  0.25500000920E-02 0. -1.
       -2   -1    0    0    0  501  0.00000000000E+00  0.00000000000E+00 -0.18041247022E+04  0.18041247022E+04  0.25500000920E-02 0.  1.
    10030    2    1    2    0    0  0.00000000000E+00  0.00000000000E+00  0.18711985330E+03  0.37953692577E+04  0.37907537460E+04 0.  0.
        3    1    3    3  502    0 -0.17214885729E+04  0.71260564196E+02 -0.69724510640E+03  0.18586962428E+04  0.10100000352E+00 0.  1.
       -3    1    3    3    0  502  0.17214885729E+04 -0.71260564196E+02  0.88436495970E+03  0.19366730149E+04  0.10100000352E+00 0. -1.
</event>
<event>
 5   0  0.2529875E-07  0.3644885E+04  0.7818609E-02  0.8080287E-01
        4   -1    0    0  501    0  0.00000000000E+00  0.00000000000E+00  0.18940838186E+04  0.18940842444E+04  0.12699999809E+01 0. -1.
       -4   -1    0    0    0  501  0.00000000000E+00  0.00000000000E+00 -0.17535103699E+04  0.17535108298E+04  0.12699999809E+01 0.  1.
    10030    2    1    2    0    0  0.00000000000E+00  0.00000000000E+00  0.14057344872E+03  0.36475950742E+04  0.36448853110E+04 0.  0.
        2    1    3    3  502    0 -0.83318682380E+03  0.31848243625E+02 -0.15514372884E+04  0.17612984568E+04  0.25500000920E-02 0.  1.
       -2    1    3    3    0  502  0.83318682380E+03 -0.31848243625E+02  0.16920107372E+04  0.18862966174E+04  0.25500000920E-02 0. -1.
</event>
<event>
 5   0  0.7638805E-07  0.3774713E+04  0.7818609E-02  0.8051603E-01
       -2   -1    0    0    0  501  0.00000000000E+00  0.00000000000E+00  0.15397424840E+04  0.15397424840E+04  0.25500000920E-02 0. -1.
        2   -1    0    0  501    0  0.00000000000E+00  0.00000000000E+00 -0.23134476508E+04  0.23134476508E+04  0.25500000920E-02 0.  1.
    10030    2    1    2    0    0  0.00000000000E+00  0.00000000000E+00 -0.77370516679E+03  0.38531901349E+04  0.37747125096E+04 0.  0.
        5    1    3    3  502    0  0.12292216805E+04  0.11149768375E+04  0.53068535939E+03  0.17423571186E+04  0.46999998093E+01 0. -1.
       -5    1    3    3    0  502 -0.12292216805E+04 -0.11149768375E+04 -0.13043905262E+04  0.21108330163E+04  0.46999998093E+01 0.  1.
</event>
<event>
 5   0  0.2529875E-07  0.3704166E+04  0.7818609E-02  0.8067039E-01
       -1   -1    0    0    0  501  0.00000000000E+00  0.00000000000E+00  0.15243427575E+04  0.15243427575E+04  0.50400001928E-02 0. -1.
        1   -1    0    0  501    0  0.00000000000E+00  0.00000000000E+00 -0.22502891284E+04  0.22502891285E+04  0.50400001928E-02 0.  1.
    10030    2    1    2    0    0  0.00000000000E+00  0.00000000000E+00 -0.72594637092E+03  0.37746318860E+04  0.37041662680E+04 0.  0.
        5    1    3    3  502    0 -0.50681429671E+03 -0.13735182316E+03  0.14468947723E+04  0.15392377421E+04  0.46999998093E+01 0. -1.
       -5    1    3    3    0  502  0.50681429671E+03  0.13735182316E+03 -0.21728411432E+04  0.22353941439E+04  0.46999998093E+01 0.  1.
</event>
<event>
 5   0  0.2907071E-07  0.3721156E+04  0.7818609E-02  0.8063289E-01
        1   -1    0    0  501    0  0.00000000000E+00  0.00000000000E+00  0.14997193677E+04  0.14997193677E+04  0.50400001928E-02 0. -1.
       -1   -1    0    0    0  501  0.00000000000E+00  0.00000000000E+00 -0.23082657536E+04  0.23082657536E+04  0.50400001928E-02 0.  1.
    10030    2    1    2    0    0  0.00000000000E+00  0.00000000000E+00 -0.80854638584E+03  0.38079851213E+04  0.37211561948E+04 0.  0.
        2    1    3    3  502    0  0.86501501879E+03  0.39983950400E+03  0.12310220736E+04  0.15567716458E+04  0.25500000920E-02 0. -1.
       -2    1    3    3    0  502 -0.86501501879E+03 -0.39983950400E+03 -0.20395684594E+04  0.22512134755E+04  0.25500000920E-02 0.  1.
</event>
<event>
 5   0  0.7638805E-07  0.3872741E+04  0.7818609E-02  0.8030723E-01
       -2   -1    0    0    0  501  0.00000000000E+00  0.00000000000E+00  0.25739334962E+04  0.25739334962E+04  0.25500000920E-02 0. -1.
        2   -1    0    0  501    0  0.00000000000E+00  0.00000000000E+00 -0.14567315570E+04  0.14567315570E+04  0.25500000920E-02 0.  1.
    10030    2    1    2    0    0  0.00000000000E+00  0.00000000000E+00  0.11172019392E+04  0.40306650532E+04  0.38727407089E+04 0.  0.
        5    1    3    3  502    0 -0.95708991107E+03 -0.28870366286E+03 -0.11673778667E+04  0.15369333351E+04  0.46999998093E+01 0.  1.
       -5    1    3    3    0  502  0.95708991107E+03  0.28870366286E+03  0.22845798058E+04  0.24937317182E+04  0.46999998093E+01 0. -1.
</event>
<event>
 5   0  0.7551495E-07  0.3860418E+04  0.7818609E-02  0.8033312E-01
       -2   -1    0    0    0  501  0.00000000000E+00  0.00000000000E+00  0.19881385754E+04  0.19881385754E+04  0.25500000920E-02 0. -1.
        2   -1    0    0  501    0  0.00000000000E+00  0.00000000000E+00 -0.18739673607E+04  0.18739673607E+04  0.25500000920E-02 0.  1.
    10030    2    1    2    0    0  0.00000000000E+00  0.00000000000E+00  0.11417121479E+03  0.38621059361E+04  0.38604180079E+04 0.  0.
        1    1    3    3  502    0 -0.52505577109E+03 -0.80367783971E+03  0.17323700167E+04  0.19805775692E+04  0.50400001928E-02 0. -1.
       -1    1    3    3    0  502  0.52505577109E+03  0.80367783971E+03 -0.16181988019E+04  0.18815283669E+04  0.50400001928E-02 0.  1.
</event>
<event>
 5   0  0.2907071E-07  0.3789945E+04  0.7818609E-02  0.8048316E-01
        1   -1    0    0  501    0  0.00000000000E+00  0.00000000000E+00  0.19199016113E+04  0.19199016113E+04  0.50400001928E-02 0. -1.
       -1   -1    0    0    0  501  0.00000000000E+00  0.00000000000E+00 -0.18703669253E+04  0.18703669253E+04  0.50400001928E-02 0.  1.
    10030    2    1    2    0    0  0.00000000000E+00  0.00000000000E+00  0.49534686025E+02  0.37902685366E+04  0.37899448405E+04 0.  0.
        2    1    3    3  502    0 -0.14223844443E+04 -0.12479482585E+04  0.12659995800E+03  0.18964651098E+04  0.25500000920E-02 0.  1.
       -2    1    3    3    0  502  0.14223844443E+04  0.12479482585E+04 -0.77065271973E+02  0.18938034268E+04  0.25500000920E-02 0. -1.
</event>
<event>
 5   0  0.7551495E-07  0.3298090E+04  0.7818609E-02  0.8163382E-01
        2   -1    0    0  501    0  0.00000000000E+00  0.00000000000E+00  0.19283497038E+04  0.19283497038E+04  0.25500000920E-02 0.  1.
       -2   -1    0    0    0  501  0.00000000000E+00  0.00000000000E+00 -0.14101952572E+04  0.14101952572E+04  0.25500000920E-02 0. -1.
    10030    2    1    2    0    0  0.00000000000E+00  0.00000000000E+00  0.51815444657E+03  0.33385449610E+04  0.32980901179E+04 0.  0.
        1    1    3    3  502    0 -0.16307133040E+04  0.15330011398E+03  0.45279545345E+03  0.16993382617E+04  0.50400001928E-02 0.  1.
       -1    1    3    3    0  502  0.16307133040E+04 -0.15330011398E+03  0.65358993116E+02  0.16392066993E+04  0.50400001928E-02 0. -1.
</event>
<event>
 5   0  0.2529875E-07  0.3826495E+04  0.7818609E-02  0.8040493E-01
        1   -1    0    0  501    0  0.00000000000E+00  0.00000000000E+00  0.19899554777E+04  0.19899554777E+04  0.50400001928E-02 0. -1.
       -1   -1    0    0    0  501  0.00000000000E+00  0.00000000000E+00 -0.18394967795E+04  0.18394967795E+04  0.50400001928E-02 0.  1.
    10030    2    1    2    0    0  0.00000000000E+00  0.00000000000E+00  0.15045869819E+03  0.38294522571E+04  0.38264953639E+04 0.  0.
        4    1    3    3  502    0  0.15912672020E+04  0.10587368308E+04 -0.11209233603E+02  0.19113299675E+04  0.12699999809E+01 0. -1.
       -4    1    3    3    0  502 -0.15912672020E+04 -0.10587368308E+04  0.16166793179E+03  0.19181222896E+04  0.12699999809E+01 0.  1.
</event>
<event>
 5   0  0.8421677E-07  0.3864505E+04  0.7818609E-02  0.8032452E-01
       -2   -1    0    0    0  501  0.00000000000E+00  0.00000000000E+00  0.14890169152E+04  0.14890169152E+04  0.25500000920E-02 0. -1.
        2   -1    0    0  501    0  0.00000000000E+00  0.00000000000E+00 -0.25074258914E+04  0.25074258914E+04  0.25500000920E-02 0.  1.
    10030    2    1    2    0    0  0.00000000000E+00  0.00000000000E+00 -0.10184089762E+04  0.39964428067E+04  0.38645049184E+04 0.  0.
        3    1    3    3  502    0 -0.41492003263E+02  0.25105440188E+03 -0.24900230430E+04  0.25029911434E+04  0.10100000352E+00 0.  1.
       -3    1    3    3    0  502  0.41492003263E+02 -0.25105440188E+03  0.14716140667E+04  0.14934516633E+04  0.10100000352E+00 0. -1.
</event>
<event>
 5   0  0.2529875E-07  0.3903125E+04  0.7818609E-02  0.8024380E-01
        1   -1    0    0  501    0  0.00000000000E+00  0.00000000000E+00  0.20195116146E+04  0.20195116146E+04  0.50400001928E-02 0.  1.
       -1   -1    0    0    0  501  0.00000000000E+00  0.00000000000E+00 -0.18858992476E+04  0.18858992476E+04  0.50400001928E-02 0. -1.
    10030    2    1    2    0    0  0.00000000000E+00  0.00000000000E+00  0.13361236697E+03  0.39054108622E+04  0.39031246122E+04 0.  0.
        4    1    3    3  502    0 -0.65936008397E+03 -0.34549297313E+03  0.18718786002E+04  0.20144607769E+04  0.12699999809E+01 0.  1.
       -4    1    3    3    0  502  0.65936008397E+03  0.34549297313E+03 -0.17382662332E+04  0.18909500854E+04  0.12699999809E+01 0. -1.
</event>
<event>
 5   0  0.8421677E-07  0.3740148E+04  0.7818609E-02  0.8059122E-01
       -2   -1    0    0    0  501  0.00000000000E+00  0.00000000000E+00  0.28857043795E+04  0.28857043795E+04  0.25500000920E-02 0.  1.
        2   -1    0    0  501    0  0.00000000000E+00  0.00000000000E+00 -0.12118971120E+04  0.12118971120E+04  0.25500000920E-02 0. -1.
    10030    2    1    2    0    0  0.00000000000E+00  0.00000000000E+00  0.16738072675E+04  0.40976014916E+04  0.37401480205E+04 0.  0.
        3    1    3    3  502    0 -0.83649214734E+03  0.15094429662E+04  0.47605308974E+02  0.17263845042E+04  0.10100000352E+00 0. -1.
       -3    1    3    3    0  502  0.83649214734E+03 -0.15094429662E+04  0.16262019585E+04  0.23712169873E+04  0.10100000352E+00 0.  1.
</event>
<event>
 5   0  0.7649458E-07  0.3848272E+04  0.7818609E-02  0.8035874E-01
        2   -1    0    0  501    0  0.00000000000E+00  0.00000000000E+00  0.19302845459E+04  0.19302845459E+04  0.25500000920E-02 0. -1.
       -2   -1    0    0    0  501  0.00000000000E+00  0.00000000000E+00 -0.19180069361E+04  0.19180069361E+04  0.25500000920E-02 0.  1.
    10030    2    1    2    0    0  0.00000000000E+00  0.00000000000E+00  0.12277609806E+02  0.38482914820E+04  0.38482718967E+04 0.  0.
        4    1    3    3  502    0 -0.41586620308E+03 -0.87748344875E+03  0.16672841087E+04  0.19294454679E+04  0.12699999809E+01 0. -1.
       -4    1    3    3    0  502  0.41586620308E+03  0.87748344875E+03 -0.16550064989E+04  0.19188460141E+04  0.12699999809E+01 0.  1.
</event>
<event>
 5   0  0.8038352E-07  0.3755088E+04  0.7818609E-02  0.8055862E-01
        2   -1    0    0  501    0  0.00000000000E+00  0.00000000000E+00  0.26037204572E+04  0.26037204572E+04  0.25500000920E-02 0.  1.
       -2   -1    0    0    0  501  0.00000000000E+00  0.00000000000E+00 -0.13538979767E+04  0.13538979767E+04  0.25500000920E-02 0. -1.
    10030    2    1    2    0    0  0.00000000000E+00  0.00000000000E+00  0.12498224805E+04  0.39576184339E+04  0.37550882061E+04 0.  0.
        2    1    3    3  502    0 -0.51524295593E+03  0.98248174914E+03  0.22213446973E+04  0.24829655566E+04  0.25500000920E-02 0.  1.
       -2    1    3    3    0  502  0.51524295593E+03 -0.98248174914E+03 -0.97152221671E+03  0.14746528773E+04  0.25500000920E-02 0. -1.
</event>
<event>
 5   0  0.8038352E-07  0.3732125E+04  0.7818609E-02  0.8060880E-01
       -2   -1    0    0    0  501  0.00000000000E+00  0.00000000000E+00  0.17200279632E+04  0.17200279632E+04  0.25500000920E-02 0. -1.
        2   -1    0    0  501    0  0.00000000000E+00  0.00000000000E+00 -0.20244956098E+04  0.20244956098E+04  0.25500000920E-02 0.  1.
    10030    2    1    2    0    0  0.00000000000E+00  0.00000000000E+00 -0.30446764656E+03  0.37445235730E+04  0.37321248962E+04 0.  0.
        2    1    3    3  502    0  0.20357397299E+03  0.17540614810E+04 -0.75757476895E+03  0.19214821291E+04  0.25500000920E-02 0.  1.
       -2    1    3    3    0  502 -0.20357397299E+03 -0.17540614810E+04  0.45310712239E+03  0.18230414439E+04  0.25500000920E-02 0. -1.
</event>
<event>
 5   0  0.2529875E-07  0.3779061E+04  0.7818609E-02  0.8050663E-01
        1   -1    0    0  501    0  0.00000000000E+00  0.00000000000E+00  0.24341922786E+04  0.24341922786E+04  0.50400001928E-02 0. -1.
       -1   -1    0    0    0  501  0.00000000000E+00  0.00000000000E+00 -0.14667390821E+04  0.14667390821E+04  0.50400001928E-02 0.  1.
    10030    2    1    2    0    0  0.00000000000E+00  0.00000000000E+00  0.96745319651E+03  0.39009313606E+04  0.37790607025E+04 0.  0.
        4    1    3    3  502    0  0.15934164434E+04 -0.10151205733E+04  0.51430617923E+03  0.19580495906E+04  0.12699999809E+01 0.  1.
       -4    1    3    3    0  502 -0.15934164434E+04  0.10151205733E+04  0.45314701729E+03  0.19428817701E+04  0.12699999809E+01 0. -1.
</event>
<event>
 5   0  0.8038352E-07  0.3747602E+04  0.7818609E-02  0.8057494E-01
       -2   -1    0    0    0  501  0.00000000000E+00  0.00000000000E+00  0.20146794409E+04  0.20146794409E+04  0.25500000920E-02 0.  1.
        2   -1    0    0  501    0  0.00000000000E+00  0.00000000000E+00 -0.17427735057E+04  0.17427735057E+04  0.25500000920E-02 0. -1.
    10030    2    1    2    0    0  0.00000000000E+00  0.00000000000E+00  0.27190593516E+03  0.37574529466E+04  0.37476018744E+04 0.  0.
        2    1    3    3  502    0  0.58473135964E+03 -0.87820335329E+03 -0.14166582008E+04  0.17663726534E+04  0.25500000920E-02 0. -1.
       -2    1    3    3    0  502 -0.58473135964E+03  0.87820335329E+03  0.16885641360E+04  0.19910802932E+04  0.25500000920E-02 0.  1.
</event>
<event>
 5   0  0.7638805E-07  0.2652208E+04  0.7818609E-02  0.8350680E-01
       -2   -1    0    0    0  501  0.00000000000E+00  0.00000000000E+00  0.70098184702E+03  0.70098184702E+03  0.25500000920E-02 0.  1.
        2   -1    0    0  501    0  0.00000000000E+00  0.00000000000E+00 -0.25086982587E+04  0.25086982587E+04  0.25500000920E-02 0. -1.
    10030    2    1    2    0    0  0.00000000000E+00  0.00000000000E+00 -0.18077164117E+04  0.32096801058E+04  0.26522080907E+04 0.  0.
        5    1    3    3  502    0  0.11878003766E+04  0.58198793612E+02 -0.16139355337E+04  0.20047610409E+04  0.46999998093E+01 0. -1.
       -5    1    3    3    0  502 -0.11878003766E+04 -0.58198793612E+02 -0.19378087802E+03  0.12049190649E+04  0.46999998093E+01 0.  1.
</event>
<event>
 5   0  0.7638805E-07  0.2770192E+04  0.7818609E-02  0.8312583E-01
       -2   -1    0    0    0  501  0.00000000000E+00  0.00000000000E+00  0.97681910637E+03  0.97681910638E+03  0.25500000920E-02 0. -1.
        2   -1    0    0  501    0  0.00000000000E+00  0.00000000000E+00 -0.19640179658E+04  0.19640179658E+04  0.25500000920E-02 0.  1.
    10030    2    1    2    0    0  0.00000000000E+00  0.00000000000E+00 -0.98719885945E+03  0.29408370722E+04  0.27701915272E+04 0.  0.
        5    1    3    3  502    0  0.16279152945E+03 -0.19793485790E+03 -0.19386203588E+04  0.19554923358E+04  0.46999998093E+01 0.  1.
       -5    1    3    3    0  502 -0.16279152945E+03  0.19793485790E+03  0.95142149935E+03  0.98534473635E+03  0.46999998093E+01 0. -1.
</event>
<event>
 5   0  0.8421677E-07  0.3269132E+04  0.7818609E-02  0.8170794E-01
       -2   -1    0    0    0  501  0.00000000000E+00  0.00000000000E+00  0.77223484636E+03  0.77223484636E+03  0.25500000920E-02 0. -1.
        2   -1    0    0  501    0  0.00000000000E+00  0.00000000000E+00 -0.34598362571E+04  0.34598362571E+04  0.25500000920E-02 0.  1.
    10030    2    1    2    0    0  0.00000000000E+00  0.00000000000E+00 -0.26876014108E+04  0.42320711035E+04  0.32691320686E+04 0.  0.
        3    1    3    3  502    0  0.58945057430E+03 -0.14370185471E+04 -0.20030480648E+04  0.25346944282E+04  0.10100000352E+00 0. -1.
       -3    1    3    3    0  502 -0.58945057430E+03  0.14370185471E+04 -0.68455334594E+03  0.16973766753E+04  0.10100000352E+00 0.  1.
</event>
<event>
 5   0  0.2529875E-07  0.3842080E+04  0.7818609E-02  0.8037185E-01
       -1   -1    0    0    0  501  0.00000000000E+00  0.00000000000E+00  0.14233927612E+04  0.14233927612E+04  0.50400001928E-02 0.  1.
        1   -1    0    0  501    0  0.00000000000E+00  0.00000000000E+00 -0.25926742305E+04  0.25926742305E+04  0.50400001928E-02 0. -1.
    10030    2    1    2    0    0  0.00000000000E+00  0.00000000000E+00 -0.11692814693E+04  0.40160669918E+04  0.38420795056E+04 0.  0.
        5    1    3    3  502    0  0.43701143987E+03 -0.10973866418E+04 -0.21682161033E+04  0.24690928701E+04  0.46999998093E+01 0. -1.
       -5    1    3    3    0  502 -0.43701143987E+03  0.10973866418E+04  0.99893463399E+03  0.15469741217E+04  0.46999998093E+01 0.  1.
</event>
<event>
 5   0  0.2529875E-07  0.3199862E+04  0.7818609E-02  0.8188854E-01
       -1   -1    0    0    0  501  0.00000000000E+00  0.00000000000E+00  0.16863553707E+04  0.16863553707E+04  0.50400001928E-02 0.  1.
        1   -1    0    0  501    0  0.00000000000E+00  0.00000000000E+00 -0.15179355004E+04  0.15179355005E+04  0.50400001928E-02 0. -1.
    10030    2    1    2    0    0  0.00000000000E+00  0.00000000000E+00  0.16841987028E+03  0.32042908712E+04  0.31998616743E+04 0.  0.
        1    1    3    3  502    0 -0.13061049947E+04 -0.87690358033E+03 -0.20758409848E+03  0.15868085279E+04  0.50400001928E-02 0. -1.
       -1    1    3    3    0  502  0.13061049947E+04  0.87690358033E+03  0.37600396876E+03  0.16174823433E+04  0.50400001928E-02 0.  1.
</event>
<event>
 5   0  0.8421677E-07  0.3064042E+04  0.7818609E-02  0.8225676E-01
       -2   -1    0    0    0  501  0.00000000000E+00  0.00000000000E+00  0.11891817613E+04  0.11891817613E+04  0.25500000920E-02 0.  1.
        2   -1    0    0  501    0  0.00000000000E+00  0.00000000000E+00 -0.19737004622E+04  0.19737004622E+04  0.25500000920E-02 0. -1.
    10030    2    1    2    0    0  0.00000000000E+00  0.00000000000E+00 -0.78451870090E+03  0.31628822235E+04  0.30640421616E+04 0.  0.
        3    1    3    3  502    0  0.12730786832E+04 -0.48448232700E+03  0.33152664551E+03  0.14019138296E+04  0.10100000352E+00 0. -1.
       -3    1    3    3    0  502 -0.12730786832E+04  0.48448232700E+03 -0.11160453464E+04  0.17609683939E+04  0.10100000352E+00 0.  1.
</event>
<event>
 5   0  0.2907071E-07  0.4098336E+04  0.7818609E-02  0.7984998E-01
       -1   -1    0    0    0  501  0.00000000000E+00  0.00000000000E+00  0.12648954253E+04  0.12648954253E+04  0.50400001928E-02 0.  1.
        1   -1    0    0  501    0  0.00000000000E+00  0.00000000000E+00 -0.33197129121E+04  0.33197129121E+04  0.50400001928E-02 0. -1.
    10030    2    1    2    0    0  0.00000000000E+00  0.00000000000E+00 -0.20548174868E+04  0.45846083374E+04  0.40983360896E+04 0.  0.
        2    1    3    3  502    0  0.79970642121E+03  0.19150937568E+03  0.10722262806E+04  0.13512495691E+04  0.25500000920E-02 0.  1.
       -2    1    3    3    0  502 -0.79970642121E+03 -0.19150937568E+03 -0.31270437675E+04  0.32333587683E+04  0.25500000920E-02 0. -1.
</event>
<event>
 5   0  0.7649458E-07  0.3806121E+04  0.7818609E-02  0.8044843E-01
       -2   -1    0    0    0  501  0.00000000000E+00  0.00000000000E+00  0.12967652435E+04  0.12967652435E+04  0.25500000920E-02 0. -1.
        2   -1    0    0  501    0  0.00000000000E+00  0.00000000000E+00 -0.27928251530E+04  0.27928251530E+04  0.25500000920E-02 0.  1.
    10030    2    1    2    0    0  0.00000000000E+00  0.00000000000E+00 -0.14960599095E+04  0.40895903965E+04  0.38061206442E+04 0.  0.
        4    1    3    3  502    0  0.23689620841E+02  0.14168138614E+04  0.61690067793E+03  0.15454742881E+04  0.12699999809E+01 0. -1.
       -4    1    3    3    0  502 -0.23689620841E+02 -0.14168138614E+04 -0.21129605875E+04  0.25441161084E+04  0.12699999809E+01 0.  1.
</event>
<event>
 5   0  0.2529875E-07  0.3804487E+04  0.7818609E-02  0.8045193E-01
       -1   -1    0    0    0  501  0.00000000000E+00  0.00000000000E+00  0.15344337045E+04  0.15344337045E+04  0.50400001928E-02 0.  1.
        1   -1    0    0  501    0  0.00000000000E+00  0.00000000000E+00 -0.23582182301E+04  0.23582182301E+04  0.50400001928E-02 0. -1.
    10030    2    1    2    0    0  0.00000000000E+00  0.00000000000E+00 -0.82378452555E+03  0.38926519346E+04  0.38044865803E+04 0.  0.
        4    1    3    3  502    0  0.31517868228E+03 -0.11241159847E+04 -0.19485462579E+04  0.22715211822E+04  0.12699999809E+01 0. -1.
       -4    1    3    3    0  502 -0.31517868228E+03  0.11241159847E+04  0.11247617324E+04  0.16211307524E+04  0.12699999809E+01 0.  1.
</event>
<event>
 5   0  0.7649458E-07  0.3857342E+04  0.7818609E-02  0.8033960E-01
        2   -1    0    0  501    0  0.00000000000E+00  0.00000000000E+00  0.12758959392E+04  0.12758959392E+04  0.25500000920E-02 0. -1.
       -2   -1    0    0    0  501  0.00000000000E+00  0.00000000000E+00 -0.29154188773E+04  0.29154188773E+04  0.25500000920E-02 0.  1.
    10030    2    1    2    0    0  0.00000000000E+00  0.00000000000E+00 -0.16395229380E+04  0.41913148165E+04  0.38573416269E+04 0.  0.
        4    1    3    3  502    0 -0.71280019829E+03  0.31763553953E+03  0.10966896101E+04  0.13459963493E+04  0.12699999809E+01 0. -1.
       -4    1    3    3    0  502  0.71280019829E+03 -0.31763553953E+03 -0.27362125481E+04  0.28453184672E+04  0.12699999809E+01 0.  1.
</event>
<event>
 5   0  0.7551495E-07  0.3992805E+04  0.7818609E-02  0.8006000E-01
       -2   -1    0    0    0  501  0.00000000000E+00  0.00000000000E+00  0.22715443432E+04  0.22715443432E+04  0.25500000920E-02 0. -1.
        2   -1    0    0  501    0  0.00000000000E+00  0.00000000000E+00 -0.17545871398E+04  0.17545871398E+04  0.25500000920E-02 0.  1.
    10030    2    1    2    0    0  0.00000000000E+00  0.00000000000E+00  0.51695720347E+03  0.40261314830E+04  0.39928047746E+04 0.  0.
        1    1    3    3  502    0  0.28229614785E+03 -0.42051525251E+03  0.22056841274E+04  0.22630878601E+04  0.50400001928E-02 0. -1.
       -1    1    3    3    0  502 -0.28229614785E+03  0.42051525251E+03 -0.16887269239E+04  0.17630436229E+04  0.50400001928E-02 0.  1.
</event>
<event>
 5   0  0.8038352E-07  0.2473376E+04  0.7818609E-02  0.8412532E-01
       -2   -1    0    0    0  501  0.00000000000E+00  0.00000000000E+00  0.12646700773E+04  0.12646700773E+04  0.25500000920E-02 0. -1.
        2   -1    0    0  501    0  0.00000000000E+00  0.00000000000E+00 -0.12093249027E+04  0.12093249027E+04  0.25500000920E-02 0.  1.
    10030    2    1    2    0    0  0.00000000000E+00  0.00000000000E+00  0.55345174581E+02  0.24739949799E+04  0.24733758454E+04 0.  0.
        2    1    3    3  502    0  0.64649259022E+03  0.61471139739E+03 -0.82903129905E+03  0.12178323637E+04  0.25500000920E-02 0.  1.
       -2    1    3    3    0  502 -0.64649259022E+03 -0.61471139739E+03  0.88437647363E+03  0.12561626162E+04  0.25500000920E-02 0. -1.
</event>
<event>
 5   0  0.2529875E-07  0.3833583E+04  0.7818609E-02  0.8038986E-01
        1   -1    0    0  501    0  0.00000000000E+00  0.00000000000E+00  0.24811150902E+04  0.24811150902E+04  0.50400001928E-02 0. -1.
       -1   -1    0    0    0  501  0.00000000000E+00  0.00000000000E+00 -0.14808217691E+04  0.14808217691E+04  0.50400001928E-02 0.  1.
    10030    2    1    2    0    0  0.00000000000E+00  0.00000000000E+00  0.10002933211E+04  0.39619368593E+04  0.38335827823E+04 0.  0.
        3    1    3    3  502    0  0.72828526442E+03  0.42160669904E+02 -0.13317447734E+04  0.15184601082E+04  0.10100000352E+00 0.  1.
       -3    1    3    3    0  502 -0.72828526442E+03 -0.42160669904E+02  0.23320380946E+04  0.24434767511E+04  0.10100000352E+00 0. -1.
</event>
<event>
 5   0  0.2529875E-07  0.3820147E+04  0.7818609E-02  0.8041845E-01
       -1   -1    0    0    0  501  0.00000000000E+00  0.00000000000E+00  0.12993068402E+04  0.12993068402E+04  0.50400001928E-02 0.  1.
        1   -1    0    0  501    0  0.00000000000E+00  0.00000000000E+00 -0.28079445343E+04  0.28079445343E+04  0.50400001928E-02 0. -1.
    10030    2    1    2    0    0  0.00000000000E+00  0.00000000000E+00 -0.15086376941E+04  0.41072513745E+04  0.38201474005E+04 0.  0.
        1    1    3    3  502    0 -0.88558541404E+03  0.13821524655E+04  0.29569260108E+03  0.16679451663E+04  0.50400001928E-02 0. -1.
       -1    1    3    3    0  502  0.88558541404E+03 -0.13821524655E+04 -0.18043302952E+04  0.24393062082E+04  0.50400001928E-02 0.  1.
</event>
<event>
 5   0  0.2907071E-07  0.3794324E+04  0.7818609E-02  0.8047374E-01
        1   -1    0    0  501    0  0.00000000000E+00  0.00000000000E+00  0.11489437321E+04  0.11489437321E+04  0.50400001928E-02 0.  1.
       -1   -1    0    0    0  501  0.00000000000E+00  0.00000000000E+00 -0.31326368248E+04  0.31326368248E+04  0.50400001928E-02 0. -1.
    10030    2    1    2    0    0  0.00000000000E+00  0.00000000000E+00 -0.19836930927E+04  0.42815805569E+04  0.37943238895E+04 0.  0.
        2    1    3    3  502    0  0.54906669850E+03 -0.16339614747E+04 -0.18860195787E+04  0.25550683340E+04  0.25500000920E-02 0. -1.
       -2    1    3    3    0  502 -0.54906669850E+03  0.16339614747E+04 -0.97673514020E+02  0.17265122228E+04  0.25500000920E-02 0.  1.
</event>
<event>
 5   0  0.8038352E-07  0.3926582E+04  0.7818609E-02  0.8019523E-01
        2   -1    0    0  501    0  0.00000000000E+00  0.00000000000E+00  0.20530445471E+04  0.20530445471E+04  0.25500000920E-02 0.  1.
       -2   -1    0    0    0  501  0.00000000000E+00  0.00000000000E+00 -0.18774611767E+04  0.18774611767E+04  0.25500000920E-02 0. -1.
    10030    2    1    2    0    0  0.00000000000E+00  0.00000000000E+00  0.17558337042E+03  0.39305057239E+04  0.39265819392E+04 0.  0.
        2    1    3    3  502    0 -0.10862883618E+03 -0.29422193806E+03  0.20278059498E+04  0.20519170897E+04  0.25500000920E-02 0.  1.
       -2    1    3    3    0  502  0.10862883618E+03  0.29422193806E+03 -0.18522225794E+04  0.18785886342E+04  0.25500000920E-02 0. -1.
</event>
<event>
 5   0  0.7638805E-07  0.3543612E+04  0.7818609E-02  0.8103532E-01
        2   -1    0    0  501    0  0.00000000000E+00  0.00000000000E+00  0.22192403473E+04  0.22192403473E+04  0.25500000920E-02 0. -1.
       -2   -1    0    0    0  501  0.00000000000E+00  0.00000000000E+00 -0.14145812602E+04  0.14145812602E+04  0.25500000920E-02 0.  1.
    10030    2    1    2    0    0  0.00000000000E+00  0.00000000000E+00  0.80465908714E+03  0.36338216075E+04  0.35436116080E+04 0.  0.
        5    1    3    3  502    0  0.17570599733E+04  0.22473406627E+03  0.44215857600E+03  0.18257303872E+04  0.46999998093E+01 0.  1.
       -5    1    3    3    0  502 -0.17570599733E+04 -0.22473406627E+03  0.36250051114E+03  0.18080912203E+04  0.46999998093E+01 0. -1.
</event>
<event>
 5   0  0.2529875E-07  0.2645638E+04  0.7818609E-02  0.8352862E-01
        1   -1    0    0  501    0  0.00000000000E+00  0.00000000000E+00  0.76547215658E+03  0.76547215660E+03  0.50400001928E-02 0. -1.
       -1   -1    0    0    0  501  0.00000000000E+00  0.00000000000E+00 -0.22859756987E+04  0.22859756987E+04  0.50400001928E-02 0.  1.
    10030    2    1    2    0    0  0.00000000000E+00  0.00000000000E+00 -0.15205035421E+04  0.30514478553E+04  0.26456384847E+04 0.  0.
        1    1    3    3  502    0 -0.11319784289E+04 -0.40351404351E+03 -0.12259191725E+03  0.12079849026E+04  0.50400001928E-02 0. -1.
       -1    1    3    3    0  502  0.11319784289E+04  0.40351404351E+03 -0.13979116248E+04  0.18434629526E+04  0.50400001928E-02 0.  1.
</event>
<event>
 5   0  0.7551495E-07  0.3859265E+04  0.7818609E-02  0.8033555E-01
       -2   -1    0    0    0  501  0.00000000000E+00  0.00000000000E+00  0.15831097240E+04  0.15831097240E+04  0.25500000920E-02 0.  1.
        2   -1    0    0  501    0  0.00000000000E+00  0.00000000000E+00 -0.23520045385E+04  0.23520045385E+04  0.25500000920E-02 0. -1.
    10030    2    1    2    0    0  0.00000000000E+00  0.00000000000E+00 -0.76889481451E+03  0.39351142625E+04  0.38592648294E+04 0.  0.
        1    1    3    3  502    0 -0.86202183687E+03  0.60796293016E+03 -0.20319949705E+04  0.22894768249E+04  0.50400001928E-02 0. -1.
       -1    1    3    3    0  502  0.86202183687E+03 -0.60796293016E+03  0.12631001560E+04  0.16456374375E+04  0.50400001928E-02 0.  1.
</event>
<event>
 5   0  0.2529875E-07  0.3888842E+04  0.7818609E-02  0.8027354E-01
       -1   -1    0    0    0  501  0.00000000000E+00  0.00000000000E+00  0.16749777682E+04  0.16749777682E+04  0.50400001928E-02 0.  1.
        1   -1    0    0  501    0  0.00000000000E+00  0.00000000000E+00 -0.22572078713E+04  0.22572078713E+04  0.50400001928E-02 0. -1.
    10030    2    1    2    0    0  0.00000000000E+00  0.00000000000E+00 -0.58223010316E+03  0.39321856395E+04  0.38888419884E+04 0.  0.
        1    1    3    3  502    0 -0.51637159001E+03 -0.50175271194E+02  0.16037016948E+04  0.16855314600E+04  0.50400001928E-02 0.  1.
       -1    1    3    3    0  502  0.51637159001E+03  0.50175271194E+02 -0.21859317980E+04  0.22466541795E+04  0.50400001928E-02 0. -1.
</event>
<event>
 5   0  0.7638805E-07  0.3907856E+04  0.7818609E-02  0.8023397E-01
        2   -1    0    0  501    0  0.00000000000E+00  0.00000000000E+00  0.11967533666E+04  0.11967533666E+04  0.25500000920E-02 0. -1.
       -2   -1    0    0    0  501  0.00000000000E+00  0.00000000000E+00 -0.31901606156E+04  0.31901606156E+04  0.25500000920E-02 0.  1.
    10030    2    1    2    0    0  0.00000000000E+00  0.00000000000E+00 -0.19934072490E+04  0.43869139822E+04  0.39078564235E+04 0.  0.
        5    1    3    3  502    0  0.16829065555E+04  0.87797386365E+03 -0.47642204058E+03  0.19570418061E+04  0.46999998093E+01 0. -1.
       -5    1    3    3    0  502 -0.16829065555E+04 -0.87797386365E+03 -0.15169852084E+04  0.24298721762E+04  0.46999998093E+01 0.  1.
</event>
<event>
 5   0  0.7649458E-07  0.3821196E+04  0.7818609E-02  0.8041621E-01
        2   -1    0    0  501    0  0.00000000000E+00  0.00000000000E+00  0.23618801655E+04  0.23618801655E+04  0.25500000920E-02 0.  1.
       -2   -1    0    0    0  501  0.00000000000E+00  0.00000000000E+00 -0.15455421009E+04  0.15455421009E+04  0.25500000920E-02 0. -1.
    10030    2    1    2    0    0  0.00000000000E+00  0.00000000000E+00  0.81633806461E+03  0.39074222664E+04  0.38211962698E+04 0.  0.
        4    1    3    3  502    0  0.18514393255E+03  0.13406738037E+04 -0.97085370661E+03  0.16656059127E+04  0.12699999809E+01 0. -1.
       -4    1    3    3    0  502 -0.18514393255E+03 -0.13406738037E+04  0.17871917712E+04  0.22418163537E+04  0.12699999809E+01 0.  1.
</event>
<event>
 5   0  0.7638805E-07  0.3862492E+04  0.7818609E-02  0.8032876E-01
        2   -1    0    0  501    0  0.00000000000E+00  0.00000000000E+00  0.23802906652E+04  0.23802906652E+04  0.25500000920E-02 0.  1.
       -2   -1    0    0    0  501  0.00000000000E+00  0.00000000000E+00 -0.15669139666E+04  0.15669139666E+04  0.25500000920E-02 0. -1.
    10030    2    1    2    0    0  0.00000000000E+00  0.00000000000E+00  0.81337669861E+03  0.39472046319E+04  0.38624917802E+04 0.  0.
        5    1    3    3  502    0  0.17818148880E+03 -0.55932924958E+03 -0.14735254308E+04  0.15861579801E+04  0.46999998093E+01 0. -1.
       -5    1    3    3    0  502 -0.17818148880E+03  0.55932924958E+03  0.22869021295E+04  0.23610466518E+04  0.46999998093E+01 0.  1.
</event>
<event>
 5   0  0.7638805E-07  0.3776312E+04  0.7818609E-02  0.8051257E-01
        2   -1    0    0  501    0  0.00000000000E+00  0.00000000000E+00  0.14544152272E+04  0.14544152272E+04  0.25500000920E-02 0.  1.
       -2   -1    0    0    0  501  0.00000000000E+00  0.00000000000E+00 -0.24512489717E+04  0.24512489717E+04  0.25500000920E-02 0. -1.
    10030    2    1    2    0    0  0.00000000000E+00  0.00000000000E+00 -0.99683374446E+03  0.39056641989E+04  0.37763123971E+04 0.  0.
        5    1    3    3  502    0 -0.92637871774E+03 -0.69327170951E+03 -0.20416078069E+04  0.23466971937E+04  0.46999998093E+01 0.  1.
       -5    1    3    3    0  502  0.92637871774E+03  0.69327170951E+03  0.10447740624E+04  0.15589670052E+04  0.46999998093E+01 0. -1.
</event>
<event>
 5   0  0.2529875E-07  0.2774006E+04  0.7818609E-02  0.8311384E-01
       -4   -1    0    0    0  501  0.00000000000E+00  0.00000000000E+00  0.16445573257E+04  0.16445578160E+04  0.12699999809E+01 0. -1.
        4   -1    0    0  501    0  0.00000000000E+00  0.00000000000E+00 -0.11697829771E+04  0.11697836665E+04  0.12699999809E+01 0.  1.
    10030    2    1    2    0    0  0.00000000000E+00  0.00000000000E+00  0.47477434859E+03  0.28143414825E+04  0.27740056413E+04 0.  0.
        2    1    3    3  502    0  0.63566934750E+03  0.35230198480E+02  0.14875631529E+04  0.16180731813E+04  0.25500000920E-02 0. -1.
       -2    1    3    3    0  502 -0.63566934750E+03 -0.35230198480E+02 -0.10127888043E+04  0.11962683012E+04  0.25500000920E-02 0.  1.
</event>
<event>
 5   0  0.7551495E-07  0.2990538E+04  0.7818609E-02  0.8246438E-01
        2   -1    0    0  501    0  0.00000000000E+00  0.00000000000E+00  0.13997021959E+04  0.13997021959E+04  0.25500000920E-02 0. -1.
       -2   -1    0    0    0  501  0.00000000000E+00  0.00000000000E+00 -0.15973605487E+04  0.15973605487E+04  0.25500000920E-02 0.  1.
    10030    2    1    2    0    0  0.00000000000E+00  0.00000000000E+00 -0.19765835284E+03  0.29970627445E+04  0.29905377895E+04 0.  0.
        1    1    3    3  502    0  0.19047875606E+03  0.12892927344E+04 -0.83341628634E+03  0.15469778983E+04  0.50400001928E-02 0.  1.
       -1    1    3    3    0  502 -0.19047875606E+03 -0.12892927344E+04  0.63575793350E+03  0.14500848463E+04  0.50400001928E-02 0. -1.
</event>
<event>
 5   0  0.2907071E-07  0.3213741E+04  0.7818609E-02  0.8185198E-01
       -1   -1    0    0    0  501  0.00000000000E+00  0.00000000000E+00  0.11494523810E+04  0.11494523810E+04  0.50400001928E-02 0.  1.
        1   -1    0    0  501    0  0.00000000000E+00  0.00000000000E+00 -0.22463150191E+04  0.22463150191E+04  0.50400001928E-02 0. -1.
    10030    2    1    2    0    0  0.00000000000E+00  0.00000000000E+00 -0.10968626381E+04  0.33957674002E+04  0.32137405915E+04 0.  0.
        2    1    3    3  502    0 -0.38314631372E+03  0.12785782103E+04  0.39693325470E+03  0.13925226555E+04  0.25500000920E-02 0. -1.
       -2    1    3    3    0  502  0.38314631372E+03 -0.12785782103E+04 -0.14937958928E+04  0.20032447446E+04  0.25500000920E-02 0.  1.
</event>
<event>
 5   0  0.7649458E-07  0.2883595E+04  0.7818609E-02  0.8277775E-01
       -2   -1    0    0    0  501  0.00000000000E+00  0.00000000000E+00  0.15588756167E+04  0.15588756167E+04  0.25500000920E-02 0. -1.
        2   -1    0    0  501    0  0.00000000000E+00  0.00000000000E+00 -0.13335121095E+04  0.13335121095E+04  0.25500000920E-02 0.  1.
    10030    2    1    2    0    0  0.00000000000E+00  0.00000000000E+00  0.22536350718E+03  0.28923877262E+04  0.28835946401E+04 0.  0.
        4    1    3    3  502    0 -0.46977812731E+03 -0.11612076829E+03 -0.12496211503E+04  0.13400485640E+04  0.12699999809E+01 0.  1.
       -4    1    3    3    0  502  0.46977812731E+03  0.11612076829E+03  0.14749846575E+04  0.15523391622E+04  0.12699999809E+01 0. -1.
</event>
<event>
 5   0  0.2529875E-07  0.3278501E+04  0.7818609E-02  0.8168387E-01
       -1   -1    0    0    0  501  0.00000000000E+00  0.00000000000E+00  0.16726729053E+04  0.16726729053E+04  0.50400001928E-02 0.  1.
        1   -1    0    0  501    0  0.00000000000E+00  0.00000000000E+00 -0.16064961114E+04  0.16064961115E+04  0.50400001928E-02 0. -1.
    10030    2    1    2    0    0  0.00000000000E+00  0.00000000000E+00  0.66176793810E+02  0.32791690167E+04  0.32785011929E+04 0.  0.
        3    1    3    3  502    0  0.62598401572E+03  0.28334450370E+02 -0.14819754753E+04  0.16090090580E+04  0.10100000352E+00 0. -1.
       -3    1    3    3    0  502 -0.62598401572E+03 -0.28334450370E+02  0.15481522692E+04  0.16701599587E+04  0.10100000352E+00 0.  1.
</event>
<event>
 5   0  0.8421677E-07  0.3764148E+04  0.7818609E-02  0.8053893E-01
        2   -1    0    0  501    0  0.00000000000E+00  0.00000000000E+00  0.18342166658E+04  0.18342166658E+04  0.25500000920E-02 0. -1.
       -2   -1    0    0    0  501  0.00000000000E+00  0.00000000000E+00 -0.19311801341E+04  0.19311801341E+04  0.25500000920E-02 0.  1.
    10030    2    1    2    0    0  0.00000000000E+00  0.00000000000E+00 -0.96963468276E+02  0.37653968000E+04  0.37641481303E+04 0.  0.
        3    1    3    3  502    0 -0.15531957559E+04  0.36498984469E+03 -0.10470954836E+04  0.19084138976E+04  0.10100000352E+00 0.  1.
       -3    1    3    3    0  502  0.15531957559E+04 -0.36498984469E+03  0.95013201530E+03  0.18569829023E+04  0.10100000352E+00 0. -1.
</event>
<event>
 5   0  0.2529875E-07  0.3587906E+04  0.7818609E-02  0.8093268E-01
        1   -1    0    0  501    0  0.00000000000E+00  0.00000000000E+00  0.12185487347E+04  0.12185487347E+04  0.50400001928E-02 0.  1.
       -1   -1    0    0    0  501  0.00000000000E+00  0.00000000000E+00 -0.26410653164E+04  0.26410653164E+04  0.50400001928E-02 0. -1.
    10030    2    1    2    0    0  0.00000000000E+00  0.00000000000E+00 -0.14225165817E+04  0.38596140511E+04  0.35879056842E+04 0.  0.
        4    1    3    3  502    0 -0.39731884940E+03  0.22437094555E+03  0.11550804883E+04  0.12419408749E+04  0.12699999809E+01 0.  1.
       -4    1    3    3    0  502  0.39731884940E+03 -0.22437094555E+03 -0.25775970700E+04  0.26176731763E+04  0.12699999809E+01 0. -1.
</event>
<event>
 5   0  0.7551495E-07  0.2684722E+04  0.7818609E-02  0.8339979E-01
        2   -1    0    0  501    0  0.00000000000E+00  0.00000000000E+00  0.95062225222E+03  0.95062225222E+03  0.25500000920E-02 0.  1.
       -2   -1    0    0    0  501  0.00000000000E+00  0.00000000000E+00 -0.18955293655E+04  0.18955293655E+04  0.25500000920E-02 0. -1.
    10030    2    1    2    0    0  0.00000000000E+00  0.00000000000E+00 -0.94490711328E+03  0.28461516177E+04  0.26847215085E+04 0.  0.
        1    1    3    3  502    0  0.87478206594E+03 -0.55502300876E+03 -0.13773830753E+04  0.17235075687E+04  0.50400001928E-02 0. -1.
       -1    1    3    3    0  502 -0.87478206594E+03  0.55502300876E+03  0.43247596200E+03  0.11226440491E+04  0.50400001928E-02 0.  1.
</event>
<event>
 5   0  0.2529875E-07  0.2521315E+04  0.7818609E-02  0.8395431E-01
       -1   -1    0    0    0  501  0.00000000000E+00  0.00000000000E+00  0.17930307731E+04  0.17930307731E+04  0.50400001928E-02 0.  1.
        1   -1    0    0  501    0  0.00000000000E+00  0.00000000000E+00 -0.88635274147E+03  0.88635274149E+03  0.50400001928E-02 0. -1.
    10030    2    1    2    0    0  0.00000000000E+00  0.00000000000E+00  0.90667803164E+03  0.26793835146E+04  0.25213153245E+04 0.  0.
        5    1    3    3  502    0 -0.52993098123E+03 -0.11146371449E+04  0.72633492074E+03  0.14320709887E+04  0.46999998093E+01 0. -1.
       -5    1    3    3    0  502  0.52993098123E+03  0.11146371449E+04  0.18034311090E+03  0.12473125259E+04  0.46999998093E+01 0.  1.
</event>
<event>
 5   0  0.2529875E-07  0.3786847E+04  0.7818609E-02  0.8048983E-01
        1   -1    0    0  501    0  0.00000000000E+00  0.00000000000E+00  0.22227203005E+04  0.22227203005E+04  0.50400001928E-02 0. -1.
       -1   -1    0    0    0  501  0.00000000000E+00  0.00000000000E+00 -0.16129117433E+04  0.16129117433E+04  0.50400001928E-02 0.  1.
    10030    2    1    2    0    0  0.00000000000E+00  0.00000000000E+00  0.60980855726E+03  0.38356320438E+04  0.37868465376E+04 0.  0.
        4    1    3    3  502    0  0.70220394976E+03 -0.17088338206E+04 -0.11498014662E+03  0.18510606312E+04  0.12699999809E+01 0. -1.
       -4    1    3    3    0  502 -0.70220394976E+03  0.17088338206E+04  0.72478870387E+03  0.19845714126E+04  0.12699999809E+01 0.  1.
</event>
<event>
 5   0  0.8421677E-07  0.2691407E+04  0.7818609E-02  0.8337798E-01
       -2   -1    0    0    0  501  0.00000000000E+00  0.00000000000E+00  0.10593272702E+04  0.10593272702E+04  0.25500000920E-02 0.  1.
        2   -1    0    0  501    0  0.00000000000E+00  0.00000000000E+00 -0.17094984263E+04  0.17094984263E+04  0.25500000920E-02 0. -1.
    10030    2    1    2    0    0  0.00000000000E+00  0.00000000000E+00 -0.65017115611E+03  0.27688256965E+04  0.26914072909E+04 0.  0.
        3    1    3    3  502    0  0.40812914064E+03  0.39223316003E+02 -0.16436760027E+04  0.16940421116E+04  0.10100000352E+00 0. -1.
       -3    1    3    3    0  502 -0.40812914064E+03 -0.39223316003E+02  0.99350484658E+03  0.10747835849E+04  0.10100000352E+00 0.  1.
</event>
<event>
 5   0  0.2529875E-07  0.3729573E+04  0.7818609E-02  0.8061440E-01
       -1   -1    0    0    0  501  0.00000000000E+00  0.00000000000E+00  0.12536616826E+04  0.12536616826E+04  0.50400001928E-02 0.  1.
        1   -1    0    0  501    0  0.00000000000E+00  0.00000000000E+00 -0.27738171483E+04  0.27738171483E+04  0.50400001928E-02 0. -1.
    10030    2    1    2    0    0  0.00000000000E+00  0.00000000000E+00 -0.15201554657E+04  0.40274788309E+04  0.37295727763E+04 0.  0.
        5    1    3    3  502    0  0.12931955252E+04 -0.86860567597E+03  0.34676993730E+03  0.15959642747E+04  0.46999998093E+01 0.  1.
       -5    1    3    3    0  502 -0.12931955252E+04  0.86860567597E+03 -0.18669254030E+04  0.24315145562E+04  0.46999998093E+01 0. -1.
</event>
<event>
 5   0  0.2529875E-07  0.3782222E+04  0.7818609E-02  0.8049981E-01
       -1   -1    0    0    0  501  0.00000000000E+00  0.00000000000E+00  0.15991140425E+04  0.15991140426E+04  0.50400001928E-02 0.  1.
        1   -1    0    0  501    0  0.00000000000E+00  0.00000000000E+00 -0.22364263530E+04  0.22364263531E+04  0.50400001928E-02 0. -1.
    10030    2    1    2    0    0  0.00000000000E+00  0.00000000000E+00 -0.63731231050E+03  0.38355403956E+04  0.37822219852E+04 0.  0.
        3    1    3    3  502    0  0.78605196859E+03  0.54879030089E+03  0.13344317213E+04  0.16430935824E+04  0.10100000352E+00 0.  1.
       -3    1    3    3    0  502 -0.78605196859E+03 -0.54879030089E+03 -0.19717440318E+04  0.21924468132E+04  0.10100000352E+00 0. -1.
</event>
<event>
 5   0  0.2907071E-07  0.3727422E+04  0.7818609E-02  0.8061912E-01
       -1   -1    0    0    0  501  0.00000000000E+00  0.00000000000E+00  0.16283863864E+04  0.16283863864E+04  0.50400001928E-02 0.  1.
        1   -1    0    0  501    0  0.00000000000E+00  0.00000000000E+00 -0.21330436366E+04  0.21330436366E+04  0.50400001928E-02 0. -1.
    10030    2    1    2    0    0  0.00000000000E+00  0.00000000000E+00 -0.50465725021E+03  0.37614300230E+04  0.37274222832E+04 0.  0.
        2    1    3    3  502    0  0.12923112163E+04  0.20420901663E+02  0.11026557745E+04  0.16989217315E+04  0.25500000920E-02 0.  1.
       -2    1    3    3    0  502 -0.12923112163E+04 -0.20420901663E+02 -0.16073130247E+04  0.20625082914E+04  0.25500000920E-02 0. -1.
</event>
<event>
 5   0  0.8038352E-07  0.3722001E+04  0.7818609E-02  0.8063104E-01
       -2   -1    0    0    0  501  0.00000000000E+00  0.00000000000E+00  0.12737299539E+04  0.12737299539E+04  0.25500000920E-02 0.  1.
        2   -1    0    0  501    0  0.00000000000E+00  0.00000000000E+00 -0.27190399486E+04  0.27190399486E+04  0.25500000920E-02 0. -1.
    10030    2    1    2    0    0  0.00000000000E+00  0.00000000000E+00 -0.14453099947E+04  0.39927699025E+04  0.37220008750E+04 0.  0.
        2    1    3    3  502    0  0.16827348428E+04 -0.98354327182E+02 -0.15687348110E+04  0.23026504363E+04  0.25500000920E-02 0.  1.
       -2    1    3    3    0  502 -0.16827348428E+04  0.98354327182E+02  0.12342481626E+03  0.16901194662E+04  0.25500000920E-02 0. -1.
</event>
<event>
 5   0  0.2529875E-07  0.3813660E+04  0.7818609E-02  0.8043230E-01
        1   -1    0    0  501    0  0.00000000000E+00  0.00000000000E+00  0.11846699677E+04  0.11846699678E+04  0.50400001928E-02 0. -1.
       -1   -1    0    0    0  501  0.00000000000E+00  0.00000000000E+00 -0.30692090994E+04  0.30692090994E+04  0.50400001928E-02 0.  1.
    10030    2    1    2    0    0  0.00000000000E+00  0.00000000000E+00 -0.18845391316E+04  0.42538790671E+04  0.38136595783E+04 0.  0.
        4    1    3    3  502    0 -0.99755057861E+02  0.17986273350E+04 -0.24480154096E+03  0.18179496057E+04  0.12699999809E+01 0. -1.
       -4    1    3    3    0  502  0.99755057861E+02 -0.17986273350E+04 -0.16397375907E+04  0.24359294614E+04  0.12699999809E+01 0.  1.
</event>
<event>
 5   0  0.2907071E-07  0.3819136E+04  0.7818609E-02  0.8042061E-01
        1   -1    0    0  501    0  0.00000000000E+00  0.00000000000E+00  0.10934395073E+04  0.10934395073E+04  0.50400001928E-02 0. -1.
       -1   -1    0    0    0  501  0.00000000000E+00  0.00000000000E+00 -0.33348438469E+04  0.33348438469E+04  0.50400001928E-02 0.  1.
    10030    2    1    2    0    0  0.00000000000E+00  0.00000000000E+00 -0.22414043396E+04  0.44282833543E+04  0.38191360347E+04 0.  0.
        2    1    3    3  502    0  0.17802401178E+04 -0.48321421753E+03 -0.54830525137E+03  0.19244192645E+04  0.25500000920E-02 0. -1.
       -2    1    3    3    0  502 -0.17802401178E+04  0.48321421753E+03 -0.16930990883E+04  0.25038640897E+04  0.25500000920E-02 0.  1.
</event>
<event>
 5   0  0.2529875E-07  0.2692660E+04  0.7818609E-02  0.8337390E-01
        1   -1    0    0  501    0  0.00000000000E+00  0.00000000000E+00  0.24722479445E+04  0.24722479445E+04  0.50400001928E-02 0.  1.
       -1   -1    0    0    0  501  0.00000000000E+00  0.00000000000E+00 -0.73318095774E+03  0.73318095775E+03  0.50400001928E-02 0. -1.
    10030    2    1    2    0    0  0.00000000000E+00  0.00000000000E+00  0.17390669868E+04  0.32054289023E+04  0.26926604805E+04 0.  0.
        3    1    3    3  502    0 -0.44694658949E+03  0.96509577937E+03  0.18522232924E+04  0.21358610096E+04  0.10100000352E+00 0.  1.
       -3    1    3    3    0  502  0.44694658949E+03 -0.96509577937E+03 -0.11315630567E+03  0.10695678926E+04  0.10100000352E+00 0. -1.
</event>
<event>
 5   0  0.7551495E-07  0.3795097E+04  0.7818609E-02  0.8047208E-01
       -2   -1    0    0    0  501  0.00000000000E+00  0.00000000000E+00  0.13695816669E+04  0.13695816669E+04  0.25500000920E-02 0. -1.
        2   -1    0    0  501    0  0.00000000000E+00  0.00000000000E+00 -0.26290433178E+04  0.26290433178E+04  0.25500000920E-02 0.  1.
    10030    2    1    2    0    0  0.00000000000E+00  0.00000000000E+00 -0.12594616509E+04  0.39986249847E+04  0.37950965888E+04 0.  0.
        1    1    3    3  502    0  0.79392063444E+03 -0.70849847072E+03  0.10256443721E+04  0.14779128644E+04  0.50400001928E-02 0. -1.
       -1    1    3    3    0  502 -0.79392063444E+03  0.70849847072E+03 -0.22851060230E+04  0.25207121203E+04  0.50400001928E-02 0.  1.
</event>
<event>
 5   0  0.7649458E-07  0.2344641E+04  0.7818609E-02  0.8460525E-01
       -2   -1    0    0    0  501  0.00000000000E+00  0.00000000000E+00  0.70261394110E+03  0.70261394111E+03  0.25500000920E-02 0. -1.
        2   -1    0    0  501    0  0.00000000000E+00  0.00000000000E+00 -0.19560322506E+04  0.19560322506E+04  0.25500000920E-02 0.  1.
    10030    2    1    2    0    0  0.00000000000E+00  0.00000000000E+00 -0.12534183095E+04  0.26586461918E+04  0.23446411483E+04 0.  0.
        4    1    3    3  502    0  0.83572147043E+03  0.41091984411E+03 -0.14341465902E+04  0.17099893419E+04  0.12699999809E+01 0.  1.
       -4    1    3    3    0  502 -0.83572147043E+03 -0.41091984411E+03  0.18072828064E+03  0.94865684984E+03  0.12699999809E+01 0. -1.
</event>
<event>
 5   0  0.2529875E-07  0.3848773E+04  0.7818609E-02  0.8035769E-01
        1   -1    0    0  501    0  0.00000000000E+00  0.00000000000E+00  0.19303086021E+04  0.19303086021E+04  0.50400001928E-02 0. -1.
       -1   -1    0    0    0  501  0.00000000000E+00  0.00000000000E+00 -0.19184829639E+04  0.19184829640E+04  0.50400001928E-02 0.  1.
    10030    2    1    2    0    0  0.00000000000E+00  0.00000000000E+00  0.11825638118E+02  0.38487915660E+04  0.38487733985E+04 0.  0.
        1    1    3    3  502    0 -0.64443965890E+02 -0.13037071626E+04  0.14199416921E+04  0.19287404698E+04  0.50400001928E-02 0. -1.
       -1    1    3    3    0  502  0.64443965890E+02  0.13037071626E+04 -0.14081160540E+04  0.19200510963E+04  0.50400001928E-02 0.  1.
</event>
<event>
 5   0  0.7551495E-07  0.3555899E+04  0.7818609E-02  0.8100669E-01
       -2   -1    0    0    0  501  0.00000000000E+00  0.00000000000E+00  0.24897100504E+04  0.24897100504E+04  0.25500000920E-02 0.  1.
        2   -1    0    0  501    0  0.00000000000E+00  0.00000000000E+00 -0.12696676124E+04  0.12696676124E+04  0.25500000920E-02 0. -1.
    10030    2    1    2    0    0  0.00000000000E+00  0.00000000000E+00  0.12200424380E+04  0.37593776627E+04  0.35558988822E+04 0.  0.
        1    1    3    3  502    0 -0.99963731091E+03 -0.10262363830E+04 -0.50316386498E+03  0.15184234397E+04  0.50400001928E-02 0. -1.
       -1    1    3    3    0  502  0.99963731091E+03  0.10262363830E+04  0.17232063030E+04  0.22409542230E+04  0.50400001928E-02 0.  1.
</event>
<event>
 5   0  0.7649458E-07  0.3699312E+04  0.7818609E-02  0.8068114E-01
       -2   -1    0    0    0  501  0.00000000000E+00  0.00000000000E+00  0.14392464311E+04  0.14392464311E+04  0.25500000920E-02 0.  1.
        2   -1    0    0  501    0  0.00000000000E+00  0.00000000000E+00 -0.23770958070E+04  0.23770958070E+04  0.25500000920E-02 0. -1.
    10030    2    1    2    0    0  0.00000000000E+00  0.00000000000E+00 -0.93784937591E+03  0.38163422381E+04  0.36993116423E+04 0.  0.
        4    1    3    3  502    0  0.80504820456E+03  0.98176702941E+03 -0.18565633686E+04  0.22491772421E+04  0.12699999809E+01 0. -1.
       -4    1    3    3    0  502 -0.80504820456E+03 -0.98176702941E+03  0.91871399268E+03  0.15671649961E+04  0.12699999809E+01 0.  1.
</event>
<event>
 5   0  0.7638805E-07  0.3747086E+04  0.7818609E-02  0.8057606E-01
        2   -1    0    0  501    0  0.00000000000E+00  0.00000000000E+00  0.22998751183E+04  0.22998751183E+04  0.25500000920E-02 0.  1.
       -2   -1    0    0    0  501  0.00000000000E+00  0.00000000000E+00 -0.15262406153E+04  0.15262406153E+04  0.25500000920E-02 0. -1.
    10030    2    1    2    0    0  0.00000000000E+00  0.00000000000E+00  0.77363450305E+03  0.38261157336E+04  0.37470857026E+04 0.  0.
        5    1    3    3  502    0 -0.15225489361E+04 -0.10009957960E+04  0.83189218772E+03  0.20030513095E+04  0.46999998093E+01 0.  1.
       -5    1    3    3    0  502  0.15225489361E+04  0.10009957960E+04 -0.58257684680E+02  0.18230644241E+04  0.46999998093E+01 0. -1.
</event>
<event>
 5   0  0.7551495E-07  0.3660895E+04  0.7818609E-02  0.8076684E-01
       -2   -1    0    0    0  501  0.00000000000E+00  0.00000000000E+00  0.11386147492E+04  0.11386147492E+04  0.25500000920E-02 0. -1.
        2   -1    0    0  501    0  0.00000000000E+00  0.00000000000E+00 -0.29426445285E+04  0.29426445285E+04  0.25500000920E-02 0.  1.
    10030    2    1    2    0    0  0.00000000000E+00  0.00000000000E+00 -0.18040297793E+04  0.40812592777E+04  0.36608952248E+04 0.  0.
        1    1    3    3  502    0 -0.14026475979E+04  0.37183647018E+03 -0.21458603142E+04  0.25904438099E+04  0.50400001928E-02 0.  1.
       -1    1    3    3    0  502  0.14026475979E+04 -0.37183647018E+03  0.34183053488E+03  0.14908154678E+04  0.50400001928E-02 0. -1.
</event>
<event>
 5   0  0.7638805E-07  0.4031078E+04  0.7818609E-02  0.7998306E-01
       -2   -1    0    0    0  501  0.00000000000E+00  0.00000000000E+00  0.16328449010E+04  0.16328449010E+04  0.25500000920E-02 0. -1.
        2   -1    0    0  501    0  0.00000000000E+00  0.00000000000E+00 -0.24879255524E+04  0.24879255524E+04  0.25500000920E-02 0.  1.
    10030    2    1    2    0    0  0.00000000000E+00  0.00000000000E+00 -0.85508065140E+03  0.41207704534E+04  0.40310775493E+04 0.  0.
        5    1    3    3  502    0  0.88620569429E+03  0.57060827861E+03  0.13286548779E+04  0.16959658649E+04  0.46999998093E+01 0. -1.
       -5    1    3    3    0  502 -0.88620569429E+03 -0.57060827861E+03 -0.21837355293E+04  0.24248045885E+04  0.46999998093E+01 0.  1.
</event>
<event>
 5   0  0.7551495E-07  0.3735673E+04  0.7818609E-02  0.8060102E-01
       -2   -1    0    0    0  501  0.00000000000E+00  0.00000000000E+00  0.17785810750E+04  0.17785810750E+04  0.25500000920E-02 0.  1.
        2   -1    0    0  501    0  0.00000000000E+00  0.00000000000E+00 -0.19615705730E+04  0.19615705730E+04  0.25500000920E-02 0. -1.
    10030    2    1    2    0    0  0.00000000000E+00  0.00000000000E+00 -0.18298949798E+03  0.37401516480E+04  0.37356725223E+04 0.  0.
        1    1    3    3  502    0 -0.38493541671E+03 -0.12612142003E+04 -0.14159473805E+04  0.19348755821E+04  0.50400001928E-02 0.  1.
       -1    1    3    3    0  502  0.38493541671E+03  0.12612142003E+04  0.12329578825E+04  0.18052760659E+04  0.50400001928E-02 0. -1.
</event>
<event>
 5   0  0.2529875E-07  0.3579908E+04  0.7818609E-02  0.8095110E-01
       -1   -1    0    0    0  501  0.00000000000E+00  0.00000000000E+00  0.22723160409E+04  0.22723160409E+04  0.50400001928E-02 0. -1.
        1   -1    0    0  501    0  0.00000000000E+00  0.00000000000E+00 -0.14099866552E+04  0.14099866552E+04  0.50400001928E-02 0.  1.
    10030    2    1    2    0    0  0.00000000000E+00  0.00000000000E+00  0.86232938568E+03  0.36823026961E+04  0.35799079843E+04 0.  0.
        4    1    3    3  502    0  0.17126929372E+04  0.40026157657E+02  0.96466596468E+03  0.19660877973E+04  0.12699999809E+01 0.  1.
       -4    1    3    3    0  502 -0.17126929372E+04 -0.40026157657E+02 -0.10233657900E+03  0.17162148988E+04  0.12699999809E+01 0. -1.
</event>
<event>
 5   0  0.2529875E-07  0.3786988E+04  0.7818609E-02  0.8048953E-01
       -1   -1    0    0    0  501  0.00000000000E+00  0.00000000000E+00  0.17711210216E+04  0.17711210216E+04  0.50400001928E-02 0. -1.
        1   -1    0    0  501    0  0.00000000000E+00  0.00000000000E+00 -0.20243217257E+04  0.20243217257E+04  0.50400001928E-02 0.  1.
    10030    2    1    2    0    0  0.00000000000E+00  0.00000000000E+00 -0.25320070405E+03  0.37954427473E+04  0.37869875959E+04 0.  0.
        3    1    3    3  502    0 -0.13073367330E+04  0.54288952704E+03 -0.13869693736E+04  0.19818028221E+04  0.10100000352E+00 0.  1.
       -3    1    3    3    0  502  0.13073367330E+04 -0.54288952704E+03  0.11337686695E+04  0.18136399252E+04  0.10100000352E+00 0. -1.
</event>
<event>
 5   0  0.7551495E-07  0.3810368E+04  0.7818609E-02  0.8043934E-01
       -2   -1    0    0    0  501  0.00000000000E+00  0.00000000000E+00  0.28494964359E+04  0.28494964359E+04  0.25500000920E-02 0. -1.
        2   -1    0    0  501    0  0.00000000000E+00  0.00000000000E+00 -0.12738134337E+04  0.12738134337E+04  0.25500000920E-02 0.  1.
    10030    2    1    2    0    0  0.00000000000E+00  0.00000000000E+00  0.15756830021E+04  0.41233098696E+04  0.38103684018E+04 0.  0.
        1    1    3    3  502    0  0.12378791569E+04 -0.73387341983E+03 -0.56322228674E+03  0.15453589705E+04  0.50400001928E-02 0.  1.
       -1    1    3    3    0  502 -0.12378791569E+04  0.73387341983E+03  0.21389052889E+04  0.25779508991E+04  0.50400001928E-02 0. -1.
</event>
<event>
 5   0  0.2907071E-07  0.2484568E+04  0.7818609E-02  0.8408504E-01
        1   -1    0    0  501    0  0.00000000000E+00  0.00000000000E+00  0.10555523954E+04  0.10555523954E+04  0.50400001928E-02 0. -1.
       -1   -1    0    0    0  501  0.00000000000E+00  0.00000000000E+00 -0.14620486509E+04  0.14620486510E+04  0.50400001928E-02 0.  1.
    10030    2    1    2    0    0  0.00000000000E+00  0.00000000000E+00 -0.40649625551E+03  0.25176010464E+04  0.24845675324E+04 0.  0.
        2    1    3    3  502    0 -0.83481586686E+02  0.31938929584E+03 -0.14167896176E+04  0.14547410485E+04  0.25500000920E-02 0.  1.
       -2    1    3    3    0  502  0.83481586686E+02 -0.31938929584E+03  0.10102933621E+04  0.10628599979E+04  0.25500000920E-02 0. -1.
</event>
<event>
 5   0  0.8038352E-07  0.3672673E+04  0.7818609E-02  0.8074045E-01
       -2   -1    0    0    0  501  0.00000000000E+00  0.00000000000E+00  0.17228080207E+04  0.17228080207E+04  0.25500000920E-02 0.  1.
        2   -1    0    0  501    0  0.00000000000E+00  0.00000000000E+00 -0.19573459722E+04  0.19573459722E+04  0.25500000920E-02 0. -1.
    10030    2    1    2    0    0  0.00000000000E+00  0.00000000000E+00 -0.23453795146E+03  0.36801539929E+04  0.36726727817E+04 0.  0.
        2    1    3    3  502    0 -0.66973267206E+03  0.73903175814E+03 -0.16622987485E+04  0.19385424733E+04  0.25500000920E-02 0. -1.
       -2    1    3    3    0  502  0.66973267206E+03 -0.73903175814E+03  0.14277607971E+04  0.17416115196E+04  0.25500000920E-02 0.  1.
</event>
<event>
 5   0  0.2529875E-07  0.3984406E+04  0.7818609E-02  0.8007700E-01
        1   -1    0    0  501    0  0.00000000000E+00  0.00000000000E+00  0.10870754957E+04  0.10870754957E+04  0.50400001928E-02 0. -1.
       -1   -1    0    0    0  501  0.00000000000E+00  0.00000000000E+00 -0.36509640698E+04  0.36509640698E+04  0.50400001928E-02 0.  1.
    10030    2    1    2    0    0  0.00000000000E+00  0.00000000000E+00 -0.25638885741E+04  0.47380395655E+04  0.39844063929E+04 0.  0.
        4    1    3    3  502    0  0.49115293252E+03  0.44891579171E+03 -0.35149164744E+04  0.35773448291E+04  0.12699999809E+01 0.  1.
       -4    1    3    3    0  502 -0.49115293252E+03 -0.44891579171E+03  0.95102790029E+03  0.11606947364E+04  0.12699999809E+01 0. -1.
</event>
<event>
 5   0  0.7638805E-07  0.3650089E+04  0.7818609E-02  0.8079114E-01
        2   -1    0    0  501    0  0.00000000000E+00  0.00000000000E+00  0.21523408780E+04  0.21523408780E+04  0.25500000920E-02 0.  1.
       -2   -1    0    0    0  501  0.00000000000E+00  0.00000000000E+00 -0.15475183294E+04  0.15475183294E+04  0.25500000920E-02 0. -1.
    10030    2    1    2    0    0  0.00000000000E+00  0.00000000000E+00  0.60482254868E+03  0.36998592074E+04  0.36500887440E+04 0.  0.
        5    1    3    3  502    0  0.32205013823E+03 -0.69277620586E+03 -0.13776293223E+04  0.15752903867E+04  0.46999998093E+01 0. -1.
       -5    1    3    3    0  502 -0.32205013823E+03  0.69277620586E+03  0.19824518710E+04  0.21245688206E+04  0.46999998093E+01 0.  1.
</event>
<event>
 5   0  0.2529875E-07  0.3808605E+04  0.7818609E-02  0.8044311E-01
       -1   -1    0    0    0  501  0.00000000000E+00  0.00000000000E+00  0.21722878385E+04  0.21722878385E+04  0.50400001928E-02 0. -1.
        1   -1    0    0  501    0  0.00000000000E+00  0.00000000000E+00 -0.16693770519E+04  0.16693770519E+04  0.50400001928E-02 0.  1.
    10030    2    1    2    0    0  0.00000000000E+00  0.00000000000E+00  0.50291078657E+03  0.38416648904E+04  0.38086047145E+04 0.  0.
        1    1    3    3  502    0  0.12008180087E+04  0.21198651167E+02 -0.12391934266E+04  0.17256922152E+04  0.50400001928E-02 0. -1.
       -1    1    3    3    0  502 -0.12008180087E+04 -0.21198651167E+02  0.17421042132E+04  0.21159726753E+04  0.50400001928E-02 0.  1.
</event>
<event>
 5   0  0.7551495E-07  0.3707247E+04  0.7818609E-02  0.8066358E-01
       -2   -1    0    0    0  501  0.00000000000E+00  0.00000000000E+00  0.14878092884E+04  0.14878092884E+04  0.25500000920E-02 0.  1.
        2   -1    0    0  501    0  0.00000000000E+00  0.00000000000E+00 -0.23093824485E+04  0.23093824485E+04  0.25500000920E-02 0. -1.
    10030    2    1    2    0    0  0.00000000000E+00  0.00000000000E+00 -0.82157316004E+03  0.37971917369E+04  0.37072473116E+04 0.  0.
        1    1    3    3  502    0 -0.80301300526E+03  0.88634719287E+03  0.10397212367E+04  0.15847591246E+04  0.50400001928E-02 0.  1.
       -1    1    3    3    0  502  0.80301300526E+03 -0.88634719287E+03 -0.18612943967E+04  0.22124326123E+04  0.50400001928E-02 0. -1.
</event>
<event>
 5   0  0.2907071E-07  0.2538931E+04  0.7818609E-02  0.8389246E-01
       -1   -1    0    0    0  501  0.00000000000E+00  0.00000000000E+00  0.11298041198E+04  0.11298041198E+04  0.50400001928E-02 0.  1.
        1   -1    0    0  501    0  0.00000000000E+00  0.00000000000E+00 -0.14263909400E+04  0.14263909400E+04  0.50400001928E-02 0. -1.
    10030    2    1    2    0    0  0.00000000000E+00  0.00000000000E+00 -0.29658682017E+03  0.25561950598E+04  0.25389307675E+04 0.  0.
        2    1    3    3  502    0  0.10492745977E+04  0.41443714446E+03  0.43773590410E+03  0.12101024956E+04  0.25500000920E-02 0.  1.
       -2    1    3    3    0  502 -0.10492745977E+04 -0.41443714446E+03 -0.73432272426E+03  0.13460925642E+04  0.25500000920E-02 0. -1.
</event>
<event>
 5   0  0.2907071E-07  0.3701258E+04  0.7818609E-02  0.8067683E-01
        1   -1    0    0  501    0  0.00000000000E+00  0.00000000000E+00  0.24164842901E+04  0.24164842901E+04  0.50400001928E-02 0.  1.
       -1   -1    0    0    0  501  0.00000000000E+00  0.00000000000E+00 -0.14172774025E+04  0.14172774025E+04  0.50400001928E-02 0. -1.
    10030    2    1    2    0    0  0.00000000000E+00  0.00000000000E+00  0.99920688757E+03  0.38337616926E+04  0.37012584767E+04 0.  0.
        2    1    3    3  502    0  0.23958556249E+03  0.16295966371E+04 -0.37430823741E+03  0.16891101498E+04  0.25500000920E-02 0.  1.
       -2    1    3    3    0  502 -0.23958556249E+03 -0.16295966371E+04  0.13735151250E+04  0.21446515428E+04  0.25500000920E-02 0. -1.
</event>
<event>
 5   0  0.2529875E-07  0.3821967E+04  0.7818609E-02  0.8041457E-01
        1   -1    0    0  501    0  0.00000000000E+00  0.00000000000E+00  0.15931444642E+04  0.15931444642E+04  0.50400001928E-02 0. -1.
       -1   -1    0    0    0  501  0.00000000000E+00  0.00000000000E+00 -0.22922328455E+04  0.22922328455E+04  0.50400001928E-02 0.  1.
    10030    2    1    2    0    0  0.00000000000E+00  0.00000000000E+00 -0.69908838129E+03  0.38853773097E+04  0.38219670687E+04 0.  0.
        5    1    3    3  502    0  0.12771128168E+04 -0.14103042469E+04 -0.53100144830E+03  0.19753379063E+04  0.46999998093E+01 0.  1.
       -5    1    3    3    0  502 -0.12771128168E+04  0.14103042469E+04 -0.16808693299E+03  0.19100394035E+04  0.46999998093E+01 0. -1.
</event>
<event>
 5   0  0.2529875E-07  0.3735628E+04  0.7818609E-02  0.8060112E-01
       -1   -1    0    0    0  501  0.00000000000E+00  0.00000000000E+00  0.13219841475E+04  0.13219841475E+04  0.50400001928E-02 0. -1.
        1   -1    0    0  501    0  0.00000000000E+00  0.00000000000E+00 -0.26390101772E+04  0.26390101772E+04  0.50400001928E-02 0.  1.
    10030    2    1    2    0    0  0.00000000000E+00  0.00000000000E+00 -0.13170260297E+04  0.39609943247E+04  0.37356282574E+04 0.  0.
        5    1    3    3  502    0  0.14676958942E+04 -0.29787454647E+03  0.52499970989E+03  0.15869805508E+04  0.46999998093E+01 0. -1.
       -5    1    3    3    0  502 -0.14676958942E+04  0.29787454647E+03 -0.18420257396E+04  0.23740137739E+04  0.46999998093E+01 0.  1.
</event>
<event>
 5   0  0.2529875E-07  0.3838201E+04  0.7818609E-02  0.8038006E-01
       -1   -1    0    0    0  501  0.00000000000E+00  0.00000000000E+00  0.14465731393E+04  0.14465731394E+04  0.50400001928E-02 0.  1.
        1   -1    0    0  501    0  0.00000000000E+00  0.00000000000E+00 -0.25459805869E+04  0.25459805869E+04  0.50400001928E-02 0. -1.
    10030    2    1    2    0    0  0.00000000000E+00  0.00000000000E+00 -0.10994074476E+04  0.39925537263E+04  0.38382012091E+04 0.  0.
        4    1    3    3  502    0  0.14516002325E+04 -0.40132798238E+03  0.68755652775E+03  0.16555793476E+04  0.12699999809E+01 0. -1.
       -4    1    3    3    0  502 -0.14516002325E+04  0.40132798238E+03 -0.17869639753E+04  0.23369743787E+04  0.12699999809E+01 0.  1.
</event>
<event>
 5   0  0.7649458E-07  0.3772296E+04  0.7818609E-02  0.8052126E-01
        2   -1    0    0  501    0  0.00000000000E+00  0.00000000000E+00  0.21416337466E+04  0.21416337466E+04  0.25500000920E-02 0. -1.
       -2   -1    0    0    0  501  0.00000000000E+00  0.00000000000E+00 -0.16611404248E+04  0.16611404248E+04  0.25500000920E-02 0.  1.
    10030    2    1    2    0    0  0.00000000000E+00  0.00000000000E+00  0.48049332181E+03  0.38027741714E+04  0.37722960602E+04 0.  0.
        4    1    3    3  502    0  0.10598616454E+04  0.83855508422E+03  0.15665787021E+04  0.20689736053E+04  0.12699999809E+01 0. -1.
       -4    1    3    3    0  502 -0.10598616454E+04 -0.83855508422E+03 -0.10860853803E+04  0.17338005661E+04  0.12699999809E+01 0.  1.
</event>
<event>
 5   0  0.7551495E-07  0.3517323E+04  0.7818609E-02  0.8109697E-01
        2   -1    0    0  501    0  0.00000000000E+00  0.00000000000E+00  0.15119183707E+04  0.15119183707E+04  0.25500000920E-02 0.  1.
       -2   -1    0    0    0  501  0.00000000000E+00  0.00000000000E+00 -0.20456726456E+04  0.20456726456E+04  0.25500000920E-02 0. -1.
    10030    2    1    2    0    0  0.00000000000E+00  0.00000000000E+00 -0.53375427487E+03  0.35575910163E+04  0.35173228759E+04 0.  0.
        1    1    3    3  502    0  0.14324687827E+03 -0.43246009606E+03  0.14512010829E+04  0.15210279372E+04  0.50400001928E-02 0.  1.
       -1    1    3    3    0  502 -0.14324687827E+03  0.43246009606E+03 -0.19849553578E+04  0.20365630791E+04  0.50400001928E-02 0. -1.
</event>
<event>
 5   0  0.7638805E-07  0.3717428E+04  0.7818609E-02  0.8064110E-01
       -2   -1    0    0    0  501  0.00000000000E+00  0.00000000000E+00  0.14366264106E+04  0.14366264106E+04  0.25500000920E-02 0.  1.
        2   -1    0    0  501    0  0.00000000000E+00  0.00000000000E+00 -0.24048134977E+04  0.24048134977E+04  0.25500000920E-02 0. -1.
    10030    2    1    2    0    0  0.00000000000E+00  0.00000000000E+00 -0.96818708703E+03  0.38414399083E+04  0.37174284571E+04 0.  0.
        5    1    3    3  502    0 -0.29073512141E+03 -0.18226413178E+03 -0.23717925211E+04  0.23964909718E+04  0.46999998093E+01 0. -1.
       -5    1    3    3    0  502  0.29073512141E+03  0.18226413178E+03  0.14036054341E+04  0.14449489365E+04  0.46999998093E+01 0.  1.
</event>
<event>
 5   0  0.8038352E-07  0.3707693E+04  0.7818609E-02  0.8066259E-01
        2   -1    0    0  501    0  0.00000000000E+00  0.00000000000E+00  0.25964494257E+04  0.25964494257E+04  0.25500000920E-02 0. -1.
       -2   -1    0    0    0  501  0.00000000000E+00  0.00000000000E+00 -0.13236333099E+04  0.13236333099E+04  0.25500000920E-02 0.  1.
    10030    2    1    2    0    0  0.00000000000E+00  0.00000000000E+00  0.12728161158E+04  0.39200827356E+04  0.37076930549E+04 0.  0.
        2    1    3    3  502    0  0.20142904899E+03 -0.10080922380E+03 -0.13091116221E+04  0.13283483732E+04  0.25500000920E-02 0.  1.
       -2    1    3    3    0  502 -0.20142904899E+03  0.10080922380E+03  0.25819277379E+04  0.25917343624E+04  0.25500000920E-02 0. -1.
</event>
<event>
 5   0  0.2907071E-07  0.3163207E+04  0.7818609E-02  0.8198602E-01
        1   -1    0    0  501    0  0.00000000000E+00  0.00000000000E+00  0.22596156267E+04  0.22596156267E+04  0.50400001928E-02 0.  1.
       -1   -1    0    0    0  501  0.00000000000E+00  0.00000000000E+00 -0.11070334031E+04  0.11070334031E+04  0.50400001928E-02 0. -1.
    10030    2    1    2    0    0  0.00000000000E+00  0.00000000000E+00  0.11525822236E+04  0.33666490299E+04  0.31632072187E+04 0.  0.
        2    1    3    3  502    0 -0.64368309889E+03  0.89606099721E+03 -0.62982567855E+03  0.12704068749E+04  0.25500000920E-02 0. -1.
       -2    1    3    3    0  502  0.64368309889E+03 -0.89606099721E+03  0.17824079021E+04  0.20962421549E+04  0.25500000920E-02 0.  1.
</event>
<event>
 5   0  0.2529875E-07  0.3756773E+04  0.7818609E-02  0.8055495E-01
        1   -1    0    0  501    0  0.00000000000E+00  0.00000000000E+00  0.25580615946E+04  0.25580615946E+04  0.50400001928E-02 0. -1.
       -1   -1    0    0    0  501  0.00000000000E+00  0.00000000000E+00 -0.13793008805E+04  0.13793008805E+04  0.50400001928E-02 0.  1.
    10030    2    1    2    0    0  0.00000000000E+00  0.00000000000E+00  0.11787607141E+04  0.39373624751E+04  0.37567734080E+04 0.  0.
        1    1    3    3  502    0  0.12275887382E+04  0.13985109309E+04  0.85767339706E+03  0.20490023402E+04  0.50400001928E-02 0. -1.
       -1    1    3    3    0  502 -0.12275887382E+04 -0.13985109309E+04  0.32108731708E+03  0.18883601349E+04  0.50400001928E-02 0.  1.
</event>
<event>
 5   0  0.7638805E-07  0.3680476E+04  0.7818609E-02  0.8072302E-01
        2   -1    0    0  501    0  0.00000000000E+00  0.00000000000E+00  0.15864950609E+04  0.15864950609E+04  0.25500000920E-02 0.  1.
       -2   -1    0    0    0  501  0.00000000000E+00  0.00000000000E+00 -0.21345640448E+04  0.21345640448E+04  0.25500000920E-02 0. -1.
    10030    2    1    2    0    0  0.00000000000E+00  0.00000000000E+00 -0.54806898396E+03  0.37210591057E+04  0.36804756835E+04 0.  0.
        5    1    3    3  502    0 -0.45049007536E+03  0.11205996647E+04  0.11297163632E+04  0.16537732818E+04  0.46999998093E+01 0.  1.
       -5    1    3    3    0  502  0.45049007536E+03 -0.11205996647E+04 -0.16777853471E+04  0.20672858239E+04  0.46999998093E+01 0. -1.
</event>
<event>
 5   0  0.7551495E-07  0.3755304E+04  0.7818609E-02  0.8055815E-01
        2   -1    0    0  501    0  0.00000000000E+00  0.00000000000E+00  0.31138285980E+04  0.31138285980E+04  0.25500000920E-02 0.  1.
       -2   -1    0    0    0  501  0.00000000000E+00  0.00000000000E+00 -0.11322324584E+04  0.11322324584E+04  0.25500000920E-02 0. -1.
    10030    2    1    2    0    0  0.00000000000E+00  0.00000000000E+00  0.19815961396E+04  0.42460610563E+04  0.37553044129E+04 0.  0.
        1    1    3    3  502    0  0.19668272444E+03 -0.14448732556E+04  0.23282753567E+04  0.27472184033E+04  0.50400001928E-02 0.  1.
       -1    1    3    3    0  502 -0.19668272444E+03  0.14448732556E+04 -0.34667921711E+03  0.14988426530E+04  0.50400001928E-02 0. -1.
</event>
<event>
 5   0  0.2529875E-07  0.2707538E+04  0.7818609E-02  0.8332563E-01
       -3   -1    0    0    0  501  0.00000000000E+00  0.00000000000E+00  0.88120659372E+03  0.88120659951E+03  0.10100000352E+00 0. -1.
        3   -1    0    0  501    0  0.00000000000E+00  0.00000000000E+00 -0.20797519848E+04  0.20797519873E+04  0.10100000352E+00 0.  1.
    10030    2    1    2    0    0  0.00000000000E+00  0.00000000000E+00 -0.11985453911E+04  0.29609585868E+04  0.27075384943E+04 0.  0.
        2    1    3    3  502    0 -0.26395244195E+03  0.35323318987E+03 -0.19990125569E+04  0.20470700479E+04  0.25500000920E-02 0.  1.
       -2    1    3    3    0  502  0.26395244195E+03 -0.35323318987E+03  0.80046716582E+03  0.91388853894E+03  0.25500000920E-02 0. -1.
</event>
<event>
 5   0  0.2529875E-07  0.3832200E+04  0.7818609E-02  0.8039280E-01
       -1   -1    0    0    0  501  0.00000000000E+00  0.00000000000E+00  0.28384261141E+04  0.28384261141E+04  0.50400001928E-02 0.  1.
        1   -1    0    0  501    0  0.00000000000E+00  0.00000000000E+00 -0.12934769194E+04  0.12934769194E+04  0.50400001928E-02 0. -1.
    10030    2    1    2    0    0  0.00000000000E+00  0.00000000000E+00  0.15449491947E+04  0.41319030335E+04  0.38321997161E+04 0.  0.
        3    1    3    3  502    0 -0.10638687076E+04 -0.36851134441E+03  0.24441543675E+04  0.26910049833E+04  0.10100000352E+00 0.  1.
       -3    1    3    3    0  502  0.10638687076E+04  0.36851134441E+03 -0.89920517281E+03  0.14408980501E+04  0.10100000352E+00 0. -1.
</event>
<event>
 5   0  0.7638805E-07  0.3810547E+04  0.7818609E-02  0.8043895E-01
        2   -1    0    0  501    0  0.00000000000E+00  0.00000000000E+00  0.16728664733E+04  0.16728664733E+04  0.25500000920E-02 0. -1.
       -2   -1    0    0    0  501  0.00000000000E+00  0.00000000000E+00 -0.21699684407E+04  0.21699684407E+04  0.25500000920E-02 0.  1.
    10030    2    1    2    0    0  0.00000000000E+00  0.00000000000E+00 -0.49710196738E+03  0.38428349139E+04  0.38105471798E+04 0.  0.
        5    1    3    3  502    0  0.84535025964E+03  0.53175735812E+02  0.14725440646E+04  0.16987798070E+04  0.46999998093E+01 0. -1.
       -5    1    3    3    0  502 -0.84535025964E+03 -0.53175735812E+02 -0.19696460320E+04  0.21440551070E+04  0.46999998093E+01 0.  1.
</event>
<event>
 5   0  0.2529875E-07  0.3656667E+04  0.7818609E-02  0.8077633E-01
        1   -1    0    0  501    0  0.00000000000E+00  0.00000000000E+00  0.14931348023E+04  0.14931348024E+04  0.50400001928E-02 0. -1.
       -1   -1    0    0    0  501  0.00000000000E+00  0.00000000000E+00 -0.22387817070E+04  0.22387817070E+04  0.50400001928E-02 0.  1.
    10030    2    1    2    0    0  0.00000000000E+00  0.00000000000E+00 -0.74564690467E+03  0.37319165094E+04  0.36566667235E+04 0.  0.
        3    1    3    3  502    0 -0.13701237435E+04 -0.59286161699E+03 -0.14500437162E+04  0.20811897459E+04  0.10100000352E+00 0.  1.
       -3    1    3    3    0  502  0.13701237435E+04  0.59286161699E+03  0.70439681155E+03  0.16507267635E+04  0.10100000352E+00 0. -1.
</event>
<event>
 5   0  0.8421677E-07  0.3776154E+04  0.7818609E-02  0.8051292E-01
       -2   -1    0    0    0  501  0.00000000000E+00  0.00000000000E+00  0.12879347666E+04  0.12879347666E+04  0.25500000920E-02 0. -1.
        2   -1    0    0  501    0  0.00000000000E+00  0.00000000000E+00 -0.27678691866E+04  0.27678691866E+04  0.25500000920E-02 0.  1.
    10030    2    1    2    0    0  0.00000000000E+00  0.00000000000E+00 -0.14799344200E+04  0.40558039532E+04  0.37761541043E+04 0.  0.
        3    1    3    3  502    0  0.15216773347E+04 -0.66515158090E+02  0.45841680522E+03  0.15906200535E+04  0.10100000352E+00 0. -1.
       -3    1    3    3    0  502 -0.15216773347E+04  0.66515158090E+02 -0.19383512252E+04  0.24651838997E+04  0.10100000352E+00 0.  1.
</event>
<event>
 5   0  0.2907071E-07  0.3758612E+04  0.7818609E-02  0.8055095E-01
       -1   -1    0    0    0  501  0.00000000000E+00  0.00000000000E+00  0.13879425033E+04  0.13879425033E+04  0.50400001928E-02 0.  1.
        1   -1    0    0  501    0  0.00000000000E+00  0.00000000000E+00 -0.25446229479E+04  0.25446229479E+04  0.50400001928E-02 0. -1.
    10030    2    1    2    0    0  0.00000000000E+00  0.00000000000E+00 -0.11566804446E+04  0.39325654511E+04  0.37586116289E+04 0.  0.
        2    1    3    3  502    0 -0.17479427209E+04 -0.67297945048E+03 -0.41765766777E+03  0.19190213714E+04  0.25500000920E-02 0.  1.
       -2    1    3    3    0  502  0.17479427209E+04  0.67297945048E+03 -0.73902277684E+03  0.20135440798E+04  0.25500000920E-02 0. -1.
</event>
<event>
 5   0  0.7551495E-07  0.2786994E+04  0.7818609E-02  0.8307318E-01
       -2   -1    0    0    0  501  0.00000000000E+00  0.00000000000E+00  0.17694472598E+04  0.17694472598E+04  0.25500000920E-02 0.  1.
        2   -1    0    0  501    0  0.00000000000E+00  0.00000000000E+00 -0.10974238001E+04  0.10974238001E+04  0.25500000920E-02 0. -1.
    10030    2    1    2    0    0  0.00000000000E+00  0.00000000000E+00  0.67202345974E+03  0.28668710599E+04  0.27869937466E+04 0.  0.
        1    1    3    3  502    0  0.42140960722E+03 -0.11520787756E+04 -0.34396490288E+03  0.12740421566E+04  0.50400001928E-02 0. -1.
       -1    1    3    3    0  502 -0.42140960722E+03  0.11520787756E+04  0.10159883626E+04  0.15928289033E+04  0.50400001928E-02 0.  1.
</event>
<event>
 5   0  0.2907071E-07  0.3077539E+04  0.7818609E-02  0.8221929E-01
       -1   -1    0    0    0  501  0.00000000000E+00  0.00000000000E+00  0.10313491782E+04  0.10313491783E+04  0.50400001928E-02 0.  1.
        1   -1    0    0  501    0  0.00000000000E+00  0.00000000000E+00 -0.22958386738E+04  0.22958386738E+04  0.50400001928E-02 0. -1.
    10030    2    1    2    0    0  0.00000000000E+00  0.00000000000E+00 -0.12644894955E+04  0.33271878521E+04  0.30775388411E+04 0.  0.
        2    1    3    3  502    0  0.14718864524E+04  0.43675530961E+03 -0.74358643296E+03  0.17059090575E+04  0.25500000920E-02 0.  1.
       -2    1    3    3    0  502 -0.14718864524E+04 -0.43675530961E+03 -0.52090306258E+03  0.16212787946E+04  0.25500000920E-02 0. -1.
</event>
<event>
 5   0  0.7649458E-07  0.3981772E+04  0.7818609E-02  0.8008234E-01
        2   -1    0    0  501    0  0.00000000000E+00  0.00000000000E+00  0.20374468722E+04  0.20374468722E+04  0.25500000920E-02 0.  1.
       -2   -1    0    0    0  501  0.00000000000E+00  0.00000000000E+00 -0.19453890146E+04  0.19453890146E+04  0.25500000920E-02 0. -1.
    10030    2    1    2    0    0  0.00000000000E+00  0.00000000000E+00  0.92057857602E+02  0.39828358867E+04  0.39817718482E+04 0.  0.
        4    1    3    3  502    0 -0.52535811745E+03 -0.37569340967E+03 -0.18376839331E+04  0.19478784717E+04  0.12699999809E+01 0. -1.
       -4    1    3    3    0  502  0.52535811745E+03  0.37569340967E+03  0.19297417907E+04  0.20349574151E+04  0.12699999809E+01 0.  1.
</event>
<event>
 5   0  0.2529875E-07  0.3508193E+04  0.7818609E-02  0.8111851E-01
        1   -1    0    0  501    0  0.00000000000E+00  0.00000000000E+00  0.10063128636E+04  0.10063128636E+04  0.50400001928E-02 0.  1.
       -1   -1    0    0    0  501  0.00000000000E+00  0.00000000000E+00 -0.30575529633E+04  0.30575529633E+04  0.50400001928E-02 0. -1.
    10030    2    1    2    0    0  0.00000000000E+00  0.00000000000E+00 -0.20512400997E+04  0.40638658269E+04  0.35081931977E+04 0.  0.
        4    1    3    3  502    0  0.24279175927E+02 -0.17511169570E+04 -0.11406058684E+04  0.20899721135E+04  0.12699999809E+01 0.  1.
       -4    1    3    3    0  502 -0.24279175927E+02  0.17511169570E+04 -0.91063423128E+03  0.19738937133E+04  0.12699999809E+01 0. -1.
</event>
<event>
 5   0  0.2907071E-07  0.3129548E+04  0.7818609E-02  0.8207675E-01
       -1   -1    0    0    0  501  0.00000000000E+00  0.00000000000E+00  0.11653860523E+04  0.11653860524E+04  0.50400001928E-02 0. -1.
        1   -1    0    0  501    0  0.00000000000E+00  0.00000000000E+00 -0.21010357377E+04  0.21010357377E+04  0.50400001928E-02 0.  1.
    10030    2    1    2    0    0  0.00000000000E+00  0.00000000000E+00 -0.93564968536E+03  0.32664217901E+04  0.31295480467E+04 0.  0.
        2    1    3    3  502    0 -0.25870270147E+03  0.12858176209E+04 -0.13585320631E+04  0.18883493873E+04  0.25500000920E-02 0. -1.
       -2    1    3    3    0  502  0.25870270147E+03 -0.12858176209E+04  0.42288237773E+03  0.13780724028E+04  0.25500000920E-02 0.  1.
</event>
<event>
 5   0  0.2529875E-07  0.3746083E+04  0.7818609E-02  0.8057825E-01
        1   -1    0    0  501    0  0.00000000000E+00  0.00000000000E+00  0.13526193581E+04  0.13526193581E+04  0.50400001928E-02 0. -1.
       -1   -1    0    0    0  501  0.00000000000E+00  0.00000000000E+00 -0.25936970681E+04  0.25936970681E+04  0.50400001928E-02 0.  1.
    10030    2    1    2    0    0  0.00000000000E+00  0.00000000000E+00 -0.12410777100E+04  0.39463164262E+04  0.37460832149E+04 0.  0.
        5    1    3    3  502    0  0.16803341934E+04 -0.67137457727E+03 -0.11301262231E+04  0.21334184293E+04  0.46999998093E+01 0.  1.
       -5    1    3    3    0  502 -0.16803341934E+04  0.67137457727E+03 -0.11095148694E+03  0.18128979968E+04  0.46999998093E+01 0. -1.
</event>
<event>
 5   0  0.2907071E-07  0.2839169E+04  0.7818609E-02  0.8291210E-01
        1   -1    0    0  501    0  0.00000000000E+00  0.00000000000E+00  0.16624028037E+04  0.16624028038E+04  0.50400001928E-02 0.  1.
       -1   -1    0    0    0  501  0.00000000000E+00  0.00000000000E+00 -0.12122333842E+04  0.12122333843E+04  0.50400001928E-02 0. -1.
    10030    2    1    2    0    0  0.00000000000E+00  0.00000000000E+00  0.45016941950E+03  0.28746361880E+04  0.28391690170E+04 0.  0.
        2    1    3    3  502    0  0.46006007240E+03  0.45668667703E+03 -0.10536259414E+04  0.12370713866E+04  0.25500000920E-02 0. -1.
       -2    1    3    3    0  502 -0.46006007240E+03 -0.45668667703E+03  0.15037953609E+04  0.16375648014E+04  0.25500000920E-02 0.  1.
</event>
<event>
 5   0  0.2529875E-07  0.3746066E+04  0.7818609E-02  0.8057829E-01
       -1   -1    0    0    0  501  0.00000000000E+00  0.00000000000E+00  0.14484920346E+04  0.14484920346E+04  0.50400001928E-02 0.  1.
        1   -1    0    0  501    0  0.00000000000E+00  0.00000000000E+00 -0.24220028749E+04  0.24220028749E+04  0.50400001928E-02 0. -1.
    10030    2    1    2    0    0  0.00000000000E+00  0.00000000000E+00 -0.97351084031E+03  0.38704949096E+04  0.37460656012E+04 0.  0.
        3    1    3    3  502    0 -0.79306506525E+03  0.16843841987E+04 -0.69887830187E+03  0.19886008191E+04  0.10100000352E+00 0.  1.
       -3    1    3    3    0  502  0.79306506525E+03 -0.16843841987E+04 -0.27463253844E+03  0.18818940905E+04  0.10100000352E+00 0. -1.
</event>
<event>
 5   0  0.2529875E-07  0.3781614E+04  0.7818609E-02  0.8050112E-01
        1   -1    0    0  501    0  0.00000000000E+00  0.00000000000E+00  0.15351068388E+04  0.15351068388E+04  0.50400001928E-02 0. -1.
       -1   -1    0    0    0  501  0.00000000000E+00  0.00000000000E+00 -0.23289265737E+04  0.23289265737E+04  0.50400001928E-02 0.  1.
    10030    2    1    2    0    0  0.00000000000E+00  0.00000000000E+00 -0.79381973482E+03  0.38640334125E+04  0.37816139995E+04 0.  0.
        5    1    3    3  502    0  0.15321744765E+04  0.75101068625E+03  0.43543172469E+03  0.17610220198E+04  0.46999998093E+01 0. -1.
       -5    1    3    3    0  502 -0.15321744765E+04 -0.75101068625E+03 -0.12292514595E+04  0.21030113927E+04  0.46999998093E+01 0.  1.
</event>
<event>
 5   0  0.2529875E-07  0.2992532E+04  0.7818609E-02  0.8245867E-01
        1   -1    0    0  501    0  0.00000000000E+00  0.00000000000E+00  0.16988493142E+04  0.16988493142E+04  0.50400001928E-02 0.  1.
       -1   -1    0    0    0  501  0.00000000000E+00  0.00000000000E+00 -0.13178406043E+04  0.13178406043E+04  0.50400001928E-02 0. -1.
    10030    2    1    2    0    0  0.00000000000E+00  0.00000000000E+00  0.38100870988E+03  0.30166899185E+04  0.29925324438E+04 0.  0.
        5    1    3    3  502    0  0.36670802528E+03  0.13726828835E+04  0.66339403342E+03  0.15680710468E+04  0.46999998093E+01 0.  1.
       -5    1    3    3    0  502 -0.36670802528E+03 -0.13726828835E+04 -0.28238532354E+03  0.14486188717E+04  0.46999998093E+01 0. -1.
</event>
<event>
 5   0  0.2529875E-07  0.3898835E+04  0.7818609E-02  0.8025272E-01
       -1   -1    0    0    0  501  0.00000000000E+00  0.00000000000E+00  0.16363691424E+04  0.16363691424E+04  0.50400001928E-02 0.  1.
        1   -1    0    0  501    0  0.00000000000E+00  0.00000000000E+00 -0.23223541324E+04  0.23223541324E+04  0.50400001928E-02 0. -1.
    10030    2    1    2    0    0  0.00000000000E+00  0.00000000000E+00 -0.68598498998E+03  0.39587232748E+04  0.38988350260E+04 0.  0.
        5    1    3    3  502    0  0.73280174939E+03  0.18952839057E+03 -0.21670523653E+04  0.22954427588E+04  0.46999998093E+01 0. -1.
       -5    1    3    3    0  502 -0.73280174939E+03 -0.18952839057E+03  0.14810673753E+04  0.16632805160E+04  0.46999998093E+01 0.  1.
</event>
<event>
 5   0  0.7649458E-07  0.3102026E+04  0.7818609E-02  0.8215182E-01
       -2   -1    0    0    0  501  0.00000000000E+00  0.00000000000E+00  0.16167217763E+04  0.16167217763E+04  0.25500000920E-02 0. -1.
        2   -1    0    0  501    0  0.00000000000E+00  0.00000000000E+00 -0.14879745825E+04  0.14879745825E+04  0.25500000920E-02 0.  1.
    10030    2    1    2    0    0  0.00000000000E+00  0.00000000000E+00  0.12874719378E+03  0.31046963588E+04  0.31020257318E+04 0.  0.
        4    1    3    3  502    0 -0.50599803361E+03  0.55353242588E+03  0.14231900862E+04  0.16086963016E+04  0.12699999809E+01 0. -1.
       -4    1    3    3    0  502  0.50599803361E+03 -0.55353242588E+03 -0.12944428924E+04  0.14960000572E+04  0.12699999809E+01 0.  1.
</event>
<event>
 5   0  0.2529875E-07  0.2766256E+04  0.7818609E-02  0.8313822E-01
       -1   -1    0    0    0  501  0.00000000000E+00  0.00000000000E+00  0.12171409211E+04  0.12171409211E+04  0.50400001928E-02 0.  1.
        1   -1    0    0  501    0  0.00000000000E+00  0.00000000000E+00 -0.15717517763E+04  0.15717517763E+04  0.50400001928E-02 0. -1.
    10030    2    1    2    0    0  0.00000000000E+00  0.00000000000E+00 -0.35461085519E+03  0.27888926974E+04  0.27662562461E+04 0.  0.
        4    1    3    3  502    0  0.86184723136E+03  0.10314396808E+04  0.15154362248E+03  0.13526328207E+04  0.12699999809E+01 0.  1.
       -4    1    3    3    0  502 -0.86184723136E+03 -0.10314396808E+04 -0.50615447767E+03  0.14362598767E+04  0.12699999809E+01 0. -1.
</event>
<event>
 5   0  0.8421677E-07  0.3760034E+04  0.7818609E-02  0.8054786E-01
        2   -1    0    0  501    0  0.00000000000E+00  0.00000000000E+00  0.13101231342E+04  0.13101231342E+04  0.25500000920E-02 0. -1.
       -2   -1    0    0    0  501  0.00000000000E+00  0.00000000000E+00 -0.26978106092E+04  0.26978106092E+04  0.25500000920E-02 0.  1.
    10030    2    1    2    0    0  0.00000000000E+00  0.00000000000E+00 -0.13876874749E+04  0.40079337434E+04  0.37600340907E+04 0.  0.
        3    1    3    3  502    0  0.18732917859E+04 -0.12077023646E+03 -0.80388013484E+03  0.20420653384E+04  0.10100000352E+00 0.  1.
       -3    1    3    3    0  502 -0.18732917859E+04  0.12077023646E+03 -0.58380734009E+03  0.19658684049E+04  0.10100000352E+00 0. -1.
</event>
<event>
 5   0  0.7551495E-07  0.2761492E+04  0.7818609E-02  0.8315324E-01
        2   -1    0    0  501    0  0.00000000000E+00  0.00000000000E+00  0.16187570399E+04  0.16187570399E+04  0.25500000920E-02 0.  1.
       -2   -1    0    0    0  501  0.00000000000E+00  0.00000000000E+00 -0.11777307031E+04  0.11777307031E+04  0.25500000920E-02 0. -1.
    10030    2    1    2    0    0  0.00000000000E+00  0.00000000000E+00  0.44102633675E+03  0.27964877430E+04  0.27614922537E+04 0.  0.
        1    1    3    3  502    0 -0.11880391437E+03  0.10944005145E+04  0.10645216285E+04  0.15313501082E+04  0.50400001928E-02 0.  1.
       -1    1    3    3    0  502  0.11880391437E+03 -0.10944005145E+04 -0.62349529175E+03  0.12651376348E+04  0.50400001928E-02 0. -1.
</event>
<event>
 5   0  0.2529875E-07  0.2428890E+04  0.7818609E-02  0.8428766E-01
       -1   -1    0    0    0  501  0.00000000000E+00  0.00000000000E+00  0.87305002345E+03  0.87305002347E+03  0.50400001928E-02 0. -1.
        1   -1    0    0  501    0  0.00000000000E+00  0.00000000000E+00 -0.16893384818E+04  0.16893384818E+04  0.50400001928E-02 0.  1.
    10030    2    1    2    0    0  0.00000000000E+00  0.00000000000E+00 -0.81628845834E+03  0.25623885053E+04  0.24288902826E+04 0.  0.
        4    1    3    3  502    0 -0.80180020255E+03  0.36490557984E+03  0.47376651647E+03  0.10002479553E+04  0.12699999809E+01 0. -1.
       -4    1    3    3    0  502  0.80180020255E+03 -0.36490557984E+03 -0.12900549748E+04  0.15621405500E+04  0.12699999809E+01 0.  1.
</event>
<event>
 5   0  0.7551495E-07  0.3902277E+04  0.7818609E-02  0.8024556E-01
       -2   -1    0    0    0  501  0.00000000000E+00  0.00000000000E+00  0.19369225805E+04  0.19369225805E+04  0.25500000920E-02 0. -1.
        2   -1    0    0  501    0  0.00000000000E+00  0.00000000000E+00 -0.19654590705E+04  0.19654590705E+04  0.25500000920E-02 0.  1.
    10030    2    1    2    0    0  0.00000000000E+00  0.00000000000E+00 -0.28536490042E+02  0.39023816510E+04  0.39022773119E+04 0.  0.
        1    1    3    3  502    0  0.41874732783E+03  0.20008059962E+03 -0.19094602006E+04  0.19650495741E+04  0.50400001928E-02 0.  1.
       -1    1    3    3    0  502 -0.41874732783E+03 -0.20008059962E+03  0.18809237106E+04  0.19373320769E+04  0.50400001928E-02 0. -1.
</event>
<event>
 5   0  0.7551495E-07  0.3769319E+04  0.7818609E-02  0.8052771E-01
       -2   -1    0    0    0  501  0.00000000000E+00  0.00000000000E+00  0.19420140700E+04  0.19420140700E+04  0.25500000920E-02 0.  1.
        2   -1    0    0  501    0  0.00000000000E+00  0.00000000000E+00 -0.18289989368E+04  0.18289989368E+04  0.25500000920E-02 0. -1.
    10030    2    1    2    0    0  0.00000000000E+00  0.00000000000E+00  0.11301513323E+03  0.37710130068E+04  0.37693191265E+04 0.  0.
        1    1    3    3  502    0 -0.41039699395E+03  0.11281372507E+04 -0.13970122632E+04  0.18419453338E+04  0.50400001928E-02 0. -1.
       -1    1    3    3    0  502  0.41039699395E+03 -0.11281372507E+04  0.15100273964E+04  0.19290676730E+04  0.50400001928E-02 0.  1.
</event>
<event>
 5   0  0.2907071E-07  0.3821102E+04  0.7818609E-02  0.8041642E-01
       -1   -1    0    0    0  501  0.00000000000E+00  0.00000000000E+00  0.15126876461E+04  0.15126876461E+04  0.50400001928E-02 0. -1.
        1   -1    0    0  501    0  0.00000000000E+00  0.00000000000E+00 -0.24130596322E+04  0.24130596322E+04  0.50400001928E-02 0.  1.
    10030    2    1    2    0    0  0.00000000000E+00  0.00000000000E+00 -0.90037198616E+03  0.39257472783E+04  0.38211021943E+04 0.  0.
        2    1    3    3  502    0 -0.23173956147E+03 -0.12224009155E+03  0.14941431174E+04  0.15169408425E+04  0.25500000920E-02 0. -1.
       -2    1    3    3    0  502  0.23173956147E+03  0.12224009155E+03 -0.23945151035E+04  0.24088064358E+04  0.25500000920E-02 0.  1.
</event>
<event>
 5   0  0.7551495E-07  0.2841874E+04  0.7818609E-02  0.8290385E-01
       -2   -1    0    0    0  501  0.00000000000E+00  0.00000000000E+00  0.10738943452E+04  0.10738943452E+04  0.25500000920E-02 0. -1.
        2   -1    0    0  501    0  0.00000000000E+00  0.00000000000E+00 -0.18801309989E+04  0.18801309989E+04  0.25500000920E-02 0.  1.
    10030    2    1    2    0    0  0.00000000000E+00  0.00000000000E+00 -0.80623665377E+03  0.29540253441E+04  0.28418740633E+04 0.  0.
        1    1    3    3  502    0 -0.17520392843E+03 -0.10593169653E+04  0.56431665461E+03  0.12129724384E+04  0.50400001928E-02 0. -1.
       -1    1    3    3    0  502  0.17520392843E+03  0.10593169653E+04 -0.13705533084E+04  0.17410529058E+04  0.50400001928E-02 0.  1.
</event>
<event>
 5   0  0.2529875E-07  0.3762911E+04  0.7818609E-02  0.8054161E-01
       -1   -1    0    0    0  501  0.00000000000E+00  0.00000000000E+00  0.16695174995E+04  0.16695174995E+04  0.50400001928E-02 0. -1.
        1   -1    0    0  501    0  0.00000000000E+00  0.00000000000E+00 -0.21202986272E+04  0.21202986273E+04  0.50400001928E-02 0.  1.
    10030    2    1    2    0    0  0.00000000000E+00  0.00000000000E+00 -0.45078112777E+03  0.37898161267E+04  0.37629114591E+04 0.  0.
        1    1    3    3  502    0 -0.94528793868E+03  0.17971682816E+03 -0.18537400290E+04  0.20885927129E+04  0.50400001928E-02 0.  1.
       -1    1    3    3    0  502  0.94528793868E+03 -0.17971682816E+03  0.14029589012E+04  0.17012234138E+04  0.50400001928E-02 0. -1.
</event>
<event>
 5   0  0.2907071E-07  0.3823505E+04  0.7818609E-02  0.8041129E-01
       -1   -1    0    0    0  501  0.00000000000E+00  0.00000000000E+00  0.15954103628E+04  0.15954103628E+04  0.50400001928E-02 0.  1.
        1   -1    0    0  501    0  0.00000000000E+00  0.00000000000E+00 -0.22908199348E+04  0.22908199348E+04  0.50400001928E-02 0. -1.
    10030    2    1    2    0    0  0.00000000000E+00  0.00000000000E+00 -0.69540957208E+03  0.38862302976E+04  0.38235051266E+04 0.  0.
        2    1    3    3  502    0 -0.13396497523E+03  0.91362153922E+03  0.13537182495E+04  0.16386592174E+04  0.25500000920E-02 0.  1.
       -2    1    3    3    0  502  0.13396497523E+03 -0.91362153922E+03 -0.20491278216E+04  0.22475710803E+04  0.25500000920E-02 0. -1.
</event>
<event>
 5   0  0.2529875E-07  0.3744431E+04  0.7818609E-02  0.8058186E-01
        1   -1    0    0  501    0  0.00000000000E+00  0.00000000000E+00  0.24000662945E+04  0.24000662945E+04  0.50400001928E-02 0. -1.
       -1   -1    0    0    0  501  0.00000000000E+00  0.00000000000E+00 -0.14604556613E+04  0.14604556614E+04  0.50400001928E-02 0.  1.
    10030    2    1    2    0    0  0.00000000000E+00  0.00000000000E+00  0.93961063318E+03  0.38605219559E+04  0.37444307484E+04 0.  0.
        1    1    3    3  502    0 -0.14315263664E+04  0.85614302371E+03  0.13464263559E+04  0.21436213627E+04  0.50400001928E-02 0. -1.
       -1    1    3    3    0  502  0.14315263664E+04 -0.85614302371E+03 -0.40681572271E+03  0.17169005932E+04  0.50400001928E-02 0.  1.
</event>
<event>
 5   0  0.7551495E-07  0.3836933E+04  0.7818609E-02  0.8038275E-01
        2   -1    0    0  501    0  0.00000000000E+00  0.00000000000E+00  0.25739203739E+04  0.25739203739E+04  0.25500000920E-02 0. -1.
       -2   -1    0    0    0  501  0.00000000000E+00  0.00000000000E+00 -0.14299255054E+04  0.14299255054E+04  0.25500000920E-02 0.  1.
    10030    2    1    2    0    0  0.00000000000E+00  0.00000000000E+00  0.11439948685E+04  0.40038458793E+04  0.38369333543E+04 0.  0.
        1    1    3    3  502    0  0.26154449289E+03  0.51916109722E+03  0.24798026936E+04  0.25470286936E+04  0.50400001928E-02 0. -1.
       -1    1    3    3    0  502 -0.26154449289E+03 -0.51916109722E+03 -0.13358078252E+04  0.14568171856E+04  0.50400001928E-02 0.  1.
</event>
<event>
 5   0  0.2529875E-07  0.3651572E+04  0.7818609E-02  0.8078780E-01
        1   -1    0    0  501    0  0.00000000000E+00  0.00000000000E+00  0.27985176681E+04  0.27985176681E+04  0.50400001928E-02 0. -1.
       -1   -1    0    0    0  501  0.00000000000E+00  0.00000000000E+00 -0.11911642732E+04  0.11911642732E+04  0.50400001928E-02 0.  1.
    10030    2    1    2    0    0  0.00000000000E+00  0.00000000000E+00  0.16073533949E+04  0.39896819412E+04  0.36515718610E+04 0.  0.
        1    1    3    3  502    0 -0.39770644482E+03  0.10021652839E+04  0.24135333027E+04  0.26434160996E+04  0.50400001928E-02 0. -1.
       -1    1    3    3    0  502  0.39770644482E+03 -0.10021652839E+04 -0.80617990780E+03  0.13462658416E+04  0.50400001928E-02 0.  1.
</event>
<event>
 5   0  0.2529875E-07  0.3811216E+04  0.7818609E-02  0.8043752E-01
        1   -1    0    0  501    0  0.00000000000E+00  0.00000000000E+00  0.21982771271E+04  0.21982771271E+04  0.50400001928E-02 0.  1.
       -1   -1    0    0    0  501  0.00000000000E+00  0.00000000000E+00 -0.16519032547E+04  0.16519032547E+04  0.50400001928E-02 0. -1.
    10030    2    1    2    0    0  0.00000000000E+00  0.00000000000E+00  0.54637387240E+03  0.38501803818E+04  0.38112156281E+04 0.  0.
        4    1    3    3  502    0  0.14207786823E+03  0.18650505593E+04 -0.94872677499E+02  0.18728593506E+04  0.12699999809E+01 0. -1.
       -4    1    3    3    0  502 -0.14207786823E+03 -0.18650505593E+04  0.64124654990E+03  0.19773210311E+04  0.12699999809E+01 0.  1.
</event>
<event>
 5   0  0.8038352E-07  0.3771342E+04  0.7818609E-02  0.8052333E-01
        2   -1    0    0  501    0  0.00000000000E+00  0.00000000000E+00  0.12021662285E+04  0.12021662285E+04  0.25500000920E-02 0. -1.
       -2   -1    0    0    0  501  0.00000000000E+00  0.00000000000E+00 -0.29577893313E+04  0.29577893313E+04  0.25500000920E-02 0.  1.
    10030    2    1    2    0    0  0.00000000000E+00  0.00000000000E+00 -0.17556231028E+04  0.41599555598E+04  0.37713416420E+04 0.  0.
        2    1    3    3  502    0  0.46350836958E+03  0.12699322639E+04 -0.23278787093E+04  0.26919485970E+04  0.25500000920E-02 0. -1.
       -2    1    3    3    0  502 -0.46350836958E+03 -0.12699322639E+04  0.57225560654E+03  0.14680069628E+04  0.25500000920E-02 0.  1.
</event>
<event>
 5   0  0.8038352E-07  0.2664453E+04  0.7818609E-02  0.8346632E-01
       -2   -1    0    0    0  501  0.00000000000E+00  0.00000000000E+00  0.91268001587E+03  0.91268001587E+03  0.25500000920E-02 0. -1.
        2   -1    0    0  501    0  0.00000000000E+00  0.00000000000E+00 -0.19446328239E+04  0.19446328239E+04  0.25500000920E-02 0.  1.
    10030    2    1    2    0    0  0.00000000000E+00  0.00000000000E+00 -0.10319528081E+04  0.28573128398E+04  0.26644530520E+04 0.  0.
        2    1    3    3  502    0  0.90096768185E+03 -0.66583156413E+03  0.25714599641E+03  0.11494339907E+04  0.25500000920E-02 0.  1.
       -2    1    3    3    0  502 -0.90096768185E+03  0.66583156413E+03 -0.12890988045E+04  0.17078788491E+04  0.25500000920E-02 0. -1.
</event>
<event>
 5   0  0.7638805E-07  0.3876868E+04  0.7818609E-02  0.8029857E-01
        2   -1    0    0  501    0  0.00000000000E+00  0.00000000000E+00  0.12790646400E+04  0.12790646400E+04  0.25500000920E-02 0.  1.
       -2   -1    0    0    0  501  0.00000000000E+00  0.00000000000E+00 -0.29377145176E+04  0.29377145176E+04  0.25500000920E-02 0. -1.
    10030    2    1    2    0    0  0.00000000000E+00  0.00000000000E+00 -0.16586498777E+04  0.42167791576E+04  0.38768682009E+04 0.  0.
        5    1    3    3  502    0 -0.10557249887E+04 -0.12633934367E+04  0.28350516302E+03  0.16706631902E+04  0.46999998093E+01 0.  1.
       -5    1    3    3    0  502  0.10557249887E+04  0.12633934367E+04 -0.19421550407E+04  0.25461159674E+04  0.46999998093E+01 0. -1.
</event>
<event>
 5   0  0.7551495E-07  0.3722728E+04  0.7818609E-02  0.8062944E-01
        2   -1    0    0  501    0  0.00000000000E+00  0.00000000000E+00  0.19260091660E+04  0.19260091660E+04  0.25500000920E-02 0.  1.
       -2   -1    0    0    0  501  0.00000000000E+00  0.00000000000E+00 -0.17988888733E+04  0.17988888733E+04  0.25500000920E-02 0. -1.
    10030    2    1    2    0    0  0.00000000000E+00  0.00000000000E+00  0.12712029277E+03  0.37248980393E+04  0.37227282783E+04 0.  0.
        1    1    3    3  502    0 -0.17946701454E+04 -0.38125610980E+03 -0.25043688503E+03  0.18517331842E+04  0.50400001928E-02 0. -1.
       -1    1    3    3    0  502  0.17946701454E+04  0.38125610980E+03  0.37755717780E+03  0.18731648551E+04  0.50400001928E-02 0.  1.
</event>
<event>
 5   0  0.2529875E-07  0.2617515E+04  0.7818609E-02  0.8362276E-01
        1   -1    0    0  501    0  0.00000000000E+00  0.00000000000E+00  0.14191021111E+04  0.14191021111E+04  0.50400001928E-02 0.  1.
       -1   -1    0    0    0  501  0.00000000000E+00  0.00000000000E+00 -0.12069931251E+04  0.12069931251E+04  0.50400001928E-02 0. -1.
    10030    2    1    2    0    0  0.00000000000E+00  0.00000000000E+00  0.21210898594E+03  0.26260952362E+04  0.26175152278E+04 0.  0.
        3    1    3    3  502    0  0.36623099083E+03 -0.10102356025E+04  0.85559467239E+03  0.13735877711E+04  0.10100000352E+00 0.  1.
       -3    1    3    3    0  502 -0.36623099083E+03  0.10102356025E+04 -0.64348568644E+03  0.12525074651E+04  0.10100000352E+00 0. -1.
</event>
<event>
 5   0  0.7649458E-07  0.3768788E+04  0.7818609E-02  0.8052886E-01
        2   -1    0    0  501    0  0.00000000000E+00  0.00000000000E+00  0.22280241704E+04  0.22280241704E+04  0.25500000920E-02 0. -1.
       -2   -1    0    0    0  501  0.00000000000E+00  0.00000000000E+00 -0.15937623876E+04  0.15937623876E+04  0.25500000920E-02 0.  1.
    10030    2    1    2    0    0  0.00000000000E+00  0.00000000000E+00  0.63426178277E+03  0.38217865580E+04  0.37687881986E+04 0.  0.
        4    1    3    3  502    0 -0.14787830536E+04 -0.11110724682E+04 -0.48013490890E+02  0.18502941002E+04  0.12699999809E+01 0.  1.
       -4    1    3    3    0  502  0.14787830536E+04  0.11110724682E+04  0.68227527366E+03  0.19714924578E+04  0.12699999809E+01 0. -1.
</event>
<event>
 5   0  0.7638805E-07  0.3776248E+04  0.7818609E-02  0.8051271E-01
        2   -1    0    0  501    0  0.00000000000E+00  0.00000000000E+00  0.21443099277E+04  0.21443099277E+04  0.25500000920E-02 0. -1.
       -2   -1    0    0    0  501  0.00000000000E+00  0.00000000000E+00 -0.16625450109E+04  0.16625450109E+04  0.25500000920E-02 0.  1.
    10030    2    1    2    0    0  0.00000000000E+00  0.00000000000E+00  0.48176491681E+03  0.38068549385E+04  0.37762477525E+04 0.  0.
        5    1    3    3  502    0  0.10929967129E+04 -0.65647474591E+03 -0.11630243728E+04  0.17257603218E+04  0.46999998093E+01 0.  1.
       -5    1    3    3    0  502 -0.10929967129E+04  0.65647474591E+03  0.16447892896E+04  0.20810946167E+04  0.46999998093E+01 0. -1.
</event>
<event>
 5   0  0.7551495E-07  0.3599641E+04  0.7818609E-02  0.8090574E-01
        2   -1    0    0  501    0  0.00000000000E+00  0.00000000000E+00  0.12649973062E+04  0.12649973062E+04  0.25500000920E-02 0. -1.
       -2   -1    0    0    0  501  0.00000000000E+00  0.00000000000E+00 -0.25607593381E+04  0.25607593381E+04  0.25500000920E-02 0.  1.
    10030    2    1    2    0    0  0.00000000000E+00  0.00000000000E+00 -0.12957620319E+04  0.38257566443E+04  0.35996409068E+04 0.  0.
        1    1    3    3  502    0  0.12227719126E+04 -0.76226461092E+03  0.49835290843E+03  0.15246554065E+04  0.50400001928E-02 0. -1.
       -1    1    3    3    0  502 -0.12227719126E+04  0.76226461092E+03 -0.17941149403E+04  0.23011012378E+04  0.50400001928E-02 0.  1.
</event>
<event>
 5   0  0.2529875E-07  0.3351596E+04  0.7818609E-02  0.8149889E-01
       -1   -1    0    0    0  501  0.00000000000E+00  0.00000000000E+00  0.11710217247E+04  0.11710217247E+04  0.50400001928E-02 0. -1.
        1   -1    0    0  501    0  0.00000000000E+00  0.00000000000E+00 -0.23981612671E+04  0.23981612671E+04  0.50400001928E-02 0.  1.
    10030    2    1    2    0    0  0.00000000000E+00  0.00000000000E+00 -0.12271395424E+04  0.35691829918E+04  0.33515960038E+04 0.  0.
        1    1    3    3  502    0 -0.58361757676E+03 -0.10270134132E+04 -0.18794071688E+04  0.22198056972E+04  0.50400001928E-02 0.  1.
       -1    1    3    3    0  502  0.58361757676E+03  0.10270134132E+04  0.65226762642E+03  0.13493772947E+04  0.50400001928E-02 0. -1.
</event>
<event>
 5   0  0.2907071E-07  0.3666563E+04  0.7818609E-02  0.8075412E-01
        1   -1    0    0  501    0  0.00000000000E+00  0.00000000000E+00  0.15675114674E+04  0.15675114674E+04  0.50400001928E-02 0. -1.
       -1   -1    0    0    0  501  0.00000000000E+00  0.00000000000E+00 -0.21441128758E+04  0.21441128758E+04  0.50400001928E-02 0.  1.
    10030    2    1    2    0    0  0.00000000000E+00  0.00000000000E+00 -0.57660140844E+03  0.37116243432E+04  0.36665632520E+04 0.  0.
        2    1    3    3  502    0 -0.13662222566E+04  0.11868935390E+04 -0.58454378493E+03  0.19018335794E+04  0.25500000920E-02 0.  1.
       -2    1    3    3    0  502  0.13662222566E+04 -0.11868935390E+04  0.79423764906E+01  0.18097907638E+04  0.25500000920E-02 0. -1.
</event>
<event>
 5   0  0.2907071E-07  0.2677180E+04  0.7818609E-02  0.8342448E-01
       -1   -1    0    0    0  501  0.00000000000E+00  0.00000000000E+00  0.17104952917E+04  0.17104952917E+04  0.50400001928E-02 0. -1.
        1   -1    0    0  501    0  0.00000000000E+00  0.00000000000E+00 -0.10475461361E+04  0.10475461361E+04  0.50400001928E-02 0.  1.
    10030    2    1    2    0    0  0.00000000000E+00  0.00000000000E+00  0.66294915555E+03  0.27580414278E+04  0.26771796605E+04 0.  0.
        2    1    3    3  502    0  0.13271601942E+04  0.86272370704E+02  0.17514936272E+03  0.13414448935E+04  0.25500000920E-02 0. -1.
       -2    1    3    3    0  502 -0.13271601942E+04 -0.86272370704E+02  0.48779979283E+03  0.14165965343E+04  0.25500000920E-02 0.  1.
</event>
<event>
 5   0  0.8038352E-07  0.2867869E+04  0.7818609E-02  0.8282502E-01
       -2   -1    0    0    0  501  0.00000000000E+00  0.00000000000E+00  0.86492082032E+03  0.86492082033E+03  0.25500000920E-02 0. -1.
        2   -1    0    0  501    0  0.00000000000E+00  0.00000000000E+00 -0.23772909655E+04  0.23772909655E+04  0.25500000920E-02 0.  1.
    10030    2    1    2    0    0  0.00000000000E+00  0.00000000000E+00 -0.15123701452E+04  0.32422117859E+04  0.28678692105E+04 0.  0.
        2    1    3    3  502    0  0.13144112450E+04  0.55107960034E+03 -0.57813898261E+03  0.15380540725E+04  0.25500000920E-02 0. -1.
       -2    1    3    3    0  502 -0.13144112450E+04 -0.55107960034E+03 -0.93423116261E+03  0.17041577134E+04  0.25500000920E-02 0.  1.
</event>
<event>
 5   0  0.7649458E-07  0.3590062E+04  0.7818609E-02  0.8092772E-01
        2   -1    0    0  501    0  0.00000000000E+00  0.00000000000E+00  0.17213772806E+04  0.17213772806E+04  0.25500000920E-02 0.  1.
       -2   -1    0    0    0  501  0.00000000000E+00  0.00000000000E+00 -0.18718360589E+04  0.18718360589E+04  0.25500000920E-02 0. -1.
    10030    2    1    2    0    0  0.00000000000E+00  0.00000000000E+00 -0.15045877831E+03  0.35932133395E+04  0.35900618740E+04 0.  0.
        4    1    3    3  502    0  0.17672541597E+04 -0.22770579303E+03  0.14198014581E+03  0.17875114455E+04  0.12699999809E+01 0. -1.
       -4    1    3    3    0  502 -0.17672541597E+04  0.22770579303E+03 -0.29243892412E+03  0.18057018941E+04  0.12699999809E+01 0.  1.
</event>
<event>
 5   0  0.7638805E-07  0.3804626E+04  0.7818609E-02  0.8045163E-01
        2   -1    0    0  501    0  0.00000000000E+00  0.00000000000E+00  0.21933225177E+04  0.21933225177E+04  0.25500000920E-02 0. -1.
       -2   -1    0    0    0  501  0.00000000000E+00  0.00000000000E+00 -0.16499145527E+04  0.16499145527E+04  0.25500000920E-02 0.  1.
    10030    2    1    2    0    0  0.00000000000E+00  0.00000000000E+00  0.54340796504E+03  0.38432370704E+04  0.38046259951E+04 0.  0.
        5    1    3    3  502    0  0.13747769853E+04  0.11847191559E+04 -0.30434765551E+03  0.18401686942E+04  0.46999998093E+01 0.  1.
       -5    1    3    3    0  502 -0.13747769853E+04 -0.11847191559E+04  0.84775562056E+03  0.20030683762E+04  0.46999998093E+01 0. -1.
</event>
<event>
 5   0  0.2529875E-07  0.3837070E+04  0.7818609E-02  0.8038246E-01
        1   -1    0    0  501    0  0.00000000000E+00  0.00000000000E+00  0.15975227507E+04  0.15975227507E+04  0.50400001928E-02 0.  1.
       -1   -1    0    0    0  501  0.00000000000E+00  0.00000000000E+00 -0.23040528360E+04  0.23040528360E+04  0.50400001928E-02 0. -1.
    10030    2    1    2    0    0  0.00000000000E+00  0.00000000000E+00 -0.70653008531E+03  0.39015755868E+04  0.38370701450E+04 0.  0.
        1    1    3    3  502    0  0.60373478060E+03 -0.12805291158E+04 -0.16698396505E+04  0.21892041842E+04  0.50400001928E-02 0. -1.
       -1    1    3    3    0  502 -0.60373478060E+03  0.12805291158E+04  0.96330956521E+03  0.17123714025E+04  0.50400001928E-02 0.  1.
</event>
<event>
 5   0  0.2529875E-07  0.3734862E+04  0.7818609E-02  0.8060280E-01
        1   -1    0    0  501    0  0.00000000000E+00  0.00000000000E+00  0.24670424162E+04  0.24670424162E+04  0.50400001928E-02 0.  1.
       -1   -1    0    0    0  501  0.00000000000E+00  0.00000000000E+00 -0.14135540253E+04  0.14135540254E+04  0.50400001928E-02 0. -1.
    10030    2    1    2    0    0  0.00000000000E+00  0.00000000000E+00  0.10534883909E+04  0.38805964416E+04  0.37348615708E+04 0.  0.
        4    1    3    3  502    0  0.13630133534E+04  0.71164129256E+03 -0.57435120177E+03  0.16413773627E+04  0.12699999809E+01 0. -1.
       -4    1    3    3    0  502 -0.13630133534E+04 -0.71164129256E+03  0.16278395926E+04  0.22392190789E+04  0.12699999809E+01 0.  1.
</event>
<event>
 5   0  0.8038352E-07  0.3828834E+04  0.7818609E-02  0.8039995E-01
       -2   -1    0    0    0  501  0.00000000000E+00  0.00000000000E+00  0.17937807349E+04  0.17937807349E+04  0.25500000920E-02 0. -1.
        2   -1    0    0  501    0  0.00000000000E+00  0.00000000000E+00 -0.20431658445E+04  0.20431658445E+04  0.25500000920E-02 0.  1.
    10030    2    1    2    0    0  0.00000000000E+00  0.00000000000E+00 -0.24938510961E+03  0.38369465793E+04  0.38288335195E+04 0.  0.
        2    1    3    3  502    0 -0.12658756557E+04  0.40842143984E+03 -0.15044696068E+04  0.20081528941E+04  0.25500000920E-02 0.  1.
       -2    1    3    3    0  502  0.12658756557E+04 -0.40842143984E+03  0.12550844972E+04  0.18287936853E+04  0.25500000920E-02 0. -1.
</event>
<event>
 5   0  0.7551495E-07  0.3782176E+04  0.7818609E-02  0.8049991E-01
       -2   -1    0    0    0  501  0.00000000000E+00  0.00000000000E+00  0.17432348236E+04  0.17432348236E+04  0.25500000920E-02 0.  1.
        2   -1    0    0  501    0  0.00000000000E+00  0.00000000000E+00 -0.20514809944E+04  0.20514809944E+04  0.25500000920E-02 0. -1.
    10030    2    1    2    0    0  0.00000000000E+00  0.00000000000E+00 -0.30824617077E+03  0.37947158179E+04  0.37821756222E+04 0.  0.
        1    1    3    3  502    0 -0.64021589888E+02 -0.82871424650E+03  0.15501398337E+04  0.17589200011E+04  0.50400001928E-02 0.  1.
       -1    1    3    3    0  502  0.64021589888E+02  0.82871424650E+03 -0.18583860044E+04  0.20357958168E+04  0.50400001928E-02 0. -1.
</event>
<event>
 5   0  0.7649458E-07  0.3833190E+04  0.7818609E-02  0.8039070E-01
        2   -1    0    0  501    0  0.00000000000E+00  0.00000000000E+00  0.18697934387E+04  0.18697934387E+04  0.25500000920E-02 0. -1.
       -2   -1    0    0    0  501  0.00000000000E+00  0.00000000000E+00 -0.19645676734E+04  0.19645676734E+04  0.25500000920E-02 0.  1.
    10030    2    1    2    0    0  0.00000000000E+00  0.00000000000E+00 -0.94774234778E+02  0.38343611121E+04  0.38331896617E+04 0.  0.
        4    1    3    3  502    0 -0.58402949044E+01  0.18368403472E+04  0.49987930550E+03  0.19036537246E+04  0.12699999809E+01 0.  1.
       -4    1    3    3    0  502  0.58402949044E+01 -0.18368403472E+04 -0.59465354028E+03  0.19307073875E+04  0.12699999809E+01 0. -1.
</event>
<event>
 5   0  0.2907071E-07  0.3696465E+04  0.7818609E-02  0.8068746E-01
       -1   -1    0    0    0  501  0.00000000000E+00  0.00000000000E+00  0.15128507738E+04  0.15128507738E+04  0.50400001928E-02 0.  1.
        1   -1    0    0  501    0  0.00000000000E+00  0.00000000000E+00 -0.22579647652E+04  0.22579647652E+04  0.50400001928E-02 0. -1.
    10030    2    1    2    0    0  0.00000000000E+00  0.00000000000E+00 -0.74511399141E+03  0.37708155390E+04  0.36964651992E+04 0.  0.
        2    1    3    3  502    0 -0.18467003211E+04  0.36000541585E+02 -0.43995887165E+03  0.18987263952E+04  0.25500000920E-02 0.  1.
       -2    1    3    3    0  502  0.18467003211E+04 -0.36000541585E+02 -0.30515511976E+03  0.18720891438E+04  0.25500000920E-02 0. -1.
</event>
<event>
 5   0  0.7638805E-07  0.2933277E+04  0.7818609E-02  0.8263045E-01
        2   -1    0    0  501    0  0.00000000000E+00  0.00000000000E+00  0.15806803511E+04  0.15806803511E+04  0.25500000920E-02 0. -1.
       -2   -1    0    0    0  501  0.00000000000E+00  0.00000000000E+00 -0.13608242111E+04  0.13608242111E+04  0.25500000920E-02 0.  1.
    10030    2    1    2    0    0  0.00000000000E+00  0.00000000000E+00  0.21985614000E+03  0.29415045622E+04  0.29332767287E+04 0.  0.
        5    1    3    3  502    0  0.38032332908E+03  0.46958988543E+03 -0.12301757102E+04  0.13705892394E+04  0.46999998093E+01 0.  1.
       -5    1    3    3    0  502 -0.38032332908E+03 -0.46958988543E+03  0.14500318502E+04  0.15709153229E+04  0.46999998093E+01 0. -1.
</event>
<event>
 5   0  0.2529875E-07  0.2325772E+04  0.7818609E-02  0.8467828E-01
        1   -1    0    0  501    0  0.00000000000E+00  0.00000000000E+00  0.16123417354E+04  0.16123417354E+04  0.50400001928E-02 0. -1.
       -1   -1    0    0    0  501  0.00000000000E+00  0.00000000000E+00 -0.83872040455E+03  0.83872040457E+03  0.50400001928E-02 0.  1.
    10030    2    1    2    0    0  0.00000000000E+00  0.00000000000E+00  0.77362133082E+03  0.24510621399E+04  0.23257720547E+04 0.  0.
        4    1    3    3  502    0  0.82350301912E+03  0.81803440738E+03  0.46106766887E+03  0.12489685834E+04  0.12699999809E+01 0. -1.
       -4    1    3    3    0  502 -0.82350301912E+03 -0.81803440738E+03  0.31255366196E+03  0.12020935565E+04  0.12699999809E+01 0.  1.
</event>
<event>
 5   0  0.2529875E-07  0.3463832E+04  0.7818609E-02  0.8122415E-01
        1   -1    0    0  501    0  0.00000000000E+00  0.00000000000E+00  0.18443683985E+04  0.18443683985E+04  0.50400001928E-02 0. -1.
       -1   -1    0    0    0  501  0.00000000000E+00  0.00000000000E+00 -0.16263199580E+04  0.16263199580E+04  0.50400001928E-02 0.  1.
    10030    2    1    2    0    0  0.00000000000E+00  0.00000000000E+00  0.21804844046E+03  0.34706883565E+04  0.34638320608E+04 0.  0.
        1    1    3    3  502    0 -0.82473223106E+03  0.32110361464E+03 -0.13826274409E+04  0.16416301120E+04  0.50400001928E-02 0.  1.
       -1    1    3    3    0  502  0.82473223106E+03 -0.32110361464E+03  0.16006758814E+04  0.18290582444E+04  0.50400001928E-02 0. -1.
</event>
<event>
 5   0  0.2529875E-07  0.2738236E+04  0.7818609E-02  0.8322704E-01
        1   -1    0    0  501    0  0.00000000000E+00  0.00000000000E+00  0.18721848671E+04  0.18721848671E+04  0.50400001928E-02 0.  1.
       -1   -1    0    0    0  501  0.00000000000E+00  0.00000000000E+00 -0.10012283857E+04  0.10012283857E+04  0.50400001928E-02 0. -1.
    10030    2    1    2    0    0  0.00000000000E+00  0.00000000000E+00  0.87095648142E+03  0.28734132529E+04  0.27382363903E+04 0.  0.
        1    1    3    3  502    0 -0.24278536085E+03 -0.11852084663E+04  0.11080728166E+04  0.16405758766E+04  0.50400001928E-02 0.  1.
       -1    1    3    3    0  502  0.24278536085E+03  0.11852084663E+04 -0.23711633519E+03  0.12328373763E+04  0.50400001928E-02 0. -1.
</event>
<event>
 5   0  0.2907071E-07  0.3839674E+04  0.7818609E-02  0.8037694E-01
        1   -1    0    0  501    0  0.00000000000E+00  0.00000000000E+00  0.21586307304E+04  0.21586307304E+04  0.50400001928E-02 0.  1.
       -1   -1    0    0    0  501  0.00000000000E+00  0.00000000000E+00 -0.17074588655E+04  0.17074588655E+04  0.50400001928E-02 0. -1.
    10030    2    1    2    0    0  0.00000000000E+00  0.00000000000E+00  0.45117186496E+03  0.38660895959E+04  0.38396735163E+04 0.  0.
        2    1    3    3  502    0  0.14863380244E+04 -0.10676150576E+03 -0.99318554632E+03  0.17908144157E+04  0.25500000920E-02 0. -1.
       -2    1    3    3    0  502 -0.14863380244E+04  0.10676150576E+03  0.14443574113E+04  0.20752751802E+04  0.25500000920E-02 0.  1.
</event>
<event>
 5   0  0.2529875E-07  0.3845092E+04  0.7818609E-02  0.8036547E-01
       -1   -1    0    0    0  501  0.00000000000E+00  0.00000000000E+00  0.18087383927E+04  0.18087383927E+04  0.50400001928E-02 0. -1.
        1   -1    0    0  501    0  0.00000000000E+00  0.00000000000E+00 -0.20435148844E+04  0.20435148844E+04  0.50400001928E-02 0.  1.
    10030    2    1    2    0    0  0.00000000000E+00  0.00000000000E+00 -0.23477649175E+03  0.38522532771E+04  0.38450923669E+04 0.  0.
        3    1    3    3  502    0 -0.13906320461E+03  0.10191839197E+04 -0.17446389025E+04  0.20252998167E+04  0.10100000352E+00 0.  1.
       -3    1    3    3    0  502  0.13906320461E+03 -0.10191839197E+04  0.15098624107E+04  0.18269534605E+04  0.10100000352E+00 0. -1.
</event>
<event>
 5   0  0.7551495E-07  0.3696912E+04  0.7818609E-02  0.8068646E-01
        2   -1    0    0  501    0  0.00000000000E+00  0.00000000000E+00  0.22590892713E+04  0.22590892713E+04  0.25500000920E-02 0. -1.
       -2   -1    0    0    0  501  0.00000000000E+00  0.00000000000E+00 -0.15124634055E+04  0.15124634055E+04  0.25500000920E-02 0.  1.
    10030    2    1    2    0    0  0.00000000000E+00  0.00000000000E+00  0.74662586582E+03  0.37715526768E+04  0.36969121453E+04 0.  0.
        1    1    3    3  502    0  0.61450306140E+03  0.15472402767E+04 -0.44616278833E+03  0.17235509044E+04  0.50400001928E-02 0.  1.
       -1    1    3    3    0  502 -0.61450306140E+03 -0.15472402767E+04  0.11927886541E+04  0.20480017724E+04  0.50400001928E-02 0. -1.
</event>
<event>
 5   0  0.2529875E-07  0.3741048E+04  0.7818609E-02  0.8058926E-01
        1   -1    0    0  501    0  0.00000000000E+00  0.00000000000E+00  0.15287388383E+04  0.15287388383E+04  0.50400001928E-02 0. -1.
       -1   -1    0    0    0  501  0.00000000000E+00  0.00000000000E+00 -0.22887226169E+04  0.22887226169E+04  0.50400001928E-02 0.  1.
    10030    2    1    2    0    0  0.00000000000E+00  0.00000000000E+00 -0.75998377859E+03  0.38174614552E+04  0.37410475295E+04 0.  0.
        3    1    3    3  502    0  0.67536528512E+03 -0.29362808924E+03 -0.21345675343E+04  0.22580332796E+04  0.10100000352E+00 0.  1.
       -3    1    3    3    0  502 -0.67536528512E+03  0.29362808924E+03  0.13745837557E+04  0.15594281756E+04  0.10100000352E+00 0. -1.
</event>
<event>
 5   0  0.7649458E-07  0.3693127E+04  0.7818609E-02  0.8069487E-01
        2   -1    0    0  501    0  0.00000000000E+00  0.00000000000E+00  0.20831417614E+04  0.20831417614E+04  0.25500000920E-02 0.  1.
       -2   -1    0    0    0  501  0.00000000000E+00  0.00000000000E+00 -0.16368528574E+04  0.16368528574E+04  0.25500000920E-02 0. -1.
    10030    2    1    2    0    0  0.00000000000E+00  0.00000000000E+00  0.44628890398E+03  0.37199946188E+04  0.36931268836E+04 0.  0.
        4    1    3    3  502    0 -0.76404666369E+03 -0.16526843821E+04  0.53305462327E+03  0.18971773284E+04  0.12699999809E+01 0. -1.
       -4    1    3    3    0  502  0.76404666369E+03  0.16526843821E+04 -0.86765719285E+02  0.18228172904E+04  0.12699999809E+01 0.  1.
</event>
<event>
 5   0  0.8421677E-07  0.3126474E+04  0.7818609E-02  0.8208510E-01
        2   -1    0    0  501    0  0.00000000000E+00  0.00000000000E+00  0.23506512122E+04  0.23506512122E+04  0.25500000920E-02 0.  1.
       -2   -1    0    0    0  501  0.00000000000E+00  0.00000000000E+00 -0.10395885496E+04  0.10395885496E+04  0.25500000920E-02 0. -1.
    10030    2    1    2    0    0  0.00000000000E+00  0.00000000000E+00  0.13110626626E+04  0.33902397617E+04  0.31264741062E+04 0.  0.
        3    1    3    3  502    0  0.64350448754E+03 -0.11729988253E+04  0.15322496960E+04  0.20341615990E+04  0.10100000352E+00 0.  1.
       -3    1    3    3    0  502 -0.64350448754E+03  0.11729988253E+04 -0.22118703345E+03  0.13560781628E+04  0.10100000352E+00 0. -1.
</event>
<event>
 5   0  0.8038352E-07  0.3884725E+04  0.7818609E-02  0.8028214E-01
       -2   -1    0    0    0  501  0.00000000000E+00  0.00000000000E+00  0.25884993316E+04  0.25884993316E+04  0.25500000920E-02 0.  1.
        2   -1    0    0  501    0  0.00000000000E+00  0.00000000000E+00 -0.14575133134E+04  0.14575133134E+04  0.25500000920E-02 0. -1.
    10030    2    1    2    0    0  0.00000000000E+00  0.00000000000E+00  0.11309860182E+04  0.40460126449E+04  0.38847250803E+04 0.  0.
        2    1    3    3  502    0 -0.17469351054E+04 -0.76415944489E+03  0.17991969372E+03  0.19152266226E+04  0.25500000920E-02 0. -1.
       -2    1    3    3    0  502  0.17469351054E+04  0.76415944489E+03  0.95106632447E+03  0.21307860224E+04  0.25500000920E-02 0.  1.
</event>
<event>
 5   0  0.2865674E-07  0.2471324E+04  0.7818609E-02  0.8413273E-01
       -1   -1    0    0    0  501  0.00000000000E+00  0.00000000000E+00  0.96389203234E+03  0.96389203235E+03  0.50400001928E-02 0.  1.
        1   -1    0    0  501    0  0.00000000000E+00  0.00000000000E+00 -0.15840577154E+04  0.15840577154E+04  0.50400001928E-02 0. -1.
    10030    2    1    2    0    0  0.00000000000E+00  0.00000000000E+00 -0.62016568305E+03  0.25479497477E+04  0.24713240262E+04 0.  0.
        5    1    3    3  502    0 -0.11277461569E+04  0.29895138369E+03 -0.72971010680E+03  0.13761112798E+04  0.46999998093E+01 0. -1.
       -5    1    3    3    0  502  0.11277461569E+04 -0.29895138369E+03  0.10954442375E+03  0.11718384680E+04  0.46999998093E+01 0.  1.
</event>
<event>
 5   0  0.2529875E-07  0.3772833E+04  0.7818609E-02  0.8052010E-01
       -1   -1    0    0    0  501  0.00000000000E+00  0.00000000000E+00  0.15240710125E+04  0.15240710125E+04  0.50400001928E-02 0.  1.
        1   -1    0    0  501    0  0.00000000000E+00  0.00000000000E+00 -0.23349092997E+04  0.23349092997E+04  0.50400001928E-02 0. -1.
    10030    2    1    2    0    0  0.00000000000E+00  0.00000000000E+00 -0.81083828721E+03  0.38589803123E+04  0.37728331957E+04 0.  0.
        1    1    3    3  502    0 -0.86422022095E+03 -0.21826879838E+03  0.12950857415E+04  0.15721847654E+04  0.50400001928E-02 0.  1.
       -1    1    3    3    0  502  0.86422022095E+03  0.21826879838E+03 -0.21059240287E+04  0.22867955469E+04  0.50400001928E-02 0. -1.
</event>
<event>
 5   0  0.7649458E-07  0.3772627E+04  0.7818609E-02  0.8052055E-01
       -2   -1    0    0    0  501  0.00000000000E+00  0.00000000000E+00  0.26890736152E+04  0.26890736152E+04  0.25500000920E-02 0.  1.
        2   -1    0    0  501    0  0.00000000000E+00  0.00000000000E+00 -0.13231988152E+04  0.13231988152E+04  0.25500000920E-02 0. -1.
    10030    2    1    2    0    0  0.00000000000E+00  0.00000000000E+00  0.13658748000E+04  0.40122724304E+04  0.37726272127E+04 0.  0.
        4    1    3    3  502    0 -0.12166913519E+04  0.89630890008E+03  0.18835732729E+04  0.24148617719E+04  0.12699999809E+01 0. -1.
       -4    1    3    3    0  502  0.12166913519E+04 -0.89630890008E+03 -0.51769847284E+03  0.15974106585E+04  0.12699999809E+01 0.  1.
</event>
<event>
 5   0  0.7649458E-07  0.3556838E+04  0.7818609E-02  0.8100451E-01
       -2   -1    0    0    0  501  0.00000000000E+00  0.00000000000E+00  0.18803071549E+04  0.18803071549E+04  0.25500000920E-02 0. -1.
        2   -1    0    0  501    0  0.00000000000E+00  0.00000000000E+00 -0.16820522044E+04  0.16820522044E+04  0.25500000920E-02 0.  1.
    10030    2    1    2    0    0  0.00000000000E+00  0.00000000000E+00  0.19825495048E+03  0.35623593593E+04  0.35568383685E+04 0.  0.
        4    1    3    3  502    0 -0.38605163954E+03 -0.93900780545E+02 -0.16370337450E+04  0.16845576036E+04  0.12699999809E+01 0.  1.
       -4    1    3    3    0  502  0.38605163954E+03  0.93900780545E+02  0.18352886954E+04  0.18778017556E+04  0.12699999809E+01 0. -1.
</event>
<event>
 5   0  0.7638805E-07  0.3865967E+04  0.7818609E-02  0.8032145E-01
        2   -1    0    0  501    0  0.00000000000E+00  0.00000000000E+00  0.16937418991E+04  0.16937418991E+04  0.25500000920E-02 0.  1.
       -2   -1    0    0    0  501  0.00000000000E+00  0.00000000000E+00 -0.22060184858E+04  0.22060184858E+04  0.25500000920E-02 0. -1.
    10030    2    1    2    0    0  0.00000000000E+00  0.00000000000E+00 -0.51227658673E+03  0.38997603849E+04  0.38659673767E+04 0.  0.
        5    1    3    3  502    0  0.12383594248E+04 -0.11945370763E+04  0.63244240469E+03  0.18331553063E+04  0.46999998093E+01 0.  1.
       -5    1    3    3    0  502 -0.12383594248E+04  0.11945370763E+04 -0.11447189914E+04  0.20666050786E+04  0.46999998093E+01 0. -1.
</event>
<event>
 5   0  0.8421677E-07  0.3831682E+04  0.7818609E-02  0.8039390E-01
       -2   -1    0    0    0  501  0.00000000000E+00  0.00000000000E+00  0.16954284151E+04  0.16954284151E+04  0.25500000920E-02 0.  1.
        2   -1    0    0  501    0  0.00000000000E+00  0.00000000000E+00 -0.21649083155E+04  0.21649083155E+04  0.25500000920E-02 0. -1.
    10030    2    1    2    0    0  0.00000000000E+00  0.00000000000E+00 -0.46947990036E+03  0.38603367306E+04  0.38316821758E+04 0.  0.
        3    1    3    3  502    0 -0.77281831720E+03  0.14492086042E+04 -0.12285208439E+04  0.20510283284E+04  0.10100000352E+00 0.  1.
       -3    1    3    3    0  502  0.77281831720E+03 -0.14492086042E+04  0.75904094356E+03  0.18093084021E+04  0.10100000352E+00 0. -1.
</event>
<event>
 5   0  0.7649458E-07  0.3738474E+04  0.7818609E-02  0.8059489E-01
       -2   -1    0    0    0  501  0.00000000000E+00  0.00000000000E+00  0.24958459236E+04  0.24958459236E+04  0.25500000920E-02 0.  1.
        2   -1    0    0  501    0  0.00000000000E+00  0.00000000000E+00 -0.13999447621E+04  0.13999447621E+04  0.25500000920E-02 0. -1.
    10030    2    1    2    0    0  0.00000000000E+00  0.00000000000E+00  0.10959011616E+04  0.38957906857E+04  0.37384737141E+04 0.  0.
        4    1    3    3  502    0 -0.86250786458E+03 -0.12700474370E+02  0.22760342411E+04  0.24340120374E+04  0.12699999809E+01 0.  1.
       -4    1    3    3    0  502  0.86250786458E+03  0.12700474370E+02 -0.11801330795E+04  0.14617786484E+04  0.12699999809E+01 0. -1.
</event>
<event>
 5   0  0.2529875E-07  0.3829436E+04  0.7818609E-02  0.8039867E-01
        1   -1    0    0  501    0  0.00000000000E+00  0.00000000000E+00  0.13305427849E+04  0.13305427849E+04  0.50400001928E-02 0. -1.
       -1   -1    0    0    0  501  0.00000000000E+00  0.00000000000E+00 -0.27553754110E+04  0.27553754110E+04  0.50400001928E-02 0.  1.
    10030    2    1    2    0    0  0.00000000000E+00  0.00000000000E+00 -0.14248326261E+04  0.40859181958E+04  0.38294359233E+04 0.  0.
        5    1    3    3  502    0 -0.10412464427E+04 -0.12689771505E+04  0.33931387365E+03  0.16762020039E+04  0.46999998093E+01 0. -1.
       -5    1    3    3    0  502  0.10412464427E+04  0.12689771505E+04 -0.17641464998E+04  0.24097161919E+04  0.46999998093E+01 0.  1.
</event>
<event>
 5   0  0.2907071E-07  0.3653955E+04  0.7818609E-02  0.8078243E-01
        1   -1    0    0  501    0  0.00000000000E+00  0.00000000000E+00  0.12768543848E+04  0.12768543848E+04  0.50400001928E-02 0. -1.
       -1   -1    0    0    0  501  0.00000000000E+00  0.00000000000E+00 -0.26141174266E+04  0.26141174266E+04  0.50400001928E-02 0.  1.
    10030    2    1    2    0    0  0.00000000000E+00  0.00000000000E+00 -0.13372630418E+04  0.38909718114E+04  0.36539552808E+04 0.  0.
        2    1    3    3  502    0  0.13646239296E+04  0.56600122606E+03 -0.18131969776E+04  0.23388542359E+04  0.25500000920E-02 0.  1.
       -2    1    3    3    0  502 -0.13646239296E+04 -0.56600122606E+03  0.47593393574E+03  0.15521175756E+04  0.25500000920E-02 0. -1.
</event>
<event>
 5   0  0.7649458E-07  0.3747366E+04  0.7818609E-02  0.8057545E-01
        2   -1    0    0  501    0  0.00000000000E+00  0.00000000000E+00  0.14208028606E+04  0.14208028606E+04  0.25500000920E-02 0. -1.
       -2   -1    0    0    0  501  0.00000000000E+00  0.00000000000E+00 -0.24709188581E+04  0.24709188581E+04  0.25500000920E-02 0.  1.
    10030    2    1    2    0    0  0.00000000000E+00  0.00000000000E+00 -0.10501159975E+04  0.38917217188E+04  0.37473663189E+04 0.  0.
        4    1    3    3  502    0  0.58818737997E+03  0.52321494180E+02  0.13216385357E+04  0.14475606947E+04  0.12699999809E+01 0. -1.
       -4    1    3    3    0  502 -0.58818737997E+03 -0.52321494180E+02 -0.23717545333E+04  0.24441610241E+04  0.12699999809E+01 0.  1.
</event>
<event>
 5   0  0.8421677E-07  0.2710129E+04  0.7818609E-02  0.8331726E-01
        2   -1    0    0  501    0  0.00000000000E+00  0.00000000000E+00  0.11775589968E+04  0.11775589968E+04  0.25500000920E-02 0.  1.
       -2   -1    0    0    0  501  0.00000000000E+00  0.00000000000E+00 -0.15593277560E+04  0.15593277560E+04  0.25500000920E-02 0. -1.
    10030    2    1    2    0    0  0.00000000000E+00  0.00000000000E+00 -0.38176875924E+03  0.27368867527E+04  0.27101294640E+04 0.  0.
        3    1    3    3  502    0 -0.10945132801E+04  0.79725440463E+03 -0.24263987424E+03  0.13756627584E+04  0.10100000352E+00 0. -1.
       -3    1    3    3    0  502  0.10945132801E+04 -0.79725440463E+03 -0.13912888500E+03  0.13612239944E+04  0.10100000352E+00 0.  1.
</event>
<event>
 5   0  0.8038352E-07  0.3801481E+04  0.7818609E-02  0.8045837E-01
        2   -1    0    0  501    0  0.00000000000E+00  0.00000000000E+00  0.27727127724E+04  0.27727127724E+04  0.25500000920E-02 0. -1.
       -2   -1    0    0    0  501  0.00000000000E+00  0.00000000000E+00 -0.13029889545E+04  0.13029889545E+04  0.25500000920E-02 0.  1.
    10030    2    1    2    0    0  0.00000000000E+00  0.00000000000E+00  0.14697238179E+04  0.40757017269E+04  0.38014808254E+04 0.  0.
        2    1    3    3  502    0  0.12266968358E+04 -0.14303441697E+04  0.10021324534E+04  0.21342303120E+04  0.25500000920E-02 0. -1.
       -2    1    3    3    0  502 -0.12266968358E+04  0.14303441697E+04  0.46759136451E+03  0.19414714149E+04  0.25500000920E-02 0.  1.
</event>
<event>
 5   0  0.7649458E-07  0.3726697E+04  0.7818609E-02  0.8062071E-01
        2   -1    0    0  501    0  0.00000000000E+00  0.00000000000E+00  0.24510981059E+04  0.24510981059E+04  0.25500000920E-02 0. -1.
       -2   -1    0    0    0  501  0.00000000000E+00  0.00000000000E+00 -0.14165355561E+04  0.14165355561E+04  0.25500000920E-02 0.  1.
    10030    2    1    2    0    0  0.00000000000E+00  0.00000000000E+00  0.10345625498E+04  0.38676336620E+04  0.37266969925E+04 0.  0.
        4    1    3    3  502    0  0.18031492394E+04  0.38848802552E+02  0.10031858966E+04  0.20637926168E+04  0.12699999809E+01 0. -1.
       -4    1    3    3    0  502 -0.18031492394E+04 -0.38848802552E+02  0.31376653168E+02  0.18038410452E+04  0.12699999809E+01 0.  1.
</event>
<event>
 5   0  0.2529875E-07  0.3763700E+04  0.7818609E-02  0.8053990E-01
       -1   -1    0    0    0  501  0.00000000000E+00  0.00000000000E+00  0.15400221264E+04  0.15400221264E+04  0.50400001928E-02 0. -1.
        1   -1    0    0  501    0  0.00000000000E+00  0.00000000000E+00 -0.22995515725E+04  0.22995515725E+04  0.50400001928E-02 0.  1.
    10030    2    1    2    0    0  0.00000000000E+00  0.00000000000E+00 -0.75952944607E+03  0.38395736989E+04  0.37637004676E+04 0.  0.
        1    1    3    3  502    0  0.10872406936E+04 -0.84080964778E+03 -0.16910987823E+04  0.21791898222E+04  0.50400001928E-02 0.  1.
       -1    1    3    3    0  502 -0.10872406936E+04  0.84080964778E+03  0.93156933627E+03  0.16603838767E+04  0.50400001928E-02 0. -1.
</event>
<event>
 5   0  0.8038352E-07  0.3636803E+04  0.7818609E-02  0.8082113E-01
        2   -1    0    0  501    0  0.00000000000E+00  0.00000000000E+00  0.28947006667E+04  0.28947006667E+04  0.25500000920E-02 0.  1.
       -2   -1    0    0    0  501  0.00000000000E+00  0.00000000000E+00 -0.11422884670E+04  0.11422884670E+04  0.25500000920E-02 0. -1.
    10030    2    1    2    0    0  0.00000000000E+00  0.00000000000E+00  0.17524121997E+04  0.40369891338E+04  0.36368025446E+04 0.  0.
        2    1    3    3  502    0  0.26739105757E+03 -0.37989936272E+03  0.28277153672E+04  0.28656230913E+04  0.25500000920E-02 0.  1.
       -2    1    3    3    0  502 -0.26739105757E+03  0.37989936272E+03 -0.10753031675E+04  0.11713660425E+04  0.25500000920E-02 0. -1.
</event>
<event>
 5   0  0.2529875E-07  0.2919252E+04  0.7818609E-02  0.8267172E-01
       -1   -1    0    0    0  501  0.00000000000E+00  0.00000000000E+00  0.11011326025E+04  0.11011326026E+04  0.50400001928E-02 0.  1.
        1   -1    0    0  501    0  0.00000000000E+00  0.00000000000E+00 -0.19348333432E+04  0.19348333433E+04  0.50400001928E-02 0. -1.
    10030    2    1    2    0    0  0.00000000000E+00  0.00000000000E+00 -0.83370074070E+03  0.30359659458E+04  0.29192520102E+04 0.  0.
        5    1    3    3  502    0  0.75007126268E+03  0.99684674873E+03  0.37118859371E+03  0.13015811160E+04  0.46999998093E+01 0.  1.
       -5    1    3    3    0  502 -0.75007126268E+03 -0.99684674873E+03 -0.12048893344E+04  0.17343848298E+04  0.46999998093E+01 0. -1.
</event>
<event>
 5   0  0.2529875E-07  0.3485845E+04  0.7818609E-02  0.8117153E-01
       -1   -1    0    0    0  501  0.00000000000E+00  0.00000000000E+00  0.14436189921E+04  0.14436189921E+04  0.50400001928E-02 0. -1.
        1   -1    0    0  501    0  0.00000000000E+00  0.00000000000E+00 -0.21042805425E+04  0.21042805425E+04  0.50400001928E-02 0.  1.
    10030    2    1    2    0    0  0.00000000000E+00  0.00000000000E+00 -0.66066155048E+03  0.35478995346E+04  0.34858452954E+04 0.  0.
        3    1    3    3  502    0  0.63944086073E+02 -0.55367966864E+03  0.13504693480E+04  0.14609645758E+04  0.10100000352E+00 0. -1.
       -3    1    3    3    0  502 -0.63944086073E+02  0.55367966864E+03 -0.20111308985E+04  0.20869349589E+04  0.10100000352E+00 0.  1.
</event>
<event>
 5   0  0.7638805E-07  0.3791074E+04  0.7818609E-02  0.8048073E-01
        2   -1    0    0  501    0  0.00000000000E+00  0.00000000000E+00  0.22784088027E+04  0.22784088027E+04  0.25500000920E-02 0.  1.
       -2   -1    0    0    0  501  0.00000000000E+00  0.00000000000E+00 -0.15770041209E+04  0.15770041209E+04  0.25500000920E-02 0. -1.
    10030    2    1    2    0    0  0.00000000000E+00  0.00000000000E+00  0.70140468179E+03  0.38554129235E+04  0.37910737639E+04 0.  0.
        5    1    3    3  502    0 -0.11154070324E+04  0.34711881583E+03 -0.11674192964E+04  0.16515187628E+04  0.46999998093E+01 0. -1.
       -5    1    3    3    0  502  0.11154070324E+04 -0.34711881583E+03  0.18688239782E+04  0.22038941607E+04  0.46999998093E+01 0.  1.
</event>
<event>
 5   0  0.2529875E-07  0.3183438E+04  0.7818609E-02  0.8193205E-01
        1   -1    0    0  501    0  0.00000000000E+00  0.00000000000E+00  0.15030676626E+04  0.15030676626E+04  0.50400001928E-02 0.  1.
       -1   -1    0    0    0  501  0.00000000000E+00  0.00000000000E+00 -0.16855993141E+04  0.16855993141E+04  0.50400001928E-02 0. -1.
    10030    2    1    2    0    0  0.00000000000E+00  0.00000000000E+00 -0.18253165147E+03  0.31886669768E+04  0.31834382804E+04 0.  0.
        5    1    3    3  502    0  0.37802517977E+03 -0.15207785616E+04 -0.37078915783E+03  0.16103344869E+04  0.46999998093E+01 0. -1.
       -5    1    3    3    0  502 -0.37802517977E+03  0.15207785616E+04  0.18825750636E+03  0.15783324899E+04  0.46999998093E+01 0.  1.
</event>
<event>
 5   0  0.8421677E-07  0.3788109E+04  0.7818609E-02  0.8048711E-01
       -2   -1    0    0    0  501  0.00000000000E+00  0.00000000000E+00  0.18244156837E+04  0.18244156837E+04  0.25500000920E-02 0.  1.
        2   -1    0    0  501    0  0.00000000000E+00  0.00000000000E+00 -0.19663517155E+04  0.19663517155E+04  0.25500000920E-02 0. -1.
    10030    2    1    2    0    0  0.00000000000E+00  0.00000000000E+00 -0.14193603172E+03  0.37907673992E+04  0.37881092431E+04 0.  0.
        3    1    3    3  502    0 -0.17892114224E+04  0.15005494265E+03 -0.67442425375E+03  0.19179786453E+04  0.10100000352E+00 0. -1.
       -3    1    3    3    0  502  0.17892114224E+04 -0.15005494265E+03  0.53248822203E+03  0.18727887538E+04  0.10100000352E+00 0.  1.
</event>
<event>
 5   0  0.2529875E-07  0.3088737E+04  0.7818609E-02  0.8218836E-01
       -1   -1    0    0    0  501  0.00000000000E+00  0.00000000000E+00  0.16957305410E+04  0.16957305410E+04  0.50400001928E-02 0.  1.
        1   -1    0    0  501    0  0.00000000000E+00  0.00000000000E+00 -0.14065171208E+04  0.14065171208E+04  0.50400001928E-02 0. -1.
    10030    2    1    2    0    0  0.00000000000E+00  0.00000000000E+00  0.28921342016E+03  0.31022476618E+04  0.30887369834E+04 0.  0.
        1    1    3    3  502    0  0.93864551539E+03  0.17609508871E+03  0.13635914269E+04  0.16647661888E+04  0.50400001928E-02 0.  1.
       -1    1    3    3    0  502 -0.93864551539E+03 -0.17609508871E+03 -0.10743780067E+04  0.14374814730E+04  0.50400001928E-02 0. -1.
</event>
<event>
 5   0  0.2529875E-07  0.3299675E+04  0.7818609E-02  0.8162978E-01
        1   -1    0    0  501    0  0.00000000000E+00  0.00000000000E+00  0.19591781812E+04  0.19591781812E+04  0.50400001928E-02 0. -1.
       -1   -1    0    0    0  501  0.00000000000E+00  0.00000000000E+00 -0.13893399447E+04  0.13893399448E+04  0.50400001928E-02 0.  1.
    10030    2    1    2    0    0  0.00000000000E+00  0.00000000000E+00  0.56983823641E+03  0.33485181259E+04  0.32996754422E+04 0.  0.
        5    1    3    3  502    0  0.10275971068E+04  0.17504199503E+03 -0.10128169520E+04  0.14534152133E+04  0.46999998093E+01 0. -1.
       -5    1    3    3    0  502 -0.10275971068E+04 -0.17504199503E+03  0.15826551884E+04  0.18951029126E+04  0.46999998093E+01 0.  1.
</event>
<event>
 5   0  0.8421677E-07  0.3854536E+04  0.7818609E-02  0.8034552E-01
        2   -1    0    0  501    0  0.00000000000E+00  0.00000000000E+00  0.16396335805E+04  0.16396335805E+04  0.25500000920E-02 0. -1.
       -2   -1    0    0    0  501  0.00000000000E+00  0.00000000000E+00 -0.22653611151E+04  0.22653611151E+04  0.25500000920E-02 0.  1.
    10030    2    1    2    0    0  0.00000000000E+00  0.00000000000E+00 -0.62572753454E+03  0.39049946956E+04  0.38545361103E+04 0.  0.
        3    1    3    3  502    0  0.12028681999E+03  0.11015923113E+04  0.12846063611E+04  0.16965223407E+04  0.10100000352E+00 0. -1.
       -3    1    3    3    0  502 -0.12028681999E+03 -0.11015923113E+04 -0.19103338956E+04  0.22084723549E+04  0.10100000352E+00 0.  1.
</event>
<event>
 5   0  0.7638805E-07  0.3217352E+04  0.7818609E-02  0.8184249E-01
        2   -1    0    0  501    0  0.00000000000E+00  0.00000000000E+00  0.24085911374E+04  0.24085911374E+04  0.25500000920E-02 0. -1.
       -2   -1    0    0    0  501  0.00000000000E+00  0.00000000000E+00 -0.10744203261E+04  0.10744203261E+04  0.25500000920E-02 0.  1.
    10030    2    1    2    0    0  0.00000000000E+00  0.00000000000E+00  0.13341708114E+04  0.34830114635E+04  0.32173524987E+04 0.  0.
        5    1    3    3  502    0 -0.88888829760E+03 -0.21631565128E+03  0.20995609530E+04  0.22902168351E+04  0.46999998093E+01 0. -1.
       -5    1    3    3    0  502  0.88888829760E+03  0.21631565128E+03 -0.76539014162E+03  0.11927946284E+04  0.46999998093E+01 0.  1.
</event>
<event>
 5   0  0.7638805E-07  0.3627909E+04  0.7818609E-02  0.8084129E-01
       -2   -1    0    0    0  501  0.00000000000E+00  0.00000000000E+00  0.18548339674E+04  0.18548339674E+04  0.25500000920E-02 0.  1.
        2   -1    0    0  501    0  0.00000000000E+00  0.00000000000E+00 -0.17739758129E+04  0.17739758129E+04  0.25500000920E-02 0. -1.
    10030    2    1    2    0    0  0.00000000000E+00  0.00000000000E+00  0.80858154482E+02  0.36288097803E+04  0.36279088165E+04 0.  0.
        5    1    3    3  502    0 -0.21362699337E+03  0.15700632476E+04 -0.84278137989E+03  0.17947249477E+04  0.46999998093E+01 0.  1.
       -5    1    3    3    0  502  0.21362699337E+03 -0.15700632476E+04  0.92363953437E+03  0.18340848326E+04  0.46999998093E+01 0. -1.
</event>
<event>
 5   0  0.2529875E-07  0.3806076E+04  0.7818609E-02  0.8044852E-01
        1   -1    0    0  501    0  0.00000000000E+00  0.00000000000E+00  0.17987795251E+04  0.17987795251E+04  0.50400001928E-02 0.  1.
       -1   -1    0    0    0  501  0.00000000000E+00  0.00000000000E+00 -0.20133398813E+04  0.20133398813E+04  0.50400001928E-02 0. -1.
    10030    2    1    2    0    0  0.00000000000E+00  0.00000000000E+00 -0.21456035620E+03  0.38121194064E+04  0.38060764866E+04 0.  0.
        4    1    3    3  502    0  0.17928279945E+04 -0.54537197131E+03 -0.43930331073E+03  0.19247472085E+04  0.12699999809E+01 0. -1.
       -4    1    3    3    0  502 -0.17928279945E+04  0.54537197131E+03  0.22474295453E+03  0.18873721979E+04  0.12699999809E+01 0.  1.
</event>
<event>
 5   0  0.2529875E-07  0.3815487E+04  0.7818609E-02  0.8042840E-01
        3   -1    0    0  501    0  0.00000000000E+00  0.00000000000E+00  0.18321426679E+04  0.18321426707E+04  0.10100000352E+00 0. -1.
       -3   -1    0    0    0  501  0.00000000000E+00  0.00000000000E+00 -0.19864634172E+04  0.19864634197E+04  0.10100000352E+00 0.  1.
    10030    2    1    2    0    0  0.00000000000E+00  0.00000000000E+00 -0.15432074925E+03  0.38186060904E+04  0.38154865457E+04 0.  0.
        1    1    3    3  502    0 -0.52758543377E+03  0.18207907741E+04  0.13716176897E+03  0.19006416769E+04  0.50400001928E-02 0.  1.
       -1    1    3    3    0  502  0.52758543377E+03 -0.18207907741E+04 -0.29148251823E+03  0.19179644135E+04  0.50400001928E-02 0. -1.
</event>
<event>
 5   0  0.2529875E-07  0.3246479E+04  0.7818609E-02  0.8176649E-01
        1   -1    0    0  501    0  0.00000000000E+00  0.00000000000E+00  0.23333840773E+04  0.23333840773E+04  0.50400001928E-02 0.  1.
       -1   -1    0    0    0  501  0.00000000000E+00  0.00000000000E+00 -0.11292207302E+04  0.11292207302E+04  0.50400001928E-02 0. -1.
    10030    2    1    2    0    0  0.00000000000E+00  0.00000000000E+00  0.12041633471E+04  0.34626048075E+04  0.32464785055E+04 0.  0.
        4    1    3    3  502    0 -0.12620039532E+04  0.66923205675E+03 -0.22020254346E+03  0.14453429686E+04  0.12699999809E+01 0. -1.
       -4    1    3    3    0  502  0.12620039532E+04 -0.66923205675E+03  0.14243658905E+04  0.20172618389E+04  0.12699999809E+01 0.  1.
</event>
<event>
 5   0  0.2529875E-07  0.3866491E+04  0.7818609E-02  0.8032035E-01
        1   -1    0    0  501    0  0.00000000000E+00  0.00000000000E+00  0.33324468039E+04  0.33324468039E+04  0.50400001928E-02 0. -1.
       -1   -1    0    0    0  501  0.00000000000E+00  0.00000000000E+00 -0.11215296327E+04  0.11215296327E+04  0.50400001928E-02 0.  1.
    10030    2    1    2    0    0  0.00000000000E+00  0.00000000000E+00  0.22109171712E+04  0.44539764366E+04  0.38664908328E+04 0.  0.
        3    1    3    3  502    0  0.70647493439E+02 -0.86688367259E+03  0.30943403469E+04  0.32142527223E+04  0.10100000352E+00 0. -1.
       -3    1    3    3    0  502 -0.70647493439E+02  0.86688367259E+03 -0.88342317575E+03  0.12397237143E+04  0.10100000352E+00 0.  1.
</event>
<event>
 5   0  0.2529875E-07  0.3809717E+04  0.7818609E-02  0.8044073E-01
        1   -1    0    0  501    0  0.00000000000E+00  0.00000000000E+00  0.11495622713E+04  0.11495622713E+04  0.50400001928E-02 0. -1.
       -1   -1    0    0    0  501  0.00000000000E+00  0.00000000000E+00 -0.31564064784E+04  0.31564064784E+04  0.50400001928E-02 0.  1.
    10030    2    1    2    0    0  0.00000000000E+00  0.00000000000E+00 -0.20068442071E+04  0.43059687497E+04  0.38097169451E+04 0.  0.
        1    1    3    3  502    0 -0.84046560003E+03  0.17041616874E+04 -0.11547938497E+04  0.22235328459E+04  0.50400001928E-02 0.  1.
       -1    1    3    3    0  502  0.84046560003E+03 -0.17041616874E+04 -0.85205035740E+03  0.20824359038E+04  0.50400001928E-02 0. -1.
</event>
<event>
 5   0  0.8421677E-07  0.3843781E+04  0.7818609E-02  0.8036824E-01
        2   -1    0    0  501    0  0.00000000000E+00  0.00000000000E+00  0.26588507391E+04  0.26588507391E+04  0.25500000920E-02 0.  1.
       -2   -1    0    0    0  501  0.00000000000E+00  0.00000000000E+00 -0.13891956854E+04  0.13891956854E+04  0.25500000920E-02 0. -1.
    10030    2    1    2    0    0  0.00000000000E+00  0.00000000000E+00  0.12696550537E+04  0.40480464244E+04  0.38437814583E+04 0.  0.
        3    1    3    3  502    0  0.12825646873E+04  0.63287430457E+03 -0.71720373182E+03  0.15999635201E+04  0.10100000352E+00 0. -1.
       -3    1    3    3    0  502 -0.12825646873E+04 -0.63287430457E+03  0.19868587855E+04  0.24480829043E+04  0.10100000352E+00 0.  1.
</event>
<event>
 5   0  0.7638805E-07  0.3798731E+04  0.7818609E-02  0.8046427E-01
       -2   -1    0    0    0  501  0.00000000000E+00  0.00000000000E+00  0.18627252028E+04  0.18627252028E+04  0.25500000920E-02 0.  1.
        2   -1    0    0  501    0  0.00000000000E+00  0.00000000000E+00 -0.19367264330E+04  0.19367264330E+04  0.25500000920E-02 0. -1.
    10030    2    1    2    0    0  0.00000000000E+00  0.00000000000E+00 -0.74001230145E+02  0.37994516358E+04  0.37987309132E+04 0.  0.
        5    1    3    3  502    0 -0.96230928031E+03  0.15712653936E+04 -0.49823120740E+03  0.19087091225E+04  0.46999998093E+01 0. -1.
       -5    1    3    3    0  502  0.96230928031E+03 -0.15712653936E+04  0.42422997726E+03  0.18907425133E+04  0.46999998093E+01 0.  1.
</event>
<event>
 5   0  0.7638805E-07  0.3793419E+04  0.7818609E-02  0.8047569E-01
       -2   -1    0    0    0  501  0.00000000000E+00  0.00000000000E+00  0.19690316917E+04  0.19690316917E+04  0.25500000920E-02 0. -1.
        2   -1    0    0  501    0  0.00000000000E+00  0.00000000000E+00 -0.18270437526E+04  0.18270437526E+04  0.25500000920E-02 0.  1.
    10030    2    1    2    0    0  0.00000000000E+00  0.00000000000E+00  0.14198793909E+03  0.37960754443E+04  0.37934190651E+04 0.  0.
        5    1    3    3  502    0  0.16143176168E+04 -0.77700596837E+03  0.69410593800E+03  0.19213445256E+04  0.46999998093E+01 0. -1.
       -5    1    3    3    0  502 -0.16143176168E+04  0.77700596837E+03 -0.55211799891E+03  0.18747309187E+04  0.46999998093E+01 0.  1.
</event>
<event>
 5   0  0.2529875E-07  0.3521351E+04  0.7818609E-02  0.8108749E-01
        1   -1    0    0  501    0  0.00000000000E+00  0.00000000000E+00  0.19492288871E+04  0.19492288871E+04  0.50400001928E-02 0.  1.
       -1   -1    0    0    0  501  0.00000000000E+00  0.00000000000E+00 -0.15903612454E+04  0.15903612454E+04  0.50400001928E-02 0. -1.
    10030    2    1    2    0    0  0.00000000000E+00  0.00000000000E+00  0.35886764169E+03  0.35395901325E+04  0.35213509228E+04 0.  0.
        1    1    3    3  502    0  0.14411538888E+04 -0.90933985472E+03  0.62462125007E+03  0.18149311856E+04  0.50400001928E-02 0. -1.
       -1    1    3    3    0  502 -0.14411538888E+04  0.90933985472E+03 -0.26575360838E+03  0.17246589468E+04  0.50400001928E-02 0.  1.
</event>
<event>
 5   0  0.7551495E-07  0.2377140E+04  0.7818609E-02  0.8448112E-01
       -2   -1    0    0    0  501  0.00000000000E+00  0.00000000000E+00  0.10746817722E+04  0.10746817722E+04  0.25500000920E-02 0. -1.
        2   -1    0    0  501    0  0.00000000000E+00  0.00000000000E+00 -0.13145275562E+04  0.13145275562E+04  0.25500000920E-02 0.  1.
    10030    2    1    2    0    0  0.00000000000E+00  0.00000000000E+00 -0.23984578405E+03  0.23892093284E+04  0.23771401336E+04 0.  0.
        1    1    3    3  502    0 -0.10881382162E+04  0.39706182364E+03 -0.38772633562E+03  0.12214886740E+04  0.50400001928E-02 0.  1.
       -1    1    3    3    0  502  0.10881382162E+04 -0.39706182364E+03  0.14788055157E+03  0.11677206544E+04  0.50400001928E-02 0. -1.
</event>
<event>
 5   0  0.7551495E-07  0.3815304E+04  0.7818609E-02  0.8042879E-01
       -2   -1    0    0    0  501  0.00000000000E+00  0.00000000000E+00  0.17258002121E+04  0.17258002121E+04  0.25500000920E-02 0.  1.
        2   -1    0    0  501    0  0.00000000000E+00  0.00000000000E+00 -0.21086664096E+04  0.21086664096E+04  0.25500000920E-02 0. -1.
    10030    2    1    2    0    0  0.00000000000E+00  0.00000000000E+00 -0.38286619745E+03  0.38344666217E+04  0.38153044109E+04 0.  0.
        1    1    3    3  502    0  0.26676730242E+03  0.59738164974E+03  0.16095232082E+04  0.17374103104E+04  0.50400001928E-02 0.  1.
       -1    1    3    3    0  502 -0.26676730242E+03 -0.59738164974E+03 -0.19923894056E+04  0.20970563113E+04  0.50400001928E-02 0. -1.
</event>
<event>
 5   0  0.2529875E-07  0.3853765E+04  0.7818609E-02  0.8034715E-01
        1   -1    0    0  501    0  0.00000000000E+00  0.00000000000E+00  0.20469889846E+04  0.20469889846E+04  0.50400001928E-02 0.  1.
       -1   -1    0    0    0  501  0.00000000000E+00  0.00000000000E+00 -0.18138227929E+04  0.18138227929E+04  0.50400001928E-02 0. -1.
    10030    2    1    2    0    0  0.00000000000E+00  0.00000000000E+00  0.23316619167E+03  0.38608117775E+04  0.38537645372E+04 0.  0.
        3    1    3    3  502    0  0.13261496756E+04  0.13321328360E+04 -0.30801313371E+03  0.19047632282E+04  0.10100000352E+00 0. -1.
       -3    1    3    3    0  502 -0.13261496756E+04 -0.13321328360E+04  0.54117932538E+03  0.19560485493E+04  0.10100000352E+00 0.  1.
</event>
<event>
 5   0  0.7649458E-07  0.3691543E+04  0.7818609E-02  0.8069839E-01
        2   -1    0    0  501    0  0.00000000000E+00  0.00000000000E+00  0.16063854181E+04  0.16063854181E+04  0.25500000920E-02 0. -1.
       -2   -1    0    0    0  501  0.00000000000E+00  0.00000000000E+00 -0.21208313229E+04  0.21208313229E+04  0.25500000920E-02 0.  1.
    10030    2    1    2    0    0  0.00000000000E+00  0.00000000000E+00 -0.51444590481E+03  0.37272167411E+04  0.36915430440E+04 0.  0.
        4    1    3    3  502    0  0.16527286610E+04  0.70524370435E+03 -0.68318876407E+03  0.19224019376E+04  0.12699999809E+01 0.  1.
       -4    1    3    3    0  502 -0.16527286610E+04 -0.70524370435E+03  0.16874285927E+03  0.18048148035E+04  0.12699999809E+01 0. -1.
</event>
<event>
 5   0  0.2907071E-07  0.3872654E+04  0.7818609E-02  0.8030741E-01
       -1   -1    0    0    0  501  0.00000000000E+00  0.00000000000E+00  0.19369529666E+04  0.19369529666E+04  0.50400001928E-02 0. -1.
        1   -1    0    0  501    0  0.00000000000E+00  0.00000000000E+00 -0.19357009214E+04  0.19357009214E+04  0.50400001928E-02 0.  1.
    10030    2    1    2    0    0  0.00000000000E+00  0.00000000000E+00  0.12520452702E+01  0.38726538880E+04  0.38726536856E+04 0.  0.
        2    1    3    3  502    0  0.18813328647E+04  0.45654376543E+03  0.39562957266E+02  0.19363395325E+04  0.25500000920E-02 0. -1.
       -2    1    3    3    0  502 -0.18813328647E+04 -0.45654376543E+03 -0.38310911996E+02  0.19363143555E+04  0.25500000920E-02 0.  1.
</event>
<event>
 5   0  0.8038352E-07  0.3561080E+04  0.7818609E-02  0.8099465E-01
        2   -1    0    0  501    0  0.00000000000E+00  0.00000000000E+00  0.22495009129E+04  0.22495009129E+04  0.25500000920E-02 0.  1.
       -2   -1    0    0    0  501  0.00000000000E+00  0.00000000000E+00 -0.14093450235E+04  0.14093450235E+04  0.25500000920E-02 0. -1.
    10030    2    1    2    0    0  0.00000000000E+00  0.00000000000E+00  0.84015588936E+03  0.36588459365E+04  0.35610801266E+04 0.  0.
        2    1    3    3  502    0 -0.26391559454E+03  0.81108984411E+03 -0.11857786308E+04  0.14606810527E+04  0.25500000920E-02 0. -1.
       -2    1    3    3    0  502  0.26391559454E+03 -0.81108984411E+03  0.20259345202E+04  0.21981648838E+04  0.25500000920E-02 0.  1.
</event>
<event>
 5   0  0.2529875E-07  0.2997123E+04  0.7818609E-02  0.8244553E-01
        1   -1    0    0  501    0  0.00000000000E+00  0.00000000000E+00  0.23668297865E+04  0.23668297865E+04  0.50400001928E-02 0.  1.
       -1   -1    0    0    0  501  0.00000000000E+00  0.00000000000E+00 -0.94881621788E+03  0.94881621789E+03  0.50400001928E-02 0. -1.
    10030    2    1    2    0    0  0.00000000000E+00  0.00000000000E+00  0.14180135686E+04  0.33156460044E+04  0.29971229447E+04 0.  0.
        1    1    3    3  502    0 -0.72425173193E+03 -0.13118489389E+04  0.72458434325E+03  0.16644851096E+04  0.50400001928E-02 0. -1.
       -1    1    3    3    0  502  0.72425173193E+03  0.13118489389E+04  0.69342922535E+03  0.16511608947E+04  0.50400001928E-02 0.  1.
</event>
<event>
 5   0  0.8038352E-07  0.3608137E+04  0.7818609E-02  0.8088630E-01
        2   -1    0    0  501    0  0.00000000000E+00  0.00000000000E+00  0.20382372673E+04  0.20382372673E+04  0.25500000920E-02 0.  1.
       -2   -1    0    0    0  501  0.00000000000E+00  0.00000000000E+00 -0.15968028687E+04  0.15968028687E+04  0.25500000920E-02 0. -1.
    10030    2    1    2    0    0  0.00000000000E+00  0.00000000000E+00  0.44143439864E+03  0.36350401360E+04  0.36081369794E+04 0.  0.
        2    1    3    3  502    0 -0.74127023960E+02  0.14024243724E+04  0.13615804113E+04  0.19560649663E+04  0.25500000920E-02 0.  1.
       -2    1    3    3    0  502  0.74127023960E+02 -0.14024243724E+04 -0.92014601267E+03  0.16789751697E+04  0.25500000920E-02 0. -1.
</event>
<event>
 5   0  0.7638805E-07  0.3807857E+04  0.7818609E-02  0.8044471E-01
        2   -1    0    0  501    0  0.00000000000E+00  0.00000000000E+00  0.17318081371E+04  0.17318081371E+04  0.25500000920E-02 0. -1.
       -2   -1    0    0    0  501  0.00000000000E+00  0.00000000000E+00 -0.20931551485E+04  0.20931551485E+04  0.25500000920E-02 0.  1.
    10030    2    1    2    0    0  0.00000000000E+00  0.00000000000E+00 -0.36134701141E+03  0.38249632855E+04  0.38078566771E+04 0.  0.
        5    1    3    3  502    0 -0.63286961689E+03 -0.90015523697E+03  0.13800497102E+04  0.17650390067E+04  0.46999998093E+01 0. -1.
       -5    1    3    3    0  502  0.63286961689E+03  0.90015523697E+03 -0.17413967216E+04  0.20599242788E+04  0.46999998093E+01 0.  1.
</event>
<event>
 5   0  0.7638805E-07  0.3647988E+04  0.7818609E-02  0.8079587E-01
        2   -1    0    0  501    0  0.00000000000E+00  0.00000000000E+00  0.24489557148E+04  0.24489557148E+04  0.25500000920E-02 0.  1.
       -2   -1    0    0    0  501  0.00000000000E+00  0.00000000000E+00 -0.13585198342E+04  0.13585198342E+04  0.25500000920E-02 0. -1.
    10030    2    1    2    0    0  0.00000000000E+00  0.00000000000E+00  0.10904358806E+04  0.38074755490E+04  0.36479884384E+04 0.  0.
        5    1    3    3  502    0  0.11810394945E+04 -0.24351691848E+03  0.19735422388E+04  0.23128004314E+04  0.46999998093E+01 0.  1.
       -5    1    3    3    0  502 -0.11810394945E+04  0.24351691848E+03 -0.88310635819E+03  0.14946751176E+04  0.46999998093E+01 0. -1.
</event>
<event>
 5   0  0.7638805E-07  0.3809728E+04  0.7818609E-02  0.8044070E-01
       -2   -1    0    0    0  501  0.00000000000E+00  0.00000000000E+00  0.17537805304E+04  0.17537805304E+04  0.25500000920E-02 0.  1.
        2   -1    0    0  501    0  0.00000000000E+00  0.00000000000E+00 -0.20689629863E+04  0.20689629864E+04  0.25500000920E-02 0. -1.
    10030    2    1    2    0    0  0.00000000000E+00  0.00000000000E+00 -0.31518245595E+03  0.38227435168E+04  0.38097280762E+04 0.  0.
        5    1    3    3  502    0 -0.25238014743E+02 -0.16304118380E+04  0.83045814922E+03  0.18299077972E+04  0.46999998093E+01 0. -1.
       -5    1    3    3    0  502  0.25238014743E+02  0.16304118380E+04 -0.11456406052E+04  0.19928357195E+04  0.46999998093E+01 0.  1.
</event>
<event>
 5   0  0.2529875E-07  0.3833350E+04  0.7818609E-02  0.8039036E-01
        1   -1    0    0  501    0  0.00000000000E+00  0.00000000000E+00  0.23222443837E+04  0.23222443837E+04  0.50400001928E-02 0. -1.
       -1   -1    0    0    0  501  0.00000000000E+00  0.00000000000E+00 -0.15819367968E+04  0.15819367968E+04  0.50400001928E-02 0.  1.
    10030    2    1    2    0    0  0.00000000000E+00  0.00000000000E+00  0.74030758696E+03  0.39041811805E+04  0.38333504101E+04 0.  0.
        3    1    3    3  502    0  0.28818499843E+03 -0.17358499345E+04 -0.40376731808E+03  0.18053403130E+04  0.10100000352E+00 0.  1.
       -3    1    3    3    0  502 -0.28818499843E+03  0.17358499345E+04  0.11440749050E+04  0.20988408675E+04  0.10100000352E+00 0. -1.
</event>
<event>
 5   0  0.2529875E-07  0.3923478E+04  0.7818609E-02  0.8020164E-01
        1   -1    0    0  501    0  0.00000000000E+00  0.00000000000E+00  0.13811524417E+04  0.13811524417E+04  0.50400001928E-02 0. -1.
       -1   -1    0    0    0  501  0.00000000000E+00  0.00000000000E+00 -0.27863833953E+04  0.27863833953E+04  0.50400001928E-02 0.  1.
    10030    2    1    2    0    0  0.00000000000E+00  0.00000000000E+00 -0.14052309536E+04  0.41675358370E+04  0.39234781661E+04 0.  0.
        3    1    3    3  502    0 -0.77762770405E+02  0.41315306731E+03 -0.27379714670E+04  0.27700596148E+04  0.10100000352E+00 0.  1.
       -3    1    3    3    0  502  0.77762770405E+02 -0.41315306731E+03  0.13327405134E+04  0.13974762222E+04  0.10100000352E+00 0. -1.
</event>
<event>
 5   0  0.2529875E-07  0.3802661E+04  0.7818609E-02  0.8045584E-01
       -1   -1    0    0    0  501  0.00000000000E+00  0.00000000000E+00  0.14352684291E+04  0.14352684291E+04  0.50400001928E-02 0.  1.
        1   -1    0    0  501    0  0.00000000000E+00  0.00000000000E+00 -0.25187324493E+04  0.25187324493E+04  0.50400001928E-02 0. -1.
    10030    2    1    2    0    0  0.00000000000E+00  0.00000000000E+00 -0.10834640202E+04  0.39540008783E+04  0.38026607346E+04 0.  0.
        5    1    3    3  502    0 -0.29736007654E+03 -0.18648472344E+04 -0.77179985642E+03  0.20400429729E+04  0.46999998093E+01 0.  1.
       -5    1    3    3    0  502  0.29736007654E+03  0.18648472344E+04 -0.31166416379E+03  0.19139579054E+04  0.46999998093E+01 0. -1.
</event>
<event>
 5   0  0.7551495E-07  0.2687099E+04  0.7818609E-02  0.8339203E-01
        2   -1    0    0  501    0  0.00000000000E+00  0.00000000000E+00  0.11903876897E+04  0.11903876897E+04  0.25500000920E-02 0.  1.
       -2   -1    0    0    0  501  0.00000000000E+00  0.00000000000E+00 -0.15164180097E+04  0.15164180097E+04  0.25500000920E-02 0. -1.
    10030    2    1    2    0    0  0.00000000000E+00  0.00000000000E+00 -0.32603032003E+03  0.27068056994E+04  0.26870990538E+04 0.  0.
        1    1    3    3  502    0  0.94282057835E+03  0.95559575695E+03 -0.21866009620E+03  0.13601051913E+04  0.50400001928E-02 0.  1.
       -1    1    3    3    0  502 -0.94282057835E+03 -0.95559575695E+03 -0.10737022383E+03  0.13467005081E+04  0.50400001928E-02 0. -1.
</event>
<event>
 5   0  0.2529875E-07  0.2867738E+04  0.7818609E-02  0.8282541E-01
       -1   -1    0    0    0  501  0.00000000000E+00  0.00000000000E+00  0.25479908354E+04  0.25479908354E+04  0.50400001928E-02 0.  1.
        1   -1    0    0  501    0  0.00000000000E+00  0.00000000000E+00 -0.80690281830E+03  0.80690281831E+03  0.50400001928E-02 0. -1.
    10030    2    1    2    0    0  0.00000000000E+00  0.00000000000E+00  0.17410880171E+04  0.33548936537E+04  0.28677384721E+04 0.  0.
        5    1    3    3  502    0  0.40760648863E+02 -0.25944352299E+03  0.25196048395E+04  0.25332593648E+04  0.46999998093E+01 0.  1.
       -5    1    3    3    0  502 -0.40760648863E+02  0.25944352299E+03 -0.77851682235E+03  0.82163428896E+03  0.46999998093E+01 0. -1.
</event>
<event>
 5   0  0.7551495E-07  0.3820446E+04  0.7818609E-02  0.8041781E-01
       -2   -1    0    0    0  501  0.00000000000E+00  0.00000000000E+00  0.16545591074E+04  0.16545591074E+04  0.25500000920E-02 0. -1.
        2   -1    0    0  501    0  0.00000000000E+00  0.00000000000E+00 -0.22053920896E+04  0.22053920897E+04  0.25500000920E-02 0.  1.
    10030    2    1    2    0    0  0.00000000000E+00  0.00000000000E+00 -0.55083298221E+03  0.38599511971E+04  0.38204458208E+04 0.  0.
        1    1    3    3  502    0 -0.15157800177E+04  0.10934347302E+04 -0.67416577362E+03  0.19868789751E+04  0.50400001928E-02 0.  1.
       -1    1    3    3    0  502  0.15157800177E+04 -0.10934347302E+04  0.12333279141E+03  0.18730722220E+04  0.50400001928E-02 0. -1.
</event>
<event>
 5   0  0.8421677E-07  0.3789108E+04  0.7818609E-02  0.8048496E-01
       -2   -1    0    0    0  501  0.00000000000E+00  0.00000000000E+00  0.17833255182E+04  0.17833255182E+04  0.25500000920E-02 0.  1.
        2   -1    0    0  501    0  0.00000000000E+00  0.00000000000E+00 -0.20127201712E+04  0.20127201712E+04  0.25500000920E-02 0. -1.
    10030    2    1    2    0    0  0.00000000000E+00  0.00000000000E+00 -0.22939465304E+03  0.37960456894E+04  0.37891082023E+04 0.  0.
        3    1    3    3  502    0  0.34662784294E+03  0.17682987587E+04 -0.70083593471E+03  0.19334431409E+04  0.10100000352E+00 0. -1.
       -3    1    3    3    0  502 -0.34662784294E+03 -0.17682987587E+04  0.47144128167E+03  0.18626025485E+04  0.10100000352E+00 0.  1.
</event>
<event>
 5   0  0.8038352E-07  0.3585662E+04  0.7818609E-02  0.8093784E-01
        2   -1    0    0  501    0  0.00000000000E+00  0.00000000000E+00  0.13924844605E+04  0.13924844605E+04  0.25500000920E-02 0.  1.
       -2   -1    0    0    0  501  0.00000000000E+00  0.00000000000E+00 -0.23082795295E+04  0.23082795295E+04  0.25500000920E-02 0. -1.
    10030    2    1    2    0    0  0.00000000000E+00  0.00000000000E+00 -0.91579506901E+03  0.37007639900E+04  0.35856622124E+04 0.  0.
        2    1    3    3  502    0  0.12700936401E+04  0.16949529978E+03 -0.17520943823E+04  0.21706453500E+04  0.25500000920E-02 0. -1.
       -2    1    3    3    0  502 -0.12700936401E+04 -0.16949529978E+03  0.83629931326E+03  0.15301186400E+04  0.25500000920E-02 0.  1.
</event>
<event>
 5   0  0.2907071E-07  0.3848922E+04  0.7818609E-02  0.8035737E-01
        1   -1    0    0  501    0  0.00000000000E+00  0.00000000000E+00  0.25504464856E+04  0.25504464856E+04  0.50400001928E-02 0. -1.
       -1   -1    0    0    0  501  0.00000000000E+00  0.00000000000E+00 -0.14521181820E+04  0.14521181820E+04  0.50400001928E-02 0.  1.
    10030    2    1    2    0    0  0.00000000000E+00  0.00000000000E+00  0.10983283036E+04  0.40025646677E+04  0.38489217784E+04 0.  0.
        2    1    3    3  502    0  0.77532065322E+02 -0.32842599135E+03 -0.14211107681E+04  0.14606268066E+04  0.25500000920E-02 0.  1.
       -2    1    3    3    0  502 -0.77532065322E+02  0.32842599135E+03  0.25194390718E+04  0.25419378610E+04  0.25500000920E-02 0. -1.
</event>
<event>
 5   0  0.7638805E-07  0.3820417E+04  0.7818609E-02  0.8041788E-01
       -2   -1    0    0    0  501  0.00000000000E+00  0.00000000000E+00  0.24371127768E+04  0.24371127768E+04  0.25500000920E-02 0.  1.
        2   -1    0    0  501    0  0.00000000000E+00  0.00000000000E+00 -0.14972207971E+04  0.14972207971E+04  0.25500000920E-02 0. -1.
    10030    2    1    2    0    0  0.00000000000E+00  0.00000000000E+00  0.93989197968E+03  0.39343335739E+04  0.38204166968E+04 0.  0.
        5    1    3    3  502    0 -0.30744372533E+03 -0.39758760183E+03 -0.14279043052E+04  0.15137801492E+04  0.46999998093E+01 0. -1.
       -5    1    3    3    0  502  0.30744372533E+03  0.39758760183E+03  0.23677962848E+04  0.24205534247E+04  0.46999998093E+01 0.  1.
</event>
<event>
 5   0  0.7638805E-07  0.3708598E+04  0.7818609E-02  0.8066059E-01
       -2   -1    0    0    0  501  0.00000000000E+00  0.00000000000E+00  0.19282455613E+04  0.19282455613E+04  0.25500000920E-02 0. -1.
        2   -1    0    0  501    0  0.00000000000E+00  0.00000000000E+00 -0.17831883362E+04  0.17831883362E+04  0.25500000920E-02 0.  1.
    10030    2    1    2    0    0  0.00000000000E+00  0.00000000000E+00  0.14505722511E+03  0.37114338974E+04  0.37085981147E+04 0.  0.
        5    1    3    3  502    0 -0.81489675934E+03 -0.85588374291E+03 -0.13574829016E+04  0.17998265549E+04  0.46999998093E+01 0.  1.
       -5    1    3    3    0  502  0.81489675934E+03  0.85588374291E+03  0.15025401267E+04  0.19116073425E+04  0.46999998093E+01 0. -1.
</event>
<event>
 5   0  0.7551495E-07  0.3740455E+04  0.7818609E-02  0.8059055E-01
       -2   -1    0    0    0  501  0.00000000000E+00  0.00000000000E+00  0.15756213590E+04  0.15756213590E+04  0.25500000920E-02 0.  1.
        2   -1    0    0  501    0  0.00000000000E+00  0.00000000000E+00 -0.22199187516E+04  0.22199187516E+04  0.25500000920E-02 0. -1.
    10030    2    1    2    0    0  0.00000000000E+00  0.00000000000E+00 -0.64429739258E+03  0.37955401107E+04  0.37404552666E+04 0.  0.
        1    1    3    3  502    0  0.12472076559E+04  0.13558563266E+04 -0.64919638757E+03  0.19532867851E+04  0.50400001928E-02 0. -1.
       -1    1    3    3    0  502 -0.12472076559E+04 -0.13558563266E+04  0.48989949942E+01  0.18422533255E+04  0.50400001928E-02 0.  1.
</event>
<event>
 5   0  0.7649458E-07  0.2895726E+04  0.7818609E-02  0.8274150E-01
        2   -1    0    0  501    0  0.00000000000E+00  0.00000000000E+00  0.18387398912E+04  0.18387398912E+04  0.25500000920E-02 0.  1.
       -2   -1    0    0    0  501  0.00000000000E+00  0.00000000000E+00 -0.11400785683E+04  0.11400785683E+04  0.25500000920E-02 0. -1.
    10030    2    1    2    0    0  0.00000000000E+00  0.00000000000E+00  0.69866132290E+03  0.29788184594E+04  0.28957264667E+04 0.  0.
        4    1    3    3  502    0  0.12119240348E+04 -0.20372323240E+03 -0.43817077841E+03  0.13047061989E+04  0.12699999809E+01 0. -1.
       -4    1    3    3    0  502 -0.12119240348E+04  0.20372323240E+03  0.11368321013E+04  0.16741122605E+04  0.12699999809E+01 0.  1.
</event>
<event>
 5   0  0.2907071E-07  0.3833508E+04  0.7818609E-02  0.8039002E-01
        1   -1    0    0  501    0  0.00000000000E+00  0.00000000000E+00  0.15576757649E+04  0.15576757649E+04  0.50400001928E-02 0. -1.
       -1   -1    0    0    0  501  0.00000000000E+00  0.00000000000E+00 -0.23586070695E+04  0.23586070695E+04  0.50400001928E-02 0.  1.
    10030    2    1    2    0    0  0.00000000000E+00  0.00000000000E+00 -0.80093130458E+03  0.39162828344E+04  0.38335075694E+04 0.  0.
        2    1    3    3  502    0  0.14117795132E+04  0.83242063233E+03 -0.14158585508E+04  0.21658026085E+04  0.25500000920E-02 0.  1.
       -2    1    3    3    0  502 -0.14117795132E+04 -0.83242063233E+03  0.61492724623E+03  0.17504802259E+04  0.25500000920E-02 0. -1.
</event>
<event>
 5   0  0.2907071E-07  0.3526328E+04  0.7818609E-02  0.8107579E-01
       -1   -1    0    0    0  501  0.00000000000E+00  0.00000000000E+00  0.18679220930E+04  0.18679220930E+04  0.50400001928E-02 0.  1.
        1   -1    0    0  501    0  0.00000000000E+00  0.00000000000E+00 -0.16642809178E+04  0.16642809178E+04  0.50400001928E-02 0. -1.
    10030    2    1    2    0    0  0.00000000000E+00  0.00000000000E+00  0.20364117525E+03  0.35322030108E+04  0.35263278891E+04 0.  0.
        2    1    3    3  502    0  0.79726593846E+03  0.88687012765E+03  0.14026665027E+04  0.18410988343E+04  0.25500000920E-02 0.  1.
       -2    1    3    3    0  502 -0.79726593846E+03 -0.88687012765E+03 -0.11990253274E+04  0.16911041765E+04  0.25500000920E-02 0. -1.
</event>
<event>
 5   0  0.7638805E-07  0.3733708E+04  0.7818609E-02  0.8060532E-01
       -2   -1    0    0    0  501  0.00000000000E+00  0.00000000000E+00  0.21475312419E+04  0.21475312419E+04  0.25500000920E-02 0. -1.
        2   -1    0    0  501    0  0.00000000000E+00  0.00000000000E+00 -0.16228609157E+04  0.16228609157E+04  0.25500000920E-02 0.  1.
    10030    2    1    2    0    0  0.00000000000E+00  0.00000000000E+00  0.52467032620E+03  0.37703921576E+04  0.37337083538E+04 0.  0.
        5    1    3    3  502    0 -0.67548925005E+03 -0.21488987945E+03 -0.14816706858E+04  0.16425082948E+04  0.46999998093E+01 0.  1.
       -5    1    3    3    0  502  0.67548925005E+03  0.21488987945E+03  0.20063410120E+04  0.21278838628E+04  0.46999998093E+01 0. -1.
</event>
<event>
 5   0  0.8421677E-07  0.3748349E+04  0.7818609E-02  0.8057331E-01
        2   -1    0    0  501    0  0.00000000000E+00  0.00000000000E+00  0.28961877934E+04  0.28961877934E+04  0.25500000920E-02 0.  1.
       -2   -1    0    0    0  501  0.00000000000E+00  0.00000000000E+00 -0.12128118643E+04  0.12128118643E+04  0.25500000920E-02 0. -1.
    10030    2    1    2    0    0  0.00000000000E+00  0.00000000000E+00  0.16833759290E+04  0.41089996577E+04  0.37483494593E+04 0.  0.
        3    1    3    3  502    0 -0.45618745411E+03  0.76639531512E+03  0.26486366385E+04  0.27947709791E+04  0.10100000352E+00 0.  1.
       -3    1    3    3    0  502  0.45618745411E+03 -0.76639531512E+03 -0.96526070949E+03  0.13142286787E+04  0.10100000352E+00 0. -1.
</event>
<event>
 5   0  0.2907071E-07  0.3719967E+04  0.7818609E-02  0.8063551E-01
       -1   -1    0    0    0  501  0.00000000000E+00  0.00000000000E+00  0.27510680345E+04  0.27510680345E+04  0.50400001928E-02 0. -1.
        1   -1    0    0  501    0  0.00000000000E+00  0.00000000000E+00 -0.12575256254E+04  0.12575256255E+04  0.50400001928E-02 0.  1.
    10030    2    1    2    0    0  0.00000000000E+00  0.00000000000E+00  0.14935424090E+04  0.40085936599E+04  0.37199669626E+04 0.  0.
        2    1    3    3  502    0  0.16784672447E+04 -0.30530224021E+03  0.15452612381E+04  0.23018023468E+04  0.25500000920E-02 0. -1.
       -2    1    3    3    0  502 -0.16784672447E+04  0.30530224021E+03 -0.51718829110E+02  0.17067913132E+04  0.25500000920E-02 0.  1.
</event>
<event>
 5   0  0.7649458E-07  0.2565447E+04  0.7818609E-02  0.8380034E-01
        2   -1    0    0  501    0  0.00000000000E+00  0.00000000000E+00  0.13247240802E+04  0.13247240802E+04  0.25500000920E-02 0. -1.
       -2   -1    0    0    0  501  0.00000000000E+00  0.00000000000E+00 -0.12420548045E+04  0.12420548045E+04  0.25500000920E-02 0.  1.
    10030    2    1    2    0    0  0.00000000000E+00  0.00000000000E+00  0.82669275764E+02  0.25667788847E+04  0.25654472581E+04 0.  0.
        4    1    3    3  502    0 -0.95025841186E+03 -0.85912156707E+03 -0.24253788301E+02  0.12812770097E+04  0.12699999809E+01 0. -1.
       -4    1    3    3    0  502  0.95025841186E+03  0.85912156707E+03  0.10692306406E+03  0.12855018751E+04  0.12699999809E+01 0.  1.
</event>
<event>
 5   0  0.2529875E-07  0.3750796E+04  0.7818609E-02  0.8056797E-01
        1   -1    0    0  501    0  0.00000000000E+00  0.00000000000E+00  0.12865214390E+04  0.12865214390E+04  0.50400001928E-02 0.  1.
       -1   -1    0    0    0  501  0.00000000000E+00  0.00000000000E+00 -0.27338193014E+04  0.27338193014E+04  0.50400001928E-02 0. -1.
    10030    2    1    2    0    0  0.00000000000E+00  0.00000000000E+00 -0.14472978624E+04  0.40203407404E+04  0.37507957245E+04 0.  0.
        4    1    3    3  502    0 -0.13261027059E+04  0.57597199971E+03 -0.20039867144E+04  0.24710840729E+04  0.12699999809E+01 0. -1.
       -4    1    3    3    0  502  0.13261027059E+04 -0.57597199971E+03  0.55668885208E+03  0.15492566675E+04  0.12699999809E+01 0.  1.
</event>
<event>
 5   0  0.2529875E-07  0.3674931E+04  0.7818609E-02  0.8073540E-01
       -1   -1    0    0    0  501  0.00000000000E+00  0.00000000000E+00  0.16280043149E+04  0.16280043150E+04  0.50400001928E-02 0.  1.
        1   -1    0    0  501    0  0.00000000000E+00  0.00000000000E+00 -0.20738764014E+04  0.20738764014E+04  0.50400001928E-02 0. -1.
    10030    2    1    2    0    0  0.00000000000E+00  0.00000000000E+00 -0.44587208644E+03  0.37018807164E+04  0.36749311450E+04 0.  0.
        3    1    3    3  502    0 -0.50041607482E+03  0.16145997371E+04  0.50271544346E+03  0.17635394484E+04  0.10100000352E+00 0.  1.
       -3    1    3    3    0  502  0.50041607482E+03 -0.16145997371E+04 -0.94858752990E+03  0.19383412679E+04  0.10100000352E+00 0. -1.
</event>
<event>
 5   0  0.7551495E-07  0.3651952E+04  0.7818609E-02  0.8078694E-01
       -2   -1    0    0    0  501  0.00000000000E+00  0.00000000000E+00  0.22908541693E+04  0.22908541693E+04  0.25500000920E-02 0.  1.
        2   -1    0    0  501    0  0.00000000000E+00  0.00000000000E+00 -0.14554346812E+04  0.14554346812E+04  0.25500000920E-02 0. -1.
    10030    2    1    2    0    0  0.00000000000E+00  0.00000000000E+00  0.83541948804E+03  0.37462888505E+04  0.36519521397E+04 0.  0.
        1    1    3    3  502    0 -0.75886488053E+03  0.32217015825E+03  0.20890662988E+04  0.22458556317E+04  0.50400001928E-02 0.  1.
       -1    1    3    3    0  502  0.75886488053E+03 -0.32217015825E+03 -0.12536468108E+04  0.15004332188E+04  0.50400001928E-02 0. -1.
</event>
<event>
 5   0  0.2907071E-07  0.3842705E+04  0.7818609E-02  0.8037052E-01
        1   -1    0    0  501    0  0.00000000000E+00  0.00000000000E+00  0.23459202532E+04  0.23459202532E+04  0.50400001928E-02 0.  1.
       -1   -1    0    0    0  501  0.00000000000E+00  0.00000000000E+00 -0.15736236895E+04  0.15736236895E+04  0.50400001928E-02 0. -1.
    10030    2    1    2    0    0  0.00000000000E+00  0.00000000000E+00  0.77229656371E+03  0.39195439427E+04  0.38427051327E+04 0.  0.
        2    1    3    3  502    0 -0.10625161036E+04  0.12297856076E+04  0.14314738113E+04  0.21657401468E+04  0.25500000920E-02 0.  1.
       -2    1    3    3    0  502  0.10625161036E+04 -0.12297856076E+04 -0.65917724755E+03  0.17538037960E+04  0.25500000920E-02 0. -1.
</event>
<event>
 5   0  0.7551495E-07  0.3774253E+04  0.7818609E-02  0.8051703E-01
       -2   -1    0    0    0  501  0.00000000000E+00  0.00000000000E+00  0.16259555031E+04  0.16259555031E+04  0.25500000920E-02 0. -1.
        2   -1    0    0  501    0  0.00000000000E+00  0.00000000000E+00 -0.21902487736E+04  0.21902487736E+04  0.25500000920E-02 0.  1.
    10030    2    1    2    0    0  0.00000000000E+00  0.00000000000E+00 -0.56429327048E+03  0.38162042767E+04  0.37742533283E+04 0.  0.
        1    1    3    3  502    0 -0.13706289710E+03 -0.45329141572E+03  0.15649000397E+04  0.16349836328E+04  0.50400001928E-02 0. -1.
       -1    1    3    3    0  502  0.13706289710E+03  0.45329141572E+03 -0.21291933101E+04  0.21812206439E+04  0.50400001928E-02 0.  1.
</event>
<event>
 5   0  0.8421677E-07  0.3837284E+04  0.7818609E-02  0.8038201E-01
        2   -1    0    0  501    0  0.00000000000E+00  0.00000000000E+00  0.17902686721E+04  0.17902686721E+04  0.25500000920E-02 0. -1.
       -2   -1    0    0    0  501  0.00000000000E+00  0.00000000000E+00 -0.20562203500E+04  0.20562203500E+04  0.25500000920E-02 0.  1.
    10030    2    1    2    0    0  0.00000000000E+00  0.00000000000E+00 -0.26595167797E+03  0.38464890221E+04  0.38372838704E+04 0.  0.
        3    1    3    3  502    0 -0.10436436437E+04  0.11645458612E+04 -0.12473205090E+04  0.20002918738E+04  0.10100000352E+00 0.  1.
       -3    1    3    3    0  502  0.10436436437E+04 -0.11645458612E+04  0.98136883099E+03  0.18461971484E+04  0.10100000352E+00 0. -1.
</event>
<event>
 5   0  0.2529875E-07  0.3744122E+04  0.7818609E-02  0.8058254E-01
        1   -1    0    0  501    0  0.00000000000E+00  0.00000000000E+00  0.23471893650E+04  0.23471893650E+04  0.50400001928E-02 0. -1.
       -1   -1    0    0    0  501  0.00000000000E+00  0.00000000000E+00 -0.14931102688E+04  0.14931102688E+04  0.50400001928E-02 0.  1.
    10030    2    1    2    0    0  0.00000000000E+00  0.00000000000E+00  0.85407909625E+03  0.38402996338E+04  0.37441220833E+04 0.  0.
        1    1    3    3  502    0  0.17908586944E+04  0.47697457220E+02 -0.13020496058E+03  0.17962191522E+04  0.50400001928E-02 0.  1.
       -1    1    3    3    0  502 -0.17908586944E+04 -0.47697457220E+02  0.98428405682E+03  0.20440804816E+04  0.50400001928E-02 0. -1.
</event>
<event>
 5   0  0.2529875E-07  0.3312210E+04  0.7818609E-02  0.8159795E-01
       -1   -1    0    0    0  501  0.00000000000E+00  0.00000000000E+00  0.17624443357E+04  0.17624443357E+04  0.50400001928E-02 0. -1.
        1   -1    0    0  501    0  0.00000000000E+00  0.00000000000E+00 -0.15561817505E+04  0.15561817505E+04  0.50400001928E-02 0.  1.
    10030    2    1    2    0    0  0.00000000000E+00  0.00000000000E+00  0.20626258526E+03  0.33186260862E+04  0.33122099641E+04 0.  0.
        1    1    3    3  502    0 -0.13487436720E+04 -0.59444164214E+03 -0.65345619540E+03  0.16122888568E+04  0.50400001928E-02 0.  1.
       -1    1    3    3    0  502  0.13487436720E+04  0.59444164214E+03  0.85971878066E+03  0.17063372294E+04  0.50400001928E-02 0. -1.
</event>
<event>
 5   0  0.7551495E-07  0.3563645E+04  0.7818609E-02  0.8098870E-01
       -2   -1    0    0    0  501  0.00000000000E+00  0.00000000000E+00  0.10254314286E+04  0.10254314286E+04  0.25500000920E-02 0.  1.
        2   -1    0    0  501    0  0.00000000000E+00  0.00000000000E+00 -0.30961513007E+04  0.30961513007E+04  0.25500000920E-02 0. -1.
    10030    2    1    2    0    0  0.00000000000E+00  0.00000000000E+00 -0.20707198722E+04  0.41215827293E+04  0.35636446801E+04 0.  0.
        1    1    3    3  502    0 -0.79775234513E+03 -0.96774714304E+03  0.42848059435E+03  0.13253448445E+04  0.50400001928E-02 0.  1.
       -1    1    3    3    0  502  0.79775234513E+03  0.96774714304E+03 -0.24992004665E+04  0.27962378849E+04  0.50400001928E-02 0. -1.
</event>
<event>
 5   0  0.2907071E-07  0.3772643E+04  0.7818609E-02  0.8052051E-01
        1   -1    0    0  501    0  0.00000000000E+00  0.00000000000E+00  0.19135706357E+04  0.19135706357E+04  0.50400001928E-02 0.  1.
       -1   -1    0    0    0  501  0.00000000000E+00  0.00000000000E+00 -0.18594604483E+04  0.18594604484E+04  0.50400001928E-02 0. -1.
    10030    2    1    2    0    0  0.00000000000E+00  0.00000000000E+00  0.54110187353E+02  0.37730310841E+04  0.37726430588E+04 0.  0.
        2    1    3    3  502    0 -0.46616520773E+03 -0.30434073724E+03  0.18295377835E+04  0.19123654950E+04  0.25500000920E-02 0.  1.
       -2    1    3    3    0  502  0.46616520773E+03  0.30434073724E+03 -0.17754275961E+04  0.18606655891E+04  0.25500000920E-02 0. -1.
</event>
<event>
 5   0  0.2529875E-07  0.3964785E+04  0.7818609E-02  0.8011689E-01
        1   -1    0    0  501    0  0.00000000000E+00  0.00000000000E+00  0.24504973680E+04  0.24504973680E+04  0.50400001928E-02 0.  1.
       -1   -1    0    0    0  501  0.00000000000E+00  0.00000000000E+00 -0.16037067208E+04  0.16037067208E+04  0.50400001928E-02 0. -1.
    10030    2    1    2    0    0  0.00000000000E+00  0.00000000000E+00  0.84679064728E+03  0.40542040888E+04  0.39647845330E+04 0.  0.
        1    1    3    3  502    0  0.10417501317E+04 -0.61981167610E+03 -0.11805700463E+04  0.16920861340E+04  0.50400001928E-02 0.  1.
       -1    1    3    3    0  502 -0.10417501317E+04  0.61981167610E+03  0.20273606936E+04  0.23621179548E+04  0.50400001928E-02 0. -1.
</event>
<event>
 5   0  0.8421677E-07  0.3826479E+04  0.7818609E-02  0.8040496E-01
        2   -1    0    0  501    0  0.00000000000E+00  0.00000000000E+00  0.22405388016E+04  0.22405388016E+04  0.25500000920E-02 0.  1.
       -2   -1    0    0    0  501  0.00000000000E+00  0.00000000000E+00 -0.16337518800E+04  0.16337518800E+04  0.25500000920E-02 0. -1.
    10030    2    1    2    0    0  0.00000000000E+00  0.00000000000E+00  0.60678692158E+03  0.38742906816E+04  0.38264785270E+04 0.  0.
        3    1    3    3  502    0 -0.56372953189E+03  0.20348856895E+03 -0.15362535074E+04  0.16490219623E+04  0.10100000352E+00 0. -1.
       -3    1    3    3    0  502  0.56372953189E+03 -0.20348856895E+03  0.21430404290E+04  0.22252687194E+04  0.10100000352E+00 0.  1.
</event>
<event>
 5   0  0.2529875E-07  0.4005173E+04  0.7818609E-02  0.8003504E-01
       -1   -1    0    0    0  501  0.00000000000E+00  0.00000000000E+00  0.20961299413E+04  0.20961299413E+04  0.50400001928E-02 0. -1.
        1   -1    0    0  501    0  0.00000000000E+00  0.00000000000E+00 -0.19132179861E+04  0.19132179861E+04  0.50400001928E-02 0.  1.
    10030    2    1    2    0    0  0.00000000000E+00  0.00000000000E+00  0.18291195525E+03  0.40093479274E+04  0.40051734069E+04 0.  0.
        4    1    3    3  502    0  0.10095915685E+04 -0.10759154425E+04  0.14469288551E+04  0.20665124967E+04  0.12699999809E+01 0. -1.
       -4    1    3    3    0  502 -0.10095915685E+04  0.10759154425E+04 -0.12640168999E+04  0.19428354306E+04  0.12699999809E+01 0.  1.
</event>
<event>
 5   0  0.2529875E-07  0.3098863E+04  0.7818609E-02  0.8216050E-01
        1   -1    0    0  501    0  0.00000000000E+00  0.00000000000E+00  0.12611312311E+04  0.12611312311E+04  0.50400001928E-02 0.  1.
       -1   -1    0    0    0  501  0.00000000000E+00  0.00000000000E+00 -0.19036385048E+04  0.19036385048E+04  0.50400001928E-02 0. -1.
    10030    2    1    2    0    0  0.00000000000E+00  0.00000000000E+00 -0.64250727371E+03  0.31647697358E+04  0.30988629986E+04 0.  0.
        1    1    3    3  502    0  0.46639531999E+03 -0.40139177026E+03 -0.17735018231E+04  0.18772183316E+04  0.50400001928E-02 0. -1.
       -1    1    3    3    0  502 -0.46639531999E+03  0.40139177026E+03  0.11309945494E+04  0.12875514042E+04  0.50400001928E-02 0.  1.
</event>
<event>
 5   0  0.2529875E-07  0.3849452E+04  0.7818609E-02  0.8035625E-01
       -1   -1    0    0    0  501  0.00000000000E+00  0.00000000000E+00  0.18612429306E+04  0.18612429307E+04  0.50400001928E-02 0. -1.
        1   -1    0    0  501    0  0.00000000000E+00  0.00000000000E+00 -0.19903746026E+04  0.19903746026E+04  0.50400001928E-02 0.  1.
    10030    2    1    2    0    0  0.00000000000E+00  0.00000000000E+00 -0.12913167196E+03  0.38516175333E+04  0.38494522511E+04 0.  0.
        1    1    3    3  502    0 -0.18699094427E+03  0.13199081932E+04 -0.14536721530E+04  0.19723807899E+04  0.50400001928E-02 0.  1.
       -1    1    3    3    0  502  0.18699094427E+03 -0.13199081932E+04  0.13245404810E+04  0.18792367434E+04  0.50400001928E-02 0. -1.
</event>
<event>
 5   0  0.8038352E-07  0.2505105E+04  0.7818609E-02  0.8401169E-01
        2   -1    0    0  501    0  0.00000000000E+00  0.00000000000E+00  0.24427244923E+04  0.24427244923E+04  0.25500000920E-02 0.  1.
       -2   -1    0    0    0  501  0.00000000000E+00  0.00000000000E+00 -0.64226965680E+03  0.64226965681E+03  0.25500000920E-02 0. -1.
    10030    2    1    2    0    0  0.00000000000E+00  0.00000000000E+00  0.18004548355E+04  0.30849941491E+04  0.25051050448E+04 0.  0.
        2    1    3    3  502    0  0.11446585426E+04 -0.50120545975E+03  0.10064333036E+04  0.16044806283E+04  0.25500000920E-02 0. -1.
       -2    1    3    3    0  502 -0.11446585426E+04  0.50120545975E+03  0.79402153190E+03  0.14805135208E+04  0.25500000920E-02 0.  1.
</event>
<event>
 5   0  0.7649458E-07  0.2473372E+04  0.7818609E-02  0.8412534E-01
       -2   -1    0    0    0  501  0.00000000000E+00  0.00000000000E+00  0.97775498845E+03  0.97775498846E+03  0.25500000920E-02 0.  1.
        2   -1    0    0  501    0  0.00000000000E+00  0.00000000000E+00 -0.15641878080E+04  0.15641878080E+04  0.25500000920E-02 0. -1.
    10030    2    1    2    0    0  0.00000000000E+00  0.00000000000E+00 -0.58643281954E+03  0.25419427964E+04  0.24733721371E+04 0.  0.
        4    1    3    3  502    0 -0.55024043393E+03 -0.10062744693E+03 -0.14267448920E+04  0.15324793695E+04  0.12699999809E+01 0. -1.
       -4    1    3    3    0  502  0.55024043393E+03  0.10062744693E+03  0.84031207249E+03  0.10094634269E+04  0.12699999809E+01 0.  1.
</event>
<event>
 5   0  0.8421677E-07  0.3667038E+04  0.7818609E-02  0.8075306E-01
       -2   -1    0    0    0  501  0.00000000000E+00  0.00000000000E+00  0.33783214574E+04  0.33783214574E+04  0.25500000920E-02 0.  1.
        2   -1    0    0  501    0  0.00000000000E+00  0.00000000000E+00 -0.99510726029E+03  0.99510726029E+03  0.25500000920E-02 0. -1.
    10030    2    1    2    0    0  0.00000000000E+00  0.00000000000E+00  0.23832141972E+04  0.43734287177E+04  0.36670381563E+04 0.  0.
        3    1    3    3  502    0 -0.12996380733E+04 -0.11964870842E+04  0.17772755355E+04  0.25058628860E+04  0.10100000352E+00 0.  1.
       -3    1    3    3    0  502  0.12996380733E+04  0.11964870842E+04  0.60593866169E+03  0.18675658318E+04  0.10100000352E+00 0. -1.
</event>
<event>
 5   0  0.2529875E-07  0.3725804E+04  0.7818609E-02  0.8062267E-01
       -1   -1    0    0    0  501  0.00000000000E+00  0.00000000000E+00  0.23104270544E+04  0.23104270544E+04  0.50400001928E-02 0.  1.
        1   -1    0    0  501    0  0.00000000000E+00  0.00000000000E+00 -0.15020619389E+04  0.15020619389E+04  0.50400001928E-02 0. -1.
    10030    2    1    2    0    0  0.00000000000E+00  0.00000000000E+00  0.80836511551E+03  0.38124889933E+04  0.37258043647E+04 0.  0.
        3    1    3    3  502    0  0.30761828534E+03 -0.18238898687E+04  0.17720825009E+03  0.18581189512E+04  0.10100000352E+00 0.  1.
       -3    1    3    3    0  502 -0.30761828534E+03  0.18238898687E+04  0.63115686542E+03  0.19543700421E+04  0.10100000352E+00 0. -1.
</event>
<event>
 5   0  0.8421677E-07  0.3087848E+04  0.7818609E-02  0.8219081E-01
       -2   -1    0    0    0  501  0.00000000000E+00  0.00000000000E+00  0.23964763873E+04  0.23964763873E+04  0.25500000920E-02 0. -1.
        2   -1    0    0  501    0  0.00000000000E+00  0.00000000000E+00 -0.99466944513E+03  0.99466944513E+03  0.25500000920E-02 0.  1.
    10030    2    1    2    0    0  0.00000000000E+00  0.00000000000E+00  0.14018069421E+04  0.33911458324E+04  0.30878483372E+04 0.  0.
        3    1    3    3  502    0 -0.46617927864E+03 -0.11525535409E+03 -0.91056603763E+03  0.10294354936E+04  0.10100000352E+00 0.  1.
       -3    1    3    3    0  502  0.46617927864E+03  0.11525535409E+03  0.23123729798E+04  0.23617103388E+04  0.10100000352E+00 0. -1.
</event>
<event>
 5   0  0.8038352E-07  0.3687572E+04  0.7818609E-02  0.8070722E-01
        2   -1    0    0  501    0  0.00000000000E+00  0.00000000000E+00  0.19365962577E+04  0.19365962577E+04  0.25500000920E-02 0. -1.
       -2   -1    0    0    0  501  0.00000000000E+00  0.00000000000E+00 -0.17554235270E+04  0.17554235270E+04  0.25500000920E-02 0.  1.
    10030    2    1    2    0    0  0.00000000000E+00  0.00000000000E+00  0.18117273071E+03  0.36920197847E+04  0.36875719020E+04 0.  0.
        2    1    3    3  502    0 -0.58309745941E+02 -0.19128636048E+03 -0.17445336565E+04  0.17559579086E+04  0.25500000920E-02 0.  1.
       -2    1    3    3    0  502  0.58309745941E+02  0.19128636048E+03  0.19257063872E+04  0.19360618761E+04  0.25500000920E-02 0. -1.
</event>
<event>
 5   0  0.2529875E-07  0.3841929E+04  0.7818609E-02  0.8037216E-01
       -1   -1    0    0    0  501  0.00000000000E+00  0.00000000000E+00  0.14139327940E+04  0.14139327940E+04  0.50400001928E-02 0.  1.
        1   -1    0    0  501    0  0.00000000000E+00  0.00000000000E+00 -0.26098160053E+04  0.26098160053E+04  0.50400001928E-02 0. -1.
    10030    2    1    2    0    0  0.00000000000E+00  0.00000000000E+00 -0.11958832113E+04  0.40237487992E+04  0.38419289093E+04 0.  0.
        3    1    3    3  502    0 -0.15693088212E+04 -0.93843087068E+03 -0.12146389509E+04  0.21951606927E+04  0.10100000352E+00 0. -1.
       -3    1    3    3    0  502  0.15693088212E+04  0.93843087068E+03  0.18755739615E+02  0.18285881066E+04  0.10100000352E+00 0.  1.
</event>
<event>
 5   0  0.7638805E-07  0.3828062E+04  0.7818609E-02  0.8040160E-01
        2   -1    0    0  501    0  0.00000000000E+00  0.00000000000E+00  0.28312292745E+04  0.28312292745E+04  0.25500000920E-02 0. -1.
       -2   -1    0    0    0  501  0.00000000000E+00  0.00000000000E+00 -0.12939660850E+04  0.12939660850E+04  0.25500000920E-02 0.  1.
    10030    2    1    2    0    0  0.00000000000E+00  0.00000000000E+00  0.15372631896E+04  0.41251953595E+04  0.38280619953E+04 0.  0.
        5    1    3    3  502    0  0.13126002246E+04 -0.22792993913E+03  0.22495733695E+04  0.26144739129E+04  0.46999998093E+01 0. -1.
       -5    1    3    3    0  502 -0.13126002246E+04  0.22792993913E+03 -0.71231017991E+03  0.15107214466E+04  0.46999998093E+01 0.  1.
</event>
<event>
 5   0  0.2529875E-07  0.3450410E+04  0.7818609E-02  0.8125644E-01
        3   -1    0    0  501    0  0.00000000000E+00  0.00000000000E+00  0.21590272298E+04  0.21590272322E+04  0.10100000352E+00 0.  1.
       -3   -1    0    0    0  501  0.00000000000E+00  0.00000000000E+00 -0.13785524665E+04  0.13785524702E+04  0.10100000352E+00 0. -1.
    10030    2    1    2    0    0  0.00000000000E+00  0.00000000000E+00  0.78047476333E+03  0.35375797024E+04  0.34504100183E+04 0.  0.
        3    1    3    3  502    0  0.37327054508E+03  0.80914635824E+03  0.19048135543E+04  0.21029416101E+04  0.10100000352E+00 0.  1.
       -3    1    3    3    0  502 -0.37327054508E+03 -0.80914635824E+03 -0.11243387909E+04  0.14346380923E+04  0.10100000352E+00 0. -1.
</event>
<event>
 5   0  0.7638805E-07  0.3784748E+04  0.7818609E-02  0.8049436E-01
        2   -1    0    0  501    0  0.00000000000E+00  0.00000000000E+00  0.14739722554E+04  0.14739722554E+04  0.25500000920E-02 0.  1.
       -2   -1    0    0    0  501  0.00000000000E+00  0.00000000000E+00 -0.24295433625E+04  0.24295433625E+04  0.25500000920E-02 0. -1.
    10030    2    1    2    0    0  0.00000000000E+00  0.00000000000E+00 -0.95557110708E+03  0.39035156179E+04  0.37847480813E+04 0.  0.
        5    1    3    3  502    0  0.46968154481E+03 -0.17166196190E+04  0.18557237676E+03  0.17893694048E+04  0.46999998093E+01 0. -1.
       -5    1    3    3    0  502 -0.46968154481E+03  0.17166196190E+04 -0.11411434838E+04  0.21141462131E+04  0.46999998093E+01 0.  1.
</event>
<event>
 5   0  0.7551495E-07  0.3734698E+04  0.7818609E-02  0.8060316E-01
       -2   -1    0    0    0  501  0.00000000000E+00  0.00000000000E+00  0.15396331935E+04  0.15396331935E+04  0.25500000920E-02 0. -1.
        2   -1    0    0  501    0  0.00000000000E+00  0.00000000000E+00 -0.22648199082E+04  0.22648199082E+04  0.25500000920E-02 0.  1.
    10030    2    1    2    0    0  0.00000000000E+00  0.00000000000E+00 -0.72518671473E+03  0.38044531017E+04  0.37346977966E+04 0.  0.
        1    1    3    3  502    0  0.10512512347E+04  0.13297114163E+04  0.43544828086E+03  0.17501076580E+04  0.50400001928E-02 0.  1.
       -1    1    3    3    0  502 -0.10512512347E+04 -0.13297114163E+04 -0.11606349956E+04  0.20543454437E+04  0.50400001928E-02 0. -1.
</event>
<event>
 5   0  0.7649458E-07  0.3846965E+04  0.7818609E-02  0.8036151E-01
        2   -1    0    0  501    0  0.00000000000E+00  0.00000000000E+00  0.22025180905E+04  0.22025180905E+04  0.25500000920E-02 0.  1.
       -2   -1    0    0    0  501  0.00000000000E+00  0.00000000000E+00 -0.16797976395E+04  0.16797976395E+04  0.25500000920E-02 0. -1.
    10030    2    1    2    0    0  0.00000000000E+00  0.00000000000E+00  0.52272045099E+03  0.38823157300E+04  0.38469648760E+04 0.  0.
        4    1    3    3  502    0  0.81452883584E+03  0.70981485131E+03 -0.13446429182E+04  0.17249233426E+04  0.12699999809E+01 0. -1.
       -4    1    3    3    0  502 -0.81452883584E+03 -0.70981485131E+03  0.18673633692E+04  0.21573923874E+04  0.12699999809E+01 0.  1.
</event>
<event>
 5   0  0.2529875E-07  0.3246452E+04  0.7818609E-02  0.8176656E-01
        1   -1    0    0  501    0  0.00000000000E+00  0.00000000000E+00  0.10227263442E+04  0.10227263442E+04  0.50400001928E-02 0. -1.
       -1   -1    0    0    0  501  0.00000000000E+00  0.00000000000E+00 -0.25763119138E+04  0.25763119138E+04  0.50400001928E-02 0.  1.
    10030    2    1    2    0    0  0.00000000000E+00  0.00000000000E+00 -0.15535855697E+04  0.35990382580E+04  0.32464516415E+04 0.  0.
        3    1    3    3  502    0  0.56254969554E+03 -0.10683210269E+04 -0.19795621964E+04  0.23187148328E+04  0.10100000352E+00 0.  1.
       -3    1    3    3    0  502 -0.56254969554E+03  0.10683210269E+04  0.42597662671E+03  0.12803234252E+04  0.10100000352E+00 0. -1.
</event>
<event>
 5   0  0.2529875E-07  0.3782943E+04  0.7818609E-02  0.8049825E-01
       -1   -1    0    0    0  501  0.00000000000E+00  0.00000000000E+00  0.21929638447E+04  0.21929638447E+04  0.50400001928E-02 0.  1.
        1   -1    0    0  501    0  0.00000000000E+00  0.00000000000E+00 -0.16314286289E+04  0.16314286289E+04  0.50400001928E-02 0. -1.
    10030    2    1    2    0    0  0.00000000000E+00  0.00000000000E+00  0.56153521587E+03  0.38243924736E+04  0.37829427690E+04 0.  0.
        4    1    3    3  502    0  0.15261947036E+04 -0.22663364611E+03  0.13868438773E+04  0.20746013197E+04  0.12699999809E+01 0.  1.
       -4    1    3    3    0  502 -0.15261947036E+04  0.22663364611E+03 -0.82530866142E+03  0.17497911539E+04  0.12699999809E+01 0. -1.
</event>
<event>
 5   0  0.7551495E-07  0.3777475E+04  0.7818609E-02  0.8051006E-01
        2   -1    0    0  501    0  0.00000000000E+00  0.00000000000E+00  0.14669395231E+04  0.14669395232E+04  0.25500000920E-02 0.  1.
       -2   -1    0    0    0  501  0.00000000000E+00  0.00000000000E+00 -0.24318178662E+04  0.24318178662E+04  0.25500000920E-02 0. -1.
    10030    2    1    2    0    0  0.00000000000E+00  0.00000000000E+00 -0.96487834305E+03  0.38987573894E+04  0.37774752103E+04 0.  0.
        1    1    3    3  502    0  0.16806401444E+04 -0.57963499944E+03  0.17584888347E+03  0.17864632259E+04  0.50400001928E-02 0. -1.
       -1    1    3    3    0  502 -0.16806401444E+04  0.57963499944E+03 -0.11407272265E+04  0.21122941635E+04  0.50400001928E-02 0.  1.
</event>
<event>
 5   0  0.2529875E-07  0.3783758E+04  0.7818609E-02  0.8049649E-01
        1   -1    0    0  501    0  0.00000000000E+00  0.00000000000E+00  0.23346989867E+04  0.23346989867E+04  0.50400001928E-02 0. -1.
       -1   -1    0    0    0  501  0.00000000000E+00  0.00000000000E+00 -0.15330484919E+04  0.15330484919E+04  0.50400001928E-02 0.  1.
    10030    2    1    2    0    0  0.00000000000E+00  0.00000000000E+00  0.80165049479E+03  0.38677474786E+04  0.37837583224E+04 0.  0.
        1    1    3    3  502    0  0.16174869037E+04  0.92906567448E+03  0.77934095403E+02  0.18669495533E+04  0.50400001928E-02 0.  1.
       -1    1    3    3    0  502 -0.16174869037E+04 -0.92906567448E+03  0.72371639939E+03  0.20007979253E+04  0.50400001928E-02 0. -1.
</event>
<event>
 5   0  0.7649458E-07  0.3816982E+04  0.7818609E-02  0.8042520E-01
       -2   -1    0    0    0  501  0.00000000000E+00  0.00000000000E+00  0.23682178044E+04  0.23682178044E+04  0.25500000920E-02 0.  1.
        2   -1    0    0  501    0  0.00000000000E+00  0.00000000000E+00 -0.15380077231E+04  0.15380077231E+04  0.25500000920E-02 0. -1.
    10030    2    1    2    0    0  0.00000000000E+00  0.00000000000E+00  0.83021008137E+03  0.39062255275E+04  0.38169816731E+04 0.  0.
        4    1    3    3  502    0 -0.17542174633E+04 -0.30629820011E+03  0.11176230578E+04  0.21024225094E+04  0.12699999809E+01 0.  1.
       -4    1    3    3    0  502  0.17542174633E+04  0.30629820011E+03 -0.28741297639E+03  0.18038030181E+04  0.12699999809E+01 0. -1.
</event>
<event>
 5   0  0.7638805E-07  0.3563753E+04  0.7818609E-02  0.8098845E-01
       -2   -1    0    0    0  501  0.00000000000E+00  0.00000000000E+00  0.20629275208E+04  0.20629275208E+04  0.25500000920E-02 0. -1.
        2   -1    0    0  501    0  0.00000000000E+00  0.00000000000E+00 -0.15391152515E+04  0.15391152515E+04  0.25500000920E-02 0.  1.
    10030    2    1    2    0    0  0.00000000000E+00  0.00000000000E+00  0.52381226932E+03  0.36020427723E+04  0.35637526345E+04 0.  0.
        5    1    3    3  502    0 -0.17817270900E+04  0.16615297418E+02  0.27735527877E+03  0.18032680144E+04  0.46999998093E+01 0.  1.
       -5    1    3    3    0  502  0.17817270900E+04 -0.16615297418E+02  0.24645699054E+03  0.17987747578E+04  0.46999998093E+01 0. -1.
</event>
<event>
 5   0  0.7638805E-07  0.3485853E+04  0.7818609E-02  0.8117151E-01
       -2   -1    0    0    0  501  0.00000000000E+00  0.00000000000E+00  0.18064151475E+04  0.18064151475E+04  0.25500000920E-02 0. -1.
        2   -1    0    0  501    0  0.00000000000E+00  0.00000000000E+00 -0.16816689843E+04  0.16816689843E+04  0.25500000920E-02 0.  1.
    10030    2    1    2    0    0  0.00000000000E+00  0.00000000000E+00  0.12474616322E+03  0.34880841318E+04  0.34858527371E+04 0.  0.
        5    1    3    3  502    0  0.21742579101E+03 -0.26772768328E+03 -0.16471754507E+04  0.16829025944E+04  0.46999998093E+01 0.  1.
       -5    1    3    3    0  502 -0.21742579101E+03  0.26772768328E+03  0.17719216139E+04  0.18051815373E+04  0.46999998093E+01 0. -1.
</event>
<event>
 5   0  0.2529875E-07  0.2640934E+04  0.7818609E-02  0.8354428E-01
        1   -1    0    0  501    0  0.00000000000E+00  0.00000000000E+00  0.18976914122E+04  0.18976914122E+04  0.50400001928E-02 0.  1.
       -1   -1    0    0    0  501  0.00000000000E+00  0.00000000000E+00 -0.91881778454E+03  0.91881778456E+03  0.50400001928E-02 0. -1.
    10030    2    1    2    0    0  0.00000000000E+00  0.00000000000E+00  0.97887362763E+03  0.28165091967E+04  0.26409336373E+04 0.  0.
        4    1    3    3  502    0  0.35967683012E+03 -0.15106960514E+03  0.18348294087E+04  0.18758438154E+04  0.12699999809E+01 0.  1.
       -4    1    3    3    0  502 -0.35967683012E+03  0.15106960514E+03 -0.85595578105E+03  0.94066538138E+03  0.12699999809E+01 0. -1.
</event>
<event>
 5   0  0.2529875E-07  0.2414455E+04  0.7818609E-02  0.8434112E-01
       -1   -1    0    0    0  501  0.00000000000E+00  0.00000000000E+00  0.76008128230E+03  0.76008128231E+03  0.50400001928E-02 0. -1.
        1   -1    0    0  501    0  0.00000000000E+00  0.00000000000E+00 -0.19174235803E+04  0.19174235803E+04  0.50400001928E-02 0.  1.
    10030    2    1    2    0    0  0.00000000000E+00  0.00000000000E+00 -0.11573422980E+04  0.26775048626E+04  0.24144546164E+04 0.  0.
        4    1    3    3  502    0  0.28729360424E+03  0.38868422792E+03 -0.18054420060E+04  0.18690199287E+04  0.12699999809E+01 0.  1.
       -4    1    3    3    0  502 -0.28729360424E+03 -0.38868422792E+03  0.64809970795E+03  0.80848493394E+03  0.12699999809E+01 0. -1.
</event>
<event>
 5   0  0.2529875E-07  0.3746535E+04  0.7818609E-02  0.8057727E-01
       -1   -1    0    0    0  501  0.00000000000E+00  0.00000000000E+00  0.17084160026E+04  0.17084160026E+04  0.50400001928E-02 0. -1.
        1   -1    0    0  501    0  0.00000000000E+00  0.00000000000E+00 -0.20540262286E+04  0.20540262286E+04  0.50400001928E-02 0.  1.
    10030    2    1    2    0    0  0.00000000000E+00  0.00000000000E+00 -0.34561022603E+03  0.37624422312E+04  0.37465350812E+04 0.  0.
        1    1    3    3  502    0 -0.65071954847E+03  0.13071633566E+04  0.10056418776E+04  0.17729713922E+04  0.50400001928E-02 0. -1.
       -1    1    3    3    0  502  0.65071954847E+03 -0.13071633566E+04 -0.13512521037E+04  0.19894708390E+04  0.50400001928E-02 0.  1.
</event>
<event>
 5   0  0.7638805E-07  0.3761357E+04  0.7818609E-02  0.8054499E-01
        2   -1    0    0  501    0  0.00000000000E+00  0.00000000000E+00  0.27839784493E+04  0.27839784493E+04  0.25500000920E-02 0. -1.
       -2   -1    0    0    0  501  0.00000000000E+00  0.00000000000E+00 -0.12704663135E+04  0.12704663135E+04  0.25500000920E-02 0.  1.
    10030    2    1    2    0    0  0.00000000000E+00  0.00000000000E+00  0.15135121358E+04  0.40544447628E+04  0.37613565836E+04 0.  0.
        5    1    3    3  502    0 -0.10576551725E+04  0.11999167519E+04 -0.30951096096E+03  0.16291880801E+04  0.46999998093E+01 0.  1.
       -5    1    3    3    0  502  0.10576551725E+04 -0.11999167519E+04  0.18230230967E+04  0.24252566827E+04  0.46999998093E+01 0. -1.
</event>
<event>
 5   0  0.7649458E-07  0.4027436E+04  0.7818609E-02  0.7999035E-01
        2   -1    0    0  501    0  0.00000000000E+00  0.00000000000E+00  0.21028789838E+04  0.21028789839E+04  0.25500000920E-02 0. -1.
       -2   -1    0    0    0  501  0.00000000000E+00  0.00000000000E+00 -0.19283375452E+04  0.19283375452E+04  0.25500000920E-02 0.  1.
    10030    2    1    2    0    0  0.00000000000E+00  0.00000000000E+00  0.17454143862E+03  0.40312165291E+04  0.40274361560E+04 0.  0.
        4    1    3    3  502    0  0.82428436118E+03 -0.92846911869E+03  0.16741797327E+04  0.20843173949E+04  0.12699999809E+01 0. -1.
       -4    1    3    3    0  502 -0.82428436118E+03  0.92846911869E+03 -0.14996382941E+04  0.19468991341E+04  0.12699999809E+01 0.  1.
</event>
<event>
 5   0  0.7551495E-07  0.3899612E+04  0.7818609E-02  0.8025110E-01
        2   -1    0    0  501    0  0.00000000000E+00  0.00000000000E+00  0.17226431711E+04  0.17226431711E+04  0.25500000920E-02 0. -1.
       -2   -1    0    0    0  501  0.00000000000E+00  0.00000000000E+00 -0.22069250042E+04  0.22069250042E+04  0.25500000920E-02 0.  1.
    10030    2    1    2    0    0  0.00000000000E+00  0.00000000000E+00 -0.48428183309E+03  0.39295681753E+04  0.38996124359E+04 0.  0.
        1    1    3    3  502    0  0.97160066101E+03 -0.14182827425E+04  0.68482248477E+03  0.18505446814E+04  0.50400001928E-02 0. -1.
       -1    1    3    3    0  502 -0.97160066101E+03  0.14182827425E+04 -0.11691043179E+04  0.20790234939E+04  0.50400001928E-02 0.  1.
</event>
<event>
 5   0  0.7551495E-07  0.3867150E+04  0.7818609E-02  0.8031896E-01
        2   -1    0    0  501    0  0.00000000000E+00  0.00000000000E+00  0.21438924637E+04  0.21438924637E+04  0.25500000920E-02 0.  1.
       -2   -1    0    0    0  501  0.00000000000E+00  0.00000000000E+00 -0.17438900215E+04  0.17438900215E+04  0.25500000920E-02 0. -1.
    10030    2    1    2    0    0  0.00000000000E+00  0.00000000000E+00  0.40000244215E+03  0.38877824852E+04  0.38671502038E+04 0.  0.
        1    1    3    3  502    0  0.14193676827E+04  0.10670430614E+04 -0.56927877759E+03  0.18647422986E+04  0.50400001928E-02 0. -1.
       -1    1    3    3    0  502 -0.14193676827E+04 -0.10670430614E+04  0.96928121974E+03  0.20230401866E+04  0.50400001928E-02 0.  1.
</event>
<event>
 5   0  0.2907071E-07  0.3814354E+04  0.7818609E-02  0.8043082E-01
        1   -1    0    0  501    0  0.00000000000E+00  0.00000000000E+00  0.21731668206E+04  0.21731668206E+04  0.50400001928E-02 0. -1.
       -1   -1    0    0    0  501  0.00000000000E+00  0.00000000000E+00 -0.16737438032E+04  0.16737438032E+04  0.50400001928E-02 0.  1.
    10030    2    1    2    0    0  0.00000000000E+00  0.00000000000E+00  0.49942301738E+03  0.38469106237E+04  0.38143542044E+04 0.  0.
        2    1    3    3  502    0 -0.18372292845E+04 -0.40663510052E+02  0.76422219667E+03  0.19902513738E+04  0.25500000920E-02 0. -1.
       -2    1    3    3    0  502  0.18372292845E+04  0.40663510052E+02 -0.26479917929E+03  0.18566592499E+04  0.25500000920E-02 0.  1.
</event>
<event>
 5   0  0.2529875E-07  0.3134956E+04  0.7818609E-02  0.8206209E-01
        1   -1    0    0  501    0  0.00000000000E+00  0.00000000000E+00  0.20696170636E+04  0.20696170636E+04  0.50400001928E-02 0.  1.
       -1   -1    0    0    0  501  0.00000000000E+00  0.00000000000E+00 -0.11871700532E+04  0.11871700532E+04  0.50400001928E-02 0. -1.
    10030    2    1    2    0    0  0.00000000000E+00  0.00000000000E+00  0.88244701040E+03  0.32567871167E+04  0.31349560759E+04 0.  0.
        5    1    3    3  502    0 -0.10026197448E+03  0.52148024366E+03  0.19733148761E+04  0.20435233785E+04  0.46999998093E+01 0.  1.
       -5    1    3    3    0  502  0.10026197448E+03 -0.52148024366E+03 -0.10908678657E+04  0.12132637382E+04  0.46999998093E+01 0. -1.
</event>
<event>
 5   0  0.7638805E-07  0.3876415E+04  0.7818609E-02  0.8029952E-01
        2   -1    0    0  501    0  0.00000000000E+00  0.00000000000E+00  0.21011635340E+04  0.21011635340E+04  0.25500000920E-02 0.  1.
       -2   -1    0    0    0  501  0.00000000000E+00  0.00000000000E+00 -0.17878897718E+04  0.17878897718E+04  0.25500000920E-02 0. -1.
    10030    2    1    2    0    0  0.00000000000E+00  0.00000000000E+00  0.31327376216E+03  0.38890533058E+04  0.38764152468E+04 0.  0.
        5    1    3    3  502    0  0.97407556775E+03  0.64799324577E+03 -0.13936869403E+04  0.18196438761E+04  0.46999998093E+01 0. -1.
       -5    1    3    3    0  502 -0.97407556775E+03 -0.64799324577E+03  0.17069607024E+04  0.20694094298E+04  0.46999998093E+01 0.  1.
</event>
<event>
 5   0  0.2529875E-07  0.2609743E+04  0.7818609E-02  0.8364899E-01
       -1   -1    0    0    0  501  0.00000000000E+00  0.00000000000E+00  0.10721797061E+04  0.10721797061E+04  0.50400001928E-02 0.  1.
        1   -1    0    0  501    0  0.00000000000E+00  0.00000000000E+00 -0.15880640081E+04  0.15880640081E+04  0.50400001928E-02 0. -1.
    10030    2    1    2    0    0  0.00000000000E+00  0.00000000000E+00 -0.51588430203E+03  0.26602437142E+04  0.26097432835E+04 0.  0.
        4    1    3    3  502    0 -0.28610654343E+03 -0.86251440495E+03 -0.12124923121E+04  0.15152317555E+04  0.12699999809E+01 0. -1.
       -4    1    3    3    0  502  0.28610654343E+03  0.86251440495E+03  0.69660801009E+03  0.11450119587E+04  0.12699999809E+01 0.  1.
</event>
<event>
 5   0  0.8038352E-07  0.3734130E+04  0.7818609E-02  0.8060440E-01
        2   -1    0    0  501    0  0.00000000000E+00  0.00000000000E+00  0.23851905857E+04  0.23851905857E+04  0.25500000920E-02 0. -1.
       -2   -1    0    0    0  501  0.00000000000E+00  0.00000000000E+00 -0.14614900411E+04  0.14614900412E+04  0.25500000920E-02 0.  1.
    10030    2    1    2    0    0  0.00000000000E+00  0.00000000000E+00  0.92370054457E+03  0.38466806269E+04  0.37341303069E+04 0.  0.
        2    1    3    3  502    0  0.58247003559E+03 -0.11387340632E+03 -0.13617302287E+04  0.14854452904E+04  0.25500000920E-02 0.  1.
       -2    1    3    3    0  502 -0.58247003559E+03  0.11387340632E+03  0.22854307732E+04  0.23612353365E+04  0.25500000920E-02 0. -1.
</event>
<event>
 5   0  0.2529875E-07  0.3812034E+04  0.7818609E-02  0.8043577E-01
        1   -1    0    0  501    0  0.00000000000E+00  0.00000000000E+00  0.22090774016E+04  0.22090774016E+04  0.50400001928E-02 0. -1.
       -1   -1    0    0    0  501  0.00000000000E+00  0.00000000000E+00 -0.16445332010E+04  0.16445332010E+04  0.50400001928E-02 0.  1.
    10030    2    1    2    0    0  0.00000000000E+00  0.00000000000E+00  0.56454420065E+03  0.38536106026E+04  0.38120341711E+04 0.  0.
        1    1    3    3  502    0  0.48260960794E+03  0.14476880007E+04 -0.87219413228E+03  0.17576789199E+04  0.50400001928E-02 0.  1.
       -1    1    3    3    0  502 -0.48260960794E+03 -0.14476880007E+04  0.14367383329E+04  0.20959316827E+04  0.50400001928E-02 0. -1.
</event>
<event>
 5   0  0.8421677E-07  0.3787397E+04  0.7818609E-02  0.8048865E-01
       -2   -1    0    0    0  501  0.00000000000E+00  0.00000000000E+00  0.21305652111E+04  0.21305652111E+04  0.25500000920E-02 0. -1.
        2   -1    0    0  501    0  0.00000000000E+00  0.00000000000E+00 -0.16831656790E+04  0.16831656790E+04  0.25500000920E-02 0.  1.
    10030    2    1    2    0    0  0.00000000000E+00  0.00000000000E+00  0.44739953211E+03  0.38137308901E+04  0.37873971221E+04 0.  0.
        3    1    3    3  502    0  0.14921270722E+04 -0.11364685766E+04 -0.39055554996E+02  0.18760408769E+04  0.10100000352E+00 0.  1.
       -3    1    3    3    0  502 -0.14921270722E+04  0.11364685766E+04  0.48645508711E+03  0.19376900132E+04  0.10100000352E+00 0. -1.
</event>
<event>
 5   0  0.7638805E-07  0.3512798E+04  0.7818609E-02  0.8110764E-01
        2   -1    0    0  501    0  0.00000000000E+00  0.00000000000E+00  0.16049367711E+04  0.16049367711E+04  0.25500000920E-02 0.  1.
       -2   -1    0    0    0  501  0.00000000000E+00  0.00000000000E+00 -0.19221547860E+04  0.19221547860E+04  0.25500000920E-02 0. -1.
    10030    2    1    2    0    0  0.00000000000E+00  0.00000000000E+00 -0.31721801498E+03  0.35270915571E+04  0.35127976860E+04 0.  0.
        5    1    3    3  502    0 -0.91665557430E+03 -0.52738289630E+03  0.12494254792E+04  0.16369105898E+04  0.46999998093E+01 0.  1.
       -5    1    3    3    0  502  0.91665557430E+03  0.52738289630E+03 -0.15666434941E+04  0.18901809672E+04  0.46999998093E+01 0. -1.
</event>
<event>
 5   0  0.2529875E-07  0.3021133E+04  0.7818609E-02  0.8237722E-01
        1   -1    0    0  501    0  0.00000000000E+00  0.00000000000E+00  0.17272695762E+04  0.17272695762E+04  0.50400001928E-02 0. -1.
       -1   -1    0    0    0  501  0.00000000000E+00  0.00000000000E+00 -0.13210513369E+04  0.13210513369E+04  0.50400001928E-02 0.  1.
    10030    2    1    2    0    0  0.00000000000E+00  0.00000000000E+00  0.40621823929E+03  0.30483209130E+04  0.30211334183E+04 0.  0.
        1    1    3    3  502    0 -0.52627173240E+03  0.11323787986E+04  0.10607987784E+04  0.16384558975E+04  0.50400001928E-02 0. -1.
       -1    1    3    3    0  502  0.52627173240E+03 -0.11323787986E+04 -0.65458053907E+03  0.14098650155E+04  0.50400001928E-02 0.  1.
</event>
<event>
 5   0  0.2529875E-07  0.3816682E+04  0.7818609E-02  0.8042584E-01
       -1   -1    0    0    0  501  0.00000000000E+00  0.00000000000E+00  0.15368861589E+04  0.15368861589E+04  0.50400001928E-02 0.  1.
        1   -1    0    0  501    0  0.00000000000E+00  0.00000000000E+00 -0.23695737278E+04  0.23695737278E+04  0.50400001928E-02 0. -1.
    10030    2    1    2    0    0  0.00000000000E+00  0.00000000000E+00 -0.83268756884E+03  0.39064598867E+04  0.38166818388E+04 0.  0.
        4    1    3    3  502    0 -0.17723449448E+04  0.69197649457E+03 -0.56720621388E+03  0.19853872605E+04  0.12699999809E+01 0. -1.
       -4    1    3    3    0  502  0.17723449448E+04 -0.69197649457E+03 -0.26548135497E+03  0.19210726262E+04  0.12699999809E+01 0.  1.
</event>
<event>
 5   0  0.2529875E-07  0.2372325E+04  0.7818609E-02  0.8449938E-01
       -3   -1    0    0    0  501  0.00000000000E+00  0.00000000000E+00  0.12660456116E+04  0.12660456156E+04  0.10100000352E+00 0.  1.
        3   -1    0    0  501    0  0.00000000000E+00  0.00000000000E+00 -0.11113200791E+04  0.11113200837E+04  0.10100000352E+00 0. -1.
    10030    2    1    2    0    0  0.00000000000E+00  0.00000000000E+00  0.15472553248E+03  0.23773656994E+04  0.23723253736E+04 0.  0.
        1    1    3    3  502    0  0.11182179565E+04  0.30432876616E+02  0.47271885746E+03  0.12144137172E+04  0.50400001928E-02 0.  1.
       -1    1    3    3    0  502 -0.11182179565E+04 -0.30432876616E+02 -0.31799332498E+03  0.11629519822E+04  0.50400001928E-02 0. -1.
</event>
<event>
 5   0  0.2529875E-07  0.3818680E+04  0.7818609E-02  0.8042158E-01
       -1   -1    0    0    0  501  0.00000000000E+00  0.00000000000E+00  0.14194375960E+04  0.14194375960E+04  0.50400001928E-02 0.  1.
        1   -1    0    0  501    0  0.00000000000E+00  0.00000000000E+00 -0.25683259139E+04  0.25683259139E+04  0.50400001928E-02 0. -1.
    10030    2    1    2    0    0  0.00000000000E+00  0.00000000000E+00 -0.11488883180E+04  0.39877635099E+04  0.38186795419E+04 0.  0.
        5    1    3    3  502    0  0.74234839799E+03  0.61168886953E+03 -0.22968104909E+04  0.24901013911E+04  0.46999998093E+01 0. -1.
       -5    1    3    3    0  502 -0.74234839799E+03 -0.61168886953E+03  0.11479221729E+04  0.14976621188E+04  0.46999998093E+01 0.  1.
</event>
<event>
 5   0  0.7638805E-07  0.3185287E+04  0.7818609E-02  0.8192714E-01
        2   -1    0    0  501    0  0.00000000000E+00  0.00000000000E+00  0.12978026666E+04  0.12978026666E+04  0.25500000920E-02 0.  1.
       -2   -1    0    0    0  501  0.00000000000E+00  0.00000000000E+00 -0.19544675884E+04  0.19544675884E+04  0.25500000920E-02 0. -1.
    10030    2    1    2    0    0  0.00000000000E+00  0.00000000000E+00 -0.65666492183E+03  0.32522702549E+04  0.31852869559E+04 0.  0.
        5    1    3    3  502    0  0.18076441334E+01 -0.14094044102E+04 -0.10855939981E+04  0.17790335797E+04  0.46999998093E+01 0. -1.
       -5    1    3    3    0  502 -0.18076441334E+01  0.14094044102E+04  0.42892907624E+03  0.14732366753E+04  0.46999998093E+01 0.  1.
</event>
<event>
 5   0  0.7638805E-07  0.3822468E+04  0.7818609E-02  0.8041350E-01
        2   -1    0    0  501    0  0.00000000000E+00  0.00000000000E+00  0.17274324730E+04  0.17274324730E+04  0.25500000920E-02 0.  1.
       -2   -1    0    0    0  501  0.00000000000E+00  0.00000000000E+00 -0.21145925578E+04  0.21145925578E+04  0.25500000920E-02 0. -1.
    10030    2    1    2    0    0  0.00000000000E+00  0.00000000000E+00 -0.38716008483E+03  0.38420250308E+04  0.38224682348E+04 0.  0.
        5    1    3    3  502    0 -0.11276343844E+04 -0.97352840086E+03  0.10098245257E+04  0.17997456806E+04  0.46999998093E+01 0. -1.
       -5    1    3    3    0  502  0.11276343844E+04  0.97352840086E+03 -0.13969846105E+04  0.20422793502E+04  0.46999998093E+01 0.  1.
</event>
<event>
 5   0  0.8421677E-07  0.3704608E+04  0.7818609E-02  0.8066941E-01
        2   -1    0    0  501    0  0.00000000000E+00  0.00000000000E+00  0.13640953853E+04  0.13640953853E+04  0.25500000920E-02 0. -1.
       -2   -1    0    0    0  501  0.00000000000E+00  0.00000000000E+00 -0.25152423787E+04  0.25152423787E+04  0.25500000920E-02 0.  1.
    10030    2    1    2    0    0  0.00000000000E+00  0.00000000000E+00 -0.11511469934E+04  0.38793377639E+04  0.37046082231E+04 0.  0.
        3    1    3    3  502    0  0.16552079489E+04 -0.64351925310E+03 -0.24242993524E+02  0.17760681620E+04  0.10100000352E+00 0.  1.
       -3    1    3    3    0  502 -0.16552079489E+04  0.64351925310E+03 -0.11269039999E+04  0.21032696019E+04  0.10100000352E+00 0. -1.
</event>
<event>
 5   0  0.7638805E-07  0.2472830E+04  0.7818609E-02  0.8412729E-01
        2   -1    0    0  501    0  0.00000000000E+00  0.00000000000E+00  0.18346094625E+04  0.18346094625E+04  0.25500000920E-02 0.  1.
       -2   -1    0    0    0  501  0.00000000000E+00  0.00000000000E+00 -0.83326852366E+03  0.83326852367E+03  0.25500000920E-02 0. -1.
    10030    2    1    2    0    0  0.00000000000E+00  0.00000000000E+00  0.10013409388E+04  0.26678779862E+04  0.24728302152E+04 0.  0.
        5    1    3    3  502    0 -0.76704047556E+03  0.78624962422E+03 -0.11169109197E+03  0.11040998835E+04  0.46999998093E+01 0.  1.
       -5    1    3    3    0  502  0.76704047556E+03 -0.78624962422E+03  0.11130320308E+04  0.15637781026E+04  0.46999998093E+01 0. -1.
</event>
<event>
 5   0  0.2907071E-07  0.2867864E+04  0.7818609E-02  0.8282504E-01
        1   -1    0    0  501    0  0.00000000000E+00  0.00000000000E+00  0.16533826079E+04  0.16533826079E+04  0.50400001928E-02 0.  1.
       -1   -1    0    0    0  501  0.00000000000E+00  0.00000000000E+00 -0.12436086076E+04  0.12436086076E+04  0.50400001928E-02 0. -1.
    10030    2    1    2    0    0  0.00000000000E+00  0.00000000000E+00  0.40977400026E+03  0.28969912155E+04  0.28678639039E+04 0.  0.
        2    1    3    3  502    0  0.90001046113E+03  0.90545115666E+03  0.86443501365E+03  0.15417874432E+04  0.25500000920E-02 0.  1.
       -2    1    3    3    0  502 -0.90001046113E+03 -0.90545115666E+03 -0.45466101339E+03  0.13552037723E+04  0.25500000920E-02 0. -1.
</event>
<event>
 5   0  0.8421677E-07  0.3891350E+04  0.7818609E-02  0.8026831E-01
       -2   -1    0    0    0  501  0.00000000000E+00  0.00000000000E+00  0.16021360407E+04  0.16021360407E+04  0.25500000920E-02 0. -1.
        2   -1    0    0  501    0  0.00000000000E+00  0.00000000000E+00 -0.23628777673E+04  0.23628777673E+04  0.25500000920E-02 0.  1.
    10030    2    1    2    0    0  0.00000000000E+00  0.00000000000E+00 -0.76074172657E+03  0.39650138080E+04  0.38913502185E+04 0.  0.
        3    1    3    3  502    0  0.18415747088E+04 -0.56217096698E+03 -0.95401754650E+02  0.19278317119E+04  0.10100000352E+00 0.  1.
       -3    1    3    3    0  502 -0.18415747088E+04  0.56217096698E+03 -0.66533997192E+03  0.20371820961E+04  0.10100000352E+00 0. -1.
</event>
<event>
 5   0  0.7649458E-07  0.3769851E+04  0.7818609E-02  0.8052656E-01
       -2   -1    0    0    0  501  0.00000000000E+00  0.00000000000E+00  0.17705498244E+04  0.17705498244E+04  0.25500000920E-02 0.  1.
        2   -1    0    0  501    0  0.00000000000E+00  0.00000000000E+00 -0.20066901196E+04  0.20066901196E+04  0.25500000920E-02 0. -1.
    10030    2    1    2    0    0  0.00000000000E+00  0.00000000000E+00 -0.23614029520E+03  0.37772399440E+04  0.37698513705E+04 0.  0.
        4    1    3    3  502    0 -0.91630433290E+03 -0.82332635337E+03 -0.15475629893E+04  0.19779870407E+04  0.12699999809E+01 0. -1.
       -4    1    3    3    0  502  0.91630433290E+03  0.82332635337E+03  0.13114226940E+04  0.17992529033E+04  0.12699999809E+01 0.  1.
</event>
<event>
 5   0  0.8421677E-07  0.3803501E+04  0.7818609E-02  0.8045404E-01
        2   -1    0    0  501    0  0.00000000000E+00  0.00000000000E+00  0.19702012358E+04  0.19702012358E+04  0.25500000920E-02 0.  1.
       -2   -1    0    0    0  501  0.00000000000E+00  0.00000000000E+00 -0.18356775273E+04  0.18356775273E+04  0.25500000920E-02 0. -1.
    10030    2    1    2    0    0  0.00000000000E+00  0.00000000000E+00  0.13452370857E+03  0.38058787631E+04  0.38035005628E+04 0.  0.
        3    1    3    3  502    0 -0.12022916567E+04  0.19907092916E+03  0.15281472118E+04  0.19545762645E+04  0.10100000352E+00 0.  1.
       -3    1    3    3    0  502  0.12022916567E+04 -0.19907092916E+03 -0.13936235032E+04  0.18513024986E+04  0.10100000352E+00 0. -1.
</event>
<event>
 5   0  0.2907071E-07  0.3339340E+04  0.7818609E-02  0.8152957E-01
        1   -1    0    0  501    0  0.00000000000E+00  0.00000000000E+00  0.12675902583E+04  0.12675902583E+04  0.50400001928E-02 0. -1.
       -1   -1    0    0    0  501  0.00000000000E+00  0.00000000000E+00 -0.21992890684E+04  0.21992890684E+04  0.50400001928E-02 0.  1.
    10030    2    1    2    0    0  0.00000000000E+00  0.00000000000E+00 -0.93169881005E+03  0.34668793267E+04  0.33393396942E+04 0.  0.
        2    1    3    3  502    0 -0.13367717048E+03  0.15217743069E+04  0.23378086349E+03  0.15454190756E+04  0.25500000920E-02 0. -1.
       -2    1    3    3    0  502  0.13367717048E+03 -0.15217743069E+04 -0.11654796735E+04  0.19214602511E+04  0.25500000920E-02 0.  1.
</event>
<event>
 5   0  0.8038352E-07  0.3762083E+04  0.7818609E-02  0.8054341E-01
       -2   -1    0    0    0  501  0.00000000000E+00  0.00000000000E+00  0.19627666326E+04  0.19627666326E+04  0.25500000920E-02 0. -1.
        2   -1    0    0  501    0  0.00000000000E+00  0.00000000000E+00 -0.18027193829E+04  0.18027193829E+04  0.25500000920E-02 0.  1.
    10030    2    1    2    0    0  0.00000000000E+00  0.00000000000E+00  0.16004724963E+03  0.37654860155E+04  0.37620831744E+04 0.  0.
        2    1    3    3  502    0  0.10510274778E+04 -0.31855577342E+03  0.16085529120E+04  0.19477112236E+04  0.25500000920E-02 0. -1.
       -2    1    3    3    0  502 -0.10510274778E+04  0.31855577342E+03 -0.14485056624E+04  0.18177747919E+04  0.25500000920E-02 0.  1.
</event>
<event>
 5   0  0.2529875E-07  0.3392092E+04  0.7818609E-02  0.8139850E-01
        1   -1    0    0  501    0  0.00000000000E+00  0.00000000000E+00  0.10944394217E+04  0.10944394217E+04  0.50400001928E-02 0. -1.
       -1   -1    0    0    0  501  0.00000000000E+00  0.00000000000E+00 -0.26283517233E+04  0.26283517233E+04  0.50400001928E-02 0.  1.
    10030    2    1    2    0    0  0.00000000000E+00  0.00000000000E+00 -0.15339123015E+04  0.37227911450E+04  0.33920918266E+04 0.  0.
        4    1    3    3  502    0 -0.11600923173E+04 -0.85875519517E+02 -0.21215384220E+04  0.24195279867E+04  0.12699999809E+01 0.  1.
       -4    1    3    3    0  502  0.11600923173E+04  0.85875519517E+02  0.58762612042E+03  0.13032631583E+04  0.12699999809E+01 0. -1.
</event>
<event>
 5   0  0.2529875E-07  0.3936941E+04  0.7818609E-02  0.8017390E-01
        1   -1    0    0  501    0  0.00000000000E+00  0.00000000000E+00  0.17618347706E+04  0.17618347706E+04  0.50400001928E-02 0.  1.
       -1   -1    0    0    0  501  0.00000000000E+00  0.00000000000E+00 -0.21993413168E+04  0.21993413168E+04  0.50400001928E-02 0. -1.
    10030    2    1    2    0    0  0.00000000000E+00  0.00000000000E+00 -0.43750654622E+03  0.39611760875E+04  0.39369409467E+04 0.  0.
        4    1    3    3  502    0 -0.33206617016E+03  0.14313272104E+04 -0.15367440083E+04  0.21261583395E+04  0.12699999809E+01 0. -1.
       -4    1    3    3    0  502  0.33206617016E+03 -0.14313272104E+04  0.10992374620E+04  0.18350177480E+04  0.12699999809E+01 0.  1.
</event>
<event>
 5   0  0.7649458E-07  0.2523695E+04  0.7818609E-02  0.8394592E-01
        2   -1    0    0  501    0  0.00000000000E+00  0.00000000000E+00  0.14018376044E+04  0.14018376044E+04  0.25500000920E-02 0.  1.
       -2   -1    0    0    0  501  0.00000000000E+00  0.00000000000E+00 -0.11358372510E+04  0.11358372510E+04  0.25500000920E-02 0. -1.
    10030    2    1    2    0    0  0.00000000000E+00  0.00000000000E+00  0.26600035340E+03  0.25376748554E+04  0.25236952042E+04 0.  0.
        4    1    3    3  502    0  0.64861952733E+03 -0.38048857209E+03 -0.88591385868E+03  0.11620343466E+04  0.12699999809E+01 0. -1.
       -4    1    3    3    0  502 -0.64861952733E+03  0.38048857209E+03  0.11519142121E+04  0.13756405089E+04  0.12699999809E+01 0.  1.
</event>
<event>
 5   0  0.2529875E-07  0.3281562E+04  0.7818609E-02  0.8167603E-01
        1   -1    0    0  501    0  0.00000000000E+00  0.00000000000E+00  0.16196719817E+04  0.16196719818E+04  0.50400001928E-02 0.  1.
       -1   -1    0    0    0  501  0.00000000000E+00  0.00000000000E+00 -0.16621654702E+04  0.16621654702E+04  0.50400001928E-02 0. -1.
    10030    2    1    2    0    0  0.00000000000E+00  0.00000000000E+00 -0.42493488449E+02  0.32818374520E+04  0.32815623359E+04 0.  0.
        3    1    3    3  502    0  0.12006309554E+04 -0.12739491779E+03 -0.11323838479E+04  0.16553058163E+04  0.10100000352E+00 0. -1.
       -3    1    3    3    0  502 -0.12006309554E+04  0.12739491779E+03  0.10898903594E+04  0.16265316357E+04  0.10100000352E+00 0.  1.
</event>
<event>
 5   0  0.2907071E-07  0.3120239E+04  0.7818609E-02  0.8210205E-01
       -1   -1    0    0    0  501  0.00000000000E+00  0.00000000000E+00  0.11294587453E+04  0.11294587453E+04  0.50400001928E-02 0. -1.
        1   -1    0    0  501    0  0.00000000000E+00  0.00000000000E+00 -0.21549900194E+04  0.21549900194E+04  0.50400001928E-02 0.  1.
    10030    2    1    2    0    0  0.00000000000E+00  0.00000000000E+00 -0.10255312741E+04  0.32844487647E+04  0.31202386598E+04 0.  0.
        2    1    3    3  502    0  0.16603607970E+03 -0.50874909290E+03 -0.20553510579E+04  0.21238789020E+04  0.25500000920E-02 0.  1.
       -2    1    3    3    0  502 -0.16603607970E+03  0.50874909290E+03  0.10298197837E+04  0.11605698627E+04  0.25500000920E-02 0. -1.
</event>
<event>
 5   0  0.7551495E-07  0.3804150E+04  0.7818609E-02  0.8045265E-01
       -2   -1    0    0    0  501  0.00000000000E+00  0.00000000000E+00  0.14981303182E+04  0.14981303182E+04  0.25500000920E-02 0. -1.
        2   -1    0    0  501    0  0.00000000000E+00  0.00000000000E+00 -0.24149368280E+04  0.24149368280E+04  0.25500000920E-02 0.  1.
    10030    2    1    2    0    0  0.00000000000E+00  0.00000000000E+00 -0.91680650976E+03  0.39130671462E+04  0.38041504064E+04 0.  0.
        1    1    3    3  502    0  0.71927396393E+03  0.15243992928E+04 -0.13649662139E+04  0.21689354541E+04  0.50400001928E-02 0.  1.
       -1    1    3    3    0  502 -0.71927396393E+03 -0.15243992928E+04  0.44815970410E+03  0.17441316921E+04  0.50400001928E-02 0. -1.
</event>
<event>
 5   0  0.8421677E-07  0.3770150E+04  0.7818609E-02  0.8052591E-01
        2   -1    0    0  501    0  0.00000000000E+00  0.00000000000E+00  0.21403360327E+04  0.21403360327E+04  0.25500000920E-02 0. -1.
       -2   -1    0    0    0  501  0.00000000000E+00  0.00000000000E+00 -0.16602568170E+04  0.16602568170E+04  0.25500000920E-02 0.  1.
    10030    2    1    2    0    0  0.00000000000E+00  0.00000000000E+00  0.48007921574E+03  0.38005928497E+04  0.37701498586E+04 0.  0.
        3    1    3    3  502    0 -0.14117446309E+04  0.11243682318E+04 -0.30867229599E+03  0.18309848225E+04  0.10100000352E+00 0.  1.
       -3    1    3    3    0  502  0.14117446309E+04 -0.11243682318E+04  0.78875151173E+03  0.19696080273E+04  0.10100000352E+00 0. -1.
</event>
<event>
 5   0  0.7649458E-07  0.3903754E+04  0.7818609E-02  0.8024249E-01
        2   -1    0    0  501    0  0.00000000000E+00  0.00000000000E+00  0.15476704952E+04  0.15476704952E+04  0.25500000920E-02 0.  1.
       -2   -1    0    0    0  501  0.00000000000E+00  0.00000000000E+00 -0.24616505603E+04  0.24616505603E+04  0.25500000920E-02 0. -1.
    10030    2    1    2    0    0  0.00000000000E+00  0.00000000000E+00 -0.91398006512E+03  0.40093210556E+04  0.39037540608E+04 0.  0.
        4    1    3    3  502    0  0.15645251773E+04  0.56965068690E+03 -0.15031533149E+04  0.22431478855E+04  0.12699999809E+01 0. -1.
       -4    1    3    3    0  502 -0.15645251773E+04 -0.56965068690E+03  0.58917324974E+03  0.17661731700E+04  0.12699999809E+01 0.  1.
</event>
<event>
 5   0  0.2529875E-07  0.3800205E+04  0.7818609E-02  0.8046111E-01
       -1   -1    0    0    0  501  0.00000000000E+00  0.00000000000E+00  0.32257095838E+04  0.32257095838E+04  0.50400001928E-02 0. -1.
        1   -1    0    0  501    0  0.00000000000E+00  0.00000000000E+00 -0.11192546036E+04  0.11192546036E+04  0.50400001928E-02 0.  1.
    10030    2    1    2    0    0  0.00000000000E+00  0.00000000000E+00  0.21064549802E+04  0.43449641874E+04  0.38002054163E+04 0.  0.
        1    1    3    3  502    0  0.97271635984E+02  0.16490224503E+04 -0.20336890639E+02  0.16520140441E+04  0.50400001928E-02 0.  1.
       -1    1    3    3    0  502 -0.97271635984E+02 -0.16490224503E+04  0.21267918709E+04  0.26929501434E+04  0.50400001928E-02 0. -1.
</event>
<event>
 5   0  0.7649458E-07  0.3777861E+04  0.7818609E-02  0.8050923E-01
       -2   -1    0    0    0  501  0.00000000000E+00  0.00000000000E+00  0.16453787655E+04  0.16453787655E+04  0.25500000920E-02 0. -1.
        2   -1    0    0  501    0  0.00000000000E+00  0.00000000000E+00 -0.21685334481E+04  0.21685334481E+04  0.25500000920E-02 0.  1.
    10030    2    1    2    0    0  0.00000000000E+00  0.00000000000E+00 -0.52315468260E+03  0.38139122136E+04  0.37778612403E+04 0.  0.
        4    1    3    3  502    0 -0.41118274940E+02  0.10102970836E+04 -0.18723172989E+04  0.21279014522E+04  0.12699999809E+01 0.  1.
       -4    1    3    3    0  502  0.41118274940E+02 -0.10102970836E+04  0.13491626163E+04  0.16860107614E+04  0.12699999809E+01 0. -1.
</event>
<event>
 5   0  0.2529875E-07  0.3801213E+04  0.7818609E-02  0.8045895E-01
       -1   -1    0    0    0  501  0.00000000000E+00  0.00000000000E+00  0.21871892713E+04  0.21871892713E+04  0.50400001928E-02 0.  1.
        1   -1    0    0  501    0  0.00000000000E+00  0.00000000000E+00 -0.16515739773E+04  0.16515739774E+04  0.50400001928E-02 0. -1.
    10030    2    1    2    0    0  0.00000000000E+00  0.00000000000E+00  0.53561529399E+03  0.38387632487E+04  0.38012129033E+04 0.  0.
        3    1    3    3  502    0  0.51043762915E+03 -0.16885078472E+04 -0.44678366922E+03  0.18196760647E+04  0.10100000352E+00 0.  1.
       -3    1    3    3    0  502 -0.51043762915E+03  0.16885078472E+04  0.98239896321E+03  0.20190871840E+04  0.10100000352E+00 0. -1.
</event>
<event>
 5   0  0.8421677E-07  0.3846264E+04  0.7818609E-02  0.8036299E-01
       -2   -1    0    0    0  501  0.00000000000E+00  0.00000000000E+00  0.13580027102E+04  0.13580027102E+04  0.25500000920E-02 0. -1.
        2   -1    0    0  501    0  0.00000000000E+00  0.00000000000E+00 -0.27234382695E+04  0.27234382695E+04  0.25500000920E-02 0.  1.
    10030    2    1    2    0    0  0.00000000000E+00  0.00000000000E+00 -0.13654355593E+04  0.40814409797E+04  0.38462639281E+04 0.  0.
        3    1    3    3  502    0 -0.46538883057E+03 -0.32907544467E+03 -0.26317481301E+04  0.26927635697E+04  0.10100000352E+00 0.  1.
       -3    1    3    3    0  502  0.46538883057E+03  0.32907544467E+03  0.12663125708E+04  0.13886774100E+04  0.10100000352E+00 0. -1.
</event>
<event>
 5   0  0.8421677E-07  0.3831554E+04  0.7818609E-02  0.8039417E-01
       -2   -1    0    0    0  501  0.00000000000E+00  0.00000000000E+00  0.17756520246E+04  0.17756520246E+04  0.25500000920E-02 0.  1.
        2   -1    0    0  501    0  0.00000000000E+00  0.00000000000E+00 -0.20669599677E+04  0.20669599677E+04  0.25500000920E-02 0. -1.
    10030    2    1    2    0    0  0.00000000000E+00  0.00000000000E+00 -0.29130794310E+03  0.38426119923E+04  0.38315540718E+04 0.  0.
        3    1    3    3  502    0 -0.14527121753E+04  0.83387650585E+03  0.78680296990E+03  0.18506165500E+04  0.10100000352E+00 0.  1.
       -3    1    3    3    0  502  0.14527121753E+04 -0.83387650585E+03 -0.10781109130E+04  0.19919954423E+04  0.10100000352E+00 0. -1.
</event>
<event>
 5   0  0.2529875E-07  0.2912878E+04  0.7818609E-02  0.8269056E-01
        1   -1    0    0  501    0  0.00000000000E+00  0.00000000000E+00  0.21661979281E+04  0.21661979281E+04  0.50400001928E-02 0.  1.
       -1   -1    0    0    0  501  0.00000000000E+00  0.00000000000E+00 -0.97923412440E+03  0.97923412442E+03  0.50400001928E-02 0. -1.
    10030    2    1    2    0    0  0.00000000000E+00  0.00000000000E+00  0.11869638037E+04  0.31454320525E+04  0.29128782545E+04 0.  0.
        1    1    3    3  502    0 -0.13783843568E+04  0.15194365756E+03  0.11276106169E+03  0.13913106653E+04  0.50400001928E-02 0. -1.
       -1    1    3    3    0  502  0.13783843568E+04 -0.15194365756E+03  0.10742027420E+04  0.17541213872E+04  0.50400001928E-02 0.  1.
</event>
<event>
 5   0  0.2529875E-07  0.3791995E+04  0.7818609E-02  0.8047875E-01
       -1   -1    0    0    0  501  0.00000000000E+00  0.00000000000E+00  0.26619581221E+04  0.26619581221E+04  0.50400001928E-02 0. -1.
        1   -1    0    0  501    0  0.00000000000E+00  0.00000000000E+00 -0.13504369949E+04  0.13504369949E+04  0.50400001928E-02 0.  1.
    10030    2    1    2    0    0  0.00000000000E+00  0.00000000000E+00  0.13115211272E+04  0.40123951170E+04  0.37919951092E+04 0.  0.
        1    1    3    3  502    0 -0.48622761467E+03 -0.41452372696E+02 -0.12828488695E+04  0.13725293492E+04  0.50400001928E-02 0.  1.
       -1    1    3    3    0  502  0.48622761467E+03  0.41452372696E+02  0.25943699966E+04  0.26398657678E+04  0.50400001928E-02 0. -1.
</event>
<event>
 5   0  0.7551495E-07  0.3025817E+04  0.7818609E-02  0.8236397E-01
       -2   -1    0    0    0  501  0.00000000000E+00  0.00000000000E+00  0.18062673314E+04  0.18062673314E+04  0.25500000920E-02 0.  1.
        2   -1    0    0  501    0  0.00000000000E+00  0.00000000000E+00 -0.12671948843E+04  0.12671948843E+04  0.25500000920E-02 0. -1.
    10030    2    1    2    0    0  0.00000000000E+00  0.00000000000E+00  0.53907244702E+03  0.30734622157E+04  0.30258173917E+04 0.  0.
        1    1    3    3  502    0  0.10857870280E+04  0.14064296933E+03 -0.79102081653E+03  0.13507138287E+04  0.50400001928E-02 0. -1.
       -1    1    3    3    0  502 -0.10857870280E+04 -0.14064296933E+03  0.13300932635E+04  0.17227483869E+04  0.50400001928E-02 0.  1.
</event>
<event>
 5   0  0.2529875E-07  0.2429439E+04  0.7818609E-02  0.8428564E-01
        1   -1    0    0  501    0  0.00000000000E+00  0.00000000000E+00  0.21878075479E+04  0.21878075479E+04  0.50400001928E-02 0. -1.
       -1   -1    0    0    0  501  0.00000000000E+00  0.00000000000E+00 -0.67443924977E+03  0.67443924979E+03  0.50400001928E-02 0.  1.
    10030    2    1    2    0    0  0.00000000000E+00  0.00000000000E+00  0.15133682981E+04  0.28622467977E+04  0.24294388498E+04 0.  0.
        4    1    3    3  502    0  0.58577922925E+03  0.10641221709E+04  0.74849042262E+03  0.14267910939E+04  0.12699999809E+01 0. -1.
       -4    1    3    3    0  502 -0.58577922925E+03 -0.10641221709E+04  0.76487787548E+03  0.14354557037E+04  0.12699999809E+01 0.  1.
</event>
<event>
 5   0  0.7638805E-07  0.3177597E+04  0.7818609E-02  0.8194759E-01
        2   -1    0    0  501    0  0.00000000000E+00  0.00000000000E+00  0.17998586669E+04  0.17998586669E+04  0.25500000920E-02 0.  1.
       -2   -1    0    0    0  501  0.00000000000E+00  0.00000000000E+00 -0.14024884143E+04  0.14024884143E+04  0.25500000920E-02 0. -1.
    10030    2    1    2    0    0  0.00000000000E+00  0.00000000000E+00  0.39737025265E+03  0.32023470812E+04  0.31775971599E+04 0.  0.
        5    1    3    3  502    0  0.95075928477E+03  0.10517060357E+04 -0.52399860995E+03  0.15114977461E+04  0.46999998093E+01 0. -1.
       -5    1    3    3    0  502 -0.95075928477E+03 -0.10517060357E+04  0.92136886260E+03  0.16908493351E+04  0.46999998093E+01 0.  1.
</event>
<event>
 5   0  0.2907071E-07  0.3243940E+04  0.7818609E-02  0.8177308E-01
       -1   -1    0    0    0  501  0.00000000000E+00  0.00000000000E+00  0.26166165006E+04  0.26166165006E+04  0.50400001928E-02 0. -1.
        1   -1    0    0  501    0  0.00000000000E+00  0.00000000000E+00 -0.10054155544E+04  0.10054155545E+04  0.50400001928E-02 0.  1.
    10030    2    1    2    0    0  0.00000000000E+00  0.00000000000E+00  0.16112009462E+04  0.36220320551E+04  0.32439401535E+04 0.  0.
        2    1    3    3  502    0 -0.14288225759E+04 -0.76761846117E+03  0.80129419605E+03  0.18091004516E+04  0.25500000920E-02 0. -1.
       -2    1    3    3    0  502  0.14288225759E+04  0.76761846117E+03  0.80990675014E+03  0.18129316035E+04  0.25500000920E-02 0.  1.
</event>
<event>
 5   0  0.2529875E-07  0.3209446E+04  0.7818609E-02  0.8186327E-01
       -1   -1    0    0    0  501  0.00000000000E+00  0.00000000000E+00  0.14011550748E+04  0.14011550748E+04  0.50400001928E-02 0.  1.
        1   -1    0    0  501    0  0.00000000000E+00  0.00000000000E+00 -0.18378669464E+04  0.18378669464E+04  0.50400001928E-02 0. -1.
    10030    2    1    2    0    0  0.00000000000E+00  0.00000000000E+00 -0.43671187163E+03  0.32390220212E+04  0.32094464313E+04 0.  0.
        5    1    3    3  502    0 -0.92204930947E+03  0.98147638884E+03 -0.10991202096E+04  0.17382629709E+04  0.46999998093E+01 0. -1.
       -5    1    3    3    0  502  0.92204930947E+03 -0.98147638884E+03  0.66240833794E+03  0.15007590503E+04  0.46999998093E+01 0.  1.
</event>
<event>
 5   0  0.2529875E-07  0.4121573E+04  0.7818609E-02  0.7980461E-01
       -1   -1    0    0    0  501  0.00000000000E+00  0.00000000000E+00  0.28476897628E+04  0.28476897628E+04  0.50400001928E-02 0. -1.
        1   -1    0    0  501    0  0.00000000000E+00  0.00000000000E+00 -0.14913288339E+04  0.14913288339E+04  0.50400001928E-02 0.  1.
    10030    2    1    2    0    0  0.00000000000E+00  0.00000000000E+00  0.13563609289E+04  0.43390185968E+04  0.41215734148E+04 0.  0.
        1    1    3    3  502    0 -0.15533756338E+04 -0.90892680777E+03 -0.37863215523E+03  0.18391536397E+04  0.50400001928E-02 0.  1.
       -1    1    3    3    0  502  0.15533756338E+04  0.90892680777E+03  0.17349930841E+04  0.24998649571E+04  0.50400001928E-02 0. -1.
</event>
<event>
 5   0  0.7638805E-07  0.2656632E+04  0.7818609E-02  0.8349215E-01
        2   -1    0    0  501    0  0.00000000000E+00  0.00000000000E+00  0.13569201080E+04  0.13569201080E+04  0.25500000920E-02 0.  1.
       -2   -1    0    0    0  501  0.00000000000E+00  0.00000000000E+00 -0.13003147786E+04  0.13003147786E+04  0.25500000920E-02 0. -1.
    10030    2    1    2    0    0  0.00000000000E+00  0.00000000000E+00  0.56605329477E+02  0.26572348866E+04  0.26566319051E+04 0.  0.
        5    1    3    3  502    0 -0.52016613400E+03  0.10071087452E+04 -0.66435747319E+03  0.13138621593E+04  0.46999998093E+01 0. -1.
       -5    1    3    3    0  502  0.52016613400E+03 -0.10071087452E+04  0.72096280267E+03  0.13433727273E+04  0.46999998093E+01 0.  1.
</event>
<event>
 5   0  0.2907071E-07  0.3710817E+04  0.7818609E-02  0.8065569E-01
       -1   -1    0    0    0  501  0.00000000000E+00  0.00000000000E+00  0.16513556133E+04  0.16513556133E+04  0.50400001928E-02 0.  1.
        1   -1    0    0  501    0  0.00000000000E+00  0.00000000000E+00 -0.20846754470E+04  0.20846754470E+04  0.50400001928E-02 0. -1.
    10030    2    1    2    0    0  0.00000000000E+00  0.00000000000E+00 -0.43331983365E+03  0.37360310603E+04  0.37108168919E+04 0.  0.
        2    1    3    3  502    0  0.14302727971E+03 -0.77648851124E+03  0.14737809789E+04  0.16719514301E+04  0.25500000920E-02 0.  1.
       -2    1    3    3    0  502 -0.14302727971E+03  0.77648851124E+03 -0.19071008125E+04  0.20640796302E+04  0.25500000920E-02 0. -1.
</event>
<event>
 5   0  0.2529875E-07  0.3357641E+04  0.7818609E-02  0.8148381E-01
       -1   -1    0    0    0  501  0.00000000000E+00  0.00000000000E+00  0.10196483835E+04  0.10196483835E+04  0.50400001928E-02 0.  1.
        1   -1    0    0  501    0  0.00000000000E+00  0.00000000000E+00 -0.27641280774E+04  0.27641280774E+04  0.50400001928E-02 0. -1.
    10030    2    1    2    0    0  0.00000000000E+00  0.00000000000E+00 -0.17444796939E+04  0.37837764609E+04  0.33576412708E+04 0.  0.
        3    1    3    3  502    0  0.13699700421E+04  0.96628340905E+03 -0.97251105311E+03  0.19381174633E+04  0.10100000352E+00 0.  1.
       -3    1    3    3    0  502 -0.13699700421E+04 -0.96628340905E+03 -0.77196864076E+03  0.18456589976E+04  0.10100000352E+00 0. -1.
</event>
<event>
 5   0  0.8421677E-07  0.2981562E+04  0.7818609E-02  0.8249016E-01
        2   -1    0    0  501    0  0.00000000000E+00  0.00000000000E+00  0.26099095397E+04  0.26099095397E+04  0.25500000920E-02 0. -1.
       -2   -1    0    0    0  501  0.00000000000E+00  0.00000000000E+00 -0.85153471501E+03  0.85153471501E+03  0.25500000920E-02 0.  1.
    10030    2    1    2    0    0  0.00000000000E+00  0.00000000000E+00  0.17583748247E+04  0.34614442547E+04  0.29815623932E+04 0.  0.
        3    1    3    3  502    0  0.42249230144E+03  0.11784170276E+04 -0.60581283964E+02  0.12533301791E+04  0.10100000352E+00 0.  1.
       -3    1    3    3    0  502 -0.42249230144E+03 -0.11784170276E+04  0.18189561086E+04  0.22081140756E+04  0.10100000352E+00 0. -1.
</event>
<event>
 5   0  0.7638805E-07  0.3798908E+04  0.7818609E-02  0.8046389E-01
        2   -1    0    0  501    0  0.00000000000E+00  0.00000000000E+00  0.20847546776E+04  0.20847546776E+04  0.25500000920E-02 0.  1.
       -2   -1    0    0    0  501  0.00000000000E+00  0.00000000000E+00 -0.17306237641E+04  0.17306237641E+04  0.25500000920E-02 0. -1.
    10030    2    1    2    0    0  0.00000000000E+00  0.00000000000E+00  0.35413091346E+03  0.38153784417E+04  0.37989082576E+04 0.  0.
        5    1    3    3  502    0 -0.11997542809E+04  0.81798640152E+03  0.14068708208E+04  0.20218357213E+04  0.46999998093E+01 0.  1.
       -5    1    3    3    0  502  0.11997542809E+04 -0.81798640152E+03 -0.10527399073E+04  0.17935427204E+04  0.46999998093E+01 0. -1.
</event>
<event>
 5   0  0.7551495E-07  0.3786007E+04  0.7818609E-02  0.8049164E-01
        2   -1    0    0  501    0  0.00000000000E+00  0.00000000000E+00  0.18285948467E+04  0.18285948467E+04  0.25500000920E-02 0. -1.
       -2   -1    0    0    0  501  0.00000000000E+00  0.00000000000E+00 -0.19596805694E+04  0.19596805694E+04  0.25500000920E-02 0.  1.
    10030    2    1    2    0    0  0.00000000000E+00  0.00000000000E+00 -0.13108572267E+03  0.37882754160E+04  0.37860067566E+04 0.  0.
        1    1    3    3  502    0 -0.52348899505E+03  0.35358279949E+03  0.17200152409E+04  0.18323520276E+04  0.50400001928E-02 0. -1.
       -1    1    3    3    0  502  0.52348899505E+03 -0.35358279949E+03 -0.18511009636E+04  0.19559233884E+04  0.50400001928E-02 0.  1.
</event>
<event>
 5   0  0.2529875E-07  0.3813215E+04  0.7818609E-02  0.8043325E-01
       -1   -1    0    0    0  501  0.00000000000E+00  0.00000000000E+00  0.10363707670E+04  0.10363707670E+04  0.50400001928E-02 0.  1.
        1   -1    0    0  501    0  0.00000000000E+00  0.00000000000E+00 -0.35075796607E+04  0.35075796607E+04  0.50400001928E-02 0. -1.
    10030    2    1    2    0    0  0.00000000000E+00  0.00000000000E+00 -0.24712088937E+04  0.45439504277E+04  0.38132154532E+04 0.  0.
        4    1    3    3  502    0 -0.16514326513E+04 -0.20057907141E+03 -0.12560069253E+03  0.16683042026E+04  0.12699999809E+01 0. -1.
       -4    1    3    3    0  502  0.16514326513E+04  0.20057907141E+03 -0.23456082012E+04  0.28756462251E+04  0.12699999809E+01 0.  1.
</event>
<event>
 5   0  0.2529875E-07  0.2887294E+04  0.7818609E-02  0.8276668E-01
        1   -1    0    0  501    0  0.00000000000E+00  0.00000000000E+00  0.13132502717E+04  0.13132502717E+04  0.50400001928E-02 0. -1.
       -1   -1    0    0    0  501  0.00000000000E+00  0.00000000000E+00 -0.15869914419E+04  0.15869914419E+04  0.50400001928E-02 0.  1.
    10030    2    1    2    0    0  0.00000000000E+00  0.00000000000E+00 -0.27374117020E+03  0.29002417136E+04  0.28872941951E+04 0.  0.
        5    1    3    3  502    0 -0.11068357588E+04  0.14175111837E+02 -0.10677455050E+04  0.15379820819E+04  0.46999998093E+01 0.  1.
       -5    1    3    3    0  502  0.11068357588E+04 -0.14175111837E+02  0.79400433476E+03  0.13622596318E+04  0.46999998093E+01 0. -1.
</event>
<event>
 5   0  0.2529875E-07  0.3754307E+04  0.7818609E-02  0.8056032E-01
       -1   -1    0    0    0  501  0.00000000000E+00  0.00000000000E+00  0.29924268745E+04  0.29924268745E+04  0.50400001928E-02 0.  1.
        1   -1    0    0  501    0  0.00000000000E+00  0.00000000000E+00 -0.11775406984E+04  0.11775406984E+04  0.50400001928E-02 0. -1.
    10030    2    1    2    0    0  0.00000000000E+00  0.00000000000E+00  0.18148861761E+04  0.41699675730E+04  0.37543065575E+04 0.  0.
        3    1    3    3  502    0 -0.62220925344E+03 -0.60083175226E+03 -0.94301117512E+03  0.12796144873E+04  0.10100000352E+00 0. -1.
       -3    1    3    3    0  502  0.62220925344E+03  0.60083175226E+03  0.27578973512E+04  0.28903530856E+04  0.10100000352E+00 0.  1.
</event>
<event>
 5   0  0.8038352E-07  0.3773074E+04  0.7818609E-02  0.8051958E-01
        2   -1    0    0  501    0  0.00000000000E+00  0.00000000000E+00  0.21137322857E+04  0.21137322857E+04  0.25500000920E-02 0. -1.
       -2   -1    0    0    0  501  0.00000000000E+00  0.00000000000E+00 -0.16837615152E+04  0.16837615152E+04  0.25500000920E-02 0.  1.
    10030    2    1    2    0    0  0.00000000000E+00  0.00000000000E+00  0.42997077047E+03  0.37974938009E+04  0.37730735885E+04 0.  0.
        2    1    3    3  502    0 -0.12754907398E+04 -0.11522196794E+04  0.99753567529E+03  0.19873510612E+04  0.25500000920E-02 0.  1.
       -2    1    3    3    0  502  0.12754907398E+04  0.11522196794E+04 -0.56756490482E+03  0.18101427397E+04  0.25500000920E-02 0. -1.
</event>
<event>
 5   0  0.2529875E-07  0.3777198E+04  0.7818609E-02  0.8051066E-01
        1   -1    0    0  501    0  0.00000000000E+00  0.00000000000E+00  0.21128037847E+04  0.21128037847E+04  0.50400001928E-02 0.  1.
       -1   -1    0    0    0  501  0.00000000000E+00  0.00000000000E+00 -0.16881866373E+04  0.16881866373E+04  0.50400001928E-02 0. -1.
    10030    2    1    2    0    0  0.00000000000E+00  0.00000000000E+00  0.42461714735E+03  0.38009904220E+04  0.37771984944E+04 0.  0.
        3    1    3    3  502    0 -0.13729279625E+04  0.38873533937E+03 -0.10327237496E+04  0.17614098636E+04  0.10100000352E+00 0. -1.
       -3    1    3    3    0  502  0.13729279625E+04 -0.38873533937E+03  0.14573408970E+04  0.20395805584E+04  0.10100000352E+00 0.  1.
</event>
<event>
 5   0  0.2529875E-07  0.3715182E+04  0.7818609E-02  0.8064606E-01
        4   -1    0    0  501    0  0.00000000000E+00  0.00000000000E+00  0.15656192898E+04  0.15656198049E+04  0.12699999809E+01 0.  1.
       -4   -1    0    0    0  501  0.00000000000E+00  0.00000000000E+00 -0.22040115779E+04  0.22040119438E+04  0.12699999809E+01 0. -1.
    10030    2    1    2    0    0  0.00000000000E+00  0.00000000000E+00 -0.63839228814E+03  0.37696317487E+04  0.37151822038E+04 0.  0.
        5    1    3    3  502    0  0.14876080088E+04  0.63634861434E+03  0.60670477727E+03  0.17280132880E+04  0.46999998093E+01 0.  1.
       -5    1    3    3    0  502 -0.14876080088E+04 -0.63634861434E+03 -0.12450970654E+04  0.20416184607E+04  0.46999998093E+01 0. -1.
</event>
<event>
 5   0  0.2529875E-07  0.2840343E+04  0.7818609E-02  0.8290852E-01
        1   -1    0    0  501    0  0.00000000000E+00  0.00000000000E+00  0.12813390545E+04  0.12813390546E+04  0.50400001928E-02 0. -1.
       -1   -1    0    0    0  501  0.00000000000E+00  0.00000000000E+00 -0.15740461816E+04  0.15740461816E+04  0.50400001928E-02 0.  1.
    10030    2    1    2    0    0  0.00000000000E+00  0.00000000000E+00 -0.29270712704E+03  0.28553852361E+04  0.28403428287E+04 0.  0.
        4    1    3    3  502    0 -0.74578807092E+02 -0.13243795769E+04  0.36362187339E+03  0.13754147527E+04  0.12699999809E+01 0.  1.
       -4    1    3    3    0  502  0.74578807092E+02  0.13243795769E+04 -0.65632900043E+03  0.14799704835E+04  0.12699999809E+01 0. -1.
</event>
<event>
 5   0  0.7551495E-07  0.3814180E+04  0.7818609E-02  0.8043119E-01
       -2   -1    0    0    0  501  0.00000000000E+00  0.00000000000E+00  0.16517695213E+04  0.16517695213E+04  0.25500000920E-02 0. -1.
        2   -1    0    0  501    0  0.00000000000E+00  0.00000000000E+00 -0.22018762795E+04  0.22018762795E+04  0.25500000920E-02 0.  1.
    10030    2    1    2    0    0  0.00000000000E+00  0.00000000000E+00 -0.55010675811E+03  0.38536458008E+04  0.38141799266E+04 0.  0.
        1    1    3    3  502    0 -0.49957165067E+03 -0.10585231459E+04  0.12461647689E+04  0.17096694756E+04  0.50400001928E-02 0. -1.
       -1    1    3    3    0  502  0.49957165067E+03  0.10585231459E+04 -0.17962715270E+04  0.21439763252E+04  0.50400001928E-02 0.  1.
</event>
<event>
 5   0  0.8421677E-07  0.2744394E+04  0.7818609E-02  0.8320743E-01
        2   -1    0    0  501    0  0.00000000000E+00  0.00000000000E+00  0.17376428631E+04  0.17376428631E+04  0.25500000920E-02 0.  1.
       -2   -1    0    0    0  501  0.00000000000E+00  0.00000000000E+00 -0.10836084732E+04  0.10836084732E+04  0.25500000920E-02 0. -1.
    10030    2    1    2    0    0  0.00000000000E+00  0.00000000000E+00  0.65403438993E+03  0.28212513363E+04  0.27443939439E+04 0.  0.
        3    1    3    3  502    0 -0.83385362907E+03 -0.82984745204E+03 -0.39914015490E+03  0.12422848071E+04  0.10100000352E+00 0. -1.
       -3    1    3    3    0  502  0.83385362907E+03  0.82984745204E+03  0.10531745448E+04  0.15789665292E+04  0.10100000352E+00 0.  1.
</event>
<event>
 5   0  0.2907071E-07  0.3983143E+04  0.7818609E-02  0.8007956E-01
       -1   -1    0    0    0  501  0.00000000000E+00  0.00000000000E+00  0.15430147106E+04  0.15430147106E+04  0.50400001928E-02 0.  1.
        1   -1    0    0  501    0  0.00000000000E+00  0.00000000000E+00 -0.25705244160E+04  0.25705244160E+04  0.50400001928E-02 0. -1.
    10030    2    1    2    0    0  0.00000000000E+00  0.00000000000E+00 -0.10275097054E+04  0.41135391267E+04  0.39831429741E+04 0.  0.
        2    1    3    3  502    0 -0.26474389744E+03  0.15814630324E+04 -0.17336276854E+04  0.23614782671E+04  0.25500000920E-02 0. -1.
       -2    1    3    3    0  502  0.26474389744E+03 -0.15814630324E+04  0.70611798003E+03  0.17520608596E+04  0.25500000920E-02 0.  1.
</event>
<event>
 5   0  0.2529875E-07  0.2942550E+04  0.7818609E-02  0.8260329E-01
       -1   -1    0    0    0  501  0.00000000000E+00  0.00000000000E+00  0.14431561527E+04  0.14431561527E+04  0.50400001928E-02 0.  1.
        1   -1    0    0  501    0  0.00000000000E+00  0.00000000000E+00 -0.14999421516E+04  0.14999421516E+04  0.50400001928E-02 0. -1.
    10030    2    1    2    0    0  0.00000000000E+00  0.00000000000E+00 -0.56785998945E+02  0.29430983043E+04  0.29425504208E+04 0.  0.
        5    1    3    3  502    0  0.11450866215E+04 -0.36298848263E+03  0.82126187244E+03  0.14551553740E+04  0.46999998093E+01 0. -1.
       -5    1    3    3    0  502 -0.11450866215E+04  0.36298848263E+03 -0.87804787139E+03  0.14879429303E+04  0.46999998093E+01 0.  1.
</event>
<event>
 5   0  0.7638805E-07  0.2788074E+04  0.7818609E-02  0.8306981E-01
        2   -1    0    0  501    0  0.00000000000E+00  0.00000000000E+00  0.22350765023E+04  0.22350765023E+04  0.25500000920E-02 0.  1.
       -2   -1    0    0    0  501  0.00000000000E+00  0.00000000000E+00 -0.86947290952E+03  0.86947290952E+03  0.25500000920E-02 0. -1.
    10030    2    1    2    0    0  0.00000000000E+00  0.00000000000E+00  0.13656035928E+04  0.31045494118E+04  0.27880735065E+04 0.  0.
        5    1    3    3  502    0 -0.12423986791E+04 -0.62947988587E+03  0.61676606625E+03  0.15232274535E+04  0.46999998093E+01 0. -1.
       -5    1    3    3    0  502  0.12423986791E+04  0.62947988587E+03  0.74883752653E+03  0.15813219583E+04  0.46999998093E+01 0.  1.
</event>
<event>
 5   0  0.7551495E-07  0.3776129E+04  0.7818609E-02  0.8051297E-01
        2   -1    0    0  501    0  0.00000000000E+00  0.00000000000E+00  0.22314713234E+04  0.22314713234E+04  0.25500000920E-02 0. -1.
       -2   -1    0    0    0  501  0.00000000000E+00  0.00000000000E+00 -0.15975057903E+04  0.15975057903E+04  0.25500000920E-02 0.  1.
    10030    2    1    2    0    0  0.00000000000E+00  0.00000000000E+00  0.63396553312E+03  0.38289771137E+04  0.37761294257E+04 0.  0.
        1    1    3    3  502    0 -0.15684013621E+04 -0.46315039730E+03  0.12737973832E+04  0.20729088008E+04  0.50400001928E-02 0. -1.
       -1    1    3    3    0  502  0.15684013621E+04  0.46315039730E+03 -0.63983185007E+03  0.17560683129E+04  0.50400001928E-02 0.  1.
</event>
<event>
 5   0  0.2529875E-07  0.3808915E+04  0.7818609E-02  0.8044244E-01
        3   -1    0    0  501    0  0.00000000000E+00  0.00000000000E+00  0.24053667687E+04  0.24053667708E+04  0.10100000352E+00 0. -1.
       -3   -1    0    0    0  501  0.00000000000E+00  0.00000000000E+00 -0.15078607619E+04  0.15078607653E+04  0.10100000352E+00 0.  1.
    10030    2    1    2    0    0  0.00000000000E+00  0.00000000000E+00  0.89750600675E+03  0.39132275361E+04  0.38089149002E+04 0.  0.
        1    1    3    3  502    0  0.39834716222E+03  0.17386501330E+04 -0.23688674149E+03  0.17993610185E+04  0.50400001928E-02 0.  1.
       -1    1    3    3    0  502 -0.39834716222E+03 -0.17386501330E+04  0.11343927482E+04  0.21138665175E+04  0.50400001928E-02 0. -1.
</event>
<event>
 5   0  0.2529875E-07  0.3654399E+04  0.7818609E-02  0.8078143E-01
        1   -1    0    0  501    0  0.00000000000E+00  0.00000000000E+00  0.21929332138E+04  0.21929332138E+04  0.50400001928E-02 0. -1.
       -1   -1    0    0    0  501  0.00000000000E+00  0.00000000000E+00 -0.15224623590E+04  0.15224623590E+04  0.50400001928E-02 0.  1.
    10030    2    1    2    0    0  0.00000000000E+00  0.00000000000E+00  0.67047085479E+03  0.37153955729E+04  0.36543991429E+04 0.  0.
        4    1    3    3  502    0  0.60912526219E+02 -0.84040212096E+01  0.21918805642E+04  0.21927432553E+04  0.12699999809E+01 0. -1.
       -4    1    3    3    0  502 -0.60912526219E+02  0.84040212096E+01 -0.15214097094E+04  0.15226523175E+04  0.12699999809E+01 0.  1.
</event>
<event>
 5   0  0.7649458E-07  0.4015412E+04  0.7818609E-02  0.8001445E-01
       -2   -1    0    0    0  501  0.00000000000E+00  0.00000000000E+00  0.23853263052E+04  0.23853263052E+04  0.25500000920E-02 0. -1.
        2   -1    0    0  501    0  0.00000000000E+00  0.00000000000E+00 -0.16898663475E+04  0.16898663475E+04  0.25500000920E-02 0.  1.
    10030    2    1    2    0    0  0.00000000000E+00  0.00000000000E+00  0.69545995769E+03  0.40751926527E+04  0.40154116356E+04 0.  0.
        4    1    3    3  502    0 -0.11850991798E+04 -0.15816178190E+04 -0.10952202999E+02  0.19763847184E+04  0.12699999809E+01 0.  1.
       -4    1    3    3    0  502  0.11850991798E+04  0.15816178190E+04  0.70641216069E+03  0.20988079343E+04  0.12699999809E+01 0. -1.
</event>
<event>
 5   0  0.7551495E-07  0.3820433E+04  0.7818609E-02  0.8041784E-01
       -2   -1    0    0    0  501  0.00000000000E+00  0.00000000000E+00  0.16453219760E+04  0.16453219760E+04  0.25500000920E-02 0. -1.
        2   -1    0    0  501    0  0.00000000000E+00  0.00000000000E+00 -0.22177587337E+04  0.22177587337E+04  0.25500000920E-02 0.  1.
    10030    2    1    2    0    0  0.00000000000E+00  0.00000000000E+00 -0.57243675773E+03  0.38630807096E+04  0.38204330550E+04 0.  0.
        1    1    3    3  502    0 -0.18012625174E+04 -0.36601093389E+03  0.23960246610E+03  0.18536234791E+04  0.50400001928E-02 0. -1.
       -1    1    3    3    0  502  0.18012625174E+04  0.36601093389E+03 -0.81203922383E+03  0.20094572306E+04  0.50400001928E-02 0.  1.
</event>
<event>
 5   0  0.7638805E-07  0.2861504E+04  0.7818609E-02  0.8284424E-01
       -2   -1    0    0    0  501  0.00000000000E+00  0.00000000000E+00  0.11484335725E+04  0.11484335725E+04  0.25500000920E-02 0.  1.
        2   -1    0    0  501    0  0.00000000000E+00  0.00000000000E+00 -0.17824720323E+04  0.17824720323E+04  0.25500000920E-02 0. -1.
    10030    2    1    2    0    0  0.00000000000E+00  0.00000000000E+00 -0.63403845973E+03  0.29309056048E+04  0.28615036075E+04 0.  0.
        5    1    3    3  502    0  0.12124421830E+04  0.49691763225E+03  0.27144589096E+03  0.13381510161E+04  0.46999998093E+01 0.  1.
       -5    1    3    3    0  502 -0.12124421830E+04 -0.49691763225E+03 -0.90548435070E+03  0.15927545886E+04  0.46999998093E+01 0. -1.
</event>
<event>
 5   0  0.7638805E-07  0.2821895E+04  0.7818609E-02  0.8296503E-01
       -2   -1    0    0    0  501  0.00000000000E+00  0.00000000000E+00  0.97772053596E+03  0.97772053596E+03  0.25500000920E-02 0.  1.
        2   -1    0    0  501    0  0.00000000000E+00  0.00000000000E+00 -0.20361361828E+04  0.20361361828E+04  0.25500000920E-02 0. -1.
    10030    2    1    2    0    0  0.00000000000E+00  0.00000000000E+00 -0.10584156469E+04  0.30138567188E+04  0.28218945125E+04 0.  0.
        5    1    3    3  502    0 -0.81743522062E+03  0.36859523742E+03  0.63424819507E+03  0.10983422290E+04  0.46999998093E+01 0.  1.
       -5    1    3    3    0  502  0.81743522062E+03 -0.36859523742E+03 -0.16926638419E+04  0.19155144898E+04  0.46999998093E+01 0. -1.
</event>
<event>
 5   0  0.7638805E-07  0.2474599E+04  0.7818609E-02  0.8412091E-01
        2   -1    0    0  501    0  0.00000000000E+00  0.00000000000E+00  0.26842216926E+04  0.26842216926E+04  0.25500000920E-02 0.  1.
       -2   -1    0    0    0  501  0.00000000000E+00  0.00000000000E+00 -0.57033652411E+03  0.57033652412E+03  0.25500000920E-02 0. -1.
    10030    2    1    2    0    0  0.00000000000E+00  0.00000000000E+00  0.21138851685E+04  0.32545582167E+04  0.24745986908E+04 0.  0.
        5    1    3    3  502    0  0.47237010232E+03 -0.19643151706E+03 -0.42471192335E+03  0.66492192196E+03  0.46999998093E+01 0. -1.
       -5    1    3    3    0  502 -0.47237010232E+03  0.19643151706E+03  0.25385970918E+04  0.25896362947E+04  0.46999998093E+01 0.  1.
</event>
<event>
 5   0  0.2529875E-07  0.3851520E+04  0.7818609E-02  0.8035188E-01
        1   -1    0    0  501    0  0.00000000000E+00  0.00000000000E+00  0.28049121817E+04  0.28049121817E+04  0.50400001928E-02 0.  1.
       -1   -1    0    0    0  501  0.00000000000E+00  0.00000000000E+00 -0.13221629080E+04  0.13221629080E+04  0.50400001928E-02 0. -1.
    10030    2    1    2    0    0  0.00000000000E+00  0.00000000000E+00  0.14827492737E+04  0.41270750898E+04  0.38515196206E+04 0.  0.
        5    1    3    3  502    0 -0.39720841854E+02 -0.90126289300E+03 -0.10817243595E+04  0.14085461396E+04  0.46999998093E+01 0. -1.
       -5    1    3    3    0  502  0.39720841854E+02  0.90126289300E+03  0.25644736332E+04  0.27185289501E+04  0.46999998093E+01 0.  1.
</event>
<event>
 5   0  0.7551495E-07  0.3850272E+04  0.7818609E-02  0.8035452E-01
        2   -1    0    0  501    0  0.00000000000E+00  0.00000000000E+00  0.29822715631E+04  0.29822715631E+04  0.25500000920E-02 0. -1.
       -2   -1    0    0    0  501  0.00000000000E+00  0.00000000000E+00 -0.12427266842E+04  0.12427266842E+04  0.25500000920E-02 0.  1.
    10030    2    1    2    0    0  0.00000000000E+00  0.00000000000E+00  0.17395448788E+04  0.42249982473E+04  0.38502719130E+04 0.  0.
        1    1    3    3  502    0 -0.11962309926E+04  0.15075572242E+04  0.92409919803E+03  0.21348669045E+04  0.50400001928E-02 0. -1.
       -1    1    3    3    0  502  0.11962309926E+04 -0.15075572242E+04  0.81544568082E+03  0.20901313428E+04  0.50400001928E-02 0.  1.
</event>
<event>
 5   0  0.2907071E-07  0.3803966E+04  0.7818609E-02  0.8045304E-01
       -1   -1    0    0    0  501  0.00000000000E+00  0.00000000000E+00  0.18973870921E+04  0.18973870921E+04  0.50400001928E-02 0.  1.
        1   -1    0    0  501    0  0.00000000000E+00  0.00000000000E+00 -0.19065896306E+04  0.19065896306E+04  0.50400001928E-02 0. -1.
    10030    2    1    2    0    0  0.00000000000E+00  0.00000000000E+00 -0.92025385089E+01  0.38039767228E+04  0.38039655914E+04 0.  0.
        2    1    3    3  502    0 -0.68355156495E+03 -0.54165356909E+03  0.16856424837E+04  0.18978993424E+04  0.25500000920E-02 0.  1.
       -2    1    3    3    0  502  0.68355156495E+03  0.54165356909E+03 -0.16948450222E+04  0.19060773804E+04  0.25500000920E-02 0. -1.
</event>
<event>
 5   0  0.2529875E-07  0.3699514E+04  0.7818609E-02  0.8068070E-01
        1   -1    0    0  501    0  0.00000000000E+00  0.00000000000E+00  0.25733613169E+04  0.25733613169E+04  0.50400001928E-02 0. -1.
       -1   -1    0    0    0  501  0.00000000000E+00  0.00000000000E+00 -0.13296232331E+04  0.13296232331E+04  0.50400001928E-02 0.  1.
    10030    2    1    2    0    0  0.00000000000E+00  0.00000000000E+00  0.12437380838E+04  0.39029845500E+04  0.36995140189E+04 0.  0.
        4    1    3    3  502    0  0.75504898675E+03  0.13277055801E+04  0.17226627217E+04  0.23022748632E+04  0.12699999809E+01 0. -1.
       -4    1    3    3    0  502 -0.75504898675E+03 -0.13277055801E+04 -0.47892463796E+03  0.16007096868E+04  0.12699999809E+01 0.  1.
</event>
<event>
 5   0  0.2529875E-07  0.3650466E+04  0.7818609E-02  0.8079029E-01
        1   -1    0    0  501    0  0.00000000000E+00  0.00000000000E+00  0.18364774685E+04  0.18364774685E+04  0.50400001928E-02 0.  1.
       -1   -1    0    0    0  501  0.00000000000E+00  0.00000000000E+00 -0.18140574079E+04  0.18140574079E+04  0.50400001928E-02 0. -1.
    10030    2    1    2    0    0  0.00000000000E+00  0.00000000000E+00  0.22420060623E+02  0.36505348764E+04  0.36504660285E+04 0.  0.
        3    1    3    3  502    0  0.11937400031E+04 -0.13380281594E+04 -0.32959105058E+03  0.18231743803E+04  0.10100000352E+00 0.  1.
       -3    1    3    3    0  502 -0.11937400031E+04  0.13380281594E+04  0.35201111121E+03  0.18273604961E+04  0.10100000352E+00 0. -1.
</event>
<event>
 5   0  0.7551495E-07  0.3176688E+04  0.7818609E-02  0.8195001E-01
        2   -1    0    0  501    0  0.00000000000E+00  0.00000000000E+00  0.18810602277E+04  0.18810602277E+04  0.25500000920E-02 0.  1.
       -2   -1    0    0    0  501  0.00000000000E+00  0.00000000000E+00 -0.13411782795E+04  0.13411782795E+04  0.25500000920E-02 0. -1.
    10030    2    1    2    0    0  0.00000000000E+00  0.00000000000E+00  0.53988194817E+03  0.32222385072E+04  0.31766882880E+04 0.  0.
        1    1    3    3  502    0 -0.14451277183E+04  0.25119787908E+03  0.88805768072E+03  0.17146839187E+04  0.50400001928E-02 0.  1.
       -1    1    3    3    0  502  0.14451277183E+04 -0.25119787908E+03 -0.34817573255E+03  0.15075545885E+04  0.50400001928E-02 0. -1.
</event>
<event>
 5   0  0.2529875E-07  0.2351789E+04  0.7818609E-02  0.8457777E-01
        1   -1    0    0  501    0  0.00000000000E+00  0.00000000000E+00  0.99388786559E+03  0.99388786561E+03  0.50400001928E-02 0. -1.
       -1   -1    0    0    0  501  0.00000000000E+00  0.00000000000E+00 -0.13912311500E+04  0.13912311501E+04  0.50400001928E-02 0.  1.
    10030    2    1    2    0    0  0.00000000000E+00  0.00000000000E+00 -0.39734328445E+03  0.23851190157E+04  0.23517889006E+04 0.  0.
        4    1    3    3  502    0 -0.71604713716E+03 -0.74646912392E+03 -0.76587097548E+03  0.12870507448E+04  0.12699999809E+01 0.  1.
       -4    1    3    3    0  502  0.71604713716E+03  0.74646912392E+03  0.36852769103E+03  0.10980682709E+04  0.12699999809E+01 0. -1.
</event>
<event>
 5   0  0.2529875E-07  0.3716735E+04  0.7818609E-02  0.8064263E-01
        1   -1    0    0  501    0  0.00000000000E+00  0.00000000000E+00  0.22318213024E+04  0.22318213024E+04  0.50400001928E-02 0. -1.
       -1   -1    0    0    0  501  0.00000000000E+00  0.00000000000E+00 -0.15474043372E+04  0.15474043372E+04  0.50400001928E-02 0.  1.
    10030    2    1    2    0    0  0.00000000000E+00  0.00000000000E+00  0.68441696515E+03  0.37792256396E+04  0.37167351066E+04 0.  0.
        4    1    3    3  502    0 -0.12514442512E+04  0.78264137743E+03  0.14903019558E+04  0.20975323053E+04  0.12699999809E+01 0. -1.
       -4    1    3    3    0  502  0.12514442512E+04 -0.78264137743E+03 -0.80588499064E+03  0.16816933343E+04  0.12699999809E+01 0.  1.
</event>
<event>
 5   0  0.2529875E-07  0.2602834E+04  0.7818609E-02  0.8367239E-01
       -1   -1    0    0    0  501  0.00000000000E+00  0.00000000000E+00  0.11429403747E+04  0.11429403747E+04  0.50400001928E-02 0.  1.
        1   -1    0    0  501    0  0.00000000000E+00  0.00000000000E+00 -0.14818677048E+04  0.14818677048E+04  0.50400001928E-02 0. -1.
    10030    2    1    2    0    0  0.00000000000E+00  0.00000000000E+00 -0.33892733016E+03  0.26248080795E+04  0.26028341705E+04 0.  0.
        5    1    3    3  502    0 -0.68738559766E+03 -0.94879420462E+03  0.40184799127E+03  0.12386336426E+04  0.46999998093E+01 0.  1.
       -5    1    3    3    0  502  0.68738559766E+03  0.94879420462E+03 -0.74077532143E+03  0.13861744369E+04  0.46999998093E+01 0. -1.
</event>
<event>
 5   0  0.8038352E-07  0.2480723E+04  0.7818609E-02  0.8409885E-01
        2   -1    0    0  501    0  0.00000000000E+00  0.00000000000E+00  0.13888646556E+04  0.13888646556E+04  0.25500000920E-02 0. -1.
       -2   -1    0    0    0  501  0.00000000000E+00  0.00000000000E+00 -0.11077368561E+04  0.11077368561E+04  0.25500000920E-02 0.  1.
    10030    2    1    2    0    0  0.00000000000E+00  0.00000000000E+00  0.28112779951E+03  0.24966015117E+04  0.24807229326E+04 0.  0.
        2    1    3    3  502    0 -0.66313699455E+03 -0.19929200400E+03 -0.89511424139E+03  0.11316790541E+04  0.25500000920E-02 0.  1.
       -2    1    3    3    0  502  0.66313699455E+03  0.19929200400E+03  0.11762420409E+04  0.13649224576E+04  0.25500000920E-02 0. -1.
</event>
<event>
 5   0  0.7649458E-07  0.3784152E+04  0.7818609E-02  0.8049564E-01
       -2   -1    0    0    0  501  0.00000000000E+00  0.00000000000E+00  0.33771359365E+04  0.33771359365E+04  0.25500000920E-02 0.  1.
        2   -1    0    0  501    0  0.00000000000E+00  0.00000000000E+00 -0.10600553836E+04  0.10600553836E+04  0.25500000920E-02 0. -1.
    10030    2    1    2    0    0  0.00000000000E+00  0.00000000000E+00  0.23170805529E+04  0.44371913201E+04  0.37841517573E+04 0.  0.
        4    1    3    3  502    0 -0.11191054337E+04  0.91453466416E+03 -0.27333267117E+03  0.14708783042E+04  0.12699999809E+01 0. -1.
       -4    1    3    3    0  502  0.11191054337E+04 -0.91453466416E+03  0.25904132241E+04  0.29663130159E+04  0.12699999809E+01 0.  1.
</event>
<event>
 5   0  0.7638805E-07  0.3899345E+04  0.7818609E-02  0.8025165E-01
       -2   -1    0    0    0  501  0.00000000000E+00  0.00000000000E+00  0.14069101247E+04  0.14069101247E+04  0.25500000920E-02 0. -1.
        2   -1    0    0  501    0  0.00000000000E+00  0.00000000000E+00 -0.27018237914E+04  0.27018237914E+04  0.25500000920E-02 0.  1.
    10030    2    1    2    0    0  0.00000000000E+00  0.00000000000E+00 -0.12949136667E+04  0.41087339161E+04  0.38993452000E+04 0.  0.
        5    1    3    3  502    0 -0.41626178391E+03  0.61428750768E+03 -0.25472076436E+04  0.26530947749E+04  0.46999998093E+01 0.  1.
       -5    1    3    3    0  502  0.41626178391E+03 -0.61428750768E+03  0.12522939769E+04  0.14556391412E+04  0.46999998093E+01 0. -1.
</event>
<event>
 5   0  0.8421677E-07  0.3617794E+04  0.7818609E-02  0.8086428E-01
        2   -1    0    0  501    0  0.00000000000E+00  0.00000000000E+00  0.22258362215E+04  0.22258362215E+04  0.25500000920E-02 0.  1.
       -2   -1    0    0    0  501  0.00000000000E+00  0.00000000000E+00 -0.14700583135E+04  0.14700583135E+04  0.25500000920E-02 0. -1.
    10030    2    1    2    0    0  0.00000000000E+00  0.00000000000E+00  0.75577790796E+03  0.36958945350E+04  0.36177943789E+04 0.  0.
        3    1    3    3  502    0 -0.12415610314E+04 -0.80478568985E+03  0.14410056576E+04  0.20653452778E+04  0.10100000352E+00 0.  1.
       -3    1    3    3    0  502  0.12415610314E+04  0.80478568985E+03 -0.68522774962E+03  0.16305492572E+04  0.10100000352E+00 0. -1.
</event>
<event>
 5   0  0.7638805E-07  0.3748799E+04  0.7818609E-02  0.8057233E-01
        2   -1    0    0  501    0  0.00000000000E+00  0.00000000000E+00  0.20685404132E+04  0.20685404132E+04  0.25500000920E-02 0.  1.
       -2   -1    0    0    0  501  0.00000000000E+00  0.00000000000E+00 -0.16984793179E+04  0.16984793179E+04  0.25500000920E-02 0. -1.
    10030    2    1    2    0    0  0.00000000000E+00  0.00000000000E+00  0.37006109533E+03  0.37670197311E+04  0.37487987996E+04 0.  0.
        5    1    3    3  502    0  0.59496739355E+03 -0.13217283768E+04 -0.10091897569E+04  0.17661931256E+04  0.46999998093E+01 0. -1.
       -5    1    3    3    0  502 -0.59496739355E+03  0.13217283768E+04  0.13792508523E+04  0.20008266054E+04  0.46999998093E+01 0.  1.
</event>
<event>
 5   0  0.8847461E-07  0.2445412E+04  0.7818609E-02  0.8422695E-01
        2   -1    0    0  501    0  0.00000000000E+00  0.00000000000E+00  0.12280122300E+04  0.12280122300E+04  0.25500000920E-02 0.  1.
       -2   -1    0    0    0  501  0.00000000000E+00  0.00000000000E+00 -0.12174226171E+04  0.12174226172E+04  0.25500000920E-02 0. -1.
    10030    2    1    2    0    0  0.00000000000E+00  0.00000000000E+00  0.10589612819E+02  0.24454348471E+04  0.24454119186E+04 0.  0.
        2    1    3    3  502    0  0.16603732477E+02 -0.60442074099E+03  0.10680416840E+04  0.12273194999E+04  0.25500000920E-02 0.  1.
       -2    1    3    3    0  502 -0.16603732477E+02  0.60442074099E+03 -0.10574520712E+04  0.12181153472E+04  0.25500000920E-02 0. -1.
</event>
<event>
 5   0  0.2529875E-07  0.3561329E+04  0.7818609E-02  0.8099408E-01
        1   -1    0    0  501    0  0.00000000000E+00  0.00000000000E+00  0.15372873679E+04  0.15372873679E+04  0.50400001928E-02 0. -1.
       -1   -1    0    0    0  501  0.00000000000E+00  0.00000000000E+00 -0.20625722139E+04  0.20625722139E+04  0.50400001928E-02 0.  1.
    10030    2    1    2    0    0  0.00000000000E+00  0.00000000000E+00 -0.52528484603E+03  0.35998595818E+04  0.35613290833E+04 0.  0.
        1    1    3    3  502    0 -0.74110258548E+03  0.26226465100E+01  0.13739877857E+04  0.15611157406E+04  0.50400001928E-02 0. -1.
       -1    1    3    3    0  502  0.74110258548E+03 -0.26226465100E+01 -0.18992726317E+04  0.20387438412E+04  0.50400001928E-02 0.  1.
</event>
<event>
 5   0  0.2529875E-07  0.3634942E+04  0.7818609E-02  0.8082534E-01
       -1   -1    0    0    0  501  0.00000000000E+00  0.00000000000E+00  0.12601321055E+04  0.12601321055E+04  0.50400001928E-02 0. -1.
        1   -1    0    0  501    0  0.00000000000E+00  0.00000000000E+00 -0.26213133445E+04  0.26213133445E+04  0.50400001928E-02 0.  1.
    10030    2    1    2    0    0  0.00000000000E+00  0.00000000000E+00 -0.13611812391E+04  0.38814454500E+04  0.36349421475E+04 0.  0.
        4    1    3    3  502    0 -0.11946058623E+04  0.11707807806E+04 -0.14397076635E+04  0.22069369207E+04  0.12699999809E+01 0.  1.
       -4    1    3    3    0  502  0.11946058623E+04 -0.11707807806E+04  0.78526424423E+02  0.16745085293E+04  0.12699999809E+01 0. -1.
</event>
<event>
 5   0  0.7649458E-07  0.3697586E+04  0.7818609E-02  0.8068497E-01
       -2   -1    0    0    0  501  0.00000000000E+00  0.00000000000E+00  0.16346786594E+04  0.16346786594E+04  0.25500000920E-02 0. -1.
        2   -1    0    0  501    0  0.00000000000E+00  0.00000000000E+00 -0.20909525572E+04  0.20909525572E+04  0.25500000920E-02 0.  1.
    10030    2    1    2    0    0  0.00000000000E+00  0.00000000000E+00 -0.45627389783E+03  0.37256312166E+04  0.36975859818E+04 0.  0.
        4    1    3    3  502    0  0.76487700544E+03 -0.23171425965E+02 -0.19238934368E+04  0.20704930132E+04  0.12699999809E+01 0.  1.
       -4    1    3    3    0  502 -0.76487700544E+03  0.23171425965E+02  0.14676195390E+04  0.16551382035E+04  0.12699999809E+01 0. -1.
</event>
<event>
 5   0  0.7649458E-07  0.3817000E+04  0.7818609E-02  0.8042517E-01
        2   -1    0    0  501    0  0.00000000000E+00  0.00000000000E+00  0.24848648419E+04  0.24848648419E+04  0.25500000920E-02 0. -1.
       -2   -1    0    0    0  501  0.00000000000E+00  0.00000000000E+00 -0.14658228249E+04  0.14658228249E+04  0.25500000920E-02 0.  1.
    10030    2    1    2    0    0  0.00000000000E+00  0.00000000000E+00  0.10190420170E+04  0.39506876667E+04  0.38169996604E+04 0.  0.
        4    1    3    3  502    0 -0.42943759023E+03 -0.12619880652E+04  0.19231307035E+04  0.23399709050E+04  0.12699999809E+01 0. -1.
       -4    1    3    3    0  502  0.42943759023E+03  0.12619880652E+04 -0.90408868649E+03  0.16107167617E+04  0.12699999809E+01 0.  1.
</event>
<event>
 5   0  0.2907071E-07  0.3808756E+04  0.7818609E-02  0.8044278E-01
       -1   -1    0    0    0  501  0.00000000000E+00  0.00000000000E+00  0.24569714956E+04  0.24569714956E+04  0.50400001928E-02 0. -1.
        1   -1    0    0  501    0  0.00000000000E+00  0.00000000000E+00 -0.14760673576E+04  0.14760673576E+04  0.50400001928E-02 0.  1.
    10030    2    1    2    0    0  0.00000000000E+00  0.00000000000E+00  0.98090413805E+03  0.39330388532E+04  0.38087559246E+04 0.  0.
        2    1    3    3  502    0  0.14119356572E+04 -0.92978724667E+03 -0.41484709517E+03  0.17407368372E+04  0.25500000920E-02 0.  1.
       -2    1    3    3    0  502 -0.14119356572E+04  0.92978724667E+03  0.13957512332E+04  0.21923020160E+04  0.25500000920E-02 0. -1.
</event>
<event>
 5   0  0.2907071E-07  0.3899203E+04  0.7818609E-02  0.8025195E-01
       -1   -1    0    0    0  501  0.00000000000E+00  0.00000000000E+00  0.33251700279E+04  0.33251700279E+04  0.50400001928E-02 0. -1.
        1   -1    0    0  501    0  0.00000000000E+00  0.00000000000E+00 -0.11430831104E+04  0.11430831104E+04  0.50400001928E-02 0.  1.
    10030    2    1    2    0    0  0.00000000000E+00  0.00000000000E+00  0.21820869175E+04  0.44682531383E+04  0.38992028407E+04 0.  0.
        2    1    3    3  502    0  0.10702069577E+04 -0.13743825829E+04  0.87658303284E+02  0.17441199484E+04  0.25500000920E-02 0.  1.
       -2    1    3    3    0  502 -0.10702069577E+04  0.13743825829E+04  0.20944286142E+04  0.27241331899E+04  0.25500000920E-02 0. -1.
</event>
<event>
 5   0  0.8038352E-07  0.3657474E+04  0.7818609E-02  0.8077452E-01
       -2   -1    0    0    0  501  0.00000000000E+00  0.00000000000E+00  0.19992390407E+04  0.19992390407E+04  0.25500000920E-02 0.  1.
        2   -1    0    0  501    0  0.00000000000E+00  0.00000000000E+00 -0.16727764096E+04  0.16727764096E+04  0.25500000920E-02 0. -1.
    10030    2    1    2    0    0  0.00000000000E+00  0.00000000000E+00  0.32646263108E+03  0.36720154502E+04  0.36574744862E+04 0.  0.
        2    1    3    3  502    0  0.85774735199E+03 -0.12400541938E+04 -0.87568463441E+03  0.17436423092E+04  0.25500000920E-02 0. -1.
       -2    1    3    3    0  502 -0.85774735199E+03  0.12400541938E+04  0.12021472655E+04  0.19283731411E+04  0.25500000920E-02 0.  1.
</event>
<event>
 5   0  0.8421677E-07  0.3816647E+04  0.7818609E-02  0.8042592E-01
       -2   -1    0    0    0  501  0.00000000000E+00  0.00000000000E+00  0.16701249527E+04  0.16701249527E+04  0.25500000920E-02 0. -1.
        2   -1    0    0  501    0  0.00000000000E+00  0.00000000000E+00 -0.21804951438E+04  0.21804951438E+04  0.25500000920E-02 0.  1.
    10030    2    1    2    0    0  0.00000000000E+00  0.00000000000E+00 -0.51037019108E+03  0.38506200965E+04  0.38166474026E+04 0.  0.
        3    1    3    3  502    0  0.43947435694E+03  0.15239844312E+04 -0.13257776239E+04  0.20672088852E+04  0.10100000352E+00 0.  1.
       -3    1    3    3    0  502 -0.43947435694E+03 -0.15239844312E+04  0.81540743280E+03  0.17834112113E+04  0.10100000352E+00 0. -1.
</event>
<event>
 5   0  0.8038352E-07  0.3818021E+04  0.7818609E-02  0.8042299E-01
        2   -1    0    0  501    0  0.00000000000E+00  0.00000000000E+00  0.18942313336E+04  0.18942313336E+04  0.25500000920E-02 0. -1.
       -2   -1    0    0    0  501  0.00000000000E+00  0.00000000000E+00 -0.19239045396E+04  0.19239045396E+04  0.25500000920E-02 0.  1.
    10030    2    1    2    0    0  0.00000000000E+00  0.00000000000E+00 -0.29673205955E+02  0.38181358732E+04  0.38180205666E+04 0.  0.
        2    1    3    3  502    0 -0.38769612079E+03 -0.51674963214E+03 -0.18112710477E+04  0.19230291918E+04  0.25500000920E-02 0.  1.
       -2    1    3    3    0  502  0.38769612079E+03  0.51674963214E+03  0.17815978417E+04  0.18951066814E+04  0.25500000920E-02 0. -1.
</event>
<event>
 5   0  0.7551495E-07  0.3853595E+04  0.7818609E-02  0.8034750E-01
        2   -1    0    0  501    0  0.00000000000E+00  0.00000000000E+00  0.13415030646E+04  0.13415030646E+04  0.25500000920E-02 0.  1.
       -2   -1    0    0    0  501  0.00000000000E+00  0.00000000000E+00 -0.27674547859E+04  0.27674547859E+04  0.25500000920E-02 0. -1.
    10030    2    1    2    0    0  0.00000000000E+00  0.00000000000E+00 -0.14259517213E+04  0.41089578505E+04  0.38535952442E+04 0.  0.
        1    1    3    3  502    0 -0.50124138195E+03  0.48648761804E+03 -0.26276987752E+04  0.27189545746E+04  0.50400001928E-02 0. -1.
       -1    1    3    3    0  502  0.50124138195E+03 -0.48648761804E+03  0.12017470539E+04  0.13900032759E+04  0.50400001928E-02 0.  1.
</event>
<event>
 5   0  0.2529875E-07  0.4119784E+04  0.7818609E-02  0.7980809E-01
        1   -1    0    0  501    0  0.00000000000E+00  0.00000000000E+00  0.17998683587E+04  0.17998683587E+04  0.50400001928E-02 0. -1.
       -1   -1    0    0    0  501  0.00000000000E+00  0.00000000000E+00 -0.23574805263E+04  0.23574805263E+04  0.50400001928E-02 0.  1.
    10030    2    1    2    0    0  0.00000000000E+00  0.00000000000E+00 -0.55761216766E+03  0.41573488850E+04  0.41197837834E+04 0.  0.
        5    1    3    3  502    0 -0.17786189396E+04 -0.10374522963E+04 -0.22048711665E+03  0.20708523023E+04  0.46999998093E+01 0. -1.
       -5    1    3    3    0  502  0.17786189396E+04  0.10374522963E+04 -0.33712505101E+03  0.20864965827E+04  0.46999998093E+01 0.  1.
</event>
<event>
 5   0  0.7638805E-07  0.3719812E+04  0.7818609E-02  0.8063585E-01
       -2   -1    0    0    0  501  0.00000000000E+00  0.00000000000E+00  0.12506656119E+04  0.12506656119E+04  0.25500000920E-02 0.  1.
        2   -1    0    0  501    0  0.00000000000E+00  0.00000000000E+00 -0.27659276691E+04  0.27659276691E+04  0.25500000920E-02 0. -1.
    10030    2    1    2    0    0  0.00000000000E+00  0.00000000000E+00 -0.15152620572E+04  0.40165932810E+04  0.37198121569E+04 0.  0.
        5    1    3    3  502    0  0.16558990537E+04  0.82866086537E+03 -0.94635558581E+03  0.20794930850E+04  0.46999998093E+01 0. -1.
       -5    1    3    3    0  502 -0.16558990537E+04 -0.82866086537E+03 -0.56890647137E+03  0.19371001959E+04  0.46999998093E+01 0.  1.
</event>
<event>
 5   0  0.7649458E-07  0.3804110E+04  0.7818609E-02  0.8045273E-01
        2   -1    0    0  501    0  0.00000000000E+00  0.00000000000E+00  0.15234224188E+04  0.15234224188E+04  0.25500000920E-02 0.  1.
       -2   -1    0    0    0  501  0.00000000000E+00  0.00000000000E+00 -0.23747937633E+04  0.23747937633E+04  0.25500000920E-02 0. -1.
    10030    2    1    2    0    0  0.00000000000E+00  0.00000000000E+00 -0.85137134450E+03  0.38982161821E+04  0.38041104396E+04 0.  0.
        4    1    3    3  502    0  0.17929923385E+04 -0.63329994641E+03 -0.47061196387E+03  0.19589200039E+04  0.12699999809E+01 0. -1.
       -4    1    3    3    0  502 -0.17929923385E+04  0.63329994641E+03 -0.38075938064E+03  0.19392961783E+04  0.12699999809E+01 0.  1.
</event>
<event>
 5   0  0.8038352E-07  0.3899952E+04  0.7818609E-02  0.8025039E-01
        2   -1    0    0  501    0  0.00000000000E+00  0.00000000000E+00  0.25742244459E+04  0.25742244459E+04  0.25500000920E-02 0. -1.
       -2   -1    0    0    0  501  0.00000000000E+00  0.00000000000E+00 -0.14771078071E+04  0.14771078071E+04  0.25500000920E-02 0.  1.
    10030    2    1    2    0    0  0.00000000000E+00  0.00000000000E+00  0.10971166388E+04  0.40513322530E+04  0.38999523209E+04 0.  0.
        2    1    3    3  502    0  0.18528481297E+04  0.35994140795E+03  0.10572631781E+04  0.21634253943E+04  0.25500000920E-02 0.  1.
       -2    1    3    3    0  502 -0.18528481297E+04 -0.35994140795E+03  0.39853460714E+02  0.18879068587E+04  0.25500000920E-02 0. -1.
</event>
<event>
 5   0  0.2529875E-07  0.3755511E+04  0.7818609E-02  0.8055770E-01
       -1   -1    0    0    0  501  0.00000000000E+00  0.00000000000E+00  0.21810610879E+04  0.21810610879E+04  0.50400001928E-02 0. -1.
        1   -1    0    0  501    0  0.00000000000E+00  0.00000000000E+00 -0.16166284394E+04  0.16166284394E+04  0.50400001928E-02 0.  1.
    10030    2    1    2    0    0  0.00000000000E+00  0.00000000000E+00  0.56443264849E+03  0.37976895273E+04  0.37555108216E+04 0.  0.
        5    1    3    3  502    0 -0.17394895455E+04  0.72893110449E+02  0.99354107692E+03  0.20045656003E+04  0.46999998093E+01 0. -1.
       -5    1    3    3    0  502  0.17394895455E+04 -0.72893110449E+02 -0.42910842843E+03  0.17931239270E+04  0.46999998093E+01 0.  1.
</event>
<event>
 5   0  0.2529875E-07  0.3387995E+04  0.7818609E-02  0.8140859E-01
        1   -1    0    0  501    0  0.00000000000E+00  0.00000000000E+00  0.20884297459E+04  0.20884297459E+04  0.50400001928E-02 0.  1.
       -1   -1    0    0    0  501  0.00000000000E+00  0.00000000000E+00 -0.13740601494E+04  0.13740601494E+04  0.50400001928E-02 0. -1.
    10030    2    1    2    0    0  0.00000000000E+00  0.00000000000E+00  0.71436959647E+03  0.34624898953E+04  0.33879953298E+04 0.  0.
        5    1    3    3  502    0 -0.88795265835E+03  0.95531010696E+03  0.14619383302E+04  0.19591740850E+04  0.46999998093E+01 0. -1.
       -5    1    3    3    0  502  0.88795265835E+03 -0.95531010696E+03 -0.74756873372E+03  0.15033158103E+04  0.46999998093E+01 0.  1.
</event>
<event>
 5   0  0.7551495E-07  0.2674496E+04  0.7818609E-02  0.8343328E-01
       -2   -1    0    0    0  501  0.00000000000E+00  0.00000000000E+00  0.11559443570E+04  0.11559443570E+04  0.25500000920E-02 0.  1.
        2   -1    0    0  501    0  0.00000000000E+00  0.00000000000E+00 -0.15469875702E+04  0.15469875702E+04  0.25500000920E-02 0. -1.
    10030    2    1    2    0    0  0.00000000000E+00  0.00000000000E+00 -0.39104321313E+03  0.27029319272E+04  0.26744955054E+04 0.  0.
        1    1    3    3  502    0  0.94098542557E+03 -0.81975691870E+03  0.28997824095E+03  0.12812268953E+04  0.50400001928E-02 0.  1.
       -1    1    3    3    0  502 -0.94098542557E+03  0.81975691870E+03 -0.68102145408E+03  0.14217050319E+04  0.50400001928E-02 0. -1.
</event>
<event>
 5   0  0.7638805E-07  0.3252645E+04  0.7818609E-02  0.8175050E-01
       -2   -1    0    0    0  501  0.00000000000E+00  0.00000000000E+00  0.13798557755E+04  0.13798557755E+04  0.25500000920E-02 0. -1.
        2   -1    0    0  501    0  0.00000000000E+00  0.00000000000E+00 -0.19168131261E+04  0.19168131261E+04  0.25500000920E-02 0.  1.
    10030    2    1    2    0    0  0.00000000000E+00  0.00000000000E+00 -0.53695735057E+03  0.32966689016E+04  0.32526454849E+04 0.  0.
        5    1    3    3  502    0 -0.10811859593E+03 -0.12363829080E+04  0.79673189497E+03  0.14748342715E+04  0.46999998093E+01 0. -1.
       -5    1    3    3    0  502  0.10811859593E+03  0.12363829080E+04 -0.13336892455E+04  0.18218346301E+04  0.46999998093E+01 0.  1.
</event>
<event>
 5   0  0.7638805E-07  0.3745246E+04  0.7818609E-02  0.8058008E-01
       -2   -1    0    0    0  501  0.00000000000E+00  0.00000000000E+00  0.16679065661E+04  0.16679065661E+04  0.25500000920E-02 0.  1.
        2   -1    0    0  501    0  0.00000000000E+00  0.00000000000E+00 -0.21024661898E+04  0.21024661898E+04  0.25500000920E-02 0. -1.
    10030    2    1    2    0    0  0.00000000000E+00  0.00000000000E+00 -0.43455962373E+03  0.37703727558E+04  0.37452461403E+04 0.  0.
        5    1    3    3  502    0  0.13238113108E+04  0.57589551315E+03  0.98343449284E+03  0.17467963591E+04  0.46999998093E+01 0.  1.
       -5    1    3    3    0  502 -0.13238113108E+04 -0.57589551315E+03 -0.14179941166E+04  0.20235763967E+04  0.46999998093E+01 0. -1.
</event>
<event>
 5   0  0.2529875E-07  0.3783396E+04  0.7818609E-02  0.8049728E-01
       -1   -1    0    0    0  501  0.00000000000E+00  0.00000000000E+00  0.12455374544E+04  0.12455374544E+04  0.50400001928E-02 0. -1.
        1   -1    0    0  501    0  0.00000000000E+00  0.00000000000E+00 -0.28730736237E+04  0.28730736237E+04  0.50400001928E-02 0.  1.
    10030    2    1    2    0    0  0.00000000000E+00  0.00000000000E+00 -0.16275361693E+04  0.41186110782E+04  0.37833957275E+04 0.  0.
        4    1    3    3  502    0  0.16709462563E+04  0.36264842861E+03 -0.16947582733E+04  0.24074431441E+04  0.12699999809E+01 0.  1.
       -4    1    3    3    0  502 -0.16709462563E+04 -0.36264842861E+03  0.67222103975E+02  0.17111679340E+04  0.12699999809E+01 0. -1.
</event>
<event>
 5   0  0.2529875E-07  0.3739898E+04  0.7818609E-02  0.8059177E-01
       -1   -1    0    0    0  501  0.00000000000E+00  0.00000000000E+00  0.14549582752E+04  0.14549582753E+04  0.50400001928E-02 0. -1.
        1   -1    0    0  501    0  0.00000000000E+00  0.00000000000E+00 -0.24033057070E+04  0.24033057070E+04  0.50400001928E-02 0.  1.
    10030    2    1    2    0    0  0.00000000000E+00  0.00000000000E+00 -0.94834743177E+03  0.38582639823E+04  0.37398981411E+04 0.  0.
        4    1    3    3  502    0  0.14889620658E+04  0.64881904928E+03 -0.14301814889E+04  0.21641152687E+04  0.12699999809E+01 0.  1.
       -4    1    3    3    0  502 -0.14889620658E+04 -0.64881904928E+03  0.48183405715E+03  0.16941487136E+04  0.12699999809E+01 0. -1.
</event>
<event>
 5   0  0.2907071E-07  0.3787507E+04  0.7818609E-02  0.8048841E-01
        1   -1    0    0  501    0  0.00000000000E+00  0.00000000000E+00  0.15369976427E+04  0.15369976427E+04  0.50400001928E-02 0.  1.
       -1   -1    0    0    0  501  0.00000000000E+00  0.00000000000E+00 -0.23333165642E+04  0.23333165642E+04  0.50400001928E-02 0. -1.
    10030    2    1    2    0    0  0.00000000000E+00  0.00000000000E+00 -0.79631892156E+03  0.38703142069E+04  0.37875068627E+04 0.  0.
        2    1    3    3  502    0  0.36090129109E+03  0.16102027572E+04  0.55129363440E+03  0.17398066940E+04  0.25500000920E-02 0.  1.
       -2    1    3    3    0  502 -0.36090129109E+03 -0.16102027572E+04 -0.13476125560E+04  0.21305075128E+04  0.25500000920E-02 0. -1.
</event>
<event>
 5   0  0.7551495E-07  0.3837512E+04  0.7818609E-02  0.8038152E-01
        2   -1    0    0  501    0  0.00000000000E+00  0.00000000000E+00  0.24643100257E+04  0.24643100257E+04  0.25500000920E-02 0. -1.
       -2   -1    0    0    0  501  0.00000000000E+00  0.00000000000E+00 -0.14939779241E+04  0.14939779241E+04  0.25500000920E-02 0.  1.
    10030    2    1    2    0    0  0.00000000000E+00  0.00000000000E+00  0.97033210157E+03  0.39582879498E+04  0.38375120985E+04 0.  0.
        1    1    3    3  502    0 -0.38101797247E+03 -0.68696695566E+03 -0.13205078298E+04  0.15365022688E+04  0.50400001928E-02 0.  1.
       -1    1    3    3    0  502  0.38101797247E+03  0.68696695566E+03  0.22908399314E+04  0.24217856810E+04  0.50400001928E-02 0. -1.
</event>
<event>
 5   0  0.7638805E-07  0.3776574E+04  0.7818609E-02  0.8051201E-01
       -2   -1    0    0    0  501  0.00000000000E+00  0.00000000000E+00  0.20912897061E+04  0.20912897061E+04  0.25500000920E-02 0.  1.
        2   -1    0    0  501    0  0.00000000000E+00  0.00000000000E+00 -0.17049901249E+04  0.17049901249E+04  0.25500000920E-02 0. -1.
    10030    2    1    2    0    0  0.00000000000E+00  0.00000000000E+00  0.38629958120E+03  0.37962798310E+04  0.37765742663E+04 0.  0.
        5    1    3    3  502    0 -0.84654443583E+03 -0.14256974155E+04 -0.71508864656E+03  0.18057199298E+04  0.46999998093E+01 0.  1.
       -5    1    3    3    0  502  0.84654443583E+03  0.14256974155E+04  0.11013882278E+04  0.19905599013E+04  0.46999998093E+01 0. -1.
</event>
<event>
 5   0  0.8421677E-07  0.3772421E+04  0.7818609E-02  0.8052099E-01
        2   -1    0    0  501    0  0.00000000000E+00  0.00000000000E+00  0.13645552230E+04  0.13645552230E+04  0.25500000920E-02 0. -1.
       -2   -1    0    0    0  501  0.00000000000E+00  0.00000000000E+00 -0.26072896873E+04  0.26072896873E+04  0.25500000920E-02 0.  1.
    10030    2    1    2    0    0  0.00000000000E+00  0.00000000000E+00 -0.12427344643E+04  0.39718449102E+04  0.37724213765E+04 0.  0.
        3    1    3    3  502    0 -0.99575343235E+03  0.14725555307E+04  0.42726859534E+02  0.17781367450E+04  0.10100000352E+00 0. -1.
       -3    1    3    3    0  502  0.99575343235E+03 -0.14725555307E+04 -0.12854613238E+04  0.21937081653E+04  0.10100000352E+00 0.  1.
</event>
<event>
 5   0  0.2529875E-07  0.3809544E+04  0.7818609E-02  0.8044110E-01
        1   -1    0    0  501    0  0.00000000000E+00  0.00000000000E+00  0.12657131571E+04  0.12657131572E+04  0.50400001928E-02 0. -1.
       -1   -1    0    0    0  501  0.00000000000E+00  0.00000000000E+00 -0.28664923094E+04  0.28664923094E+04  0.50400001928E-02 0.  1.
    10030    2    1    2    0    0  0.00000000000E+00  0.00000000000E+00 -0.16007791522E+04  0.41322054665E+04  0.38095443459E+04 0.  0.
        1    1    3    3  502    0  0.10782623605E+04  0.12876331714E+03  0.89705976743E+03  0.14085261575E+04  0.50400001928E-02 0. -1.
       -1    1    3    3    0  502 -0.10782623605E+04 -0.12876331714E+03 -0.24978389197E+04  0.27236793090E+04  0.50400001928E-02 0.  1.
</event>
<event>
 5   0  0.7551495E-07  0.2521099E+04  0.7818609E-02  0.8395507E-01
        2   -1    0    0  501    0  0.00000000000E+00  0.00000000000E+00  0.63916102307E+03  0.63916102307E+03  0.25500000920E-02 0.  1.
       -2   -1    0    0    0  501  0.00000000000E+00  0.00000000000E+00 -0.24860479066E+04  0.24860479066E+04  0.25500000920E-02 0. -1.
    10030    2    1    2    0    0  0.00000000000E+00  0.00000000000E+00 -0.18468868835E+04  0.31252089296E+04  0.25210989059E+04 0.  0.
        1    1    3    3  502    0 -0.11442068852E+03 -0.19092809351E+03 -0.24614934495E+04  0.24715370992E+04  0.50400001928E-02 0. -1.
       -1    1    3    3    0  502  0.11442068852E+03  0.19092809351E+03  0.61460656602E+03  0.65367183040E+03  0.50400001928E-02 0.  1.
</event>
<event>
 5   0  0.2529875E-07  0.3838760E+04  0.7818609E-02  0.8037888E-01
        1   -1    0    0  501    0  0.00000000000E+00  0.00000000000E+00  0.21073302352E+04  0.21073302352E+04  0.50400001928E-02 0. -1.
       -1   -1    0    0    0  501  0.00000000000E+00  0.00000000000E+00 -0.17481924011E+04  0.17481924011E+04  0.50400001928E-02 0.  1.
    10030    2    1    2    0    0  0.00000000000E+00  0.00000000000E+00  0.35913783404E+03  0.38555226363E+04  0.38387595412E+04 0.  0.
        4    1    3    3  502    0  0.71845658873E+03  0.16860056190E+03  0.19591445117E+04  0.20935268926E+04  0.12699999809E+01 0. -1.
       -4    1    3    3    0  502 -0.71845658873E+03 -0.16860056190E+03 -0.16000066777E+04  0.17619957437E+04  0.12699999809E+01 0.  1.
</event>
<event>
 5   0  0.8421677E-07  0.2492873E+04  0.7818609E-02  0.8405529E-01
        2   -1    0    0  501    0  0.00000000000E+00  0.00000000000E+00  0.15010519981E+04  0.15010519981E+04  0.25500000920E-02 0. -1.
       -2   -1    0    0    0  501  0.00000000000E+00  0.00000000000E+00 -0.10350099862E+04  0.10350099862E+04  0.25500000920E-02 0.  1.
    10030    2    1    2    0    0  0.00000000000E+00  0.00000000000E+00  0.46604201193E+03  0.25360619843E+04  0.24928728871E+04 0.  0.
        3    1    3    3  502    0  0.83825186479E+02 -0.51123536240E+03  0.13863354042E+04  0.14799709865E+04  0.10100000352E+00 0. -1.
       -3    1    3    3    0  502 -0.83825186479E+02  0.51123536240E+03 -0.92029339227E+03  0.10560909978E+04  0.10100000352E+00 0.  1.
</event>
<event>
 5   0  0.7649458E-07  0.3829064E+04  0.7818609E-02  0.8039946E-01
        2   -1    0    0  501    0  0.00000000000E+00  0.00000000000E+00  0.20805217450E+04  0.20805217450E+04  0.25500000920E-02 0.  1.
       -2   -1    0    0    0  501  0.00000000000E+00  0.00000000000E+00 -0.17617855691E+04  0.17617855691E+04  0.25500000920E-02 0. -1.
    10030    2    1    2    0    0  0.00000000000E+00  0.00000000000E+00  0.31873617596E+03  0.38423073141E+04  0.38290642129E+04 0.  0.
        4    1    3    3  502    0 -0.65573161741E+02 -0.18677031608E+04 -0.25778188817E+03  0.18865492443E+04  0.12699999809E+01 0.  1.
       -4    1    3    3    0  502  0.65573161741E+02  0.18677031608E+04  0.57651806413E+03  0.19557580698E+04  0.12699999809E+01 0. -1.
</event>
<event>
 5   0  0.2529875E-07  0.3821751E+04  0.7818609E-02  0.8041503E-01
        1   -1    0    0  501    0  0.00000000000E+00  0.00000000000E+00  0.14085132098E+04  0.14085132098E+04  0.50400001928E-02 0.  1.
       -1   -1    0    0    0  501  0.00000000000E+00  0.00000000000E+00 -0.25924116469E+04  0.25924116469E+04  0.50400001928E-02 0. -1.
    10030    2    1    2    0    0  0.00000000000E+00  0.00000000000E+00 -0.11838984371E+04  0.40009248567E+04  0.38217514570E+04 0.  0.
        1    1    3    3  502    0  0.11779146215E+04 -0.14451738713E+03 -0.21598556264E+04  0.24644156422E+04  0.50400001928E-02 0. -1.
       -1    1    3    3    0  502 -0.11779146215E+04  0.14451738713E+03  0.97595718934E+03  0.15365092144E+04  0.50400001928E-02 0.  1.
</event>
<event>
 5   0  0.7551495E-07  0.4015315E+04  0.7818609E-02  0.8001464E-01
       -2   -1    0    0    0  501  0.00000000000E+00  0.00000000000E+00  0.15038857407E+04  0.15038857407E+04  0.25500000920E-02 0.  1.
        2   -1    0    0  501    0  0.00000000000E+00  0.00000000000E+00 -0.26801825366E+04  0.26801825366E+04  0.25500000920E-02 0. -1.
    10030    2    1    2    0    0  0.00000000000E+00  0.00000000000E+00 -0.11762967960E+04  0.41840682773E+04  0.40153148316E+04 0.  0.
        1    1    3    3  502    0 -0.15924476330E+04  0.88928986352E+03  0.28613832561E+03  0.18462397100E+04  0.50400001928E-02 0.  1.
       -1    1    3    3    0  502  0.15924476330E+04 -0.88928986352E+03 -0.14624351216E+04  0.23378285673E+04  0.50400001928E-02 0. -1.
</event>
<event>
 5   0  0.2529875E-07  0.3786580E+04  0.7818609E-02  0.8049041E-01
        1   -1    0    0  501    0  0.00000000000E+00  0.00000000000E+00  0.15430216305E+04  0.15430216305E+04  0.50400001928E-02 0. -1.
       -1   -1    0    0    0  501  0.00000000000E+00  0.00000000000E+00 -0.23230698119E+04  0.23230698119E+04  0.50400001928E-02 0.  1.
    10030    2    1    2    0    0  0.00000000000E+00  0.00000000000E+00 -0.78004818133E+03  0.38660914424E+04  0.37865799709E+04 0.  0.
        5    1    3    3  502    0 -0.13573699395E+04 -0.86360472610E+03 -0.14091105496E+04  0.21386633458E+04  0.46999998093E+01 0.  1.
       -5    1    3    3    0  502  0.13573699395E+04  0.86360472610E+03  0.62906236827E+03  0.17274280966E+04  0.46999998093E+01 0. -1.
</event>
<event>
 5   0  0.2529875E-07  0.3673077E+04  0.7818609E-02  0.8073955E-01
        1   -1    0    0  501    0  0.00000000000E+00  0.00000000000E+00  0.17231117855E+04  0.17231117855E+04  0.50400001928E-02 0.  1.
       -1   -1    0    0    0  501  0.00000000000E+00  0.00000000000E+00 -0.19574316641E+04  0.19574316641E+04  0.50400001928E-02 0. -1.
    10030    2    1    2    0    0  0.00000000000E+00  0.00000000000E+00 -0.23431987864E+03  0.36805434496E+04  0.36730769497E+04 0.  0.
        5    1    3    3  502    0 -0.15107328072E+04 -0.47660062806E+03 -0.10482364181E+04  0.18995482231E+04  0.46999998093E+01 0. -1.
       -5    1    3    3    0  502  0.15107328072E+04  0.47660062806E+03  0.81391653949E+03  0.17809952265E+04  0.46999998093E+01 0.  1.
</event>
<event>
 5   0  0.2529875E-07  0.3775196E+04  0.7818609E-02  0.8051499E-01
        1   -1    0    0  501    0  0.00000000000E+00  0.00000000000E+00  0.26417583244E+04  0.26417583244E+04  0.50400001928E-02 0.  1.
       -1   -1    0    0    0  501  0.00000000000E+00  0.00000000000E+00 -0.13487330900E+04  0.13487330900E+04  0.50400001928E-02 0. -1.
    10030    2    1    2    0    0  0.00000000000E+00  0.00000000000E+00  0.12930252345E+04  0.39904914144E+04  0.37751963487E+04 0.  0.
        1    1    3    3  502    0  0.13077622676E+04 -0.13319005120E+04  0.34974201415E+03  0.18990841474E+04  0.50400001928E-02 0.  1.
       -1    1    3    3    0  502 -0.13077622676E+04  0.13319005120E+04  0.94328322033E+03  0.20914072670E+04  0.50400001928E-02 0. -1.
</event>
<event>
 5   0  0.2529875E-07  0.2620969E+04  0.7818609E-02  0.8361113E-01
       -1   -1    0    0    0  501  0.00000000000E+00  0.00000000000E+00  0.92165769538E+03  0.92165769539E+03  0.50400001928E-02 0. -1.
        1   -1    0    0  501    0  0.00000000000E+00  0.00000000000E+00 -0.18633480654E+04  0.18633480654E+04  0.50400001928E-02 0.  1.
    10030    2    1    2    0    0  0.00000000000E+00  0.00000000000E+00 -0.94169037001E+03  0.27850057608E+04  0.26209685871E+04 0.  0.
        3    1    3    3  502    0 -0.13400743050E+03 -0.12033985628E+04 -0.10034575577E+04  0.15725944082E+04  0.10100000352E+00 0.  1.
       -3    1    3    3    0  502  0.13400743050E+03  0.12033985628E+04  0.61767187690E+02  0.12124113526E+04  0.10100000352E+00 0. -1.
</event>
<event>
 5   0  0.2529875E-07  0.3552460E+04  0.7818609E-02  0.8101469E-01
       -1   -1    0    0    0  501  0.00000000000E+00  0.00000000000E+00  0.23826815505E+04  0.23826815505E+04  0.50400001928E-02 0.  1.
        1   -1    0    0  501    0  0.00000000000E+00  0.00000000000E+00 -0.13241355912E+04  0.13241355912E+04  0.50400001928E-02 0. -1.
    10030    2    1    2    0    0  0.00000000000E+00  0.00000000000E+00  0.10585459592E+04  0.37068171417E+04  0.35524602424E+04 0.  0.
        3    1    3    3  502    0  0.15674398662E+04  0.80150385740E+03  0.77557435379E+03  0.19237442023E+04  0.10100000352E+00 0.  1.
       -3    1    3    3    0  502 -0.15674398662E+04 -0.80150385740E+03  0.28297160544E+03  0.17830729394E+04  0.10100000352E+00 0. -1.
</event>
<event>
 5   0  0.2529875E-07  0.3130172E+04  0.7818609E-02  0.8207506E-01
        1   -1    0    0  501    0  0.00000000000E+00  0.00000000000E+00  0.22588602756E+04  0.22588602756E+04  0.50400001928E-02 0.  1.
       -1   -1    0    0    0  501  0.00000000000E+00  0.00000000000E+00 -0.10843936910E+04  0.10843936910E+04  0.50400001928E-02 0. -1.
    10030    2    1    2    0    0  0.00000000000E+00  0.00000000000E+00  0.11744665846E+04  0.33432539666E+04  0.31301717728E+04 0.  0.
        4    1    3    3  502    0  0.10074592873E+04 -0.11876224149E+04  0.42152345504E+03  0.16134140361E+04  0.12699999809E+01 0. -1.
       -4    1    3    3    0  502 -0.10074592873E+04  0.11876224149E+04  0.75294312953E+03  0.17298399305E+04  0.12699999809E+01 0.  1.
</event>
<event>
 5   0  0.2529875E-07  0.3792797E+04  0.7818609E-02  0.8047702E-01
        1   -1    0    0  501    0  0.00000000000E+00  0.00000000000E+00  0.19609172285E+04  0.19609172285E+04  0.50400001928E-02 0.  1.
       -1   -1    0    0    0  501  0.00000000000E+00  0.00000000000E+00 -0.18340023787E+04  0.18340023787E+04  0.50400001928E-02 0. -1.
    10030    2    1    2    0    0  0.00000000000E+00  0.00000000000E+00  0.12691484983E+03  0.37949196072E+04  0.37927967842E+04 0.  0.
        3    1    3    3  502    0 -0.39254406856E+03 -0.18327865921E+04 -0.22502549352E+03  0.18878119665E+04  0.10100000352E+00 0. -1.
       -3    1    3    3    0  502  0.39254406856E+03  0.18327865921E+04  0.35194034335E+03  0.19071076407E+04  0.10100000352E+00 0.  1.
</event>
<event>
 5   0  0.2529875E-07  0.3835198E+04  0.7818609E-02  0.8038644E-01
        1   -1    0    0  501    0  0.00000000000E+00  0.00000000000E+00  0.20680839732E+04  0.20680839732E+04  0.50400001928E-02 0. -1.
       -1   -1    0    0    0  501  0.00000000000E+00  0.00000000000E+00 -0.17780636920E+04  0.17780636920E+04  0.50400001928E-02 0.  1.
    10030    2    1    2    0    0  0.00000000000E+00  0.00000000000E+00  0.29002028114E+03  0.38461476652E+04  0.38351975307E+04 0.  0.
        1    1    3    3  502    0  0.12777076623E+03 -0.13405570306E+04 -0.12240860691E+04  0.18198365931E+04  0.50400001928E-02 0.  1.
       -1    1    3    3    0  502 -0.12777076623E+03  0.13405570306E+04  0.15141063503E+04  0.20263110721E+04  0.50400001928E-02 0. -1.
</event>
<event>
 5   0  0.2529875E-07  0.3788814E+04  0.7818609E-02  0.8048560E-01
       -1   -1    0    0    0  501  0.00000000000E+00  0.00000000000E+00  0.16860982815E+04  0.16860982815E+04  0.50400001928E-02 0.  1.
        1   -1    0    0  501    0  0.00000000000E+00  0.00000000000E+00 -0.21284508235E+04  0.21284508235E+04  0.50400001928E-02 0. -1.
    10030    2    1    2    0    0  0.00000000000E+00  0.00000000000E+00 -0.44235254199E+03  0.38145491050E+04  0.37888136801E+04 0.  0.
        5    1    3    3  502    0  0.12814146674E+04  0.19122184683E+03 -0.16126515607E+04  0.20686363844E+04  0.46999998093E+01 0.  1.
       -5    1    3    3    0  502 -0.12814146674E+04 -0.19122184683E+03  0.11702990187E+04  0.17459127206E+04  0.46999998093E+01 0. -1.
</event>
<event>
 5   0  0.8421677E-07  0.3948903E+04  0.7818609E-02  0.8014935E-01
       -2   -1    0    0    0  501  0.00000000000E+00  0.00000000000E+00  0.18583249000E+04  0.18583249000E+04  0.25500000920E-02 0.  1.
        2   -1    0    0  501    0  0.00000000000E+00  0.00000000000E+00 -0.20978343365E+04  0.20978343365E+04  0.25500000920E-02 0. -1.
    10030    2    1    2    0    0  0.00000000000E+00  0.00000000000E+00 -0.23950943650E+03  0.39561592366E+04  0.39489025229E+04 0.  0.
        3    1    3    3  502    0  0.49369674382E+03 -0.13709683803E+04  0.12150476178E+04  0.18972694850E+04  0.10100000352E+00 0.  1.
       -3    1    3    3    0  502 -0.49369674382E+03  0.13709683803E+04 -0.14545570543E+04  0.20588897516E+04  0.10100000352E+00 0. -1.
</event>
<event>
 5   0  0.8038352E-07  0.3823837E+04  0.7818609E-02  0.8041059E-01
        2   -1    0    0  501    0  0.00000000000E+00  0.00000000000E+00  0.18175367423E+04  0.18175367423E+04  0.25500000920E-02 0. -1.
       -2   -1    0    0    0  501  0.00000000000E+00  0.00000000000E+00 -0.20112018335E+04  0.20112018335E+04  0.25500000920E-02 0.  1.
    10030    2    1    2    0    0  0.00000000000E+00  0.00000000000E+00 -0.19366509125E+03  0.38287385758E+04  0.38238374591E+04 0.  0.
        2    1    3    3  502    0  0.36588930977E+03  0.18518009889E+04 -0.40118157526E+03  0.19297638575E+04  0.25500000920E-02 0.  1.
       -2    1    3    3    0  502 -0.36588930977E+03 -0.18518009889E+04  0.20751648401E+03  0.18989747183E+04  0.25500000920E-02 0. -1.
</event>
<event>
 5   0  0.2529875E-07  0.3862791E+04  0.7818609E-02  0.8032813E-01
       -1   -1    0    0    0  501  0.00000000000E+00  0.00000000000E+00  0.20983595935E+04  0.20983595935E+04  0.50400001928E-02 0. -1.
        1   -1    0    0  501    0  0.00000000000E+00  0.00000000000E+00 -0.17777163178E+04  0.17777163178E+04  0.50400001928E-02 0.  1.
    10030    2    1    2    0    0  0.00000000000E+00  0.00000000000E+00  0.32064327562E+03  0.38760759113E+04  0.38627907476E+04 0.  0.
        5    1    3    3  502    0  0.21626218398E+03 -0.14703345456E+04  0.13981008802E+04  0.20404316135E+04  0.46999998093E+01 0. -1.
       -5    1    3    3    0  502 -0.21626218398E+03  0.14703345456E+04 -0.10774576046E+04  0.18356442978E+04  0.46999998093E+01 0.  1.
</event>
<event>
 5   0  0.7551495E-07  0.2605494E+04  0.7818609E-02  0.8366338E-01
       -2   -1    0    0    0  501  0.00000000000E+00  0.00000000000E+00  0.15076130293E+04  0.15076130293E+04  0.25500000920E-02 0. -1.
        2   -1    0    0  501    0  0.00000000000E+00  0.00000000000E+00 -0.11257193705E+04  0.11257193705E+04  0.25500000920E-02 0.  1.
    10030    2    1    2    0    0  0.00000000000E+00  0.00000000000E+00  0.38189365881E+03  0.26333323998E+04  0.26054935734E+04 0.  0.
        1    1    3    3  502    0  0.32342595948E+03  0.35733038834E+03  0.14141925682E+04  0.14940649175E+04  0.50400001928E-02 0. -1.
       -1    1    3    3    0  502 -0.32342595948E+03 -0.35733038834E+03 -0.10322989094E+04  0.11392674823E+04  0.50400001928E-02 0.  1.
</event>
<event>
 5   0  0.7551495E-07  0.2632218E+04  0.7818609E-02  0.8357339E-01
       -2   -1    0    0    0  501  0.00000000000E+00  0.00000000000E+00  0.87013801413E+03  0.87013801414E+03  0.25500000920E-02 0.  1.
        2   -1    0    0  501    0  0.00000000000E+00  0.00000000000E+00 -0.19906538045E+04  0.19906538045E+04  0.25500000920E-02 0. -1.
    10030    2    1    2    0    0  0.00000000000E+00  0.00000000000E+00 -0.11205157903E+04  0.28607918186E+04  0.26322184926E+04 0.  0.
        1    1    3    3  502    0 -0.63541427294E+03 -0.77947746370E+03 -0.14829862304E+04  0.17918104181E+04  0.50400001928E-02 0. -1.
       -1    1    3    3    0  502  0.63541427294E+03  0.77947746370E+03  0.36247044011E+03  0.10689814005E+04  0.50400001928E-02 0.  1.
</event>
<event>
 5   0  0.7649458E-07  0.3775178E+04  0.7818609E-02  0.8051503E-01
        2   -1    0    0  501    0  0.00000000000E+00  0.00000000000E+00  0.16145969808E+04  0.16145969808E+04  0.25500000920E-02 0.  1.
       -2   -1    0    0    0  501  0.00000000000E+00  0.00000000000E+00 -0.22067375644E+04  0.22067375644E+04  0.25500000920E-02 0. -1.
    10030    2    1    2    0    0  0.00000000000E+00  0.00000000000E+00 -0.59214058354E+03  0.38213345452E+04  0.37751777754E+04 0.  0.
        4    1    3    3  502    0  0.65906414559E+03  0.11472032567E+04  0.10666997288E+04  0.16994972152E+04  0.12699999809E+01 0.  1.
       -4    1    3    3    0  502 -0.65906414559E+03 -0.11472032567E+04 -0.16588403123E+04  0.21218373300E+04  0.12699999809E+01 0. -1.
</event>
<event>
 5   0  0.8038352E-07  0.3108690E+04  0.7818609E-02  0.8213357E-01
       -2   -1    0    0    0  501  0.00000000000E+00  0.00000000000E+00  0.14255326681E+04  0.14255326681E+04  0.25500000920E-02 0.  1.
        2   -1    0    0  501    0  0.00000000000E+00  0.00000000000E+00 -0.16947969237E+04  0.16947969237E+04  0.25500000920E-02 0. -1.
    10030    2    1    2    0    0  0.00000000000E+00  0.00000000000E+00 -0.26926425557E+03  0.31203295918E+04  0.31086900009E+04 0.  0.
        2    1    3    3  502    0 -0.14314735805E+04  0.19687753307E+03  0.44032233932E+03  0.15105499453E+04  0.25500000920E-02 0.  1.
       -2    1    3    3    0  502  0.14314735805E+04 -0.19687753307E+03 -0.70958659489E+03  0.16097796465E+04  0.25500000920E-02 0. -1.
</event>
<event>
 5   0  0.2529875E-07  0.3877244E+04  0.7818609E-02  0.8029779E-01
        1   -1    0    0  501    0  0.00000000000E+00  0.00000000000E+00  0.23230309212E+04  0.23230309212E+04  0.50400001928E-02 0. -1.
       -1   -1    0    0    0  501  0.00000000000E+00  0.00000000000E+00 -0.16178238335E+04  0.16178238335E+04  0.50400001928E-02 0.  1.
    10030    2    1    2    0    0  0.00000000000E+00  0.00000000000E+00  0.70520708773E+03  0.39408547547E+04  0.38772437583E+04 0.  0.
        5    1    3    3  502    0  0.10809090843E+04 -0.97972908470E+03  0.16502638345E+04  0.22026407654E+04  0.46999998093E+01 0. -1.
       -5    1    3    3    0  502 -0.10809090843E+04  0.97972908470E+03 -0.94505674678E+03  0.17382139893E+04  0.46999998093E+01 0.  1.
</event>
<event>
 5   0  0.8038352E-07  0.3699208E+04  0.7818609E-02  0.8068137E-01
       -2   -1    0    0    0  501  0.00000000000E+00  0.00000000000E+00  0.20674202922E+04  0.20674202922E+04  0.25500000920E-02 0. -1.
        2   -1    0    0  501    0  0.00000000000E+00  0.00000000000E+00 -0.16547364903E+04  0.16547364903E+04  0.25500000920E-02 0.  1.
    10030    2    1    2    0    0  0.00000000000E+00  0.00000000000E+00  0.41268380188E+03  0.37221567824E+04  0.36992084549E+04 0.  0.
        2    1    3    3  502    0  0.59488455229E+03  0.36776145764E+03  0.19292432463E+04  0.20521002957E+04  0.25500000920E-02 0. -1.
       -2    1    3    3    0  502 -0.59488455229E+03 -0.36776145764E+03 -0.15165594444E+04  0.16700564867E+04  0.25500000920E-02 0.  1.
</event>
<event>
 5   0  0.2529875E-07  0.3826554E+04  0.7818609E-02  0.8040480E-01
        1   -1    0    0  501    0  0.00000000000E+00  0.00000000000E+00  0.14955071812E+04  0.14955071812E+04  0.50400001928E-02 0. -1.
       -1   -1    0    0    0  501  0.00000000000E+00  0.00000000000E+00 -0.24477507725E+04  0.24477507725E+04  0.50400001928E-02 0.  1.
    10030    2    1    2    0    0  0.00000000000E+00  0.00000000000E+00 -0.95224359130E+03  0.39432579536E+04  0.38265539891E+04 0.  0.
        5    1    3    3  502    0  0.93290881417E+03  0.15006043878E+04  0.28006635310E+03  0.17890197418E+04  0.46999998093E+01 0. -1.
       -5    1    3    3    0  502 -0.93290881417E+03 -0.15006043878E+04 -0.12323099444E+04  0.21542382119E+04  0.46999998093E+01 0.  1.
</event>
<event>
 5   0  0.2529875E-07  0.3932777E+04  0.7818609E-02  0.8018247E-01
       -1   -1    0    0    0  501  0.00000000000E+00  0.00000000000E+00  0.17981471641E+04  0.17981471641E+04  0.50400001928E-02 0. -1.
        1   -1    0    0  501    0  0.00000000000E+00  0.00000000000E+00 -0.21503706813E+04  0.21503706813E+04  0.50400001928E-02 0.  1.
    10030    2    1    2    0    0  0.00000000000E+00  0.00000000000E+00 -0.35222351715E+03  0.39485178454E+04  0.39327765980E+04 0.  0.
        4    1    3    3  502    0 -0.15832232535E+04  0.11636604089E+04 -0.25375116719E+03  0.19811846672E+04  0.12699999809E+01 0.  1.
       -4    1    3    3    0  502  0.15832232535E+04 -0.11636604089E+04 -0.98472349952E+02  0.19673331782E+04  0.12699999809E+01 0. -1.
</event>
<event>
 5   0  0.2907071E-07  0.2681742E+04  0.7818609E-02  0.8340953E-01
        1   -1    0    0  501    0  0.00000000000E+00  0.00000000000E+00  0.24185251199E+04  0.24185251199E+04  0.50400001928E-02 0.  1.
       -1   -1    0    0    0  501  0.00000000000E+00  0.00000000000E+00 -0.74340156995E+03  0.74340156997E+03  0.50400001928E-02 0. -1.
    10030    2    1    2    0    0  0.00000000000E+00  0.00000000000E+00  0.16751235500E+04  0.31619266899E+04  0.26817422480E+04 0.  0.
        2    1    3    3  502    0 -0.78105467416E+03 -0.10645993717E+04  0.56226487917E+03  0.14351167272E+04  0.25500000920E-02 0.  1.
       -2    1    3    3    0  502  0.78105467416E+03  0.10645993717E+04  0.11128586708E+04  0.17268099627E+04  0.25500000920E-02 0. -1.
</event>
<event>
 5   0  0.2529875E-07  0.3825259E+04  0.7818609E-02  0.8040756E-01
        1   -1    0    0  501    0  0.00000000000E+00  0.00000000000E+00  0.17358814828E+04  0.17358814828E+04  0.50400001928E-02 0. -1.
       -1   -1    0    0    0  501  0.00000000000E+00  0.00000000000E+00 -0.21073740087E+04  0.21073740087E+04  0.50400001928E-02 0.  1.
    10030    2    1    2    0    0  0.00000000000E+00  0.00000000000E+00 -0.37149252589E+03  0.38432554915E+04  0.38252589554E+04 0.  0.
        4    1    3    3  502    0  0.56818637105E+03  0.17300544064E+04 -0.77349926492E+03  0.19784404785E+04  0.12699999809E+01 0.  1.
       -4    1    3    3    0  502 -0.56818637105E+03 -0.17300544064E+04  0.40200673903E+03  0.18648150129E+04  0.12699999809E+01 0. -1.
</event>
<event>
 5   0  0.7551495E-07  0.3278172E+04  0.7818609E-02  0.8168472E-01
       -2   -1    0    0    0  501  0.00000000000E+00  0.00000000000E+00  0.13210926783E+04  0.13210926783E+04  0.25500000920E-02 0. -1.
        2   -1    0    0  501    0  0.00000000000E+00  0.00000000000E+00 -0.20336223445E+04  0.20336223445E+04  0.25500000920E-02 0.  1.
    10030    2    1    2    0    0  0.00000000000E+00  0.00000000000E+00 -0.71252966618E+03  0.33547150228E+04  0.32781724114E+04 0.  0.
        1    1    3    3  502    0  0.77234959791E+03 -0.11383189727E+03  0.11186089099E+04  0.13640995182E+04  0.50400001928E-02 0. -1.
       -1    1    3    3    0  502 -0.77234959791E+03  0.11383189727E+03 -0.18311385761E+04  0.19906155046E+04  0.50400001928E-02 0.  1.
</event>
<event>
 5   0  0.7649458E-07  0.3798709E+04  0.7818609E-02  0.8046432E-01
       -2   -1    0    0    0  501  0.00000000000E+00  0.00000000000E+00  0.32370515126E+04  0.32370515126E+04  0.25500000920E-02 0.  1.
        2   -1    0    0  501    0  0.00000000000E+00  0.00000000000E+00 -0.11144545369E+04  0.11144545369E+04  0.25500000920E-02 0. -1.
    10030    2    1    2    0    0  0.00000000000E+00  0.00000000000E+00  0.21225969756E+04  0.43515060495E+04  0.37987085934E+04 0.  0.
        4    1    3    3  502    0  0.11539334643E+03  0.12658010054E+04 -0.55546244829E+03  0.13871221842E+04  0.12699999809E+01 0. -1.
       -4    1    3    3    0  502 -0.11539334643E+03 -0.12658010054E+04  0.26780594239E+04  0.29643838653E+04  0.12699999809E+01 0.  1.
</event>
<event>
 5   0  0.2529875E-07  0.3806508E+04  0.7818609E-02  0.8044760E-01
        1   -1    0    0  501    0  0.00000000000E+00  0.00000000000E+00  0.13707328276E+04  0.13707328276E+04  0.50400001928E-02 0. -1.
       -1   -1    0    0    0  501  0.00000000000E+00  0.00000000000E+00 -0.26426558233E+04  0.26426558233E+04  0.50400001928E-02 0.  1.
    10030    2    1    2    0    0  0.00000000000E+00  0.00000000000E+00 -0.12719229957E+04  0.40133886509E+04  0.38065076325E+04 0.  0.
        3    1    3    3  502    0 -0.49675205513E+03 -0.75619587172E+03  0.11294928898E+04  0.14471865805E+04  0.10100000352E+00 0. -1.
       -3    1    3    3    0  502  0.49675205513E+03  0.75619587172E+03 -0.24014158855E+04  0.25662020704E+04  0.10100000352E+00 0.  1.
</event>
<event>
 5   0  0.8421677E-07  0.2923595E+04  0.7818609E-02  0.8265892E-01
        2   -1    0    0  501    0  0.00000000000E+00  0.00000000000E+00  0.22293096790E+04  0.22293096790E+04  0.25500000920E-02 0.  1.
       -2   -1    0    0    0  501  0.00000000000E+00  0.00000000000E+00 -0.95852635929E+03  0.95852635929E+03  0.25500000920E-02 0. -1.
    10030    2    1    2    0    0  0.00000000000E+00  0.00000000000E+00  0.12707833197E+04  0.31878360383E+04  0.29235951090E+04 0.  0.
        3    1    3    3  502    0 -0.62705336299E+03  0.11864680740E+04  0.33934349972E+01  0.13419813472E+04  0.10100000352E+00 0. -1.
       -3    1    3    3    0  502  0.62705336299E+03 -0.11864680740E+04  0.12673898847E+04  0.18458546911E+04  0.10100000352E+00 0.  1.
</event>
<event>
 5   0  0.2529875E-07  0.3784286E+04  0.7818609E-02  0.8049536E-01
       -1   -1    0    0    0  501  0.00000000000E+00  0.00000000000E+00  0.15127847022E+04  0.15127847022E+04  0.50400001928E-02 0. -1.
        1   -1    0    0  501    0  0.00000000000E+00  0.00000000000E+00 -0.23666321237E+04  0.23666321237E+04  0.50400001928E-02 0.  1.
    10030    2    1    2    0    0  0.00000000000E+00  0.00000000000E+00 -0.85384742147E+03  0.38794168259E+04  0.37842858626E+04 0.  0.
        3    1    3    3  502    0 -0.11221825485E+04  0.34263050651E+03  0.10948166774E+04  0.16047781477E+04  0.10100000352E+00 0. -1.
       -3    1    3    3    0  502  0.11221825485E+04 -0.34263050651E+03 -0.19486640989E+04  0.22746386782E+04  0.10100000352E+00 0.  1.
</event>
<event>
 5   0  0.2907071E-07  0.3669253E+04  0.7818609E-02  0.8074810E-01
       -1   -1    0    0    0  501  0.00000000000E+00  0.00000000000E+00  0.15779522213E+04  0.15779522213E+04  0.50400001928E-02 0.  1.
        1   -1    0    0  501    0  0.00000000000E+00  0.00000000000E+00 -0.21330516977E+04  0.21330516977E+04  0.50400001928E-02 0. -1.
    10030    2    1    2    0    0  0.00000000000E+00  0.00000000000E+00 -0.55509947637E+03  0.37110039191E+04  0.36692526022E+04 0.  0.
        2    1    3    3  502    0  0.10199422629E+04 -0.81213207110E+03  0.10278784547E+04  0.16602333686E+04  0.25500000920E-02 0.  1.
       -2    1    3    3    0  502 -0.10199422629E+04  0.81213207110E+03 -0.15829779311E+04  0.20507705505E+04  0.25500000920E-02 0. -1.
</event>
<event>
 5   0  0.8038352E-07  0.3342222E+04  0.7818609E-02  0.8152234E-01
       -2   -1    0    0    0  501  0.00000000000E+00  0.00000000000E+00  0.12734443132E+04  0.12734443132E+04  0.25500000920E-02 0. -1.
        2   -1    0    0  501    0  0.00000000000E+00  0.00000000000E+00 -0.21929600037E+04  0.21929600037E+04  0.25500000920E-02 0.  1.
    10030    2    1    2    0    0  0.00000000000E+00  0.00000000000E+00 -0.91951569053E+03  0.34664043170E+04  0.33422222822E+04 0.  0.
        2    1    3    3  502    0  0.61004446532E+03  0.15479350835E+04 -0.62161783190E+03  0.17761379455E+04  0.25500000920E-02 0. -1.
       -2    1    3    3    0  502 -0.61004446532E+03 -0.15479350835E+04 -0.29789785863E+03  0.16902663715E+04  0.25500000920E-02 0.  1.
</event>
<event>
 5   0  0.2529875E-07  0.3523508E+04  0.7818609E-02  0.8108241E-01
       -3   -1    0    0    0  501  0.00000000000E+00  0.00000000000E+00  0.12563184827E+04  0.12563184868E+04  0.10100000352E+00 0.  1.
        3   -1    0    0  501    0  0.00000000000E+00  0.00000000000E+00 -0.24705339085E+04  0.24705339106E+04  0.10100000352E+00 0. -1.
    10030    2    1    2    0    0  0.00000000000E+00  0.00000000000E+00 -0.12142154258E+04  0.37268523974E+04  0.35235081512E+04 0.  0.
        4    1    3    3  502    0  0.19675733277E+03 -0.86208804754E+03 -0.22188126663E+04  0.23885226628E+04  0.12699999809E+01 0. -1.
       -4    1    3    3    0  502 -0.19675733277E+03  0.86208804754E+03  0.10045972406E+04  0.13383297345E+04  0.12699999809E+01 0.  1.
</event>
<event>
 5   0  0.2529875E-07  0.3327447E+04  0.7818609E-02  0.8155946E-01
        1   -1    0    0  501    0  0.00000000000E+00  0.00000000000E+00  0.25646363708E+04  0.25646363708E+04  0.50400001928E-02 0.  1.
       -1   -1    0    0    0  501  0.00000000000E+00  0.00000000000E+00 -0.10792859218E+04  0.10792859218E+04  0.50400001928E-02 0. -1.
    10030    2    1    2    0    0  0.00000000000E+00  0.00000000000E+00  0.14853504489E+04  0.36439222926E+04  0.33274470271E+04 0.  0.
        1    1    3    3  502    0 -0.18331197907E+03  0.16523450279E+04  0.81304028795E+03  0.18506436401E+04  0.50400001928E-02 0.  1.
       -1    1    3    3    0  502  0.18331197907E+03 -0.16523450279E+04  0.67231016097E+03  0.17932786525E+04  0.50400001928E-02 0. -1.
</event>
<event>
 5   0  0.7649458E-07  0.3764998E+04  0.7818609E-02  0.8053708E-01
        2   -1    0    0  501    0  0.00000000000E+00  0.00000000000E+00  0.22750310003E+04  0.22750310003E+04  0.25500000920E-02 0.  1.
       -2   -1    0    0    0  501  0.00000000000E+00  0.00000000000E+00 -0.15576937432E+04  0.15576937432E+04  0.25500000920E-02 0. -1.
    10030    2    1    2    0    0  0.00000000000E+00  0.00000000000E+00  0.71733725715E+03  0.38327247435E+04  0.37649975058E+04 0.  0.
        4    1    3    3  502    0 -0.14910739915E+04 -0.96244973698E+03 -0.28047001475E+03  0.17967404338E+04  0.12699999809E+01 0. -1.
       -4    1    3    3    0  502  0.14910739915E+04  0.96244973698E+03  0.99780727190E+03  0.20359843097E+04  0.12699999809E+01 0.  1.
</event>
<event>
 5   0  0.2529875E-07  0.3549970E+04  0.7818609E-02  0.8102049E-01
       -1   -1    0    0    0  501  0.00000000000E+00  0.00000000000E+00  0.19556949923E+04  0.19556949923E+04  0.50400001928E-02 0.  1.
        1   -1    0    0  501    0  0.00000000000E+00  0.00000000000E+00 -0.16109725432E+04  0.16109725432E+04  0.50400001928E-02 0. -1.
    10030    2    1    2    0    0  0.00000000000E+00  0.00000000000E+00  0.34472244915E+03  0.35666675355E+04  0.35499695410E+04 0.  0.
        1    1    3    3  502    0  0.53790643035E+03  0.14304964626E+04 -0.73460717056E+03  0.16956742471E+04  0.50400001928E-02 0. -1.
       -1    1    3    3    0  502 -0.53790643035E+03 -0.14304964626E+04  0.10793296197E+04  0.18709932884E+04  0.50400001928E-02 0.  1.
</event>
<event>
 5   0  0.7649458E-07  0.3788142E+04  0.7818609E-02  0.8048704E-01
        2   -1    0    0  501    0  0.00000000000E+00  0.00000000000E+00  0.30101536857E+04  0.30101536857E+04  0.25500000920E-02 0. -1.
       -2   -1    0    0    0  501  0.00000000000E+00  0.00000000000E+00 -0.11918010654E+04  0.11918010654E+04  0.25500000920E-02 0.  1.
    10030    2    1    2    0    0  0.00000000000E+00  0.00000000000E+00  0.18183526203E+04  0.42019547511E+04  0.37881416919E+04 0.  0.
        4    1    3    3  502    0  0.62977097370E+03  0.33401129888E+03  0.28556705048E+04  0.29433026810E+04  0.12699999809E+01 0. -1.
       -4    1    3    3    0  502 -0.62977097370E+03 -0.33401129888E+03 -0.10373178845E+04  0.12586520701E+04  0.12699999809E+01 0.  1.
</event>
<event>
 5   0  0.7638805E-07  0.3778785E+04  0.7818609E-02  0.8050723E-01
        2   -1    0    0  501    0  0.00000000000E+00  0.00000000000E+00  0.13331381885E+04  0.13331381885E+04  0.25500000920E-02 0. -1.
       -2   -1    0    0    0  501  0.00000000000E+00  0.00000000000E+00 -0.26777455484E+04  0.26777455484E+04  0.25500000920E-02 0.  1.
    10030    2    1    2    0    0  0.00000000000E+00  0.00000000000E+00 -0.13446073599E+04  0.40108837370E+04  0.37787854397E+04 0.  0.
        5    1    3    3  502    0  0.11961948346E+04  0.14042973242E+04 -0.23874233121E+03  0.18600949029E+04  0.46999998093E+01 0. -1.
       -5    1    3    3    0  502 -0.11961948346E+04 -0.14042973242E+04 -0.11058650287E+04  0.21507888341E+04  0.46999998093E+01 0.  1.
</event>
<event>
 5   0  0.2529875E-07  0.3829143E+04  0.7818609E-02  0.8039930E-01
        1   -1    0    0  501    0  0.00000000000E+00  0.00000000000E+00  0.27989395602E+04  0.27989395602E+04  0.50400001928E-02 0.  1.
       -1   -1    0    0    0  501  0.00000000000E+00  0.00000000000E+00 -0.13096329005E+04  0.13096329006E+04  0.50400001928E-02 0. -1.
    10030    2    1    2    0    0  0.00000000000E+00  0.00000000000E+00  0.14893066596E+04  0.41085724607E+04  0.38291426375E+04 0.  0.
        4    1    3    3  502    0  0.21481766494E+03  0.17298197300E+03 -0.12882050820E+04  0.13174002195E+04  0.12699999809E+01 0. -1.
       -4    1    3    3    0  502 -0.21481766494E+03 -0.17298197300E+03  0.27775117416E+04  0.27911722412E+04  0.12699999809E+01 0.  1.
</event>
<event>
 5   0  0.7638805E-07  0.2680318E+04  0.7818609E-02  0.8341420E-01
        2   -1    0    0  501    0  0.00000000000E+00  0.00000000000E+00  0.10721921085E+04  0.10721921085E+04  0.25500000920E-02 0. -1.
       -2   -1    0    0    0  501  0.00000000000E+00  0.00000000000E+00 -0.16750969534E+04  0.16750969534E+04  0.25500000920E-02 0.  1.
    10030    2    1    2    0    0  0.00000000000E+00  0.00000000000E+00 -0.60290484492E+03  0.27472890619E+04  0.26803176934E+04 0.  0.
        5    1    3    3  502    0 -0.10123198381E+04  0.82891278656E+03 -0.59872635415E+03  0.14388826219E+04  0.46999998093E+01 0. -1.
       -5    1    3    3    0  502  0.10123198381E+04 -0.82891278656E+03 -0.41784907645E+01  0.13084064400E+04  0.46999998093E+01 0.  1.
</event>
<event>
 5   0  0.2907071E-07  0.3814943E+04  0.7818609E-02  0.8042956E-01
        1   -1    0    0  501    0  0.00000000000E+00  0.00000000000E+00  0.16514043038E+04  0.16514043038E+04  0.50400001928E-02 0.  1.
       -1   -1    0    0    0  501  0.00000000000E+00  0.00000000000E+00 -0.22032444724E+04  0.22032444724E+04  0.50400001928E-02 0. -1.
    10030    2    1    2    0    0  0.00000000000E+00  0.00000000000E+00 -0.55184016863E+03  0.38546487762E+04  0.38149429374E+04 0.  0.
        2    1    3    3  502    0  0.57332355628E+03 -0.17297719746E+04 -0.84537836457E+03  0.20088493134E+04  0.25500000920E-02 0.  1.
       -2    1    3    3    0  502 -0.57332355628E+03  0.17297719746E+04  0.29353819594E+03  0.18457994628E+04  0.25500000920E-02 0. -1.
</event>
<event>
 5   0  0.8038352E-07  0.3894066E+04  0.7818609E-02  0.8026265E-01
        2   -1    0    0  501    0  0.00000000000E+00  0.00000000000E+00  0.24325726082E+04  0.24325726082E+04  0.25500000920E-02 0.  1.
       -2   -1    0    0    0  501  0.00000000000E+00  0.00000000000E+00 -0.15584064087E+04  0.15584064087E+04  0.25500000920E-02 0. -1.
    10030    2    1    2    0    0  0.00000000000E+00  0.00000000000E+00  0.87416619954E+03  0.39909790169E+04  0.38940656093E+04 0.  0.
        2    1    3    3  502    0 -0.92981901430E+03 -0.10875742349E+04  0.17903831060E+04  0.22919102910E+04  0.25500000920E-02 0.  1.
       -2    1    3    3    0  502  0.92981901430E+03  0.10875742349E+04 -0.91621690642E+03  0.16990687259E+04  0.25500000920E-02 0. -1.
</event>
<event>
 5   0  0.2529875E-07  0.3898567E+04  0.7818609E-02  0.8025327E-01
       -1   -1    0    0    0  501  0.00000000000E+00  0.00000000000E+00  0.21347495179E+04  0.21347495179E+04  0.50400001928E-02 0.  1.
        1   -1    0    0  501    0  0.00000000000E+00  0.00000000000E+00 -0.17799306396E+04  0.17799306396E+04  0.50400001928E-02 0. -1.
    10030    2    1    2    0    0  0.00000000000E+00  0.00000000000E+00  0.35481887829E+03  0.39146801576E+04  0.38985669546E+04 0.  0.
        5    1    3    3  502    0 -0.11925197604E+04  0.11567486777E+03 -0.13665411140E+04  0.18173994498E+04  0.46999998093E+01 0. -1.
       -5    1    3    3    0  502  0.11925197604E+04 -0.11567486777E+03  0.17213599923E+04  0.20972807077E+04  0.46999998093E+01 0.  1.
</event>
</LesHouchesEvents>
