<LesHouchesEvents version="3.0">
<header>
<!--
#*********************************************************************
#                                                                    *
#                        MadGraph5_aMC@NLO                           *
#                                                                    *
#                           Going Beyond                             *
#                                                                    *
#                   http://madgraph.hep.uiuc.edu                     *
#                   http://madgraph.phys.ucl.ac.be                   *
#                   http://amcatnlo.cern.ch                          *
#                                                                    *
#                     The MadGraph5_aMC@NLO team                     *
#                                                                    *
#....................................................................*
#                                                                    *
# This file contains all the information necessary to reproduce      *
# the events generated:                                              *
#                                                                    *
# 1. software version                                                *
# 2. proc_card          : code generation info including model       *
# 3. param_card         : model primary parameters in the LH format  *
# 4. run_card           : running parameters (collider and cuts)     *
# 5. pythia_card        : present only if pythia has been run        *
# 6. pgs_card           : present only if pgs has been run           *
# 7. delphes_cards      : present only if delphes has been run       *
#                                                                    *
#                                                                    *
#*********************************************************************
-->
<MGVersion>
#5.2.2.3
</MGVersion>
<MG5ProcCard>
#************************************************************
#*                     MadGraph5_aMC@NLO                    *
#*                                                          *
#*                *                       *                 *
#*                  *        * *        *                   *
#*                    * * * * 5 * * * *                     *
#*                  *        * *        *                   *
#*                *                       *                 *
#*                                                          *
#*                                                          *
#*         VERSION 2.2.3                 2015-02-10         *
#*                                                          *
#*    The MadGraph5_aMC@NLO Development Team - Find us at   *
#*    https://server06.fynu.ucl.ac.be/projects/madgraph     *
#*                                                          *
#************************************************************
#*                                                          *
#*               Command File for MadGraph5_aMC@NLO         *
#*                                                          *
#*     run as ./bin/mg5_aMC  filename                       *
#*                                                          *
#************************************************************
set group_subprocesses Auto
set ignore_six_quark_processes False
set loop_optimized_output True
set gauge unitary
set complex_mass_scheme False
import model sm
define p = g u c d s u~ c~ d~ s~
define j = g u c d s u~ c~ d~ s~
define l+ = e+ mu+
define l- = e- mu-
define vl = ve vm vt
define vl~ = ve~ vm~ vt~
import model Zprime_UFO
generate p p > zph, zph > j j
add process p p > zph, zph > b b~
output Dijet_signal
</MG5ProcCard>
<MGProcCard>
#*********************************************************************
#                        MadGraph/MadEvent                           *
#                   http://madgraph.hep.uiuc.edu                     *
#                                                                    *
#                          proc_card.dat                             *
#*********************************************************************
#                                                                    *
#            This Files is generated by MADGRAPH 5                   *
#                                                                    *
# WARNING: This Files is generated for MADEVENT (compatibility issue)*
#          This files is NOT a valid MG4 proc_card.dat               *
#          Running this in MG4 will NEVER reproduce the result of MG5*
#                                                                    *
#*********************************************************************
#*********************************************************************
# Process(es) requested : mg2 input                                  *
#*********************************************************************
# Begin PROCESS # This is TAG. Do not modify this line
p p > zph , zph > j j           #Process
# Be carefull the coupling are here in MG5 convention
          
end_coup           # End the couplings input

done               # this tells MG there are no more procs
# End PROCESS  # This is TAG. Do not modify this line
#*********************************************************************
# Model information                                                  *
#*********************************************************************
# Begin MODEL  # This is TAG. Do not modify this line
Zprime_UFO
# End   MODEL  # This is TAG. Do not modify this line
#*********************************************************************
# Start multiparticle definitions                                    *
#*********************************************************************
# Begin MULTIPARTICLES # This is TAG. Do not modify this line

# End  MULTIPARTICLES # This is TAG. Do not modify this line
</MGProcCard>
<MGRunCard>
#*********************************************************************
#                       MadGraph5_aMC@NLO                            *
#                                                                    *
#                     run_card.dat MadEvent                          *
#                                                                    *
#  This file is used to set the parameters of the run.               *
#                                                                    *
#  Some notation/conventions:                                        *
#                                                                    *
#   Lines starting with a '# ' are info or comments                  *
#                                                                    *
#   mind the format:   value    = variable     ! comment             *
#*********************************************************************
#
#*******************                                                 
# Running parameters
#*******************                                                 
#                                                                    
#*********************************************************************
# Tag name for the run (one word)                                    *
#*********************************************************************
  tag_1     = run_tag ! name of the run 
#*********************************************************************
# Run to generate the grid pack                                      *
#*********************************************************************
  .false.     = gridpack  !True = setting up the grid pack
#*********************************************************************
# Number of events and rnd seed                                      *
# Warning: Do not generate more than 1M events in a single run       *
# If you want to run Pythia, avoid more than 50k events in a run.    *
#*********************************************************************
  2000 = nevents ! Number of unweighted events requested 
 1947 = iseed   ! rnd seed (0=assigned automatically=default))
#*********************************************************************
# Collider type and energy                                           *
# lpp: 0=No PDF, 1=proton, -1=antiproton, 2=photon from proton,      *
#                                         3=photon from electron     *
#*********************************************************************
        1     = lpp1    ! beam 1 type 
        1     = lpp2    ! beam 2 type
     4000     = ebeam1  ! beam 1 total energy in GeV
     4000     = ebeam2  ! beam 2 total energy in GeV
#*********************************************************************
# Beam polarization from -100 (left-handed) to 100 (right-handed)    *
#*********************************************************************
        0     = polbeam1 ! beam polarization for beam 1
        0     = polbeam2 ! beam polarization for beam 2
#*********************************************************************
# PDF CHOICE: this automatically fixes also alpha_s and its evol.    *
#*********************************************************************
 'nn23lo1'    = pdlabel     ! PDF set                                     
 230000    = lhaid     ! if pdlabel=lhapdf, this is the lhapdf number
#*********************************************************************
# Renormalization and factorization scales                           *
#*********************************************************************
 F        = fixed_ren_scale  ! if .true. use fixed ren scale
 F        = fixed_fac_scale  ! if .true. use fixed fac scale
 91.1880  = scale            ! fixed ren scale
 91.1880  = dsqrt_q2fact1    ! fixed fact scale for pdf1
 91.1880  = dsqrt_q2fact2    ! fixed fact scale for pdf2
 1        = scalefact        ! scale factor for event-by-event scales
#*********************************************************************
# Matching - Warning! ickkw > 1 is still beta
#*********************************************************************
 0        = ickkw            ! 0 no matching, 1 MLM, 2 CKKW matching
 1        = highestmult      ! for ickkw=2, highest mult group
 1        = ktscheme         ! for ickkw=1, 1 Durham kT, 2 Pythia pTE
 1        = alpsfact         ! scale factor for QCD emission vx
 F        = chcluster        ! cluster only according to channel diag
 T        = pdfwgt           ! for ickkw=1, perform pdf reweighting
 5        = asrwgtflavor     ! highest quark flavor for a_s reweight
 T        = clusinfo         ! include clustering tag in output
 3.0      = lhe_version       ! Change the way clustering information pass to shower.        
#*********************************************************************
#**********************************************************
#
#**********************************************************
# Automatic ptj and mjj cuts if xqcut > 0
# (turn off for VBF and single top processes)
#**********************************************************
   T  = auto_ptj_mjj  ! Automatic setting of ptj and mjj
#**********************************************************
#                                                                    
#**********************************
# BW cutoff (M+/-bwcutoff*Gamma)
#**********************************
  15  = bwcutoff      ! (M+/-bwcutoff*Gamma)
#**********************************************************
# Apply pt/E/eta/dr/mij cuts on decay products or not
# (note that etmiss/ptll/ptheavy/ht/sorted cuts always apply)
#**********************************************************
   T  = cut_decays    ! Cut decay products 
#*************************************************************
# Number of helicities to sum per event (0 = all helicities)
# 0 gives more stable result, but longer run time (needed for
# long decay chains e.g.).
# Use >=2 if most helicities contribute, e.g. pure QCD.
#*************************************************************
   0  = nhel          ! Number of helicities used per event
#*******************                                                 
# Standard Cuts
#*******************                                                 
#                                                                    
#*********************************************************************
# Minimum and maximum pt's (for max, -1 means no cut)                *
#*********************************************************************
 20  = ptj       ! minimum pt for the jets 
  0  = ptb       ! minimum pt for the b 
 10  = pta       ! minimum pt for the photons 
 10  = ptl       ! minimum pt for the charged leptons 
  0  = misset    ! minimum missing Et (sum of neutrino's momenta)
  0  = ptheavy   ! minimum pt for one heavy final state
 1.0 = ptonium   ! minimum pt for the quarkonium states
 -1  = ptjmax    ! maximum pt for the jets
 -1  = ptbmax    ! maximum pt for the b
 -1  = ptamax    ! maximum pt for the photons
 -1  = ptlmax    ! maximum pt for the charged leptons
 -1  = missetmax ! maximum missing Et (sum of neutrino's momenta)
#*********************************************************************
# Minimum and maximum E's (in the center of mass frame)              *
#*********************************************************************
  0  = ej     ! minimum E for the jets 
  0  = eb     ! minimum E for the b 
  0  = ea     ! minimum E for the photons 
  0  = el     ! minimum E for the charged leptons 
 -1   = ejmax ! maximum E for the jets
 -1   = ebmax ! maximum E for the b
 -1   = eamax ! maximum E for the photons
 -1   = elmax ! maximum E for the charged leptons
#*********************************************************************
# Maximum and minimum absolute rapidity (for max, -1 means no cut)   *
#*********************************************************************
   5  = etaj    ! max rap for the jets 
  -1  = etab    ! max rap for the b
 2.5  = etaa    ! max rap for the photons 
 2.5  = etal    ! max rap for the charged leptons 
 0.6  = etaonium ! max rap for the quarkonium states
   0  = etajmin ! min rap for the jets
   0  = etabmin ! min rap for the b
   0  = etaamin ! min rap for the photons
   0  = etalmin ! main rap for the charged leptons
#*********************************************************************
# Minimum and maximum DeltaR distance                                *
#*********************************************************************
 0.4 = drjj    ! min distance between jets 
 0   = drbb    ! min distance between b's 
 0.4 = drll    ! min distance between leptons 
 0.4 = draa    ! min distance between gammas 
 0   = drbj    ! min distance between b and jet 
 0.4 = draj    ! min distance between gamma and jet 
 0.4 = drjl    ! min distance between jet and lepton 
 0   = drab    ! min distance between gamma and b 
 0   = drbl    ! min distance between b and lepton 
 0.4 = dral    ! min distance between gamma and lepton 
 -1  = drjjmax ! max distance between jets
 -1  = drbbmax ! max distance between b's
 -1  = drllmax ! max distance between leptons
 -1  = draamax ! max distance between gammas
 -1  = drbjmax ! max distance between b and jet
 -1  = drajmax ! max distance between gamma and jet
 -1  = drjlmax ! max distance between jet and lepton
 -1  = drabmax ! max distance between gamma and b
 -1  = drblmax ! max distance between b and lepton
 -1  = dralmax ! maxdistance between gamma and lepton
#*********************************************************************
# Minimum and maximum invariant mass for pairs                       *
# WARNING: for four lepton final state mmll cut require to have      *
#          different lepton masses for each flavor!                  *           
#*********************************************************************
 0   = mmjj    ! min invariant mass of a jet pair 
 0   = mmbb    ! min invariant mass of a b pair 
 0   = mmaa    ! min invariant mass of gamma gamma pair
 0   = mmll    ! min invariant mass of l+l- (same flavour) lepton pair
 -1  = mmjjmax ! max invariant mass of a jet pair
 -1  = mmbbmax ! max invariant mass of a b pair
 -1  = mmaamax ! max invariant mass of gamma gamma pair
 -1  = mmllmax ! max invariant mass of l+l- (same flavour) lepton pair
#*********************************************************************
# Minimum and maximum invariant mass for all letpons                 *
#*********************************************************************
 0   = mmnl    ! min invariant mass for all letpons (l+- and vl) 
 -1  = mmnlmax ! max invariant mass for all letpons (l+- and vl) 
#*********************************************************************
# Minimum and maximum pt for 4-momenta sum of leptons                *
#*********************************************************************
 0   = ptllmin  ! Minimum pt for 4-momenta sum of leptons(l and vl)
 -1  = ptllmax  ! Maximum pt for 4-momenta sum of leptons(l and vl)
#*********************************************************************
# Inclusive cuts                                                     *
#*********************************************************************
 0  = xptj ! minimum pt for at least one jet  
 0  = xptb ! minimum pt for at least one b 
 0  = xpta ! minimum pt for at least one photon 
 0  = xptl ! minimum pt for at least one charged lepton 
#*********************************************************************
# Control the pt's of the jets sorted by pt                          *
#*********************************************************************
 0   = ptj1min ! minimum pt for the leading jet in pt
 0   = ptj2min ! minimum pt for the second jet in pt
 0   = ptj3min ! minimum pt for the third jet in pt
 0   = ptj4min ! minimum pt for the fourth jet in pt
 -1  = ptj1max ! maximum pt for the leading jet in pt 
 -1  = ptj2max ! maximum pt for the second jet in pt
 -1  = ptj3max ! maximum pt for the third jet in pt
 -1  = ptj4max ! maximum pt for the fourth jet in pt
 0   = cutuse  ! reject event if fails any (0) / all (1) jet pt cuts
#*********************************************************************
# Control the pt's of leptons sorted by pt                           *
#*********************************************************************
 0   = ptl1min ! minimum pt for the leading lepton in pt
 0   = ptl2min ! minimum pt for the second lepton in pt
 0   = ptl3min ! minimum pt for the third lepton in pt
 0   = ptl4min ! minimum pt for the fourth lepton in pt
 -1  = ptl1max ! maximum pt for the leading lepton in pt 
 -1  = ptl2max ! maximum pt for the second lepton in pt
 -1  = ptl3max ! maximum pt for the third lepton in pt
 -1  = ptl4max ! maximum pt for the fourth lepton in pt
#*********************************************************************
# Control the Ht(k)=Sum of k leading jets                            *
#*********************************************************************
 0   = htjmin ! minimum jet HT=Sum(jet pt)
 -1  = htjmax ! maximum jet HT=Sum(jet pt)
 0   = ihtmin  !inclusive Ht for all partons (including b)
 -1  = ihtmax  !inclusive Ht for all partons (including b)
 0   = ht2min ! minimum Ht for the two leading jets
 0   = ht3min ! minimum Ht for the three leading jets
 0   = ht4min ! minimum Ht for the four leading jets
 -1  = ht2max ! maximum Ht for the two leading jets
 -1  = ht3max ! maximum Ht for the three leading jets
 -1  = ht4max ! maximum Ht for the four leading jets
#***********************************************************************
# Photon-isolation cuts, according to hep-ph/9801442                   *
# When ptgmin=0, all the other parameters are ignored                  *
# When ptgmin>0, pta and draj are not going to be used                 *
#***********************************************************************
   0 = ptgmin ! Min photon transverse momentum
 0.4 = R0gamma ! Radius of isolation code
 1.0 = xn ! n parameter of eq.(3.4) in hep-ph/9801442
 1.0 = epsgamma ! epsilon_gamma parameter of eq.(3.4) in hep-ph/9801442
 .true. = isoEM ! isolate photons from EM energy (photons and leptons)
#*********************************************************************
# WBF cuts                                                           *
#*********************************************************************
 0   = xetamin ! minimum rapidity for two jets in the WBF case  
 0   = deltaeta ! minimum rapidity for two jets in the WBF case 
#*********************************************************************
# KT DURHAM CUT                                                      *
#*********************************************************************
 -1    =  ktdurham        
 0.4  =  dparameter 
#*********************************************************************
# maximal pdg code for quark to be considered as a light jet         *
# (otherwise b cuts are applied)                                     *
#*********************************************************************
 4 = maxjetflavor    ! Maximum jet pdg code
#*********************************************************************
# Jet measure cuts                                                   *
#*********************************************************************
 0   = xqcut   ! minimum kt jet measure between partons
#*********************************************************************
#
#*********************************************************************
# Store info for systematics studies                                 *
# WARNING: If use_syst is T, matched Pythia output is                *
#          meaningful ONLY if plotted taking matchscale              *
#          reweighting into account!                                 *
#*********************************************************************
   F  = use_syst      ! Enable systematics studies
#
#**************************************
# Parameter of the systematics study
#  will be used by SysCalc (if installed)
#**************************************                                  
#
0.5 1 2 = sys_scalefact  # factorization/renormalization scale factor
0.5 1 2 = sys_alpsfact  # \alpha_s emission scale factors
30 50 = sys_matchscale # variation of merging scale
# PDF sets and number of members (0 or none for all members).
CT10nlo.LHgrid = sys_pdf # matching scales
# MSTW2008nlo68cl.LHgrid 1  = sys_pdf
</MGRunCard>
<slha>
######################################################################
## PARAM_CARD AUTOMATICALY GENERATED BY MG5 FOLLOWING UFO MODEL   ####
######################################################################
##                                                                  ##
##  Width set on Auto will be computed following the information    ##
##        present in the decay.py files of the model.               ##
##        See  arXiv:1402.1178 for more details.                    ##
##                                                                  ##
######################################################################

###################################
## INFORMATION FOR CKMBLOCK
###################################
Block ckmblock 
    1 2.277360e-01 # cabi 

###################################
## INFORMATION FOR FRBLOCK
###################################
Block frblock 
    1 1.000000e+00 # gz 

###################################
## INFORMATION FOR MASS
###################################
Block mass 
    1 5.040000e-03 # MD 
    2 2.550000e-03 # MU 
    3 1.010000e-01 # MS 
    4 1.270000e+00 # MC 
    5 4.700000e+00 # MB 
    6 1.720000e+02 # MT 
   11 5.110000e-04 # Me 
   13 1.056600e-01 # MM 
   15 1.777000e+00 # MTA 
   23 9.118760e+01 # MZ 
   25 1.200000e+02 # MH 
  10030 2.200000e+03 # MZph 
  10031 3.000000e+02 # MZpl 
## Dependent parameters, given by model restrictions.
## Those values should be edited following the 
## analytical expression. MG5 ignores those values 
## but they are important for interfacing the output of MG5
## to external program such as Pythia.
  12 0.000000 # ve : 0.0 
  14 0.000000 # vm : 0.0 
  16 0.000000 # vt : 0.0 
  21 0.000000 # g : 0.0 
  22 0.000000 # a : 0.0 
  24 79.824360 # w+ : cmath.sqrt(MZ__exp__2/2. + cmath.sqrt(MZ__exp__4/4. - (aEW*cmath.pi*MZ__exp__2)/(Gf*sqrt__2))) 

###################################
## INFORMATION FOR SMINPUTS
###################################
Block sminputs 
    1 1.279000e+02 # aEWM1 
    2 1.166370e-05 # Gf 
    3 1.184000e-01 # aS 

###################################
## INFORMATION FOR YUKAWA
###################################
Block yukawa 
    1 5.040000e-03 # ymdo 
    2 2.550000e-03 # ymup 
    3 1.010000e-01 # yms 
    4 1.270000e+00 # ymc 
    5 4.700000e+00 # ymb 
    6 1.720000e+02 # ymt 
   11 5.110000e-04 # yme 
   13 1.056600e-01 # ymm 
   15 1.777000e+00 # ymtau 

###################################
## INFORMATION FOR DECAY
###################################
DECAY   6 1.508336e+00 # WT 
DECAY  23 2.495200e+00 # WZ 
DECAY  24 2.085000e+00 # WW 
DECAY  25 5.753088e-03 # WH 
## Dependent parameters, given by model restrictions.
## Those values should be edited following the 
## analytical expression. MG5 ignores those values 
## but they are important for interfacing the output of MG5
## to external program such as Pythia.
DECAY  1 0.000000 # d : 0.0 
DECAY  2 0.000000 # u : 0.0 
DECAY  3 0.000000 # s : 0.0 
DECAY  4 0.000000 # c : 0.0 
DECAY  5 0.000000 # b : 0.0 
DECAY  11 0.000000 # e- : 0.0 
DECAY  12 0.000000 # ve : 0.0 
DECAY  13 0.000000 # mu- : 0.0 
DECAY  14 0.000000 # vm : 0.0 
DECAY  15 0.000000 # ta- : 0.0 
DECAY  16 0.000000 # vt : 0.0 
DECAY  21 0.000000 # g : 0.0 
DECAY  22 0.000000 # a : 0.0 
DECAY  10030 0.308725 # zph : (gz__exp__2*MZph*(5 + cmath.sqrt(1 - (4*MT__exp__2)/MZph__exp__2)))/(144.*cmath.pi) 
DECAY  10031 0.132629 # zpl : (5*gz__exp__2*MZpl)/(144.*cmath.pi) 
#===========================================================
# QUANTUM NUMBERS OF NEW STATE(S) (NON SM PDG CODE)
#===========================================================

Block QNUMBERS 10030  # zph 
        1 0  # 3 times electric charge
        2 3  # number of spin states (2S+1)
        3 1  # colour rep (1: singlet, 3: triplet, 8: octet)
        4 0  # Particle/Antiparticle distinction (0=own anti)
Block QNUMBERS 10031  # zpl 
        1 0  # 3 times electric charge
        2 3  # number of spin states (2S+1)
        3 1  # colour rep (1: singlet, 3: triplet, 8: octet)
        4 0  # Particle/Antiparticle distinction (0=own anti)
</slha>
## END BANNER##
<MGGenerationInfo>
#  Number of Events        :         3951
#  Integrated weight (pb)  :  0.17963E-01
#  Max wgt                 :  0.66288E-05
#  Average wgt             :  0.45464E-05
</MGGenerationInfo>
</header>
<init>
     2212     2212  0.40000000000E+04  0.40000000000E+04 0 0  247000  247000 2   1
  0.17969725232E-01  0.45586060741E-04  0.66287980000E-05   0
</init>
<event>
 5   0  0.6293013E-05  0.2191864E+04  0.7818609E-02  0.8521822E-01
       -2   -1    0    0    0  501  0.00000000000E+00  0.00000000000E+00  0.10700182958E+04  0.10700182958E+04  0.25500000920E-02 0. -1.
        2   -1    0    0  501    0  0.00000000000E+00  0.00000000000E+00 -0.11224737037E+04  0.11224737037E+04  0.25500000920E-02 0.  1.
    10030    2    1    2    0    0  0.00000000000E+00  0.00000000000E+00 -0.52455407851E+02  0.21924919995E+04  0.21918644115E+04 0.  0.
        1    1    3    3  502    0 -0.78235153568E+03  0.73747715649E+03  0.18624996572E+03  0.10911624680E+04  0.50400001928E-02 0.  1.
       -1    1    3    3    0  502  0.78235153568E+03 -0.73747715649E+03 -0.23870537357E+03  0.11013295316E+04  0.50400001928E-02 0. -1.
</event>
<event>
 5   0  0.6293013E-05  0.2190347E+04  0.7818609E-02  0.8522457E-01
       -2   -1    0    0    0  501  0.00000000000E+00  0.00000000000E+00  0.94015698692E+03  0.94015698693E+03  0.25500000920E-02 0.  1.
        2   -1    0    0  501    0  0.00000000000E+00  0.00000000000E+00 -0.12757495685E+04  0.12757495685E+04  0.25500000920E-02 0. -1.
    10030    2    1    2    0    0  0.00000000000E+00  0.00000000000E+00 -0.33559258155E+03  0.22159065554E+04  0.21903468861E+04 0.  0.
        1    1    3    3  502    0 -0.57301799713E+03 -0.93299386408E+03 -0.14348053287E+03  0.11042707271E+04  0.50400001928E-02 0.  1.
       -1    1    3    3    0  502  0.57301799713E+03  0.93299386408E+03 -0.19211204868E+03  0.11116358283E+04  0.50400001928E-02 0. -1.
</event>
<event>
 5   0  0.6306919E-05  0.1772086E+04  0.7818609E-02  0.8721286E-01
       -2   -1    0    0    0  501  0.00000000000E+00  0.00000000000E+00  0.29639758571E+03  0.29639758572E+03  0.25500000920E-02 0. -1.
        2   -1    0    0  501    0  0.00000000000E+00  0.00000000000E+00 -0.26487119110E+04  0.26487119110E+04  0.25500000920E-02 0.  1.
    10030    2    1    2    0    0  0.00000000000E+00  0.00000000000E+00 -0.23523143252E+04  0.29451094967E+04  0.17720855687E+04 0.  0.
        3    1    3    3  502    0  0.48648806055E+03 -0.60973014033E+03 -0.18746297970E+04  0.20304379732E+04  0.10100000352E+00 0.  1.
       -3    1    3    3    0  502 -0.48648806055E+03  0.60973014033E+03 -0.47768452822E+03  0.91467152343E+03  0.10100000352E+00 0. -1.
</event>
<event>
 5   0  0.6293013E-05  0.2205892E+04  0.7818609E-02  0.8515980E-01
        2   -1    0    0  501    0  0.00000000000E+00  0.00000000000E+00  0.19981392955E+04  0.19981392955E+04  0.25500000920E-02 0. -1.
       -2   -1    0    0    0  501  0.00000000000E+00  0.00000000000E+00 -0.60881133507E+03  0.60881133507E+03  0.25500000920E-02 0.  1.
    10030    2    1    2    0    0  0.00000000000E+00  0.00000000000E+00  0.13893279604E+04  0.26069506306E+04  0.22058919757E+04 0.  0.
        1    1    3    3  502    0 -0.10000366514E+04 -0.40786801642E+03  0.43024356509E+03  0.11625571591E+04  0.50400001928E-02 0.  1.
       -1    1    3    3    0  502  0.10000366514E+04  0.40786801642E+03  0.95908439535E+03  0.14443934714E+04  0.50400001928E-02 0. -1.
</event>
<event>
 5   0  0.6306919E-05  0.2233561E+04  0.7818609E-02  0.8504588E-01
       -2   -1    0    0    0  501  0.00000000000E+00  0.00000000000E+00  0.14781796572E+04  0.14781796572E+04  0.25500000920E-02 0.  1.
        2   -1    0    0  501    0  0.00000000000E+00  0.00000000000E+00 -0.84373993239E+03  0.84373993240E+03  0.25500000920E-02 0. -1.
    10030    2    1    2    0    0  0.00000000000E+00  0.00000000000E+00  0.63443972477E+03  0.23219195896E+04  0.22335614646E+04 0.  0.
        3    1    3    3  502    0  0.45687206989E+03  0.10125965030E+04  0.19816682042E+03  0.11284298228E+04  0.10100000352E+00 0. -1.
       -3    1    3    3    0  502 -0.45687206989E+03 -0.10125965030E+04  0.43627290435E+03  0.11934897668E+04  0.10100000352E+00 0.  1.
</event>
<event>
 5   0  0.2908031E-05  0.2208787E+04  0.7818609E-02  0.8514780E-01
        1   -1    0    0  501    0  0.00000000000E+00  0.00000000000E+00  0.71861125612E+03  0.71861125614E+03  0.50400001928E-02 0. -1.
       -1   -1    0    0    0  501  0.00000000000E+00  0.00000000000E+00 -0.16972810156E+04  0.16972810156E+04  0.50400001928E-02 0.  1.
    10030    2    1    2    0    0  0.00000000000E+00  0.00000000000E+00 -0.97866975944E+03  0.24158922717E+04  0.22087872171E+04 0.  0.
        1    1    3    3  502    0 -0.95287111725E+03 -0.46978589883E+03 -0.15934588098E+03  0.10742687125E+04  0.50400001928E-02 0.  1.
       -1    1    3    3    0  502  0.95287111725E+03  0.46978589883E+03 -0.81932387846E+03  0.13416235592E+04  0.50400001928E-02 0. -1.
</event>
<event>
 5   0  0.2820239E-05  0.2198099E+04  0.7818609E-02  0.8519220E-01
       -1   -1    0    0    0  501  0.00000000000E+00  0.00000000000E+00  0.91132139435E+03  0.91132139437E+03  0.50400001928E-02 0. -1.
        1   -1    0    0  501    0  0.00000000000E+00  0.00000000000E+00 -0.13254484845E+04  0.13254484845E+04  0.50400001928E-02 0.  1.
    10030    2    1    2    0    0  0.00000000000E+00  0.00000000000E+00 -0.41412709013E+03  0.22367698789E+04  0.21980987794E+04 0.  0.
        3    1    3    3  502    0 -0.40508332845E+03 -0.70935325362E+02 -0.12442025870E+04  0.13104062008E+04  0.10100000352E+00 0.  1.
       -3    1    3    3    0  502  0.40508332845E+03  0.70935325362E+02  0.83007549686E+03  0.92636367808E+03  0.10100000352E+00 0. -1.
</event>
<event>
 5   0  0.6293013E-05  0.2180610E+04  0.7818609E-02  0.8526542E-01
        2   -1    0    0  501    0  0.00000000000E+00  0.00000000000E+00  0.19169951487E+04  0.19169951487E+04  0.25500000920E-02 0. -1.
       -2   -1    0    0    0  501  0.00000000000E+00  0.00000000000E+00 -0.62011871841E+03  0.62011871841E+03  0.25500000920E-02 0.  1.
    10030    2    1    2    0    0  0.00000000000E+00  0.00000000000E+00  0.12968764303E+04  0.25371138671E+04  0.21806096164E+04 0.  0.
        1    1    3    3  502    0  0.25782567883E+03  0.55652861548E+03  0.16972352831E+04  0.18046622362E+04  0.50400001928E-02 0. -1.
       -1    1    3    3    0  502 -0.25782567883E+03 -0.55652861548E+03 -0.40035885284E+03  0.73245163089E+03  0.50400001928E-02 0.  1.
</event>
<event>
 5   0  0.2929471E-05  0.2195174E+04  0.7818609E-02  0.8520440E-01
        1   -1    0    0  501    0  0.00000000000E+00  0.00000000000E+00  0.18528925615E+04  0.18528925615E+04  0.50400001928E-02 0. -1.
       -1   -1    0    0    0  501  0.00000000000E+00  0.00000000000E+00 -0.65017101558E+03  0.65017101560E+03  0.50400001928E-02 0.  1.
    10030    2    1    2    0    0  0.00000000000E+00  0.00000000000E+00  0.12027215459E+04  0.25030635771E+04  0.21951738323E+04 0.  0.
        2    1    3    3  502    0  0.35244269384E+03  0.34681005349E+03  0.17186991430E+04  0.17884126509E+04  0.25500000920E-02 0. -1.
       -2    1    3    3    0  502 -0.35244269384E+03 -0.34681005349E+03 -0.51597759709E+03  0.71465092622E+03  0.25500000920E-02 0.  1.
</event>
<event>
 5   0  0.6293013E-05  0.2194995E+04  0.7818609E-02  0.8520514E-01
        2   -1    0    0  501    0  0.00000000000E+00  0.00000000000E+00  0.16976256922E+04  0.16976256922E+04  0.25500000920E-02 0.  1.
       -2   -1    0    0    0  501  0.00000000000E+00  0.00000000000E+00 -0.70952107256E+03  0.70952107257E+03  0.25500000920E-02 0. -1.
    10030    2    1    2    0    0  0.00000000000E+00  0.00000000000E+00  0.98810461967E+03  0.24071467648E+04  0.21949954004E+04 0.  0.
        1    1    3    3  502    0 -0.56437638434E+03 -0.94083334181E+03  0.46278095304E+03  0.11907368688E+04  0.50400001928E-02 0.  1.
       -1    1    3    3    0  502  0.56437638434E+03  0.94083334181E+03  0.52532366663E+03  0.12164098960E+04  0.50400001928E-02 0. -1.
</event>
<event>
 5   0  0.2245375E-05  0.2197473E+04  0.7818609E-02  0.8519481E-01
       -4   -1    0    0    0  501  0.00000000000E+00  0.00000000000E+00  0.72261331347E+03  0.72261442949E+03  0.12699999809E+01 0.  1.
        4   -1    0    0  501    0  0.00000000000E+00  0.00000000000E+00 -0.16706310296E+04  0.16706315124E+04  0.12699999809E+01 0. -1.
    10030    2    1    2    0    0  0.00000000000E+00  0.00000000000E+00 -0.94801771617E+03  0.23932459419E+04  0.21974732190E+04 0.  0.
        5    1    3    3  502    0 -0.12498132224E+03  0.25497534278E+03  0.68194981817E+03  0.73872214048E+03  0.46999998093E+01 0.  1.
       -5    1    3    3    0  502  0.12498132224E+03 -0.25497534278E+03 -0.16299675343E+04  0.16545238014E+04  0.46999998093E+01 0. -1.
</event>
<event>
 5   0  0.6445740E-05  0.2201732E+04  0.7818609E-02  0.8517708E-01
        2   -1    0    0  501    0  0.00000000000E+00  0.00000000000E+00  0.95211768778E+03  0.95211768778E+03  0.25500000920E-02 0. -1.
       -2   -1    0    0    0  501  0.00000000000E+00  0.00000000000E+00 -0.12728530224E+04  0.12728530224E+04  0.25500000920E-02 0.  1.
    10030    2    1    2    0    0  0.00000000000E+00  0.00000000000E+00 -0.32073533462E+03  0.22249707102E+04  0.22017319333E+04 0.  0.
        5    1    3    3  502    0  0.33342689383E+03 -0.68223388203E+03  0.64508139654E+03  0.99637777047E+03  0.46999998093E+01 0. -1.
       -5    1    3    3    0  502 -0.33342689383E+03  0.68223388203E+03 -0.96581673116E+03  0.12285929397E+04  0.46999998093E+01 0.  1.
</event>
<event>
 5   0  0.2910318E-05  0.2194220E+04  0.7818609E-02  0.8520838E-01
        1   -1    0    0  501    0  0.00000000000E+00  0.00000000000E+00  0.17673457523E+04  0.17673457523E+04  0.50400001928E-02 0. -1.
       -1   -1    0    0    0  501  0.00000000000E+00  0.00000000000E+00 -0.68104987220E+03  0.68104987222E+03  0.50400001928E-02 0.  1.
    10030    2    1    2    0    0  0.00000000000E+00  0.00000000000E+00  0.10862958801E+04  0.24483956245E+04  0.21942202248E+04 0.  0.
        5    1    3    3  502    0  0.16221579526E+03  0.58435126210E+03 -0.47700450065E+03  0.77158003175E+03  0.46999998093E+01 0.  1.
       -5    1    3    3    0  502 -0.16221579526E+03 -0.58435126210E+03  0.15633003807E+04  0.16768155928E+04  0.46999998093E+01 0. -1.
</event>
<event>
 5   0  0.2908031E-05  0.2055861E+04  0.7818609E-02  0.8580940E-01
       -1   -1    0    0    0  501  0.00000000000E+00  0.00000000000E+00  0.89045270855E+03  0.89045270857E+03  0.50400001928E-02 0. -1.
        1   -1    0    0  501    0  0.00000000000E+00  0.00000000000E+00 -0.11866332973E+04  0.11866332973E+04  0.50400001928E-02 0.  1.
    10030    2    1    2    0    0  0.00000000000E+00  0.00000000000E+00 -0.29618058870E+03  0.20770860058E+04  0.20558607284E+04 0.  0.
        1    1    3    3  502    0  0.98831934955E+03  0.17954041421E+03 -0.36858864725E+03  0.10699848073E+04  0.50400001928E-02 0. -1.
       -1    1    3    3    0  502 -0.98831934955E+03 -0.17954041421E+03  0.72408058551E+02  0.10071011985E+04  0.50400001928E-02 0.  1.
</event>
<event>
 5   0  0.2820239E-05  0.2021432E+04  0.7818609E-02  0.8596666E-01
       -1   -1    0    0    0  501  0.00000000000E+00  0.00000000000E+00  0.10556520105E+04  0.10556520105E+04  0.50400001928E-02 0.  1.
        1   -1    0    0  501    0  0.00000000000E+00  0.00000000000E+00 -0.96769271533E+03  0.96769271535E+03  0.50400001928E-02 0. -1.
    10030    2    1    2    0    0  0.00000000000E+00  0.00000000000E+00  0.87959295126E+02  0.20233447258E+04  0.20214319286E+04 0.  0.
        3    1    3    3  502    0  0.50657960785E+03  0.66068001537E+02 -0.82894584870E+03  0.97372435021E+03  0.10100000352E+00 0. -1.
       -3    1    3    3    0  502 -0.50657960785E+03 -0.66068001537E+02  0.91690514383E+03  0.10496203756E+04  0.10100000352E+00 0.  1.
</event>
<event>
 5   0  0.2820239E-05  0.2225850E+04  0.7818609E-02  0.8507745E-01
        1   -1    0    0  501    0  0.00000000000E+00  0.00000000000E+00  0.12767592741E+04  0.12767592741E+04  0.50400001928E-02 0.  1.
       -1   -1    0    0    0  501  0.00000000000E+00  0.00000000000E+00 -0.97011373992E+03  0.97011373994E+03  0.50400001928E-02 0. -1.
    10030    2    1    2    0    0  0.00000000000E+00  0.00000000000E+00  0.30664553417E+03  0.22468730140E+04  0.22258496934E+04 0.  0.
        3    1    3    3  502    0  0.16935956950E+03 -0.68404186218E+03  0.10228563016E+04  0.12421074660E+04  0.10100000352E+00 0.  1.
       -3    1    3    3    0  502 -0.16935956950E+03  0.68404186218E+03 -0.71621076746E+03  0.10047655481E+04  0.10100000352E+00 0. -1.
</event>
<event>
 5   0  0.6293013E-05  0.2179069E+04  0.7818609E-02  0.8527191E-01
        2   -1    0    0  501    0  0.00000000000E+00  0.00000000000E+00  0.74589051442E+03  0.74589051443E+03  0.25500000920E-02 0.  1.
       -2   -1    0    0    0  501  0.00000000000E+00  0.00000000000E+00 -0.15915003220E+04  0.15915003220E+04  0.25500000920E-02 0. -1.
    10030    2    1    2    0    0  0.00000000000E+00  0.00000000000E+00 -0.84560980754E+03  0.23373908364E+04  0.21790686027E+04 0.  0.
        1    1    3    3  502    0 -0.11908835365E+03 -0.10201106636E+04 -0.32680680281E+02  0.10275581876E+04  0.50400001928E-02 0.  1.
       -1    1    3    3    0  502  0.11908835365E+03  0.10201106636E+04 -0.81292912726E+03  0.13098326488E+04  0.50400001928E-02 0. -1.
</event>
<event>
 5   0  0.2753631E-05  0.2189265E+04  0.7818609E-02  0.8522910E-01
       -1   -1    0    0    0  501  0.00000000000E+00  0.00000000000E+00  0.66800169821E+03  0.66800169823E+03  0.50400001928E-02 0. -1.
        1   -1    0    0  501    0  0.00000000000E+00  0.00000000000E+00 -0.17937376439E+04  0.17937376439E+04  0.50400001928E-02 0.  1.
    10030    2    1    2    0    0  0.00000000000E+00  0.00000000000E+00 -0.11257359457E+04  0.24617393421E+04  0.21892645270E+04 0.  0.
        4    1    3    3  502    0 -0.67876712491E+03  0.67471926733E+03  0.34523072922E+02  0.95768698175E+03  0.12699999809E+01 0. -1.
       -4    1    3    3    0  502  0.67876712491E+03 -0.67471926733E+03 -0.11602590186E+04  0.15040523603E+04  0.12699999809E+01 0.  1.
</event>
<event>
 5   0  0.2908031E-05  0.2171319E+04  0.7818609E-02  0.8530462E-01
        1   -1    0    0  501    0  0.00000000000E+00  0.00000000000E+00  0.12474367273E+04  0.12474367273E+04  0.50400001928E-02 0.  1.
       -1   -1    0    0    0  501  0.00000000000E+00  0.00000000000E+00 -0.94486260068E+03  0.94486260069E+03  0.50400001928E-02 0. -1.
    10030    2    1    2    0    0  0.00000000000E+00  0.00000000000E+00  0.30257412659E+03  0.21922993280E+04  0.21713187793E+04 0.  0.
        1    1    3    3  502    0  0.94574299097E+03 -0.28842467821E+03  0.60399178781E+03  0.11586305191E+04  0.50400001928E-02 0.  1.
       -1    1    3    3    0  502 -0.94574299097E+03  0.28842467821E+03 -0.30141766122E+03  0.10336688089E+04  0.50400001928E-02 0. -1.
</event>
<event>
 5   0  0.6414768E-05  0.2069697E+04  0.7818609E-02  0.8574711E-01
       -2   -1    0    0    0  501  0.00000000000E+00  0.00000000000E+00  0.55769975926E+03  0.55769975926E+03  0.25500000920E-02 0.  1.
        2   -1    0    0  501    0  0.00000000000E+00  0.00000000000E+00 -0.19202295196E+04  0.19202295196E+04  0.25500000920E-02 0. -1.
    10030    2    1    2    0    0  0.00000000000E+00  0.00000000000E+00 -0.13625297604E+04  0.24779292789E+04  0.20696971187E+04 0.  0.
        2    1    3    3  502    0  0.47455900847E+03  0.90466190359E+03 -0.87905327958E+03  0.13477218113E+04  0.25500000920E-02 0. -1.
       -2    1    3    3    0  502 -0.47455900847E+03 -0.90466190359E+03 -0.48347648081E+03  0.11302074676E+04  0.25500000920E-02 0.  1.
</event>
<event>
 5   0  0.2820239E-05  0.2206808E+04  0.7818609E-02  0.8515600E-01
       -1   -1    0    0    0  501  0.00000000000E+00  0.00000000000E+00  0.54311108291E+03  0.54311108294E+03  0.50400001928E-02 0.  1.
        1   -1    0    0  501    0  0.00000000000E+00  0.00000000000E+00 -0.22417151530E+04  0.22417151530E+04  0.50400001928E-02 0. -1.
    10030    2    1    2    0    0  0.00000000000E+00  0.00000000000E+00 -0.16986040701E+04  0.27848262359E+04  0.22068079612E+04 0.  0.
        3    1    3    3  502    0  0.24023127071E+03  0.99571229002E+03 -0.33153385651E+03  0.10766005462E+04  0.10100000352E+00 0.  1.
       -3    1    3    3    0  502 -0.24023127071E+03 -0.99571229002E+03 -0.13670702135E+04  0.17082256897E+04  0.10100000352E+00 0. -1.
</event>
<event>
 5   0  0.6306919E-05  0.2227281E+04  0.7818609E-02  0.8507158E-01
        2   -1    0    0  501    0  0.00000000000E+00  0.00000000000E+00  0.14206809402E+04  0.14206809402E+04  0.25500000920E-02 0.  1.
       -2   -1    0    0    0  501  0.00000000000E+00  0.00000000000E+00 -0.87295792836E+03  0.87295792837E+03  0.25500000920E-02 0. -1.
    10030    2    1    2    0    0  0.00000000000E+00  0.00000000000E+00  0.54772301187E+03  0.22936388686E+04  0.22272805755E+04 0.  0.
        3    1    3    3  502    0 -0.32337125195E+02 -0.10418214464E+04  0.67766274697E+03  0.12432475316E+04  0.10100000352E+00 0. -1.
       -3    1    3    3    0  502  0.32337125195E+02  0.10418214464E+04 -0.12993973509E+03  0.10503913370E+04  0.10100000352E+00 0.  1.
</event>
<event>
 5   0  0.2908031E-05  0.2201184E+04  0.7818609E-02  0.8517935E-01
        1   -1    0    0  501    0  0.00000000000E+00  0.00000000000E+00  0.12498941319E+04  0.12498941319E+04  0.50400001928E-02 0.  1.
       -1   -1    0    0    0  501  0.00000000000E+00  0.00000000000E+00 -0.96912452901E+03  0.96912452902E+03  0.50400001928E-02 0. -1.
    10030    2    1    2    0    0  0.00000000000E+00  0.00000000000E+00  0.28076960290E+03  0.22190186609E+04  0.22011842830E+04 0.  0.
        1    1    3    3  502    0 -0.31842995736E+03 -0.86975842082E+03  0.73969769760E+03  0.11853396274E+04  0.50400001928E-02 0.  1.
       -1    1    3    3    0  502  0.31842995736E+03  0.86975842082E+03 -0.45892809470E+03  0.10336790336E+04  0.50400001928E-02 0. -1.
</event>
<event>
 5   0  0.6414768E-05  0.2198126E+04  0.7818609E-02  0.8519209E-01
       -2   -1    0    0    0  501  0.00000000000E+00  0.00000000000E+00  0.56887994397E+03  0.56887994397E+03  0.25500000920E-02 0.  1.
        2   -1    0    0  501    0  0.00000000000E+00  0.00000000000E+00 -0.21233637788E+04  0.21233637788E+04  0.25500000920E-02 0. -1.
    10030    2    1    2    0    0  0.00000000000E+00  0.00000000000E+00 -0.15544838349E+04  0.26922437228E+04  0.21981256266E+04 0.  0.
        2    1    3    3  502    0  0.17012193606E+03  0.35023408919E+03  0.48157458166E+03  0.61928948649E+03  0.25500000920E-02 0.  1.
       -2    1    3    3    0  502 -0.17012193606E+03 -0.35023408919E+03 -0.20360584165E+04  0.20729542363E+04  0.25500000920E-02 0. -1.
</event>
<event>
 5   0  0.2929471E-05  0.2135837E+04  0.7818609E-02  0.8545619E-01
       -1   -1    0    0    0  501  0.00000000000E+00  0.00000000000E+00  0.82876073701E+03  0.82876073702E+03  0.50400001928E-02 0.  1.
        1   -1    0    0  501    0  0.00000000000E+00  0.00000000000E+00 -0.13760904505E+04  0.13760904505E+04  0.50400001928E-02 0. -1.
    10030    2    1    2    0    0  0.00000000000E+00  0.00000000000E+00 -0.54732971347E+03  0.22048511875E+04  0.21358368252E+04 0.  0.
        2    1    3    3  502    0  0.44542468853E+03  0.94455194890E+03 -0.50419252261E+03  0.11596515154E+04  0.25500000920E-02 0. -1.
       -2    1    3    3    0  502 -0.44542468853E+03 -0.94455194890E+03 -0.43137190860E+02  0.10451996721E+04  0.25500000920E-02 0.  1.
</event>
<event>
 5   0  0.6306919E-05  0.2193438E+04  0.7818609E-02  0.8521164E-01
       -2   -1    0    0    0  501  0.00000000000E+00  0.00000000000E+00  0.56267864179E+03  0.56267864179E+03  0.25500000920E-02 0. -1.
        2   -1    0    0  501    0  0.00000000000E+00  0.00000000000E+00 -0.21376197441E+04  0.21376197441E+04  0.25500000920E-02 0.  1.
    10030    2    1    2    0    0  0.00000000000E+00  0.00000000000E+00 -0.15749411023E+04  0.27002983859E+04  0.21934383732E+04 0.  0.
        3    1    3    3  502    0  0.50370398490E+03 -0.26350953284E+03 -0.19420885083E+04  0.20235767251E+04  0.10100000352E+00 0.  1.
       -3    1    3    3    0  502 -0.50370398490E+03  0.26350953284E+03  0.36714740594E+03  0.67672166080E+03  0.10100000352E+00 0. -1.
</event>
<event>
 5   0  0.6445740E-05  0.2210800E+04  0.7818609E-02  0.8513946E-01
       -2   -1    0    0    0  501  0.00000000000E+00  0.00000000000E+00  0.12125917969E+04  0.12125917969E+04  0.25500000920E-02 0. -1.
        2   -1    0    0  501    0  0.00000000000E+00  0.00000000000E+00 -0.10076837034E+04  0.10076837034E+04  0.25500000920E-02 0.  1.
    10030    2    1    2    0    0  0.00000000000E+00  0.00000000000E+00  0.20490809359E+03  0.22202755003E+04  0.22107998486E+04 0.  0.
        5    1    3    3  502    0 -0.39739230668E+01  0.10551894378E+03  0.12075050503E+04  0.12121223437E+04  0.46999998093E+01 0. -1.
       -5    1    3    3    0  502  0.39739230668E+01 -0.10551894378E+03 -0.10025969567E+04  0.10081531566E+04  0.46999998093E+01 0.  1.
</event>
<event>
 5   0  0.2929471E-05  0.2215126E+04  0.7818609E-02  0.8512158E-01
       -1   -1    0    0    0  501  0.00000000000E+00  0.00000000000E+00  0.87944596252E+03  0.87944596254E+03  0.50400001928E-02 0.  1.
        1   -1    0    0  501    0  0.00000000000E+00  0.00000000000E+00 -0.13948511797E+04  0.13948511797E+04  0.50400001928E-02 0. -1.
    10030    2    1    2    0    0  0.00000000000E+00  0.00000000000E+00 -0.51540521720E+03  0.22742971423E+04  0.22151263967E+04 0.  0.
        2    1    3    3  502    0 -0.31327527755E+03  0.19200712552E+03  0.81504605429E+03  0.89404038297E+03  0.25500000920E-02 0.  1.
       -2    1    3    3    0  502  0.31327527755E+03 -0.19200712552E+03 -0.13304512715E+04  0.13802567593E+04  0.25500000920E-02 0. -1.
</event>
<event>
 5   0  0.6306919E-05  0.2208869E+04  0.7818609E-02  0.8514746E-01
        2   -1    0    0  501    0  0.00000000000E+00  0.00000000000E+00  0.10250576207E+04  0.10250576207E+04  0.25500000920E-02 0.  1.
       -2   -1    0    0    0  501  0.00000000000E+00  0.00000000000E+00 -0.11899575977E+04  0.11899575977E+04  0.25500000920E-02 0. -1.
    10030    2    1    2    0    0  0.00000000000E+00  0.00000000000E+00 -0.16489997692E+03  0.22150152184E+04  0.22088685827E+04 0.  0.
        3    1    3    3  502    0  0.43168338684E+03 -0.97235589144E+03 -0.37983646918E+03  0.11296469712E+04  0.10100000352E+00 0. -1.
       -3    1    3    3    0  502 -0.43168338684E+03  0.97235589144E+03  0.21493649225E+03  0.10853682472E+04  0.10100000352E+00 0.  1.
</event>
<event>
 5   0  0.6293013E-05  0.2187111E+04  0.7818609E-02  0.8523812E-01
       -2   -1    0    0    0  501  0.00000000000E+00  0.00000000000E+00  0.54391980547E+03  0.54391980547E+03  0.25500000920E-02 0.  1.
        2   -1    0    0  501    0  0.00000000000E+00  0.00000000000E+00 -0.21986026606E+04  0.21986026606E+04  0.25500000920E-02 0. -1.
    10030    2    1    2    0    0  0.00000000000E+00  0.00000000000E+00 -0.16546828552E+04  0.27425224661E+04  0.21871109085E+04 0.  0.
        1    1    3    3  502    0  0.97821950400E+03 -0.48877604881E+03 -0.83603875976E+03  0.13765087111E+04  0.50400001928E-02 0. -1.
       -1    1    3    3    0  502 -0.97821950400E+03  0.48877604881E+03 -0.81864409542E+03  0.13660137550E+04  0.50400001928E-02 0.  1.
</event>
<event>
 5   0  0.2910318E-05  0.2193680E+04  0.7818609E-02  0.8521063E-01
        1   -1    0    0  501    0  0.00000000000E+00  0.00000000000E+00  0.13320279730E+04  0.13320279731E+04  0.50400001928E-02 0. -1.
       -1   -1    0    0    0  501  0.00000000000E+00  0.00000000000E+00 -0.90317802219E+03  0.90317802221E+03  0.50400001928E-02 0.  1.
    10030    2    1    2    0    0  0.00000000000E+00  0.00000000000E+00  0.42884995085E+03  0.22352059953E+04  0.21936803689E+04 0.  0.
        5    1    3    3  502    0  0.62376639734E+03 -0.45025253393E+03  0.10110327848E+04  0.12704413582E+04  0.46999998093E+01 0. -1.
       -5    1    3    3    0  502 -0.62376639734E+03  0.45025253393E+03 -0.58218283394E+03  0.96476463704E+03  0.46999998093E+01 0.  1.
</event>
<event>
 5   0  0.6306919E-05  0.2144840E+04  0.7818609E-02  0.8541744E-01
        2   -1    0    0  501    0  0.00000000000E+00  0.00000000000E+00  0.12397052771E+04  0.12397052771E+04  0.25500000920E-02 0.  1.
       -2   -1    0    0    0  501  0.00000000000E+00  0.00000000000E+00 -0.92770847473E+03  0.92770847473E+03  0.25500000920E-02 0. -1.
    10030    2    1    2    0    0  0.00000000000E+00  0.00000000000E+00  0.31199680233E+03  0.21674137518E+04  0.21448404059E+04 0.  0.
        3    1    3    3  502    0 -0.70138769067E+03 -0.50916743444E+03 -0.48222514756E+03  0.99183530490E+03  0.10100000352E+00 0. -1.
       -3    1    3    3    0  502  0.70138769067E+03  0.50916743444E+03  0.79422194989E+03  0.11755784469E+04  0.10100000352E+00 0.  1.
</event>
<event>
 5   0  0.2753631E-05  0.2201411E+04  0.7818609E-02  0.8517841E-01
        1   -1    0    0  501    0  0.00000000000E+00  0.00000000000E+00  0.94772832465E+03  0.94772832466E+03  0.50400001928E-02 0. -1.
       -1   -1    0    0    0  501  0.00000000000E+00  0.00000000000E+00 -0.12783753888E+04  0.12783753888E+04  0.50400001928E-02 0.  1.
    10030    2    1    2    0    0  0.00000000000E+00  0.00000000000E+00 -0.33064706419E+03  0.22261037135E+04  0.22014109708E+04 0.  0.
        4    1    3    3  502    0 -0.98808828845E+03 -0.16078692903E+03 -0.62803676260E+03  0.11817794593E+04  0.12699999809E+01 0. -1.
       -4    1    3    3    0  502  0.98808828845E+03  0.16078692903E+03  0.29738969842E+03  0.10443242542E+04  0.12699999809E+01 0.  1.
</event>
<event>
 5   0  0.2908031E-05  0.2188850E+04  0.7818609E-02  0.8523083E-01
       -1   -1    0    0    0  501  0.00000000000E+00  0.00000000000E+00  0.28506372323E+04  0.28506372323E+04  0.50400001928E-02 0.  1.
        1   -1    0    0  501    0  0.00000000000E+00  0.00000000000E+00 -0.42017502589E+03  0.42017502592E+03  0.50400001928E-02 0. -1.
    10030    2    1    2    0    0  0.00000000000E+00  0.00000000000E+00  0.24304622064E+04  0.32708122582E+04  0.21888504498E+04 0.  0.
        1    1    3    3  502    0  0.49514077216E+02  0.52434466823E+03 -0.21835091998E+03  0.57014568246E+03  0.50400001928E-02 0. -1.
       -1    1    3    3    0  502 -0.49514077216E+02 -0.52434466823E+03  0.26488131264E+04  0.27006665757E+04  0.50400001928E-02 0.  1.
</event>
<event>
 5   0  0.2820239E-05  0.2412907E+04  0.7818609E-02  0.8434687E-01
        1   -1    0    0  501    0  0.00000000000E+00  0.00000000000E+00  0.22178850915E+04  0.22178850915E+04  0.50400001928E-02 0.  1.
       -1   -1    0    0    0  501  0.00000000000E+00  0.00000000000E+00 -0.65626919763E+03  0.65626919765E+03  0.50400001928E-02 0. -1.
    10030    2    1    2    0    0  0.00000000000E+00  0.00000000000E+00  0.15616158939E+04  0.28741542892E+04  0.24129066865E+04 0.  0.
        3    1    3    3  502    0 -0.78673299049E+03  0.36052880090E+03 -0.22047384785E+03  0.89305013431E+03  0.10100000352E+00 0. -1.
       -3    1    3    3    0  502  0.78673299049E+03 -0.36052880090E+03  0.17820897417E+04  0.19811041549E+04  0.10100000352E+00 0.  1.
</event>
<event>
 5   0  0.6628798E-05  0.2209118E+04  0.7818609E-02  0.8514643E-01
       -2   -1    0    0    0  501  0.00000000000E+00  0.00000000000E+00  0.11124459088E+04  0.11124459088E+04  0.25500000920E-02 0.  1.
        2   -1    0    0  501    0  0.00000000000E+00  0.00000000000E+00 -0.10967277440E+04  0.10967277440E+04  0.25500000920E-02 0. -1.
    10030    2    1    2    0    0  0.00000000000E+00  0.00000000000E+00  0.15718164743E+02  0.22091736528E+04  0.22091177351E+04 0.  0.
        4    1    3    3  502    0 -0.16000890450E+03 -0.25034961835E+03  0.10717332263E+04  0.11121562400E+04  0.12699999809E+01 0.  1.
       -4    1    3    3    0  502  0.16000890450E+03  0.25034961835E+03 -0.10560150615E+04  0.10970174128E+04  0.12699999809E+01 0. -1.
</event>
<event>
 5   0  0.6628798E-05  0.2399198E+04  0.7818609E-02  0.8439804E-01
        2   -1    0    0  501    0  0.00000000000E+00  0.00000000000E+00  0.90491641774E+03  0.90491641774E+03  0.25500000920E-02 0. -1.
       -2   -1    0    0    0  501  0.00000000000E+00  0.00000000000E+00 -0.15902439633E+04  0.15902439633E+04  0.25500000920E-02 0.  1.
    10030    2    1    2    0    0  0.00000000000E+00  0.00000000000E+00 -0.68532754558E+03  0.24951603811E+04  0.23991980915E+04 0.  0.
        4    1    3    3  502    0 -0.36535565120E+03  0.73585728656E+02  0.84317831035E+03  0.92187357445E+03  0.12699999809E+01 0. -1.
       -4    1    3    3    0  502  0.36535565120E+03 -0.73585728656E+02 -0.15285058559E+04  0.15732868066E+04  0.12699999809E+01 0.  1.
</event>
<event>
 5   0  0.2929471E-05  0.2206126E+04  0.7818609E-02  0.8515883E-01
       -1   -1    0    0    0  501  0.00000000000E+00  0.00000000000E+00  0.80231944459E+03  0.80231944460E+03  0.50400001928E-02 0.  1.
        1   -1    0    0  501    0  0.00000000000E+00  0.00000000000E+00 -0.15165374391E+04  0.15165374391E+04  0.50400001928E-02 0. -1.
    10030    2    1    2    0    0  0.00000000000E+00  0.00000000000E+00 -0.71421799448E+03  0.23188568837E+04  0.22061255412E+04 0.  0.
        2    1    3    3  502    0 -0.54971719128E+02 -0.36219048838E+03 -0.14507289582E+04  0.14962681411E+04  0.25500000920E-02 0. -1.
       -2    1    3    3    0  502  0.54971719128E+02  0.36219048838E+03  0.73651096373E+03  0.82258874261E+03  0.25500000920E-02 0.  1.
</event>
<event>
 5   0  0.2820239E-05  0.2203858E+04  0.7818609E-02  0.8516824E-01
       -1   -1    0    0    0  501  0.00000000000E+00  0.00000000000E+00  0.10743794198E+04  0.10743794198E+04  0.50400001928E-02 0. -1.
        1   -1    0    0  501    0  0.00000000000E+00  0.00000000000E+00 -0.11301845363E+04  0.11301845363E+04  0.50400001928E-02 0.  1.
    10030    2    1    2    0    0  0.00000000000E+00  0.00000000000E+00 -0.55805116518E+02  0.22045639562E+04  0.22038575330E+04 0.  0.
        3    1    3    3  502    0 -0.95162752818E+03 -0.28385096239E+03 -0.50563356639E+03  0.11143749974E+04  0.10100000352E+00 0.  1.
       -3    1    3    3    0  502  0.95162752818E+03  0.28385096239E+03  0.44982844988E+03  0.10901889587E+04  0.10100000352E+00 0. -1.
</event>
<event>
 5   0  0.2910318E-05  0.1824139E+04  0.7818609E-02  0.8693567E-01
       -1   -1    0    0    0  501  0.00000000000E+00  0.00000000000E+00  0.27979380651E+03  0.27979380655E+03  0.50400001928E-02 0. -1.
        1   -1    0    0  501    0  0.00000000000E+00  0.00000000000E+00 -0.29731549882E+04  0.29731549882E+04  0.50400001928E-02 0.  1.
    10030    2    1    2    0    0  0.00000000000E+00  0.00000000000E+00 -0.26933611817E+04  0.32529487947E+04  0.18241385381E+04 0.  0.
        5    1    3    3  502    0 -0.84102764522E+03 -0.30281927114E+03 -0.16697508430E+04  0.18939685791E+04  0.46999998093E+01 0.  1.
       -5    1    3    3    0  502  0.84102764522E+03  0.30281927114E+03 -0.10236103387E+04  0.13589802156E+04  0.46999998093E+01 0. -1.
</event>
<event>
 5   0  0.6414768E-05  0.2185334E+04  0.7818609E-02  0.8524557E-01
       -2   -1    0    0    0  501  0.00000000000E+00  0.00000000000E+00  0.10295306015E+04  0.10295306015E+04  0.25500000920E-02 0.  1.
        2   -1    0    0  501    0  0.00000000000E+00  0.00000000000E+00 -0.11596753173E+04  0.11596753173E+04  0.25500000920E-02 0. -1.
    10030    2    1    2    0    0  0.00000000000E+00  0.00000000000E+00 -0.13014471574E+03  0.21892059188E+04  0.21853340495E+04 0.  0.
        2    1    3    3  502    0 -0.64667977766E+03  0.40292297316E+03  0.71950077951E+03  0.10479613680E+04  0.25500000920E-02 0.  1.
       -2    1    3    3    0  502  0.64667977766E+03 -0.40292297316E+03 -0.84964549525E+03  0.11412445508E+04  0.25500000920E-02 0. -1.
</event>
<event>
 5   0  0.6306919E-05  0.2210852E+04  0.7818609E-02  0.8513925E-01
        2   -1    0    0  501    0  0.00000000000E+00  0.00000000000E+00  0.15606574926E+04  0.15606574926E+04  0.25500000920E-02 0. -1.
       -2   -1    0    0    0  501  0.00000000000E+00  0.00000000000E+00 -0.78298204544E+03  0.78298204544E+03  0.25500000920E-02 0.  1.
    10030    2    1    2    0    0  0.00000000000E+00  0.00000000000E+00  0.77767544717E+03  0.23436395380E+04  0.22108521396E+04 0.  0.
        3    1    3    3  502    0  0.79484082107E+03  0.46601930971E+03 -0.25859951652E+03  0.95698466446E+03  0.10100000352E+00 0.  1.
       -3    1    3    3    0  502 -0.79484082107E+03 -0.46601930971E+03  0.10362749637E+04  0.13866548736E+04  0.10100000352E+00 0. -1.
</event>
<event>
 5   0  0.6293013E-05  0.2184241E+04  0.7818609E-02  0.8525016E-01
        2   -1    0    0  501    0  0.00000000000E+00  0.00000000000E+00  0.14783097988E+04  0.14783097988E+04  0.25500000920E-02 0. -1.
       -2   -1    0    0    0  501  0.00000000000E+00  0.00000000000E+00 -0.80681822161E+03  0.80681822161E+03  0.25500000920E-02 0.  1.
    10030    2    1    2    0    0  0.00000000000E+00  0.00000000000E+00  0.67149157719E+03  0.22851280204E+04  0.21842410882E+04 0.  0.
        1    1    3    3  502    0 -0.78449027374E+03  0.57245071732E+03  0.85842400705E+03  0.12961545391E+04  0.50400001928E-02 0. -1.
       -1    1    3    3    0  502  0.78449027374E+03 -0.57245071732E+03 -0.18693242986E+03  0.98897348130E+03  0.50400001928E-02 0.  1.
</event>
<event>
 5   0  0.6414768E-05  0.2184958E+04  0.7818609E-02  0.8524715E-01
        2   -1    0    0  501    0  0.00000000000E+00  0.00000000000E+00  0.12941869992E+04  0.12941869992E+04  0.25500000920E-02 0.  1.
       -2   -1    0    0    0  501  0.00000000000E+00  0.00000000000E+00 -0.92220870702E+03  0.92220870702E+03  0.25500000920E-02 0. -1.
    10030    2    1    2    0    0  0.00000000000E+00  0.00000000000E+00  0.37197829216E+03  0.22163957062E+04  0.21849581407E+04 0.  0.
        2    1    3    3  502    0 -0.36085604787E+03 -0.86441930945E+03  0.75628165214E+03  0.12039101990E+04  0.25500000920E-02 0.  1.
       -2    1    3    3    0  502  0.36085604787E+03  0.86441930945E+03 -0.38430335999E+03  0.10124855072E+04  0.25500000920E-02 0. -1.
</event>
<event>
 5   0  0.6306919E-05  0.2242616E+04  0.7818609E-02  0.8500897E-01
        2   -1    0    0  501    0  0.00000000000E+00  0.00000000000E+00  0.10201741330E+04  0.10201741330E+04  0.25500000920E-02 0.  1.
       -2   -1    0    0    0  501  0.00000000000E+00  0.00000000000E+00 -0.12324680775E+04  0.12324680775E+04  0.25500000920E-02 0. -1.
    10030    2    1    2    0    0  0.00000000000E+00  0.00000000000E+00 -0.21229394451E+03  0.22526422105E+04  0.22426163759E+04 0.  0.
        3    1    3    3  502    0  0.68950932793E+02  0.42372174858E+03 -0.11466532795E+04  0.12243807026E+04  0.10100000352E+00 0. -1.
       -3    1    3    3    0  502 -0.68950932793E+02 -0.42372174858E+03  0.93435933501E+03  0.10282615078E+04  0.10100000352E+00 0.  1.
</event>
<event>
 5   0  0.2820239E-05  0.2211026E+04  0.7818609E-02  0.8513853E-01
       -1   -1    0    0    0  501  0.00000000000E+00  0.00000000000E+00  0.97618922708E+03  0.97618922710E+03  0.50400001928E-02 0.  1.
        1   -1    0    0  501    0  0.00000000000E+00  0.00000000000E+00 -0.12519698102E+04  0.12519698102E+04  0.50400001928E-02 0. -1.
    10030    2    1    2    0    0  0.00000000000E+00  0.00000000000E+00 -0.27578058314E+03  0.22281590373E+04  0.22110264055E+04 0.  0.
        3    1    3    3  502    0  0.94450880717E+03  0.57352879822E+03 -0.10405540786E+03  0.11098917548E+04  0.10100000352E+00 0. -1.
       -3    1    3    3    0  502 -0.94450880717E+03 -0.57352879822E+03 -0.17172517528E+03  0.11182672826E+04  0.10100000352E+00 0.  1.
</event>
<event>
 5   0  0.6445740E-05  0.2178152E+04  0.7818609E-02  0.8527577E-01
       -2   -1    0    0    0  501  0.00000000000E+00  0.00000000000E+00  0.71515483288E+03  0.71515483289E+03  0.25500000920E-02 0.  1.
        2   -1    0    0  501    0  0.00000000000E+00  0.00000000000E+00 -0.16585026613E+04  0.16585026613E+04  0.25500000920E-02 0. -1.
    10030    2    1    2    0    0  0.00000000000E+00  0.00000000000E+00 -0.94334782840E+03  0.23736574942E+04  0.21781516876E+04 0.  0.
        5    1    3    3  502    0 -0.50157070046E+03 -0.26589230745E+03 -0.14844992930E+04  0.15893495927E+04  0.46999998093E+01 0. -1.
       -5    1    3    3    0  502  0.50157070046E+03  0.26589230745E+03  0.54115146461E+03  0.78430790151E+03  0.46999998093E+01 0.  1.
</event>
<event>
 5   0  0.2910318E-05  0.2108967E+04  0.7818609E-02  0.8557304E-01
        1   -1    0    0  501    0  0.00000000000E+00  0.00000000000E+00  0.12677227061E+04  0.12677227062E+04  0.50400001928E-02 0. -1.
       -1   -1    0    0    0  501  0.00000000000E+00  0.00000000000E+00 -0.87711240430E+03  0.87711240431E+03  0.50400001928E-02 0.  1.
    10030    2    1    2    0    0  0.00000000000E+00  0.00000000000E+00  0.39061030185E+03  0.21448351105E+04  0.21089668663E+04 0.  0.
        5    1    3    3  502    0 -0.65489670687E+03  0.69395132261E+03 -0.26116593328E+03  0.98928654571E+03  0.46999998093E+01 0.  1.
       -5    1    3    3    0  502  0.65489670687E+03 -0.69395132261E+03  0.65177623513E+03  0.11555485648E+04  0.46999998093E+01 0. -1.
</event>
<event>
 5   0  0.2820239E-05  0.2204965E+04  0.7818609E-02  0.8516364E-01
       -1   -1    0    0    0  501  0.00000000000E+00  0.00000000000E+00  0.55324987543E+03  0.55324987545E+03  0.50400001928E-02 0.  1.
        1   -1    0    0  501    0  0.00000000000E+00  0.00000000000E+00 -0.21969594075E+04  0.21969594075E+04  0.50400001928E-02 0. -1.
    10030    2    1    2    0    0  0.00000000000E+00  0.00000000000E+00 -0.16437095321E+04  0.27502092830E+04  0.22049648692E+04 0.  0.
        3    1    3    3  502    0 -0.62003938751E+03  0.48844932238E+03 -0.17818846732E+04  0.19488829060E+04  0.10100000352E+00 0. -1.
       -3    1    3    3    0  502  0.62003938751E+03 -0.48844932238E+03  0.13817514110E+03  0.80132637696E+03  0.10100000352E+00 0.  1.
</event>
<event>
 5   0  0.6306919E-05  0.2235175E+04  0.7818609E-02  0.8503929E-01
        2   -1    0    0  501    0  0.00000000000E+00  0.00000000000E+00  0.97096890715E+03  0.97096890715E+03  0.25500000920E-02 0. -1.
       -2   -1    0    0    0  501  0.00000000000E+00  0.00000000000E+00 -0.12863457781E+04  0.12863457781E+04  0.25500000920E-02 0.  1.
    10030    2    1    2    0    0  0.00000000000E+00  0.00000000000E+00 -0.31537687092E+03  0.22573146852E+04  0.22351749411E+04 0.  0.
        3    1    3    3  502    0  0.76277674161E+02 -0.59570406411E+03  0.79415460439E+03  0.99567221586E+03  0.10100000352E+00 0. -1.
       -3    1    3    3    0  502 -0.76277674161E+02  0.59570406411E+03 -0.11095314753E+04  0.12616424694E+04  0.10100000352E+00 0.  1.
</event>
<event>
 5   0  0.2908031E-05  0.2197053E+04  0.7818609E-02  0.8519656E-01
       -1   -1    0    0    0  501  0.00000000000E+00  0.00000000000E+00  0.49022128911E+03  0.49022128913E+03  0.50400001928E-02 0. -1.
        1   -1    0    0  501    0  0.00000000000E+00  0.00000000000E+00 -0.24616647999E+04  0.24616647999E+04  0.50400001928E-02 0.  1.
    10030    2    1    2    0    0  0.00000000000E+00  0.00000000000E+00 -0.19714435108E+04  0.29518860890E+04  0.21970530186E+04 0.  0.
        1    1    3    3  502    0 -0.59399730385E+03 -0.44416574241E+03  0.10301831858E+03  0.74881825412E+03  0.50400001928E-02 0. -1.
       -1    1    3    3    0  502  0.59399730385E+03  0.44416574241E+03 -0.20744618294E+04  0.22030678349E+04  0.50400001928E-02 0.  1.
</event>
<event>
 5   0  0.2820239E-05  0.2124462E+04  0.7818609E-02  0.8550544E-01
       -1   -1    0    0    0  501  0.00000000000E+00  0.00000000000E+00  0.49335490015E+03  0.49335490018E+03  0.50400001928E-02 0.  1.
        1   -1    0    0  501    0  0.00000000000E+00  0.00000000000E+00 -0.22870638728E+04  0.22870638728E+04  0.50400001928E-02 0. -1.
    10030    2    1    2    0    0  0.00000000000E+00  0.00000000000E+00 -0.17937089726E+04  0.27804187730E+04  0.21244615023E+04 0.  0.
        3    1    3    3  502    0  0.54808093684E+03 -0.89971659632E+03 -0.71907686770E+03  0.12755211558E+04  0.10100000352E+00 0.  1.
       -3    1    3    3    0  502 -0.54808093684E+03  0.89971659632E+03 -0.10746321049E+04  0.15048976172E+04  0.10100000352E+00 0. -1.
</event>
<event>
 5   0  0.2753631E-05  0.2331156E+04  0.7818609E-02  0.8465737E-01
       -1   -1    0    0    0  501  0.00000000000E+00  0.00000000000E+00  0.10451681067E+04  0.10451681067E+04  0.50400001928E-02 0.  1.
        1   -1    0    0  501    0  0.00000000000E+00  0.00000000000E+00 -0.12998593647E+04  0.12998593648E+04  0.50400001928E-02 0. -1.
    10030    2    1    2    0    0  0.00000000000E+00  0.00000000000E+00 -0.25469125807E+03  0.23450274715E+04  0.23311555514E+04 0.  0.
        4    1    3    3  502    0  0.73439556389E+03  0.73181817790E+03 -0.66312674569E+03  0.12307044257E+04  0.12699999809E+01 0. -1.
       -4    1    3    3    0  502 -0.73439556389E+03 -0.73181817790E+03  0.40843548763E+03  0.11143230457E+04  0.12699999809E+01 0.  1.
</event>
<event>
 5   0  0.2910318E-05  0.2213154E+04  0.7818609E-02  0.8512973E-01
       -1   -1    0    0    0  501  0.00000000000E+00  0.00000000000E+00  0.12961466954E+04  0.12961466954E+04  0.50400001928E-02 0.  1.
        1   -1    0    0  501    0  0.00000000000E+00  0.00000000000E+00 -0.94473306856E+03  0.94473306858E+03  0.50400001928E-02 0. -1.
    10030    2    1    2    0    0  0.00000000000E+00  0.00000000000E+00  0.35141362680E+03  0.22408797639E+04  0.22131539891E+04 0.  0.
        5    1    3    3  502    0  0.72440212189E+03  0.60606514490E+03 -0.40807241733E+03  0.10288919194E+04  0.46999998093E+01 0. -1.
       -5    1    3    3    0  502 -0.72440212189E+03 -0.60606514490E+03  0.75948604413E+03  0.12119878445E+04  0.46999998093E+01 0.  1.
</event>
<event>
 5   0  0.6628798E-05  0.2200140E+04  0.7818609E-02  0.8518370E-01
        2   -1    0    0  501    0  0.00000000000E+00  0.00000000000E+00  0.22221121512E+04  0.22221121512E+04  0.25500000920E-02 0. -1.
       -2   -1    0    0    0  501  0.00000000000E+00  0.00000000000E+00 -0.54459639602E+03  0.54459639603E+03  0.25500000920E-02 0.  1.
    10030    2    1    2    0    0  0.00000000000E+00  0.00000000000E+00  0.16775157552E+04  0.27667085473E+04  0.22001402402E+04 0.  0.
        4    1    3    3  502    0  0.87755537980E+03  0.54207439222E+03  0.35792571042E+03  0.10918152401E+04  0.12699999809E+01 0. -1.
       -4    1    3    3    0  502 -0.87755537980E+03 -0.54207439222E+03  0.13195900448E+04  0.16748933072E+04  0.12699999809E+01 0.  1.
</event>
<event>
 5   0  0.6293013E-05  0.2233592E+04  0.7818609E-02  0.8504575E-01
       -2   -1    0    0    0  501  0.00000000000E+00  0.00000000000E+00  0.61148873815E+03  0.61148873815E+03  0.25500000920E-02 0. -1.
        2   -1    0    0  501    0  0.00000000000E+00  0.00000000000E+00 -0.20396673044E+04  0.20396673044E+04  0.25500000920E-02 0.  1.
    10030    2    1    2    0    0  0.00000000000E+00  0.00000000000E+00 -0.14281785662E+04  0.26511560425E+04  0.22335922512E+04 0.  0.
        1    1    3    3  502    0  0.95519057058E+02  0.98678526686E+03 -0.13243746981E+04  0.16543389599E+04  0.50400001928E-02 0. -1.
       -1    1    3    3    0  502 -0.95519057058E+02 -0.98678526686E+03 -0.10380386809E+03  0.99681708263E+03  0.50400001928E-02 0.  1.
</event>
<event>
 5   0  0.2753631E-05  0.2200998E+04  0.7818609E-02  0.8518013E-01
       -1   -1    0    0    0  501  0.00000000000E+00  0.00000000000E+00  0.64536140832E+03  0.64536140834E+03  0.50400001928E-02 0.  1.
        1   -1    0    0  501    0  0.00000000000E+00  0.00000000000E+00 -0.18766197853E+04  0.18766197853E+04  0.50400001928E-02 0. -1.
    10030    2    1    2    0    0  0.00000000000E+00  0.00000000000E+00 -0.12312583770E+04  0.25219811937E+04  0.22009979442E+04 0.  0.
        4    1    3    3  502    0  0.44503176048E+03  0.30003068775E+03 -0.17164810133E+04  0.17984383123E+04  0.12699999809E+01 0. -1.
       -4    1    3    3    0  502 -0.44503176048E+03 -0.30003068775E+03  0.48522263630E+03  0.72354288132E+03  0.12699999809E+01 0.  1.
</event>
<event>
 5   0  0.6414768E-05  0.2197439E+04  0.7818609E-02  0.8519495E-01
        2   -1    0    0  501    0  0.00000000000E+00  0.00000000000E+00  0.13882512949E+04  0.13882512949E+04  0.25500000920E-02 0. -1.
       -2   -1    0    0    0  501  0.00000000000E+00  0.00000000000E+00 -0.86957175805E+03  0.86957175805E+03  0.25500000920E-02 0.  1.
    10030    2    1    2    0    0  0.00000000000E+00  0.00000000000E+00  0.51867953689E+03  0.22578230530E+04  0.21974386173E+04 0.  0.
        2    1    3    3  502    0  0.86507890988E+03  0.87364385005E+02  0.94950474036E+03  0.12874600219E+04  0.25500000920E-02 0. -1.
       -2    1    3    3    0  502 -0.86507890988E+03 -0.87364385005E+02 -0.43082520348E+03  0.97036303106E+03  0.25500000920E-02 0.  1.
</event>
<event>
 5   0  0.2910318E-05  0.2189314E+04  0.7818609E-02  0.8522889E-01
        1   -1    0    0  501    0  0.00000000000E+00  0.00000000000E+00  0.87594669028E+03  0.87594669029E+03  0.50400001928E-02 0.  1.
       -1   -1    0    0    0  501  0.00000000000E+00  0.00000000000E+00 -0.13679758613E+04  0.13679758614E+04  0.50400001928E-02 0. -1.
    10030    2    1    2    0    0  0.00000000000E+00  0.00000000000E+00 -0.49202917107E+03  0.22439225516E+04  0.21893139822E+04 0.  0.
        5    1    3    3  502    0 -0.10580370750E+04 -0.23075605688E+03 -0.82148540018E+02  0.10860300560E+04  0.46999998093E+01 0. -1.
       -5    1    3    3    0  502  0.10580370750E+04  0.23075605688E+03 -0.40988063105E+03  0.11578924957E+04  0.46999998093E+01 0.  1.
</event>
<event>
 5   0  0.6414768E-05  0.2188580E+04  0.7818609E-02  0.8523197E-01
        2   -1    0    0  501    0  0.00000000000E+00  0.00000000000E+00  0.11786828855E+04  0.11786828855E+04  0.25500000920E-02 0.  1.
       -2   -1    0    0    0  501  0.00000000000E+00  0.00000000000E+00 -0.10159393985E+04  0.10159393985E+04  0.25500000920E-02 0. -1.
    10030    2    1    2    0    0  0.00000000000E+00  0.00000000000E+00  0.16274348698E+03  0.21946222840E+04  0.21885797968E+04 0.  0.
        2    1    3    3  502    0 -0.97044619640E+03  0.10765092511E+03 -0.41407317571E+03  0.10605711370E+04  0.25500000920E-02 0. -1.
       -2    1    3    3    0  502  0.97044619640E+03 -0.10765092511E+03  0.57681666269E+03  0.11340511471E+04  0.25500000920E-02 0.  1.
</event>
<event>
 5   0  0.2753631E-05  0.2152820E+04  0.7818609E-02  0.8538326E-01
       -1   -1    0    0    0  501  0.00000000000E+00  0.00000000000E+00  0.99692205814E+03  0.99692205815E+03  0.50400001928E-02 0.  1.
        1   -1    0    0  501    0  0.00000000000E+00  0.00000000000E+00 -0.11622359235E+04  0.11622359236E+04  0.50400001928E-02 0. -1.
    10030    2    1    2    0    0  0.00000000000E+00  0.00000000000E+00 -0.16531386541E+03  0.21591579817E+04  0.21528201309E+04 0.  0.
        4    1    3    3  502    0 -0.98548336138E+03 -0.97522554646E+02 -0.50576250667E+03  0.11119736644E+04  0.12699999809E+01 0. -1.
       -4    1    3    3    0  502  0.98548336138E+03  0.97522554646E+02  0.34044864126E+03  0.10471843173E+04  0.12699999809E+01 0.  1.
</event>
<event>
 5   0  0.2753631E-05  0.2167387E+04  0.7818609E-02  0.8532126E-01
       -1   -1    0    0    0  501  0.00000000000E+00  0.00000000000E+00  0.90386078566E+03  0.90386078567E+03  0.50400001928E-02 0.  1.
        1   -1    0    0  501    0  0.00000000000E+00  0.00000000000E+00 -0.12993052703E+04  0.12993052704E+04  0.50400001928E-02 0. -1.
    10030    2    1    2    0    0  0.00000000000E+00  0.00000000000E+00 -0.39544448469E+03  0.22031660560E+04  0.21673865207E+04 0.  0.
        4    1    3    3  502    0 -0.19708197041E+03  0.83254471535E+03 -0.87384724238E+03  0.12229401547E+04  0.12699999809E+01 0. -1.
       -4    1    3    3    0  502  0.19708197041E+03 -0.83254471535E+03  0.47840275769E+03  0.98022590130E+03  0.12699999809E+01 0.  1.
</event>
<event>
 5   0  0.2929471E-05  0.2306581E+04  0.7818609E-02  0.8475331E-01
       -1   -1    0    0    0  501  0.00000000000E+00  0.00000000000E+00  0.10123103151E+04  0.10123103151E+04  0.50400001928E-02 0. -1.
        1   -1    0    0  501    0  0.00000000000E+00  0.00000000000E+00 -0.13139045286E+04  0.13139045287E+04  0.50400001928E-02 0.  1.
    10030    2    1    2    0    0  0.00000000000E+00  0.00000000000E+00 -0.30159421355E+03  0.23262148438E+04  0.23065811128E+04 0.  0.
        2    1    3    3  502    0  0.19796141504E+03  0.29942589496E+03  0.95454061905E+03  0.10198001676E+04  0.25500000920E-02 0. -1.
       -2    1    3    3    0  502 -0.19796141504E+03 -0.29942589496E+03 -0.12561348326E+04  0.13064146762E+04  0.25500000920E-02 0.  1.
</event>
<event>
 5   0  0.6414768E-05  0.1907704E+04  0.7818609E-02  0.8651031E-01
       -2   -1    0    0    0  501  0.00000000000E+00  0.00000000000E+00  0.82033406776E+03  0.82033406777E+03  0.25500000920E-02 0. -1.
        2   -1    0    0  501    0  0.00000000000E+00  0.00000000000E+00 -0.11091016745E+04  0.11091016745E+04  0.25500000920E-02 0.  1.
    10030    2    1    2    0    0  0.00000000000E+00  0.00000000000E+00 -0.28876760677E+03  0.19294357423E+04  0.19077042625E+04 0.  0.
        2    1    3    3  502    0 -0.66528085257E+03  0.68347589583E+03 -0.15429209871E+03  0.96620078902E+03  0.25500000920E-02 0. -1.
       -2    1    3    3    0  502  0.66528085257E+03 -0.68347589583E+03 -0.13447550807E+03  0.96323495329E+03  0.25500000920E-02 0.  1.
</event>
<event>
 5   0  0.2910318E-05  0.2193065E+04  0.7818609E-02  0.8521320E-01
        1   -1    0    0  501    0  0.00000000000E+00  0.00000000000E+00  0.15887991017E+04  0.15887991017E+04  0.50400001928E-02 0.  1.
       -1   -1    0    0    0  501  0.00000000000E+00  0.00000000000E+00 -0.75678772152E+03  0.75678772154E+03  0.50400001928E-02 0. -1.
    10030    2    1    2    0    0  0.00000000000E+00  0.00000000000E+00  0.83201138014E+03  0.23455868232E+04  0.21930651173E+04 0.  0.
        5    1    3    3  502    0  0.11167139016E+01 -0.27035891549E+03  0.15525809121E+04  0.15759520198E+04  0.46999998093E+01 0.  1.
       -5    1    3    3    0  502 -0.11167139016E+01  0.27035891549E+03 -0.72056953193E+03  0.76963480339E+03  0.46999998093E+01 0. -1.
</event>
<event>
 5   0  0.6445740E-05  0.2179965E+04  0.7818609E-02  0.8526814E-01
       -2   -1    0    0    0  501  0.00000000000E+00  0.00000000000E+00  0.12268149147E+04  0.12268149147E+04  0.25500000920E-02 0.  1.
        2   -1    0    0  501    0  0.00000000000E+00  0.00000000000E+00 -0.96841153432E+03  0.96841153433E+03  0.25500000920E-02 0. -1.
    10030    2    1    2    0    0  0.00000000000E+00  0.00000000000E+00  0.25840338041E+03  0.21952264491E+04  0.21799648749E+04 0.  0.
        5    1    3    3  502    0  0.85294338164E+03 -0.41728469047E+03  0.66811246550E+03  0.11610492159E+04  0.46999998093E+01 0.  1.
       -5    1    3    3    0  502 -0.85294338164E+03  0.41728469047E+03 -0.40970908509E+03  0.10341772332E+04  0.46999998093E+01 0. -1.
</event>
<event>
 5   0  0.6445740E-05  0.2248633E+04  0.7818609E-02  0.8498454E-01
       -2   -1    0    0    0  501  0.00000000000E+00  0.00000000000E+00  0.93988082108E+03  0.93988082108E+03  0.25500000920E-02 0.  1.
        2   -1    0    0  501    0  0.00000000000E+00  0.00000000000E+00 -0.13449447476E+04  0.13449447476E+04  0.25500000920E-02 0. -1.
    10030    2    1    2    0    0  0.00000000000E+00  0.00000000000E+00 -0.40506392651E+03  0.22848255687E+04  0.22486331614E+04 0.  0.
        5    1    3    3  502    0  0.10045276630E+04 -0.49225114458E+03 -0.31694388091E+03  0.11626962323E+04  0.46999998093E+01 0. -1.
       -5    1    3    3    0  502 -0.10045276630E+04  0.49225114458E+03 -0.88120045603E+02  0.11221293363E+04  0.46999998093E+01 0.  1.
</event>
<event>
 5   0  0.6628798E-05  0.2196018E+04  0.7818609E-02  0.8520088E-01
       -2   -1    0    0    0  501  0.00000000000E+00  0.00000000000E+00  0.67871010346E+03  0.67871010347E+03  0.25500000920E-02 0. -1.
        2   -1    0    0  501    0  0.00000000000E+00  0.00000000000E+00 -0.17763449717E+04  0.17763449717E+04  0.25500000920E-02 0.  1.
    10030    2    1    2    0    0  0.00000000000E+00  0.00000000000E+00 -0.10976348683E+04  0.24550550752E+04  0.21960175587E+04 0.  0.
        4    1    3    3  502    0 -0.10419009546E+03 -0.33349681166E+03  0.61490418099E+03  0.70723720496E+03  0.12699999809E+01 0. -1.
       -4    1    3    3    0  502  0.10419009546E+03  0.33349681166E+03 -0.17125390493E+04  0.17478178702E+04  0.12699999809E+01 0.  1.
</event>
<event>
 5   0  0.2753631E-05  0.2222101E+04  0.7818609E-02  0.8509285E-01
       -1   -1    0    0    0  501  0.00000000000E+00  0.00000000000E+00  0.64016726366E+03  0.64016726368E+03  0.50400001928E-02 0.  1.
        1   -1    0    0  501    0  0.00000000000E+00  0.00000000000E+00 -0.19282980766E+04  0.19282980766E+04  0.50400001928E-02 0. -1.
    10030    2    1    2    0    0  0.00000000000E+00  0.00000000000E+00 -0.12881308129E+04  0.25684653403E+04  0.22221010807E+04 0.  0.
        4    1    3    3  502    0  0.10038804744E+04  0.28255840147E+03 -0.20117402062E+03  0.10621148039E+04  0.12699999809E+01 0.  1.
       -4    1    3    3    0  502 -0.10038804744E+04 -0.28255840147E+03 -0.10869567923E+04  0.15063505364E+04  0.12699999809E+01 0. -1.
</event>
<event>
 5   0  0.2929471E-05  0.2203188E+04  0.7818609E-02  0.8517102E-01
       -1   -1    0    0    0  501  0.00000000000E+00  0.00000000000E+00  0.99213688727E+03  0.99213688728E+03  0.50400001928E-02 0.  1.
        1   -1    0    0  501    0  0.00000000000E+00  0.00000000000E+00 -0.12231271436E+04  0.12231271436E+04  0.50400001928E-02 0. -1.
    10030    2    1    2    0    0  0.00000000000E+00  0.00000000000E+00 -0.23099025630E+03  0.22152640309E+04  0.22031881962E+04 0.  0.
        2    1    3    3  502    0 -0.14998058673E+03  0.10557269009E+04  0.16252737277E+03  0.10786420224E+04  0.25500000920E-02 0. -1.
       -2    1    3    3    0  502  0.14998058673E+03 -0.10557269009E+04 -0.39351762907E+03  0.11366220084E+04  0.25500000920E-02 0.  1.
</event>
<event>
 5   0  0.6414768E-05  0.2208545E+04  0.7818609E-02  0.8514880E-01
       -2   -1    0    0    0  501  0.00000000000E+00  0.00000000000E+00  0.10041767500E+04  0.10041767500E+04  0.25500000920E-02 0.  1.
        2   -1    0    0  501    0  0.00000000000E+00  0.00000000000E+00 -0.12143458030E+04  0.12143458030E+04  0.25500000920E-02 0. -1.
    10030    2    1    2    0    0  0.00000000000E+00  0.00000000000E+00 -0.21016905297E+03  0.22185225530E+04  0.22085450612E+04 0.  0.
        2    1    3    3  502    0 -0.10924560789E+04 -0.13427390771E+03 -0.19452640565E+03  0.11177344448E+04  0.25500000920E-02 0. -1.
       -2    1    3    3    0  502  0.10924560789E+04  0.13427390771E+03 -0.15642647325E+02  0.11007881082E+04  0.25500000920E-02 0.  1.
</event>
<event>
 5   0  0.2929471E-05  0.2189756E+04  0.7818609E-02  0.8522704E-01
       -1   -1    0    0    0  501  0.00000000000E+00  0.00000000000E+00  0.74309954230E+03  0.74309954232E+03  0.50400001928E-02 0.  1.
        1   -1    0    0  501    0  0.00000000000E+00  0.00000000000E+00 -0.16131864142E+04  0.16131864142E+04  0.50400001928E-02 0. -1.
    10030    2    1    2    0    0  0.00000000000E+00  0.00000000000E+00 -0.87008687190E+03  0.23562859565E+04  0.21897562294E+04 0.  0.
        2    1    3    3  502    0  0.12334588817E+03  0.10353264595E+04 -0.79458406505E+03  0.13109076711E+04  0.25500000920E-02 0. -1.
       -2    1    3    3    0  502 -0.12334588817E+03 -0.10353264595E+04 -0.75502806856E+02  0.10453782854E+04  0.25500000920E-02 0.  1.
</event>
<event>
 5   0  0.6306919E-05  0.2207124E+04  0.7818609E-02  0.8515469E-01
        2   -1    0    0  501    0  0.00000000000E+00  0.00000000000E+00  0.16393309118E+04  0.16393309118E+04  0.25500000920E-02 0.  1.
       -2   -1    0    0    0  501  0.00000000000E+00  0.00000000000E+00 -0.74289427780E+03  0.74289427781E+03  0.25500000920E-02 0. -1.
    10030    2    1    2    0    0  0.00000000000E+00  0.00000000000E+00  0.89643663403E+03  0.23822251897E+04  0.22071244223E+04 0.  0.
        3    1    3    3  502    0 -0.64605132739E+03 -0.89113409832E+03  0.53420845017E+03  0.12234708731E+04  0.10100000352E+00 0.  1.
       -3    1    3    3    0  502  0.64605132739E+03  0.89113409832E+03  0.36222818386E+03  0.11587543166E+04  0.10100000352E+00 0. -1.
</event>
<event>
 5   0  0.6445740E-05  0.2099017E+04  0.7818609E-02  0.8561677E-01
        2   -1    0    0  501    0  0.00000000000E+00  0.00000000000E+00  0.11631478796E+04  0.11631478796E+04  0.25500000920E-02 0.  1.
       -2   -1    0    0    0  501  0.00000000000E+00  0.00000000000E+00 -0.94697165787E+03  0.94697165787E+03  0.25500000920E-02 0. -1.
    10030    2    1    2    0    0  0.00000000000E+00  0.00000000000E+00  0.21617622178E+03  0.21101195375E+04  0.20990169851E+04 0.  0.
        5    1    3    3  502    0 -0.31815418419E+03 -0.71873927111E+03  0.80720727454E+03  0.11266826966E+04  0.46999998093E+01 0.  1.
       -5    1    3    3    0  502  0.31815418419E+03  0.71873927111E+03 -0.59103105276E+03  0.98343684092E+03  0.46999998093E+01 0. -1.
</event>
<event>
 5   0  0.2910318E-05  0.2209519E+04  0.7818609E-02  0.8514476E-01
        1   -1    0    0  501    0  0.00000000000E+00  0.00000000000E+00  0.79652061573E+03  0.79652061575E+03  0.50400001928E-02 0. -1.
       -1   -1    0    0    0  501  0.00000000000E+00  0.00000000000E+00 -0.15322813733E+04  0.15322813733E+04  0.50400001928E-02 0.  1.
    10030    2    1    2    0    0  0.00000000000E+00  0.00000000000E+00 -0.73576075757E+03  0.23288019891E+04  0.22095191359E+04 0.  0.
        5    1    3    3  502    0 -0.14213001397E+03 -0.45508483158E+02  0.78583688258E+03  0.79989603007E+03  0.46999998093E+01 0. -1.
       -5    1    3    3    0  502  0.14213001397E+03  0.45508483158E+02 -0.15215976401E+04  0.15289059590E+04  0.46999998093E+01 0.  1.
</event>
<event>
 5   0  0.2820239E-05  0.2198633E+04  0.7818609E-02  0.8518997E-01
       -1   -1    0    0    0  501  0.00000000000E+00  0.00000000000E+00  0.12739756170E+04  0.12739756170E+04  0.50400001928E-02 0.  1.
        1   -1    0    0  501    0  0.00000000000E+00  0.00000000000E+00 -0.94860304273E+03  0.94860304275E+03  0.50400001928E-02 0. -1.
    10030    2    1    2    0    0  0.00000000000E+00  0.00000000000E+00  0.32537257425E+03  0.22225786597E+04  0.21986333452E+04 0.  0.
        3    1    3    3  502    0 -0.50471935079E+03  0.43242262245E+03  0.10478748763E+04  0.12408757851E+04  0.10100000352E+00 0.  1.
       -3    1    3    3    0  502  0.50471935079E+03 -0.43242262245E+03 -0.72250230203E+03  0.98170287466E+03  0.10100000352E+00 0. -1.
</event>
<event>
 5   0  0.6306919E-05  0.2198752E+04  0.7818609E-02  0.8518948E-01
        2   -1    0    0  501    0  0.00000000000E+00  0.00000000000E+00  0.12744101705E+04  0.12744101705E+04  0.25500000920E-02 0.  1.
       -2   -1    0    0    0  501  0.00000000000E+00  0.00000000000E+00 -0.94838163353E+03  0.94838163353E+03  0.25500000920E-02 0. -1.
    10030    2    1    2    0    0  0.00000000000E+00  0.00000000000E+00  0.32602853696E+03  0.22227918040E+04  0.21987516452E+04 0.  0.
        3    1    3    3  502    0  0.10534979726E+04 -0.27695217864E+02 -0.15346151992E+03  0.10649767376E+04  0.10100000352E+00 0. -1.
       -3    1    3    3    0  502 -0.10534979726E+04  0.27695217864E+02  0.47949005688E+03  0.11578150665E+04  0.10100000352E+00 0.  1.
</event>
<event>
 5   0  0.6293013E-05  0.2244993E+04  0.7818609E-02  0.8499931E-01
       -2   -1    0    0    0  501  0.00000000000E+00  0.00000000000E+00  0.14442815748E+04  0.14442815748E+04  0.25500000920E-02 0. -1.
        2   -1    0    0  501    0  0.00000000000E+00  0.00000000000E+00 -0.87240498526E+03  0.87240498526E+03  0.25500000920E-02 0.  1.
    10030    2    1    2    0    0  0.00000000000E+00  0.00000000000E+00  0.57187658956E+03  0.23166865601E+04  0.22449930476E+04 0.  0.
        1    1    3    3  502    0  0.26890303677E+03 -0.41318061900E+03 -0.75471639091E+03  0.90145654240E+03  0.50400001928E-02 0.  1.
       -1    1    3    3    0  502 -0.26890303677E+03  0.41318061900E+03  0.13265929805E+04  0.14152300177E+04  0.50400001928E-02 0. -1.
</event>
<event>
 5   0  0.6293013E-05  0.2203325E+04  0.7818609E-02  0.8517045E-01
        2   -1    0    0  501    0  0.00000000000E+00  0.00000000000E+00  0.10149690832E+04  0.10149690832E+04  0.25500000920E-02 0.  1.
       -2   -1    0    0    0  501  0.00000000000E+00  0.00000000000E+00 -0.11957609138E+04  0.11957609138E+04  0.25500000920E-02 0. -1.
    10030    2    1    2    0    0  0.00000000000E+00  0.00000000000E+00 -0.18079183059E+03  0.22107299970E+04  0.22033250858E+04 0.  0.
        1    1    3    3  502    0  0.39069129133E+02 -0.46193755982E+03  0.91233639887E+03  0.10233623067E+04  0.50400001928E-02 0.  1.
       -1    1    3    3    0  502 -0.39069129133E+02  0.46193755982E+03 -0.10931282295E+04  0.11873676904E+04  0.50400001928E-02 0. -1.
</event>
<event>
 5   0  0.6414768E-05  0.2202053E+04  0.7818609E-02  0.8517574E-01
        2   -1    0    0  501    0  0.00000000000E+00  0.00000000000E+00  0.10029586410E+04  0.10029586410E+04  0.25500000920E-02 0. -1.
       -2   -1    0    0    0  501  0.00000000000E+00  0.00000000000E+00 -0.12086836832E+04  0.12086836832E+04  0.25500000920E-02 0.  1.
    10030    2    1    2    0    0  0.00000000000E+00  0.00000000000E+00 -0.20572504225E+03  0.22116423242E+04  0.22020533547E+04 0.  0.
        2    1    3    3  502    0  0.10397293589E+04  0.34396247065E+03 -0.21699018607E+03  0.11164372180E+04  0.25500000920E-02 0. -1.
       -2    1    3    3    0  502 -0.10397293589E+04 -0.34396247065E+03  0.11265143823E+02  0.10952051061E+04  0.25500000920E-02 0.  1.
</event>
<event>
 5   0  0.2908031E-05  0.2188671E+04  0.7818609E-02  0.8523158E-01
       -1   -1    0    0    0  501  0.00000000000E+00  0.00000000000E+00  0.86482475819E+03  0.86482475821E+03  0.50400001928E-02 0. -1.
        1   -1    0    0  501    0  0.00000000000E+00  0.00000000000E+00 -0.13847542575E+04  0.13847542575E+04  0.50400001928E-02 0.  1.
    10030    2    1    2    0    0  0.00000000000E+00  0.00000000000E+00 -0.51992949934E+03  0.22495790158E+04  0.21886706157E+04 0.  0.
        1    1    3    3  502    0  0.61234119195E+03 -0.11869480494E+03 -0.11841650689E+04  0.13383934782E+04  0.50400001928E-02 0.  1.
       -1    1    3    3    0  502 -0.61234119195E+03  0.11869480494E+03  0.66423556951E+03  0.91118553759E+03  0.50400001928E-02 0. -1.
</event>
<event>
 5   0  0.6293013E-05  0.2213386E+04  0.7818609E-02  0.8512877E-01
        2   -1    0    0  501    0  0.00000000000E+00  0.00000000000E+00  0.13988188307E+04  0.13988188307E+04  0.25500000920E-02 0. -1.
       -2   -1    0    0    0  501  0.00000000000E+00  0.00000000000E+00 -0.87557382767E+03  0.87557382767E+03  0.25500000920E-02 0.  1.
    10030    2    1    2    0    0  0.00000000000E+00  0.00000000000E+00  0.52324500307E+03  0.22743926584E+04  0.22133857846E+04 0.  0.
        1    1    3    3  502    0  0.31969198607E+03  0.22290098117E+03 -0.80272678973E+03  0.89233296047E+03  0.50400001928E-02 0.  1.
       -1    1    3    3    0  502 -0.31969198607E+03 -0.22290098117E+03  0.13259717928E+04  0.13820596979E+04  0.50400001928E-02 0. -1.
</event>
<event>
 5   0  0.6628798E-05  0.2157317E+04  0.7818609E-02  0.8536407E-01
       -2   -1    0    0    0  501  0.00000000000E+00  0.00000000000E+00  0.15791624860E+04  0.15791624860E+04  0.25500000920E-02 0.  1.
        2   -1    0    0  501    0  0.00000000000E+00  0.00000000000E+00 -0.73678580304E+03  0.73678580305E+03  0.25500000920E-02 0. -1.
    10030    2    1    2    0    0  0.00000000000E+00  0.00000000000E+00  0.84237668297E+03  0.23159482891E+04  0.21573173159E+04 0.  0.
        4    1    3    3  502    0  0.42886671901E+03 -0.73565869540E+03 -0.28960186870E+03  0.89943939987E+03  0.12699999809E+01 0. -1.
       -4    1    3    3    0  502 -0.42886671901E+03  0.73565869540E+03  0.11319785517E+04  0.14165088892E+04  0.12699999809E+01 0.  1.
</event>
<event>
 5   0  0.6306919E-05  0.2186473E+04  0.7818609E-02  0.8524080E-01
        2   -1    0    0  501    0  0.00000000000E+00  0.00000000000E+00  0.11800416421E+04  0.11800416421E+04  0.25500000920E-02 0.  1.
       -2   -1    0    0    0  501  0.00000000000E+00  0.00000000000E+00 -0.10128165022E+04  0.10128165022E+04  0.25500000920E-02 0. -1.
    10030    2    1    2    0    0  0.00000000000E+00  0.00000000000E+00  0.16722513995E+03  0.21928581443E+04  0.21864726373E+04 0.  0.
        3    1    3    3  502    0 -0.10171468352E+04 -0.34640786795E+03  0.28564452533E+03  0.11118358244E+04  0.10100000352E+00 0. -1.
       -3    1    3    3    0  502  0.10171468352E+04  0.34640786795E+03 -0.11841938538E+03  0.10810223200E+04  0.10100000352E+00 0.  1.
</event>
<event>
 5   0  0.2910318E-05  0.2204633E+04  0.7818609E-02  0.8516502E-01
        1   -1    0    0  501    0  0.00000000000E+00  0.00000000000E+00  0.32322513378E+04  0.32322513378E+04  0.50400001928E-02 0. -1.
       -1   -1    0    0    0  501  0.00000000000E+00  0.00000000000E+00 -0.37593058882E+03  0.37593058885E+03  0.50400001928E-02 0.  1.
    10030    2    1    2    0    0  0.00000000000E+00  0.00000000000E+00  0.28563207490E+04  0.36081819267E+04  0.22046334378E+04 0.  0.
        5    1    3    3  502    0  0.61484560780E+03 -0.83782401057E+03  0.82660852793E+03  0.13278885279E+04  0.46999998093E+01 0.  1.
       -5    1    3    3    0  502 -0.61484560780E+03  0.83782401057E+03  0.20297122211E+04  0.22802933988E+04  0.46999998093E+01 0. -1.
</event>
<event>
 5   0  0.2929471E-05  0.2531770E+04  0.7818609E-02  0.8391754E-01
       -1   -1    0    0    0  501  0.00000000000E+00  0.00000000000E+00  0.11390975107E+04  0.11390975107E+04  0.50400001928E-02 0.  1.
        1   -1    0    0  501    0  0.00000000000E+00  0.00000000000E+00 -0.14067848916E+04  0.14067848916E+04  0.50400001928E-02 0. -1.
    10030    2    1    2    0    0  0.00000000000E+00  0.00000000000E+00 -0.26768738086E+03  0.25458824023E+04  0.25317702645E+04 0.  0.
        2    1    3    3  502    0 -0.49786948919E+03  0.10141150286E+03 -0.12997489182E+04  0.13955305700E+04  0.25500000920E-02 0. -1.
       -2    1    3    3    0  502  0.49786948919E+03 -0.10141150286E+03  0.10320615374E+04  0.11503518323E+04  0.25500000920E-02 0.  1.
</event>
<event>
 5   0  0.6293013E-05  0.2213802E+04  0.7818609E-02  0.8512705E-01
        2   -1    0    0  501    0  0.00000000000E+00  0.00000000000E+00  0.84496491494E+03  0.84496491494E+03  0.25500000920E-02 0. -1.
       -2   -1    0    0    0  501  0.00000000000E+00  0.00000000000E+00 -0.14500367706E+04  0.14500367706E+04  0.25500000920E-02 0.  1.
    10030    2    1    2    0    0  0.00000000000E+00  0.00000000000E+00 -0.60507185562E+03  0.22950016855E+04  0.22138023367E+04 0.  0.
        1    1    3    3  502    0 -0.39291517512E+03  0.63355434101E+02  0.76822516275E+03  0.86519717209E+03  0.50400001928E-02 0. -1.
       -1    1    3    3    0  502  0.39291517512E+03 -0.63355434101E+02 -0.13732970184E+04  0.14298045134E+04  0.50400001928E-02 0.  1.
</event>
<event>
 5   0  0.6628798E-05  0.2387280E+04  0.7818609E-02  0.8444281E-01
        2   -1    0    0  501    0  0.00000000000E+00  0.00000000000E+00  0.19653467624E+04  0.19653467624E+04  0.25500000920E-02 0. -1.
       -2   -1    0    0    0  501  0.00000000000E+00  0.00000000000E+00 -0.72494926957E+03  0.72494926957E+03  0.25500000920E-02 0.  1.
    10030    2    1    2    0    0  0.00000000000E+00  0.00000000000E+00  0.12403974929E+04  0.26902960320E+04  0.23872802097E+04 0.  0.
        4    1    3    3  502    0  0.46845385474E+03  0.58511998043E+03  0.16670673559E+04  0.18278209944E+04  0.12699999809E+01 0. -1.
       -4    1    3    3    0  502 -0.46845385474E+03 -0.58511998043E+03 -0.42666986307E+03  0.86247503759E+03  0.12699999809E+01 0.  1.
</event>
<event>
 5   0  0.6306919E-05  0.2194227E+04  0.7818609E-02  0.8520835E-01
        2   -1    0    0  501    0  0.00000000000E+00  0.00000000000E+00  0.93057294801E+03  0.93057294802E+03  0.25500000920E-02 0.  1.
       -2   -1    0    0    0  501  0.00000000000E+00  0.00000000000E+00 -0.12934590705E+04  0.12934590706E+04  0.25500000920E-02 0. -1.
    10030    2    1    2    0    0  0.00000000000E+00  0.00000000000E+00 -0.36288612254E+03  0.22240320186E+04  0.21942269896E+04 0.  0.
        3    1    3    3  502    0 -0.10438788741E+04 -0.21858140557E+03 -0.44222582572E+03  0.11545668563E+04  0.10100000352E+00 0. -1.
       -3    1    3    3    0  502  0.10438788741E+04  0.21858140557E+03  0.79339703182E+02  0.10694651623E+04  0.10100000352E+00 0.  1.
</event>
<event>
 5   0  0.2908031E-05  0.2172547E+04  0.7818609E-02  0.8529942E-01
        1   -1    0    0  501    0  0.00000000000E+00  0.00000000000E+00  0.10703320940E+04  0.10703320941E+04  0.50400001928E-02 0.  1.
       -1   -1    0    0    0  501  0.00000000000E+00  0.00000000000E+00 -0.11024519204E+04  0.11024519205E+04  0.50400001928E-02 0. -1.
    10030    2    1    2    0    0  0.00000000000E+00  0.00000000000E+00 -0.32119826402E+02  0.21727840145E+04  0.21725465911E+04 0.  0.
        1    1    3    3  502    0  0.43506450695E+03  0.96820463378E+03 -0.24692780227E+03  0.10898048805E+04  0.50400001928E-02 0. -1.
       -1    1    3    3    0  502 -0.43506450695E+03 -0.96820463378E+03  0.21480797587E+03  0.10829791340E+04  0.50400001928E-02 0.  1.
</event>
<event>
 5   0  0.6414768E-05  0.2187434E+04  0.7818609E-02  0.8523676E-01
       -2   -1    0    0    0  501  0.00000000000E+00  0.00000000000E+00  0.49356360795E+03  0.49356360795E+03  0.25500000920E-02 0. -1.
        2   -1    0    0  501    0  0.00000000000E+00  0.00000000000E+00 -0.24236333172E+04  0.24236333172E+04  0.25500000920E-02 0.  1.
    10030    2    1    2    0    0  0.00000000000E+00  0.00000000000E+00 -0.19300697093E+04  0.29171969252E+04  0.21874343002E+04 0.  0.
        2    1    3    3  502    0  0.98560434969E+03 -0.51593026293E+02 -0.33647946334E+03  0.10427349633E+04  0.25500000920E-02 0.  1.
       -2    1    3    3    0  502 -0.98560434969E+03  0.51593026293E+02 -0.15935902460E+04  0.18744619619E+04  0.25500000920E-02 0. -1.
</event>
<event>
 5   0  0.2908031E-05  0.2197503E+04  0.7818609E-02  0.8519468E-01
        1   -1    0    0  501    0  0.00000000000E+00  0.00000000000E+00  0.13110065589E+04  0.13110065589E+04  0.50400001928E-02 0.  1.
       -1   -1    0    0    0  501  0.00000000000E+00  0.00000000000E+00 -0.92086104898E+03  0.92086104900E+03  0.50400001928E-02 0. -1.
    10030    2    1    2    0    0  0.00000000000E+00  0.00000000000E+00  0.39014550991E+03  0.22318676079E+04  0.21975030149E+04 0.  0.
        1    1    3    3  502    0  0.39109155334E+03  0.10262527594E+04  0.16127251354E+03  0.11100252938E+04  0.50400001928E-02 0. -1.
       -1    1    3    3    0  502 -0.39109155334E+03 -0.10262527594E+04  0.22887299637E+03  0.11218423141E+04  0.50400001928E-02 0.  1.
</event>
<event>
 5   0  0.2929471E-05  0.2165034E+04  0.7818609E-02  0.8533124E-01
       -1   -1    0    0    0  501  0.00000000000E+00  0.00000000000E+00  0.10612031287E+04  0.10612031287E+04  0.50400001928E-02 0. -1.
        1   -1    0    0  501    0  0.00000000000E+00  0.00000000000E+00 -0.11042592409E+04  0.11042592410E+04  0.50400001928E-02 0.  1.
    10030    2    1    2    0    0  0.00000000000E+00  0.00000000000E+00 -0.43056112261E+02  0.21654623696E+04  0.21650342828E+04 0.  0.
        2    1    3    3  502    0  0.18907216576E+03 -0.34885346158E+03 -0.10288996498E+04  0.11027608584E+04  0.25500000920E-02 0.  1.
       -2    1    3    3    0  502 -0.18907216576E+03  0.34885346158E+03  0.98584353751E+03  0.10627015112E+04  0.25500000920E-02 0. -1.
</event>
<event>
 5   0  0.6445740E-05  0.2173692E+04  0.7818609E-02  0.8529458E-01
        2   -1    0    0  501    0  0.00000000000E+00  0.00000000000E+00  0.12190055636E+04  0.12190055636E+04  0.25500000920E-02 0.  1.
       -2   -1    0    0    0  501  0.00000000000E+00  0.00000000000E+00 -0.96901497447E+03  0.96901497448E+03  0.25500000920E-02 0. -1.
    10030    2    1    2    0    0  0.00000000000E+00  0.00000000000E+00  0.24999058915E+03  0.21880205381E+04  0.21736923840E+04 0.  0.
        5    1    3    3  502    0 -0.36419915073E+03 -0.38510990105E+03  0.10800708844E+04  0.12031316896E+04  0.46999998093E+01 0.  1.
       -5    1    3    3    0  502  0.36419915073E+03  0.38510990105E+03 -0.83008029525E+03  0.98488884847E+03  0.46999998093E+01 0. -1.
</event>
<event>
 5   0  0.2908031E-05  0.2196785E+04  0.7818609E-02  0.8519767E-01
       -1   -1    0    0    0  501  0.00000000000E+00  0.00000000000E+00  0.54610646684E+03  0.54610646687E+03  0.50400001928E-02 0. -1.
        1   -1    0    0  501    0  0.00000000000E+00  0.00000000000E+00 -0.22092140451E+04  0.22092140452E+04  0.50400001928E-02 0.  1.
    10030    2    1    2    0    0  0.00000000000E+00  0.00000000000E+00 -0.16631075783E+04  0.27553205120E+04  0.21967849933E+04 0.  0.
        1    1    3    3  502    0  0.58848122729E+02 -0.10648894515E+04 -0.11610507266E+04  0.15765441432E+04  0.50400001928E-02 0.  1.
       -1    1    3    3    0  502 -0.58848122729E+02  0.10648894515E+04 -0.50205685166E+03  0.11787763689E+04  0.50400001928E-02 0. -1.
</event>
<event>
 5   0  0.6628798E-05  0.2079286E+04  0.7818609E-02  0.8570423E-01
        2   -1    0    0  501    0  0.00000000000E+00  0.00000000000E+00  0.25405723830E+04  0.25405723830E+04  0.25500000920E-02 0.  1.
       -2   -1    0    0    0  501  0.00000000000E+00  0.00000000000E+00 -0.42543859569E+03  0.42543859570E+03  0.25500000920E-02 0. -1.
    10030    2    1    2    0    0  0.00000000000E+00  0.00000000000E+00  0.21151337873E+04  0.29660109787E+04  0.20792859802E+04 0.  0.
        4    1    3    3  502    0 -0.78895475204E+02 -0.47478896156E+03  0.23720810906E+04  0.24204171887E+04  0.12699999809E+01 0.  1.
       -4    1    3    3    0  502  0.78895475204E+02  0.47478896156E+03 -0.25694730336E+03  0.54559378995E+03  0.12699999809E+01 0. -1.
</event>
<event>
 5   0  0.2245375E-05  0.2192824E+04  0.7818609E-02  0.8521421E-01
       -3   -1    0    0    0  501  0.00000000000E+00  0.00000000000E+00  0.15160358236E+04  0.15160358269E+04  0.10100000352E+00 0. -1.
        3   -1    0    0  501    0  0.00000000000E+00  0.00000000000E+00 -0.79293621697E+03  0.79293622340E+03  0.10100000352E+00 0.  1.
    10030    2    1    2    0    0  0.00000000000E+00  0.00000000000E+00  0.72309960662E+03  0.23089720503E+04  0.21928244089E+04 0.  0.
        2    1    3    3  502    0 -0.90899970762E+03 -0.39756078610E+03  0.85294225068E+03  0.13083751488E+04  0.25500000920E-02 0. -1.
       -2    1    3    3    0  502  0.90899970762E+03  0.39756078610E+03 -0.12984264406E+03  0.10005969015E+04  0.25500000920E-02 0.  1.
</event>
<event>
 5   0  0.6306919E-05  0.2192480E+04  0.7818609E-02  0.8521565E-01
        2   -1    0    0  501    0  0.00000000000E+00  0.00000000000E+00  0.19705883456E+04  0.19705883456E+04  0.25500000920E-02 0. -1.
       -2   -1    0    0    0  501  0.00000000000E+00  0.00000000000E+00 -0.60983934183E+03  0.60983934183E+03  0.25500000920E-02 0.  1.
    10030    2    1    2    0    0  0.00000000000E+00  0.00000000000E+00  0.13607490038E+04  0.25804276875E+04  0.21924801479E+04 0.  0.
        3    1    3    3  502    0 -0.59212370295E+03 -0.69759808295E+03  0.13909301116E+04  0.16649144574E+04  0.10100000352E+00 0. -1.
       -3    1    3    3    0  502  0.59212370295E+03  0.69759808295E+03 -0.30181107795E+02  0.91551323006E+03  0.10100000352E+00 0.  1.
</event>
<event>
 5   0  0.6306919E-05  0.2175797E+04  0.7818609E-02  0.8528570E-01
       -2   -1    0    0    0  501  0.00000000000E+00  0.00000000000E+00  0.11413602460E+04  0.11413602460E+04  0.25500000920E-02 0.  1.
        2   -1    0    0  501    0  0.00000000000E+00  0.00000000000E+00 -0.10369407308E+04  0.10369407308E+04  0.25500000920E-02 0. -1.
    10030    2    1    2    0    0  0.00000000000E+00  0.00000000000E+00  0.10441951523E+03  0.21783009768E+04  0.21757967990E+04 0.  0.
        3    1    3    3  502    0 -0.27936888242E+03  0.91209085983E+03 -0.47142778766E+03  0.10640492837E+04  0.10100000352E+00 0. -1.
       -3    1    3    3    0  502  0.27936888242E+03 -0.91209085983E+03  0.57584730290E+03  0.11142516931E+04  0.10100000352E+00 0.  1.
</event>
<event>
 5   0  0.2820239E-05  0.2203298E+04  0.7818609E-02  0.8517057E-01
        1   -1    0    0  501    0  0.00000000000E+00  0.00000000000E+00  0.11348657417E+04  0.11348657417E+04  0.50400001928E-02 0.  1.
       -1   -1    0    0    0  501  0.00000000000E+00  0.00000000000E+00 -0.10694046914E+04  0.10694046914E+04  0.50400001928E-02 0. -1.
    10030    2    1    2    0    0  0.00000000000E+00  0.00000000000E+00  0.65461050268E+02  0.22042704332E+04  0.22032982080E+04 0.  0.
        3    1    3    3  502    0 -0.85780797416E+02 -0.83494546228E+03 -0.68112372537E+03  0.10809356177E+04  0.10100000352E+00 0. -1.
       -3    1    3    3    0  502  0.85780797416E+02  0.83494546228E+03  0.74658477563E+03  0.11233348154E+04  0.10100000352E+00 0.  1.
</event>
<event>
 5   0  0.6414768E-05  0.2201516E+04  0.7818609E-02  0.8517798E-01
       -2   -1    0    0    0  501  0.00000000000E+00  0.00000000000E+00  0.11008263569E+04  0.11008263569E+04  0.25500000920E-02 0. -1.
        2   -1    0    0  501    0  0.00000000000E+00  0.00000000000E+00 -0.11006892170E+04  0.11006892170E+04  0.25500000920E-02 0.  1.
    10030    2    1    2    0    0  0.00000000000E+00  0.00000000000E+00  0.13713995116E+00  0.22015155739E+04  0.22015155696E+04 0.  0.
        2    1    3    3  502    0 -0.12237607419E+01  0.72833146474E+03 -0.82527952829E+03  0.11007063732E+04  0.25500000920E-02 0.  1.
       -2    1    3    3    0  502  0.12237607419E+01 -0.72833146474E+03  0.82541666824E+03  0.11008092007E+04  0.25500000920E-02 0. -1.
</event>
<event>
 5   0  0.6628798E-05  0.2204648E+04  0.7818609E-02  0.8516496E-01
        2   -1    0    0  501    0  0.00000000000E+00  0.00000000000E+00  0.16268129511E+04  0.16268129511E+04  0.25500000920E-02 0.  1.
       -2   -1    0    0    0  501  0.00000000000E+00  0.00000000000E+00 -0.74693173440E+03  0.74693173440E+03  0.25500000920E-02 0. -1.
    10030    2    1    2    0    0  0.00000000000E+00  0.00000000000E+00  0.87988121668E+03  0.23737446855E+04  0.22046480164E+04 0.  0.
        4    1    3    3  502    0 -0.97927327301E+02  0.84528562526E+03  0.11944139813E+04  0.14665346642E+04  0.12699999809E+01 0.  1.
       -4    1    3    3    0  502  0.97927327301E+02 -0.84528562526E+03 -0.31453276466E+03  0.90721002124E+03  0.12699999809E+01 0. -1.
</event>
<event>
 5   0  0.6628798E-05  0.2173283E+04  0.7818609E-02  0.8529631E-01
        2   -1    0    0  501    0  0.00000000000E+00  0.00000000000E+00  0.12357913506E+04  0.12357913506E+04  0.25500000920E-02 0. -1.
       -2   -1    0    0    0  501  0.00000000000E+00  0.00000000000E+00 -0.95549322056E+03  0.95549322057E+03  0.25500000920E-02 0.  1.
    10030    2    1    2    0    0  0.00000000000E+00  0.00000000000E+00  0.28029813003E+03  0.21912845712E+04  0.21732834675E+04 0.  0.
        4    1    3    3  502    0 -0.40871280806E+03  0.95864614673E+03 -0.17019912052E+03  0.10559441025E+04  0.12699999809E+01 0.  1.
       -4    1    3    3    0  502  0.40871280806E+03 -0.95864614673E+03  0.45049725054E+03  0.11353404686E+04  0.12699999809E+01 0. -1.
</event>
<event>
 5   0  0.2753631E-05  0.2287837E+04  0.7818609E-02  0.8482732E-01
        1   -1    0    0  501    0  0.00000000000E+00  0.00000000000E+00  0.11047918052E+04  0.11047918052E+04  0.50400001928E-02 0.  1.
       -1   -1    0    0    0  501  0.00000000000E+00  0.00000000000E+00 -0.11844306712E+04  0.11844306713E+04  0.50400001928E-02 0. -1.
    10030    2    1    2    0    0  0.00000000000E+00  0.00000000000E+00 -0.79638866026E+02  0.22892224765E+04  0.22878367944E+04 0.  0.
        4    1    3    3  502    0 -0.78124793547E+03  0.52699688133E+03  0.60901269525E+03  0.11220392709E+04  0.12699999809E+01 0.  1.
       -4    1    3    3    0  502  0.78124793547E+03 -0.52699688133E+03 -0.68865156127E+03  0.11671832056E+04  0.12699999809E+01 0. -1.
</event>
<event>
 5   0  0.2820239E-05  0.2203981E+04  0.7818609E-02  0.8516773E-01
        1   -1    0    0  501    0  0.00000000000E+00  0.00000000000E+00  0.16297428239E+04  0.16297428239E+04  0.50400001928E-02 0.  1.
       -1   -1    0    0    0  501  0.00000000000E+00  0.00000000000E+00 -0.74513785697E+03  0.74513785699E+03  0.50400001928E-02 0. -1.
    10030    2    1    2    0    0  0.00000000000E+00  0.00000000000E+00  0.88460496692E+03  0.23748806809E+04  0.22039810119E+04 0.  0.
        3    1    3    3  502    0  0.99359637953E+03 -0.25967473504E+03  0.11665496185E+02  0.10270349689E+04  0.10100000352E+00 0. -1.
       -3    1    3    3    0  502 -0.99359637953E+03  0.25967473504E+03  0.87293947073E+03  0.13478457119E+04  0.10100000352E+00 0.  1.
</event>
<event>
 5   0  0.2908031E-05  0.2241149E+04  0.7818609E-02  0.8501493E-01
        1   -1    0    0  501    0  0.00000000000E+00  0.00000000000E+00  0.11747642061E+04  0.11747642061E+04  0.50400001928E-02 0.  1.
       -1   -1    0    0    0  501  0.00000000000E+00  0.00000000000E+00 -0.10688847612E+04  0.10688847612E+04  0.50400001928E-02 0. -1.
    10030    2    1    2    0    0  0.00000000000E+00  0.00000000000E+00  0.10587944491E+03  0.22436489673E+04  0.22411493104E+04 0.  0.
        1    1    3    3  502    0 -0.29190905478E+03 -0.27895488836E+02 -0.10297925600E+04  0.10707295509E+04  0.50400001928E-02 0. -1.
       -1    1    3    3    0  502  0.29190905478E+03  0.27895488836E+02  0.11356720049E+04  0.11729194164E+04  0.50400001928E-02 0.  1.
</event>
<event>
 5   0  0.2753631E-05  0.1888698E+04  0.7818609E-02  0.8660503E-01
       -1   -1    0    0    0  501  0.00000000000E+00  0.00000000000E+00  0.92054367329E+03  0.92054367330E+03  0.50400001928E-02 0. -1.
        1   -1    0    0  501    0  0.00000000000E+00  0.00000000000E+00 -0.96876968188E+03  0.96876968189E+03  0.50400001928E-02 0.  1.
    10030    2    1    2    0    0  0.00000000000E+00  0.00000000000E+00 -0.48226008589E+02  0.18893133552E+04  0.18886977541E+04 0.  0.
        4    1    3    3  502    0 -0.35738757762E+02  0.42791869980E+03 -0.86545879022E+03  0.96613260111E+03  0.12699999809E+01 0.  1.
       -4    1    3    3    0  502  0.35738757762E+02 -0.42791869980E+03  0.81723278164E+03  0.92318075409E+03  0.12699999809E+01 0. -1.
</event>
<event>
 5   0  0.2908031E-05  0.2206529E+04  0.7818609E-02  0.8515715E-01
       -1   -1    0    0    0  501  0.00000000000E+00  0.00000000000E+00  0.21001981161E+04  0.21001981161E+04  0.50400001928E-02 0. -1.
        1   -1    0    0  501    0  0.00000000000E+00  0.00000000000E+00 -0.57956086790E+03  0.57956086792E+03  0.50400001928E-02 0.  1.
    10030    2    1    2    0    0  0.00000000000E+00  0.00000000000E+00  0.15206372482E+04  0.26797589840E+04  0.22065290779E+04 0.  0.
        1    1    3    3  502    0  0.88251858876E+03  0.35093332701E+03  0.14421527912E+04  0.17267883289E+04  0.50400001928E-02 0. -1.
       -1    1    3    3    0  502 -0.88251858876E+03 -0.35093332701E+03  0.78484456970E+02  0.95297065513E+03  0.50400001928E-02 0.  1.
</event>
<event>
 5   0  0.6414768E-05  0.1982136E+04  0.7818609E-02  0.8615018E-01
        2   -1    0    0  501    0  0.00000000000E+00  0.00000000000E+00  0.12130847124E+04  0.12130847124E+04  0.25500000920E-02 0.  1.
       -2   -1    0    0    0  501  0.00000000000E+00  0.00000000000E+00 -0.80968452376E+03  0.80968452377E+03  0.25500000920E-02 0. -1.
    10030    2    1    2    0    0  0.00000000000E+00  0.00000000000E+00  0.40340018868E+03  0.20227692362E+04  0.19821361383E+04 0.  0.
        2    1    3    3  502    0  0.60120414919E+03 -0.31872789788E+03 -0.53361364430E+03  0.86474124644E+03  0.25500000920E-02 0. -1.
       -2    1    3    3    0  502 -0.60120414919E+03  0.31872789788E+03  0.93701383298E+03  0.11580279898E+04  0.25500000920E-02 0.  1.
</event>
<event>
 5   0  0.2753631E-05  0.2236450E+04  0.7818609E-02  0.8503408E-01
        1   -1    0    0  501    0  0.00000000000E+00  0.00000000000E+00  0.96378799472E+03  0.96378799474E+03  0.50400001928E-02 0. -1.
       -1   -1    0    0    0  501  0.00000000000E+00  0.00000000000E+00 -0.12974083952E+04  0.12974083952E+04  0.50400001928E-02 0.  1.
    10030    2    1    2    0    0  0.00000000000E+00  0.00000000000E+00 -0.33362040043E+03  0.22611963899E+04  0.22364495394E+04 0.  0.
        4    1    3    3  502    0 -0.55561357748E+03 -0.89481373565E+03 -0.54650114696E+03  0.11866183824E+04  0.12699999809E+01 0.  1.
       -4    1    3    3    0  502  0.55561357748E+03  0.89481373565E+03  0.21288074653E+03  0.10745780075E+04  0.12699999809E+01 0. -1.
</event>
<event>
 5   0  0.6628798E-05  0.2215845E+04  0.7818609E-02  0.8511862E-01
        2   -1    0    0  501    0  0.00000000000E+00  0.00000000000E+00  0.17216418318E+04  0.17216418318E+04  0.25500000920E-02 0.  1.
       -2   -1    0    0    0  501  0.00000000000E+00  0.00000000000E+00 -0.71297743150E+03  0.71297743151E+03  0.25500000920E-02 0. -1.
    10030    2    1    2    0    0  0.00000000000E+00  0.00000000000E+00  0.10086644003E+04  0.24346192633E+04  0.22158445534E+04 0.  0.
        4    1    3    3  502    0  0.64415626617E+03 -0.31865700001E+03  0.14307988594E+04  0.16011453925E+04  0.12699999809E+01 0.  1.
       -4    1    3    3    0  502 -0.64415626617E+03  0.31865700001E+03 -0.42213445909E+03  0.83347387083E+03  0.12699999809E+01 0. -1.
</event>
<event>
 5   0  0.2908031E-05  0.2279647E+04  0.7818609E-02  0.8485990E-01
        1   -1    0    0  501    0  0.00000000000E+00  0.00000000000E+00  0.15502956115E+04  0.15502956115E+04  0.50400001928E-02 0.  1.
       -1   -1    0    0    0  501  0.00000000000E+00  0.00000000000E+00 -0.83803182628E+03  0.83803182630E+03  0.50400001928E-02 0. -1.
    10030    2    1    2    0    0  0.00000000000E+00  0.00000000000E+00  0.71226378526E+03  0.23883274378E+04  0.22796465188E+04 0.  0.
        1    1    3    3  502    0 -0.45040022897E+03 -0.78232754398E+03 -0.37296245437E+03  0.97672808126E+03  0.50400001928E-02 0. -1.
       -1    1    3    3    0  502  0.45040022897E+03  0.78232754398E+03  0.10852262396E+04  0.14115993566E+04  0.50400001928E-02 0.  1.
</event>
<event>
 5   0  0.2820239E-05  0.2178593E+04  0.7818609E-02  0.8527391E-01
        1   -1    0    0  501    0  0.00000000000E+00  0.00000000000E+00  0.11323645148E+04  0.11323645148E+04  0.50400001928E-02 0. -1.
       -1   -1    0    0    0  501  0.00000000000E+00  0.00000000000E+00 -0.10478667122E+04  0.10478667123E+04  0.50400001928E-02 0.  1.
    10030    2    1    2    0    0  0.00000000000E+00  0.00000000000E+00  0.84497802526E+02  0.21802312270E+04  0.21785931985E+04 0.  0.
        3    1    3    3  502    0  0.79355037105E+03 -0.63190028815E+03 -0.35497132160E+03  0.10747208079E+04  0.10100000352E+00 0.  1.
       -3    1    3    3    0  502 -0.79355037105E+03  0.63190028815E+03  0.43946912413E+03  0.11055104191E+04  0.10100000352E+00 0. -1.
</event>
<event>
 5   0  0.6414768E-05  0.2174039E+04  0.7818609E-02  0.8529312E-01
       -2   -1    0    0    0  501  0.00000000000E+00  0.00000000000E+00  0.85892548641E+03  0.85892548641E+03  0.25500000920E-02 0.  1.
        2   -1    0    0  501    0  0.00000000000E+00  0.00000000000E+00 -0.13756861786E+04  0.13756861786E+04  0.25500000920E-02 0. -1.
    10030    2    1    2    0    0  0.00000000000E+00  0.00000000000E+00 -0.51676069217E+03  0.22346116650E+04  0.21740394845E+04 0.  0.
        2    1    3    3  502    0 -0.83542788908E+03 -0.66143900123E+03 -0.47924053525E+03  0.11683804179E+04  0.25500000920E-02 0. -1.
       -2    1    3    3    0  502  0.83542788908E+03  0.66143900123E+03 -0.37520156924E+02  0.10662312471E+04  0.25500000920E-02 0.  1.
</event>
<event>
 5   0  0.6306919E-05  0.2156084E+04  0.7818609E-02  0.8536932E-01
        2   -1    0    0  501    0  0.00000000000E+00  0.00000000000E+00  0.12761783765E+04  0.12761783765E+04  0.25500000920E-02 0.  1.
       -2   -1    0    0    0  501  0.00000000000E+00  0.00000000000E+00 -0.91066791050E+03  0.91066791050E+03  0.25500000920E-02 0. -1.
    10030    2    1    2    0    0  0.00000000000E+00  0.00000000000E+00  0.36551046601E+03  0.21868462870E+04  0.21560841315E+04 0.  0.
        3    1    3    3  502    0 -0.30123312588E+03 -0.27597409261E+03 -0.82911159326E+03  0.92429926983E+03  0.10100000352E+00 0. -1.
       -3    1    3    3    0  502  0.30123312588E+03  0.27597409261E+03  0.11946220593E+04  0.12625470172E+04  0.10100000352E+00 0.  1.
</event>
<event>
 5   0  0.6445740E-05  0.2036556E+04  0.7818609E-02  0.8589718E-01
       -2   -1    0    0    0  501  0.00000000000E+00  0.00000000000E+00  0.64613289362E+03  0.64613289363E+03  0.25500000920E-02 0. -1.
        2   -1    0    0  501    0  0.00000000000E+00  0.00000000000E+00 -0.16047633034E+04  0.16047633034E+04  0.25500000920E-02 0.  1.
    10030    2    1    2    0    0  0.00000000000E+00  0.00000000000E+00 -0.95863040974E+03  0.22508961970E+04  0.20365562666E+04 0.  0.
        5    1    3    3  502    0  0.33882566601E+03  0.73157666762E+03  0.20812754658E+03  0.83267425696E+03  0.46999998093E+01 0. -1.
       -5    1    3    3    0  502 -0.33882566601E+03 -0.73157666762E+03 -0.11667579563E+04  0.14182219400E+04  0.46999998093E+01 0.  1.
</event>
<event>
 5   0  0.2753631E-05  0.2223175E+04  0.7818609E-02  0.8508844E-01
        1   -1    0    0  501    0  0.00000000000E+00  0.00000000000E+00  0.14346036419E+04  0.14346036419E+04  0.50400001928E-02 0. -1.
       -1   -1    0    0    0  501  0.00000000000E+00  0.00000000000E+00 -0.86130206640E+03  0.86130206641E+03  0.50400001928E-02 0.  1.
    10030    2    1    2    0    0  0.00000000000E+00  0.00000000000E+00  0.57330157551E+03  0.22959057083E+04  0.22231752799E+04 0.  0.
        4    1    3    3  502    0 -0.26747316858E+03  0.22181462485E+03  0.13770731885E+04  0.14202379389E+04  0.12699999809E+01 0. -1.
       -4    1    3    3    0  502  0.26747316858E+03 -0.22181462485E+03 -0.80377161298E+03  0.87566776944E+03  0.12699999809E+01 0.  1.
</event>
<event>
 5   0  0.2908031E-05  0.2219663E+04  0.7818609E-02  0.8510288E-01
        1   -1    0    0  501    0  0.00000000000E+00  0.00000000000E+00  0.69720344794E+03  0.69720344796E+03  0.50400001928E-02 0.  1.
       -1   -1    0    0    0  501  0.00000000000E+00  0.00000000000E+00 -0.17666668440E+04  0.17666668440E+04  0.50400001928E-02 0. -1.
    10030    2    1    2    0    0  0.00000000000E+00  0.00000000000E+00 -0.10694633960E+04  0.24638702919E+04  0.22196632312E+04 0.  0.
        1    1    3    3  502    0  0.98253354315E+03  0.51098782555E+03 -0.61512575372E+03  0.12668308546E+04  0.50400001928E-02 0.  1.
       -1    1    3    3    0  502 -0.98253354315E+03 -0.51098782555E+03 -0.45433764231E+03  0.11970394373E+04  0.50400001928E-02 0. -1.
</event>
<event>
 5   0  0.2820239E-05  0.2190931E+04  0.7818609E-02  0.8522212E-01
        1   -1    0    0  501    0  0.00000000000E+00  0.00000000000E+00  0.14496265367E+04  0.14496265368E+04  0.50400001928E-02 0.  1.
       -1   -1    0    0    0  501  0.00000000000E+00  0.00000000000E+00 -0.82783022790E+03  0.82783022792E+03  0.50400001928E-02 0. -1.
    10030    2    1    2    0    0  0.00000000000E+00  0.00000000000E+00  0.62179630884E+03  0.22774567647E+04  0.21909310042E+04 0.  0.
        3    1    3    3  502    0  0.36815115587E+03 -0.59893635070E+03 -0.56238993751E+03  0.90030132610E+03  0.10100000352E+00 0. -1.
       -3    1    3    3    0  502 -0.36815115587E+03  0.59893635070E+03  0.11841862463E+04  0.13771554386E+04  0.10100000352E+00 0.  1.
</event>
<event>
 5   0  0.6306919E-05  0.2296331E+04  0.7818609E-02  0.8479369E-01
       -2   -1    0    0    0  501  0.00000000000E+00  0.00000000000E+00  0.11124892245E+04  0.11124892245E+04  0.25500000920E-02 0.  1.
        2   -1    0    0  501    0  0.00000000000E+00  0.00000000000E+00 -0.11849863236E+04  0.11849863236E+04  0.25500000920E-02 0. -1.
    10030    2    1    2    0    0  0.00000000000E+00  0.00000000000E+00 -0.72497099118E+02  0.22974755481E+04  0.22963314362E+04 0.  0.
        3    1    3    3  502    0 -0.10658989720E+04  0.84455331887E+02 -0.45480036358E+03  0.11619452236E+04  0.10100000352E+00 0. -1.
       -3    1    3    3    0  502  0.10658989720E+04 -0.84455331887E+02  0.38230326447E+03  0.11355303245E+04  0.10100000352E+00 0.  1.
</event>
<event>
 5   0  0.6414768E-05  0.2218257E+04  0.7818609E-02  0.8510867E-01
        2   -1    0    0  501    0  0.00000000000E+00  0.00000000000E+00  0.14935740287E+04  0.14935740287E+04  0.25500000920E-02 0.  1.
       -2   -1    0    0    0  501  0.00000000000E+00  0.00000000000E+00 -0.82363905969E+03  0.82363905970E+03  0.25500000920E-02 0. -1.
    10030    2    1    2    0    0  0.00000000000E+00  0.00000000000E+00  0.66993496897E+03  0.23172130884E+04  0.22182568909E+04 0.  0.
        2    1    3    3  502    0 -0.10962755350E+04 -0.85073070851E+02  0.48673615348E+03  0.12024847438E+04  0.25500000920E-02 0. -1.
       -2    1    3    3    0  502  0.10962755350E+04  0.85073070851E+02  0.18319881548E+03  0.11147283445E+04  0.25500000920E-02 0.  1.
</event>
<event>
 5   0  0.2929471E-05  0.2213560E+04  0.7818609E-02  0.8512805E-01
        1   -1    0    0  501    0  0.00000000000E+00  0.00000000000E+00  0.10076175241E+04  0.10076175242E+04  0.50400001928E-02 0. -1.
       -1   -1    0    0    0  501  0.00000000000E+00  0.00000000000E+00 -0.12157013189E+04  0.12157013189E+04  0.50400001928E-02 0.  1.
    10030    2    1    2    0    0  0.00000000000E+00  0.00000000000E+00 -0.20808379479E+03  0.22233188431E+04  0.22135599862E+04 0.  0.
        2    1    3    3  502    0  0.73479849735E+03 -0.11509289301E+03  0.71919754376E+03  0.10346111891E+04  0.25500000920E-02 0. -1.
       -2    1    3    3    0  502 -0.73479849735E+03  0.11509289301E+03 -0.92728133855E+03  0.11887076540E+04  0.25500000920E-02 0.  1.
</event>
<event>
 5   0  0.2929471E-05  0.2199342E+04  0.7818609E-02  0.8518702E-01
        1   -1    0    0  501    0  0.00000000000E+00  0.00000000000E+00  0.19133706844E+04  0.19133706844E+04  0.50400001928E-02 0.  1.
       -1   -1    0    0    0  501  0.00000000000E+00  0.00000000000E+00 -0.63201369721E+03  0.63201369723E+03  0.50400001928E-02 0. -1.
    10030    2    1    2    0    0  0.00000000000E+00  0.00000000000E+00  0.12813569872E+04  0.25453843816E+04  0.21993421566E+04 0.  0.
        2    1    3    3  502    0  0.18464220773E+03 -0.77362066745E+02  0.18921033164E+04  0.19026646037E+04  0.25500000920E-02 0.  1.
       -2    1    3    3    0  502 -0.18464220773E+03  0.77362066745E+02 -0.61074632923E+03  0.64271977791E+03  0.25500000920E-02 0. -1.
</event>
<event>
 5   0  0.6293013E-05  0.2261953E+04  0.7818609E-02  0.8493075E-01
       -2   -1    0    0    0  501  0.00000000000E+00  0.00000000000E+00  0.70909224488E+03  0.70909224488E+03  0.25500000920E-02 0.  1.
        2   -1    0    0  501    0  0.00000000000E+00  0.00000000000E+00 -0.18038670972E+04  0.18038670972E+04  0.25500000920E-02 0. -1.
    10030    2    1    2    0    0  0.00000000000E+00  0.00000000000E+00 -0.10947748523E+04  0.25129593421E+04  0.22619532881E+04 0.  0.
        1    1    3    3  502    0  0.11120015043E+04  0.32470309198E+01 -0.77655493559E+03  0.13563168718E+04  0.50400001928E-02 0.  1.
       -1    1    3    3    0  502 -0.11120015043E+04 -0.32470309198E+01 -0.31821991672E+03  0.11566424703E+04  0.50400001928E-02 0. -1.
</event>
<event>
 5   0  0.2820239E-05  0.2142820E+04  0.7818609E-02  0.8542612E-01
       -1   -1    0    0    0  501  0.00000000000E+00  0.00000000000E+00  0.92350762055E+03  0.92350762056E+03  0.50400001928E-02 0.  1.
        1   -1    0    0  501    0  0.00000000000E+00  0.00000000000E+00 -0.12429999016E+04  0.12429999016E+04  0.50400001928E-02 0. -1.
    10030    2    1    2    0    0  0.00000000000E+00  0.00000000000E+00 -0.31949228107E+03  0.21665075222E+04  0.21428204605E+04 0.  0.
        3    1    3    3  502    0 -0.39186912705E+03 -0.71344711064E+02  0.84586825809E+03  0.93495700477E+03  0.10100000352E+00 0.  1.
       -3    1    3    3    0  502  0.39186912705E+03  0.71344711064E+02 -0.11653605392E+04  0.12315505174E+04  0.10100000352E+00 0. -1.
</event>
<event>
 5   0  0.6293013E-05  0.2124908E+04  0.7818609E-02  0.8550350E-01
       -2   -1    0    0    0  501  0.00000000000E+00  0.00000000000E+00  0.72848114745E+03  0.72848114746E+03  0.25500000920E-02 0.  1.
        2   -1    0    0  501    0  0.00000000000E+00  0.00000000000E+00 -0.15495365451E+04  0.15495365451E+04  0.25500000920E-02 0. -1.
    10030    2    1    2    0    0  0.00000000000E+00  0.00000000000E+00 -0.82105539769E+03  0.22780176926E+04  0.21249076784E+04 0.  0.
        1    1    3    3  502    0  0.76084552297E+03  0.48209846276E+03 -0.10146031185E+04  0.13567329604E+04  0.50400001928E-02 0. -1.
       -1    1    3    3    0  502 -0.76084552297E+03 -0.48209846276E+03  0.19354772081E+03  0.92128473225E+03  0.50400001928E-02 0.  1.
</event>
<event>
 5   0  0.2929471E-05  0.2214500E+04  0.7818609E-02  0.8512417E-01
        1   -1    0    0  501    0  0.00000000000E+00  0.00000000000E+00  0.74307388081E+03  0.74307388083E+03  0.50400001928E-02 0.  1.
       -1   -1    0    0    0  501  0.00000000000E+00  0.00000000000E+00 -0.16499067482E+04  0.16499067483E+04  0.50400001928E-02 0. -1.
    10030    2    1    2    0    0  0.00000000000E+00  0.00000000000E+00 -0.90683286743E+03  0.23929806291E+04  0.22145000433E+04 0.  0.
        2    1    3    3  502    0  0.95409288708E+03  0.30917317957E+03 -0.96040077099E+03  0.13886147533E+04  0.25500000920E-02 0. -1.
       -2    1    3    3    0  502 -0.95409288708E+03 -0.30917317957E+03  0.53567903558E+02  0.10043658758E+04  0.25500000920E-02 0.  1.
</event>
<event>
 5   0  0.2753631E-05  0.2149881E+04  0.7818609E-02  0.8539583E-01
        1   -1    0    0  501    0  0.00000000000E+00  0.00000000000E+00  0.92425101583E+03  0.92425101584E+03  0.50400001928E-02 0.  1.
       -1   -1    0    0    0  501  0.00000000000E+00  0.00000000000E+00 -0.12501983991E+04  0.12501983991E+04  0.50400001928E-02 0. -1.
    10030    2    1    2    0    0  0.00000000000E+00  0.00000000000E+00 -0.32594738327E+03  0.21744494150E+04  0.21498810575E+04 0.  0.
        4    1    3    3  502    0  0.93652733218E+03 -0.25022934265E+03 -0.63282229376E+03  0.11576544546E+04  0.12699999809E+01 0. -1.
       -4    1    3    3    0  502 -0.93652733218E+03  0.25022934265E+03  0.30687491049E+03  0.10167949604E+04  0.12699999809E+01 0.  1.
</event>
<event>
 5   0  0.6628798E-05  0.2203404E+04  0.7818609E-02  0.8517013E-01
        2   -1    0    0  501    0  0.00000000000E+00  0.00000000000E+00  0.14759132895E+04  0.14759132895E+04  0.25500000920E-02 0.  1.
       -2   -1    0    0    0  501  0.00000000000E+00  0.00000000000E+00 -0.82237016266E+03  0.82237016266E+03  0.25500000920E-02 0. -1.
    10030    2    1    2    0    0  0.00000000000E+00  0.00000000000E+00  0.65354312683E+03  0.22982834522E+04  0.22034037778E+04 0.  0.
        4    1    3    3  502    0 -0.90480303922E+03  0.49794052193E+03 -0.73323571263E+02  0.10353701088E+04  0.12699999809E+01 0. -1.
       -4    1    3    3    0  502  0.90480303922E+03 -0.49794052193E+03  0.72686669809E+03  0.12629133434E+04  0.12699999809E+01 0.  1.
</event>
<event>
 5   0  0.6414768E-05  0.2213997E+04  0.7818609E-02  0.8512625E-01
       -2   -1    0    0    0  501  0.00000000000E+00  0.00000000000E+00  0.82851644019E+03  0.82851644019E+03  0.25500000920E-02 0.  1.
        2   -1    0    0  501    0  0.00000000000E+00  0.00000000000E+00 -0.14790843377E+04  0.14790843377E+04  0.25500000920E-02 0. -1.
    10030    2    1    2    0    0  0.00000000000E+00  0.00000000000E+00 -0.65056789749E+03  0.23076007779E+04  0.22139970101E+04 0.  0.
        2    1    3    3  502    0 -0.44610908858E+03 -0.21814690229E+03 -0.13564781325E+04  0.14445187135E+04  0.25500000920E-02 0. -1.
       -2    1    3    3    0  502  0.44610908858E+03  0.21814690229E+03  0.70591023498E+03  0.86308206432E+03  0.25500000920E-02 0.  1.
</event>
<event>
 5   0  0.2910318E-05  0.2194622E+04  0.7818609E-02  0.8520670E-01
        1   -1    0    0  501    0  0.00000000000E+00  0.00000000000E+00  0.13628267001E+04  0.13628267001E+04  0.50400001928E-02 0. -1.
       -1   -1    0    0    0  501  0.00000000000E+00  0.00000000000E+00 -0.88352459890E+03  0.88352459892E+03  0.50400001928E-02 0.  1.
    10030    2    1    2    0    0  0.00000000000E+00  0.00000000000E+00  0.47930210117E+03  0.22463512990E+04  0.21946215287E+04 0.  0.
        5    1    3    3  502    0  0.53875390746E+03  0.71426785655E+03 -0.41064657588E+03  0.98442218788E+03  0.46999998093E+01 0.  1.
       -5    1    3    3    0  502 -0.53875390746E+03 -0.71426785655E+03  0.88994867706E+03  0.12619291111E+04  0.46999998093E+01 0. -1.
</event>
<event>
 5   0  0.6445740E-05  0.2240928E+04  0.7818609E-02  0.8501584E-01
        2   -1    0    0  501    0  0.00000000000E+00  0.00000000000E+00  0.23368732073E+04  0.23368732073E+04  0.25500000920E-02 0. -1.
       -2   -1    0    0    0  501  0.00000000000E+00  0.00000000000E+00 -0.53723047798E+03  0.53723047799E+03  0.25500000920E-02 0.  1.
    10030    2    1    2    0    0  0.00000000000E+00  0.00000000000E+00  0.17996427294E+04  0.28741036853E+04  0.22409279419E+04 0.  0.
        5    1    3    3  502    0 -0.65053736529E+03 -0.34841655522E+03 -0.18150233543E+03  0.75997246487E+03  0.46999998093E+01 0.  1.
       -5    1    3    3    0  502  0.65053736529E+03  0.34841655522E+03  0.19811450648E+04  0.21141312205E+04  0.46999998093E+01 0. -1.
</event>
<event>
 5   0  0.6414768E-05  0.2231340E+04  0.7818609E-02  0.8505496E-01
       -2   -1    0    0    0  501  0.00000000000E+00  0.00000000000E+00  0.17388186438E+04  0.17388186438E+04  0.25500000920E-02 0.  1.
        2   -1    0    0  501    0  0.00000000000E+00  0.00000000000E+00 -0.71584238876E+03  0.71584238876E+03  0.25500000920E-02 0. -1.
    10030    2    1    2    0    0  0.00000000000E+00  0.00000000000E+00  0.10229762550E+04  0.24546610326E+04  0.22313404864E+04 0.  0.
        2    1    3    3  502    0  0.55839787206E+03 -0.23248391655E+03 -0.51981493417E+03  0.79753653256E+03  0.25500000920E-02 0. -1.
       -2    1    3    3    0  502 -0.55839787206E+03  0.23248391655E+03  0.15427911892E+04  0.16571245000E+04  0.25500000920E-02 0.  1.
</event>
<event>
 5   0  0.2245375E-05  0.2088608E+04  0.7818609E-02  0.8566278E-01
        4   -1    0    0  501    0  0.00000000000E+00  0.00000000000E+00  0.88111539770E+03  0.88111631296E+03  0.12699999809E+01 0. -1.
       -4   -1    0    0    0  501  0.00000000000E+00  0.00000000000E+00 -0.12377146262E+04  0.12377152778E+04  0.12699999809E+01 0.  1.
    10030    2    1    2    0    0  0.00000000000E+00  0.00000000000E+00 -0.35659922850E+03  0.21188315907E+04  0.20886082208E+04 0.  0.
        1    1    3    3  502    0  0.98956233273E+03 -0.32725867242E+03 -0.24435112251E+03  0.10705322602E+04  0.50400001928E-02 0.  1.
       -1    1    3    3    0  502 -0.98956233273E+03  0.32725867242E+03 -0.11224810599E+03  0.10482993305E+04  0.50400001928E-02 0. -1.
</event>
<event>
 5   0  0.2820239E-05  0.2176896E+04  0.7818609E-02  0.8528106E-01
       -1   -1    0    0    0  501  0.00000000000E+00  0.00000000000E+00  0.11211653108E+04  0.11211653109E+04  0.50400001928E-02 0.  1.
        1   -1    0    0  501    0  0.00000000000E+00  0.00000000000E+00 -0.10566857482E+04  0.10566857482E+04  0.50400001928E-02 0. -1.
    10030    2    1    2    0    0  0.00000000000E+00  0.00000000000E+00  0.64479562666E+02  0.21778510590E+04  0.21768963277E+04 0.  0.
        3    1    3    3  502    0 -0.27445641297E+02 -0.98100778952E+03  0.50317954265E+03  0.11028686271E+04  0.10100000352E+00 0.  1.
       -3    1    3    3    0  502  0.27445641297E+02  0.98100778952E+03 -0.43869997999E+03  0.10749824319E+04  0.10100000352E+00 0. -1.
</event>
<event>
 5   0  0.6293013E-05  0.2204076E+04  0.7818609E-02  0.8516734E-01
       -2   -1    0    0    0  501  0.00000000000E+00  0.00000000000E+00  0.50903877864E+03  0.50903877865E+03  0.25500000920E-02 0.  1.
        2   -1    0    0  501    0  0.00000000000E+00  0.00000000000E+00 -0.23858442664E+04  0.23858442664E+04  0.25500000920E-02 0. -1.
    10030    2    1    2    0    0  0.00000000000E+00  0.00000000000E+00 -0.18768054878E+04  0.28948830451E+04  0.22040755445E+04 0.  0.
        1    1    3    3  502    0 -0.10472290681E+03 -0.42247623617E+03 -0.22681641477E+04  0.23095500987E+04  0.50400001928E-02 0. -1.
       -1    1    3    3    0  502  0.10472290681E+03  0.42247623617E+03  0.39135865996E+03  0.58533294636E+03  0.50400001928E-02 0.  1.
</event>
<event>
 5   0  0.2820239E-05  0.2222796E+04  0.7818609E-02  0.8509000E-01
        1   -1    0    0  501    0  0.00000000000E+00  0.00000000000E+00  0.17748249089E+04  0.17748249089E+04  0.50400001928E-02 0. -1.
       -1   -1    0    0    0  501  0.00000000000E+00  0.00000000000E+00 -0.69595881059E+03  0.69595881061E+03  0.50400001928E-02 0.  1.
    10030    2    1    2    0    0  0.00000000000E+00  0.00000000000E+00  0.10788660983E+04  0.24707837195E+04  0.22227955665E+04 0.  0.
        3    1    3    3  502    0 -0.71227819138E+03  0.94370976280E+02  0.14819458277E+04  0.16469394493E+04  0.10100000352E+00 0. -1.
       -3    1    3    3    0  502  0.71227819138E+03 -0.94370976280E+02 -0.40307972944E+03  0.82384427022E+03  0.10100000352E+00 0.  1.
</event>
<event>
 5   0  0.6414768E-05  0.2267408E+04  0.7818609E-02  0.8490884E-01
        2   -1    0    0  501    0  0.00000000000E+00  0.00000000000E+00  0.11156597183E+04  0.11156597184E+04  0.25500000920E-02 0.  1.
       -2   -1    0    0    0  501  0.00000000000E+00  0.00000000000E+00 -0.11520399849E+04  0.11520399849E+04  0.25500000920E-02 0. -1.
    10030    2    1    2    0    0  0.00000000000E+00  0.00000000000E+00 -0.36380266574E+02  0.22676997033E+04  0.22674078637E+04 0.  0.
        2    1    3    3  502    0  0.28759827986E+03  0.30177438694E+03  0.10362244897E+04  0.11169340823E+04  0.25500000920E-02 0.  1.
       -2    1    3    3    0  502 -0.28759827986E+03 -0.30177438694E+03 -0.10726047563E+04  0.11507656210E+04  0.25500000920E-02 0. -1.
</event>
<event>
 5   0  0.6306919E-05  0.2188965E+04  0.7818609E-02  0.8523035E-01
       -2   -1    0    0    0  501  0.00000000000E+00  0.00000000000E+00  0.10694722300E+04  0.10694722300E+04  0.25500000920E-02 0. -1.
        2   -1    0    0  501    0  0.00000000000E+00  0.00000000000E+00 -0.11200776710E+04  0.11200776710E+04  0.25500000920E-02 0.  1.
    10030    2    1    2    0    0  0.00000000000E+00  0.00000000000E+00 -0.50605441017E+02  0.21895499010E+04  0.21889650199E+04 0.  0.
        3    1    3    3  502    0 -0.16658756777E+03  0.68416025018E+03  0.81281452421E+03  0.10754041690E+04  0.10100000352E+00 0. -1.
       -3    1    3    3    0  502  0.16658756777E+03 -0.68416025018E+03 -0.86341996522E+03  0.11141457320E+04  0.10100000352E+00 0.  1.
</event>
<event>
 5   0  0.6293013E-05  0.2208365E+04  0.7818609E-02  0.8514954E-01
        2   -1    0    0  501    0  0.00000000000E+00  0.00000000000E+00  0.65834998566E+03  0.65834998567E+03  0.25500000920E-02 0.  1.
       -2   -1    0    0    0  501  0.00000000000E+00  0.00000000000E+00 -0.18519314598E+04  0.18519314598E+04  0.25500000920E-02 0. -1.
    10030    2    1    2    0    0  0.00000000000E+00  0.00000000000E+00 -0.11935814741E+04  0.25102814454E+04  0.22083650513E+04 0.  0.
        1    1    3    3  502    0  0.86109389098E+03  0.59663246607E+03 -0.20013414183E+03  0.10665395742E+04  0.50400001928E-02 0.  1.
       -1    1    3    3    0  502 -0.86109389098E+03 -0.59663246607E+03 -0.99344733228E+03  0.14437418712E+04  0.50400001928E-02 0. -1.
</event>
<event>
 5   0  0.6445740E-05  0.2201487E+04  0.7818609E-02  0.8517810E-01
       -2   -1    0    0    0  501  0.00000000000E+00  0.00000000000E+00  0.69142514095E+03  0.69142514095E+03  0.25500000920E-02 0.  1.
        2   -1    0    0  501    0  0.00000000000E+00  0.00000000000E+00 -0.17523744666E+04  0.17523744666E+04  0.25500000920E-02 0. -1.
    10030    2    1    2    0    0  0.00000000000E+00  0.00000000000E+00 -0.10609493257E+04  0.24437996076E+04  0.22014865547E+04 0.  0.
        5    1    3    3  502    0 -0.20659490133E+03 -0.54196042818E+03 -0.15689733820E+04  0.16727528575E+04  0.46999998093E+01 0. -1.
       -5    1    3    3    0  502  0.20659490133E+03  0.54196042818E+03  0.50802405632E+03  0.77104675005E+03  0.46999998093E+01 0.  1.
</event>
<event>
 5   0  0.2753631E-05  0.2185945E+04  0.7818609E-02  0.8524301E-01
       -1   -1    0    0    0  501  0.00000000000E+00  0.00000000000E+00  0.10183847412E+04  0.10183847412E+04  0.50400001928E-02 0. -1.
        1   -1    0    0  501    0  0.00000000000E+00  0.00000000000E+00 -0.11730228225E+04  0.11730228226E+04  0.50400001928E-02 0.  1.
    10030    2    1    2    0    0  0.00000000000E+00  0.00000000000E+00 -0.15463808133E+03  0.21914075638E+04  0.21859446869E+04 0.  0.
        4    1    3    3  502    0  0.23616859255E+03 -0.89424602196E+03  0.50648962480E+03  0.10545069487E+04  0.12699999809E+01 0. -1.
       -4    1    3    3    0  502 -0.23616859255E+03  0.89424602196E+03 -0.66112770613E+03  0.11369006151E+04  0.12699999809E+01 0.  1.
</event>
<event>
 5   0  0.2910318E-05  0.2178457E+04  0.7818609E-02  0.8527449E-01
       -1   -1    0    0    0  501  0.00000000000E+00  0.00000000000E+00  0.23889757176E+04  0.23889757176E+04  0.50400001928E-02 0.  1.
        1   -1    0    0  501    0  0.00000000000E+00  0.00000000000E+00 -0.49662241702E+03  0.49662241704E+03  0.50400001928E-02 0. -1.
    10030    2    1    2    0    0  0.00000000000E+00  0.00000000000E+00  0.18923533005E+04  0.28855981346E+04  0.21784571560E+04 0.  0.
        5    1    3    3  502    0  0.52660441399E+03 -0.92797738759E+03  0.65614362301E+03  0.12525976148E+04  0.46999998093E+01 0. -1.
       -5    1    3    3    0  502 -0.52660441399E+03  0.92797738759E+03  0.12362096775E+04  0.16330005198E+04  0.46999998093E+01 0.  1.
</event>
<event>
 5   0  0.6628798E-05  0.2112269E+04  0.7818609E-02  0.8555858E-01
        2   -1    0    0  501    0  0.00000000000E+00  0.00000000000E+00  0.66908460398E+03  0.66908460398E+03  0.25500000920E-02 0.  1.
       -2   -1    0    0    0  501  0.00000000000E+00  0.00000000000E+00 -0.16670831300E+04  0.16670831300E+04  0.25500000920E-02 0. -1.
    10030    2    1    2    0    0  0.00000000000E+00  0.00000000000E+00 -0.99799852603E+03  0.23361677340E+04  0.21122685964E+04 0.  0.
        4    1    3    3  502    0 -0.14036075421E+03  0.33653342289E+01  0.65871614928E+03  0.67351395310E+03  0.12699999809E+01 0.  1.
       -4    1    3    3    0  502  0.14036075421E+03 -0.33653342289E+01 -0.16567146753E+04  0.16626537809E+04  0.12699999809E+01 0. -1.
</event>
<event>
 5   0  0.2753631E-05  0.2224447E+04  0.7818609E-02  0.8508321E-01
        1   -1    0    0  501    0  0.00000000000E+00  0.00000000000E+00  0.11226982806E+04  0.11226982806E+04  0.50400001928E-02 0. -1.
       -1   -1    0    0    0  501  0.00000000000E+00  0.00000000000E+00 -0.11018467248E+04  0.11018467248E+04  0.50400001928E-02 0.  1.
    10030    2    1    2    0    0  0.00000000000E+00  0.00000000000E+00  0.20851555834E+02  0.22245450054E+04  0.22244472782E+04 0.  0.
        4    1    3    3  502    0 -0.85299214223E+03 -0.39947188013E+03  0.60194684683E+03  0.11178170678E+04  0.12699999809E+01 0. -1.
       -4    1    3    3    0  502  0.85299214223E+03  0.39947188013E+03 -0.58109529099E+03  0.11067279376E+04  0.12699999809E+01 0.  1.
</event>
<event>
 5   0  0.2908031E-05  0.2196334E+04  0.7818609E-02  0.8519955E-01
        1   -1    0    0  501    0  0.00000000000E+00  0.00000000000E+00  0.10197052782E+04  0.10197052782E+04  0.50400001928E-02 0. -1.
       -1   -1    0    0    0  501  0.00000000000E+00  0.00000000000E+00 -0.11826664251E+04  0.11826664251E+04  0.50400001928E-02 0.  1.
    10030    2    1    2    0    0  0.00000000000E+00  0.00000000000E+00 -0.16296114687E+03  0.22023717033E+04  0.21963343971E+04 0.  0.
        1    1    3    3  502    0 -0.10907191654E+04 -0.39132860615E+02 -0.20335278983E+03  0.11102036011E+04  0.50400001928E-02 0.  1.
       -1    1    3    3    0  502  0.10907191654E+04  0.39132860615E+02  0.40391642960E+02  0.10921681022E+04  0.50400001928E-02 0. -1.
</event>
<event>
 5   0  0.6293013E-05  0.2176195E+04  0.7818609E-02  0.8528402E-01
       -2   -1    0    0    0  501  0.00000000000E+00  0.00000000000E+00  0.11397815649E+04  0.11397815649E+04  0.25500000920E-02 0. -1.
        2   -1    0    0  501    0  0.00000000000E+00  0.00000000000E+00 -0.10387567331E+04  0.10387567331E+04  0.25500000920E-02 0.  1.
    10030    2    1    2    0    0  0.00000000000E+00  0.00000000000E+00  0.10102483179E+03  0.21785382981E+04  0.21761946373E+04 0.  0.
        1    1    3    3  502    0 -0.13466783277E+03  0.14408017380E+03  0.11217401868E+04  0.11389449365E+04  0.50400001928E-02 0. -1.
       -1    1    3    3    0  502  0.13466783277E+03 -0.14408017380E+03 -0.10207153550E+04  0.10395933616E+04  0.50400001928E-02 0.  1.
</event>
<event>
 5   0  0.2910318E-05  0.2196378E+04  0.7818609E-02  0.8519937E-01
        1   -1    0    0  501    0  0.00000000000E+00  0.00000000000E+00  0.88940656816E+03  0.88940656817E+03  0.50400001928E-02 0.  1.
       -1   -1    0    0    0  501  0.00000000000E+00  0.00000000000E+00 -0.13559814354E+04  0.13559814354E+04  0.50400001928E-02 0. -1.
    10030    2    1    2    0    0  0.00000000000E+00  0.00000000000E+00 -0.46657486727E+03  0.22453880036E+04  0.21963777407E+04 0.  0.
        5    1    3    3  502    0  0.10213077811E+03  0.89720319754E+03 -0.87220712939E+03  0.12554567456E+04  0.46999998093E+01 0. -1.
       -5    1    3    3    0  502 -0.10213077811E+03 -0.89720319754E+03  0.40563226213E+03  0.98993125801E+03  0.46999998093E+01 0.  1.
</event>
<event>
 5   0  0.6628798E-05  0.2203963E+04  0.7818609E-02  0.8516780E-01
       -2   -1    0    0    0  501  0.00000000000E+00  0.00000000000E+00  0.72478754910E+03  0.72478754911E+03  0.25500000920E-02 0. -1.
        2   -1    0    0  501    0  0.00000000000E+00  0.00000000000E+00 -0.16754748921E+04  0.16754748921E+04  0.25500000920E-02 0.  1.
    10030    2    1    2    0    0  0.00000000000E+00  0.00000000000E+00 -0.95068734298E+03  0.24002624412E+04  0.22039631037E+04 0.  0.
        4    1    3    3  502    0 -0.43472442081E+03  0.10043081831E+04 -0.33443058731E+03  0.11443188714E+04  0.12699999809E+01 0.  1.
       -4    1    3    3    0  502  0.43472442081E+03 -0.10043081831E+04 -0.61625675567E+03  0.12559435698E+04  0.12699999809E+01 0. -1.
</event>
<event>
 5   0  0.6293013E-05  0.2200908E+04  0.7818609E-02  0.8518050E-01
       -2   -1    0    0    0  501  0.00000000000E+00  0.00000000000E+00  0.55773095674E+03  0.55773095675E+03  0.25500000920E-02 0. -1.
        2   -1    0    0  501    0  0.00000000000E+00  0.00000000000E+00 -0.21712960345E+04  0.21712960345E+04  0.25500000920E-02 0.  1.
    10030    2    1    2    0    0  0.00000000000E+00  0.00000000000E+00 -0.16135650778E+04  0.27290269913E+04  0.22009080078E+04 0.  0.
        1    1    3    3  502    0  0.93664973014E+03 -0.33256171998E+03 -0.13924418051E+04  0.17107905176E+04  0.50400001928E-02 0.  1.
       -1    1    3    3    0  502 -0.93664973014E+03  0.33256171998E+03 -0.22112327270E+03  0.10182364737E+04  0.50400001928E-02 0. -1.
</event>
<event>
 5   0  0.6306919E-05  0.2211816E+04  0.7818609E-02  0.8513526E-01
        2   -1    0    0  501    0  0.00000000000E+00  0.00000000000E+00  0.10691731526E+04  0.10691731526E+04  0.25500000920E-02 0.  1.
       -2   -1    0    0    0  501  0.00000000000E+00  0.00000000000E+00 -0.11439047901E+04  0.11439047901E+04  0.25500000920E-02 0. -1.
    10030    2    1    2    0    0  0.00000000000E+00  0.00000000000E+00 -0.74731637448E+02  0.22130779427E+04  0.22118158067E+04 0.  0.
        3    1    3    3  502    0 -0.82753270411E+03  0.71124257478E+03 -0.21734593201E+03  0.11126165741E+04  0.10100000352E+00 0. -1.
       -3    1    3    3    0  502  0.82753270411E+03 -0.71124257478E+03  0.14261429456E+03  0.11004613686E+04  0.10100000352E+00 0.  1.
</event>
<event>
 5   0  0.6414768E-05  0.2299075E+04  0.7818609E-02  0.8478286E-01
        2   -1    0    0  501    0  0.00000000000E+00  0.00000000000E+00  0.17835296695E+04  0.17835296695E+04  0.25500000920E-02 0.  1.
       -2   -1    0    0    0  501  0.00000000000E+00  0.00000000000E+00 -0.74091076103E+03  0.74091076103E+03  0.25500000920E-02 0. -1.
    10030    2    1    2    0    0  0.00000000000E+00  0.00000000000E+00  0.10426189084E+04  0.25244404305E+04  0.22990748789E+04 0.  0.
        2    1    3    3  502    0 -0.11016214399E+03 -0.75533817629E+03 -0.42245828460E+03  0.87243478883E+03  0.25500000920E-02 0. -1.
       -2    1    3    3    0  502  0.11016214399E+03  0.75533817629E+03  0.14650771930E+04  0.16520056417E+04  0.25500000920E-02 0.  1.
</event>
<event>
 5   0  0.6293013E-05  0.2186288E+04  0.7818609E-02  0.8524157E-01
       -2   -1    0    0    0  501  0.00000000000E+00  0.00000000000E+00  0.14335710695E+04  0.14335710695E+04  0.25500000920E-02 0. -1.
        2   -1    0    0  501    0  0.00000000000E+00  0.00000000000E+00 -0.83355761654E+03  0.83355761654E+03  0.25500000920E-02 0.  1.
    10030    2    1    2    0    0  0.00000000000E+00  0.00000000000E+00  0.60001345298E+03  0.22671286861E+04  0.21862882553E+04 0.  0.
        1    1    3    3  502    0 -0.10376794900E+04 -0.21485565237E+03  0.21713541777E+02  0.10599118610E+04  0.50400001928E-02 0.  1.
       -1    1    3    3    0  502  0.10376794900E+04  0.21485565237E+03  0.57829991120E+03  0.12072168250E+04  0.50400001928E-02 0. -1.
</event>
<event>
 5   0  0.6445740E-05  0.2202401E+04  0.7818609E-02  0.8517429E-01
        2   -1    0    0  501    0  0.00000000000E+00  0.00000000000E+00  0.11565995850E+04  0.11565995850E+04  0.25500000920E-02 0.  1.
       -2   -1    0    0    0  501  0.00000000000E+00  0.00000000000E+00 -0.10484553134E+04  0.10484553134E+04  0.25500000920E-02 0. -1.
    10030    2    1    2    0    0  0.00000000000E+00  0.00000000000E+00  0.10814427159E+03  0.22050548984E+04  0.22024013988E+04 0.  0.
        5    1    3    3  502    0  0.63056619674E+01  0.10215345396E+04 -0.35757808567E+03  0.10823385580E+04  0.46999998093E+01 0. -1.
       -5    1    3    3    0  502 -0.63056619674E+01 -0.10215345396E+04  0.46572235726E+03  0.11227163404E+04  0.46999998093E+01 0.  1.
</event>
<event>
 5   0  0.6414768E-05  0.2152635E+04  0.7818609E-02  0.8538405E-01
        2   -1    0    0  501    0  0.00000000000E+00  0.00000000000E+00  0.24430391311E+04  0.24430391311E+04  0.25500000920E-02 0. -1.
       -2   -1    0    0    0  501  0.00000000000E+00  0.00000000000E+00 -0.47418765863E+03  0.47418765864E+03  0.25500000920E-02 0.  1.
    10030    2    1    2    0    0  0.00000000000E+00  0.00000000000E+00  0.19688514725E+04  0.29172267898E+04  0.21526346699E+04 0.  0.
        2    1    3    3  502    0  0.69657369615E+03 -0.38262821672E+03  0.19680724051E+04  0.21224816272E+04  0.25500000920E-02 0. -1.
       -2    1    3    3    0  502 -0.69657369615E+03  0.38262821672E+03  0.77906743591E+00  0.79474516252E+03  0.25500000920E-02 0.  1.
</event>
<event>
 5   0  0.2820239E-05  0.2043615E+04  0.7818609E-02  0.8586496E-01
       -1   -1    0    0    0  501  0.00000000000E+00  0.00000000000E+00  0.12638175690E+04  0.12638175690E+04  0.50400001928E-02 0.  1.
        1   -1    0    0  501    0  0.00000000000E+00  0.00000000000E+00 -0.82614058403E+03  0.82614058405E+03  0.50400001928E-02 0. -1.
    10030    2    1    2    0    0  0.00000000000E+00  0.00000000000E+00  0.43767698493E+03  0.20899581530E+04  0.20436154086E+04 0.  0.
        3    1    3    3  502    0  0.48498623383E+03  0.83286514730E+02 -0.69698142967E+03  0.85318896737E+03  0.10100000352E+00 0. -1.
       -3    1    3    3    0  502 -0.48498623383E+03 -0.83286514730E+02  0.11346584146E+04  0.12367691856E+04  0.10100000352E+00 0.  1.
</event>
<event>
 5   0  0.2908031E-05  0.2210611E+04  0.7818609E-02  0.8514024E-01
        1   -1    0    0  501    0  0.00000000000E+00  0.00000000000E+00  0.79519667184E+03  0.79519667186E+03  0.50400001928E-02 0.  1.
       -1   -1    0    0    0  501  0.00000000000E+00  0.00000000000E+00 -0.15363500247E+04  0.15363500247E+04  0.50400001928E-02 0. -1.
    10030    2    1    2    0    0  0.00000000000E+00  0.00000000000E+00 -0.74115335287E+03  0.23315466966E+04  0.22106111612E+04 0.  0.
        1    1    3    3  502    0  0.79231685181E+03  0.29029006075E+03  0.38238806318E+03  0.92642050059E+03  0.50400001928E-02 0.  1.
       -1    1    3    3    0  502 -0.79231685181E+03 -0.29029006075E+03 -0.11235414161E+04  0.14051261960E+04  0.50400001928E-02 0. -1.
</event>
<event>
 5   0  0.6414768E-05  0.2212144E+04  0.7818609E-02  0.8513391E-01
        2   -1    0    0  501    0  0.00000000000E+00  0.00000000000E+00  0.11708133358E+04  0.11708133358E+04  0.25500000920E-02 0. -1.
       -2   -1    0    0    0  501  0.00000000000E+00  0.00000000000E+00 -0.10449103191E+04  0.10449103191E+04  0.25500000920E-02 0.  1.
    10030    2    1    2    0    0  0.00000000000E+00  0.00000000000E+00  0.12590301672E+03  0.22157236549E+04  0.22121436991E+04 0.  0.
        2    1    3    3  502    0  0.21780430345E+01 -0.19594788607E+03  0.11532877511E+04  0.11698174878E+04  0.25500000920E-02 0. -1.
       -2    1    3    3    0  502 -0.21780430345E+01  0.19594788607E+03 -0.10273847344E+04  0.10459061671E+04  0.25500000920E-02 0.  1.
</event>
<event>
 5   0  0.6445740E-05  0.2249378E+04  0.7818609E-02  0.8498153E-01
        2   -1    0    0  501    0  0.00000000000E+00  0.00000000000E+00  0.22893798664E+04  0.22893798664E+04  0.25500000920E-02 0.  1.
       -2   -1    0    0    0  501  0.00000000000E+00  0.00000000000E+00 -0.55251867591E+03  0.55251867591E+03  0.25500000920E-02 0. -1.
    10030    2    1    2    0    0  0.00000000000E+00  0.00000000000E+00  0.17368611905E+04  0.28418985423E+04  0.22493778095E+04 0.  0.
        5    1    3    3  502    0  0.66811449340E+02  0.30718024851E+03  0.22327317779E+04  0.22547586915E+04  0.46999998093E+01 0.  1.
       -5    1    3    3    0  502 -0.66811449340E+02 -0.30718024851E+03 -0.49587058747E+03  0.58713985076E+03  0.46999998093E+01 0. -1.
</event>
<event>
 5   0  0.6445740E-05  0.2213319E+04  0.7818609E-02  0.8512905E-01
        2   -1    0    0  501    0  0.00000000000E+00  0.00000000000E+00  0.17642788565E+04  0.17642788565E+04  0.25500000920E-02 0.  1.
       -2   -1    0    0    0  501  0.00000000000E+00  0.00000000000E+00 -0.69416194857E+03  0.69416194857E+03  0.25500000920E-02 0. -1.
    10030    2    1    2    0    0  0.00000000000E+00  0.00000000000E+00  0.10701169080E+04  0.24584408051E+04  0.22133189999E+04 0.  0.
        5    1    3    3  502    0  0.73671014359E+02 -0.10329344767E+04  0.10159304937E+03  0.10405403833E+04  0.46999998093E+01 0. -1.
       -5    1    3    3    0  502 -0.73671014359E+02  0.10329344767E+04  0.96852385860E+03  0.14179004218E+04  0.46999998093E+01 0.  1.
</event>
<event>
 5   0  0.2753631E-05  0.2199005E+04  0.7818609E-02  0.8518843E-01
        1   -1    0    0  501    0  0.00000000000E+00  0.00000000000E+00  0.11488831511E+04  0.11488831511E+04  0.50400001928E-02 0.  1.
       -1   -1    0    0    0  501  0.00000000000E+00  0.00000000000E+00 -0.10522438251E+04  0.10522438251E+04  0.50400001928E-02 0. -1.
    10030    2    1    2    0    0  0.00000000000E+00  0.00000000000E+00  0.96639325978E+02  0.22011269762E+04  0.21990045034E+04 0.  0.
        4    1    3    3  502    0 -0.10631519523E+04 -0.48049594405E+02  0.32481580534E+03  0.11127029063E+04  0.12699999809E+01 0. -1.
       -4    1    3    3    0  502  0.10631519523E+04  0.48049594405E+02 -0.22817647936E+03  0.10884240699E+04  0.12699999809E+01 0.  1.
</event>
<event>
 5   0  0.2910318E-05  0.2220530E+04  0.7818609E-02  0.8509932E-01
        1   -1    0    0  501    0  0.00000000000E+00  0.00000000000E+00  0.90263442985E+03  0.90263442987E+03  0.50400001928E-02 0. -1.
       -1   -1    0    0    0  501  0.00000000000E+00  0.00000000000E+00 -0.13656557421E+04  0.13656557421E+04  0.50400001928E-02 0.  1.
    10030    2    1    2    0    0  0.00000000000E+00  0.00000000000E+00 -0.46302131223E+03  0.22682901720E+04  0.22205295694E+04 0.  0.
        5    1    3    3  502    0 -0.30722700003E+03 -0.58563016911E+03 -0.11424963336E+04  0.13201026804E+04  0.46999998093E+01 0.  1.
       -5    1    3    3    0  502  0.30722700003E+03  0.58563016911E+03  0.67947502136E+03  0.94818749157E+03  0.46999998093E+01 0. -1.
</event>
<event>
 5   0  0.6293013E-05  0.2195472E+04  0.7818609E-02  0.8520315E-01
        2   -1    0    0  501    0  0.00000000000E+00  0.00000000000E+00  0.78964501469E+03  0.78964501469E+03  0.25500000920E-02 0. -1.
       -2   -1    0    0    0  501  0.00000000000E+00  0.00000000000E+00 -0.15260332970E+04  0.15260332970E+04  0.25500000920E-02 0.  1.
    10030    2    1    2    0    0  0.00000000000E+00  0.00000000000E+00 -0.73638828227E+03  0.23156783117E+04  0.21954722364E+04 0.  0.
        1    1    3    3  502    0  0.59325415647E+03  0.78671891488E+03  0.14218743130E+03  0.99553724734E+03  0.50400001928E-02 0. -1.
       -1    1    3    3    0  502 -0.59325415647E+03 -0.78671891488E+03 -0.87857571356E+03  0.13201410643E+04  0.50400001928E-02 0.  1.
</event>
<event>
 5   0  0.6628798E-05  0.2211192E+04  0.7818609E-02  0.8513784E-01
        2   -1    0    0  501    0  0.00000000000E+00  0.00000000000E+00  0.21219925060E+04  0.21219925060E+04  0.25500000920E-02 0.  1.
       -2   -1    0    0    0  501  0.00000000000E+00  0.00000000000E+00 -0.57603513248E+03  0.57603513249E+03  0.25500000920E-02 0. -1.
    10030    2    1    2    0    0  0.00000000000E+00  0.00000000000E+00  0.15459573735E+04  0.26980276384E+04  0.22111917459E+04 0.  0.
        4    1    3    3  502    0  0.24713008678E+02  0.11881388316E+03 -0.56788276795E+03  0.58070639971E+03  0.12699999809E+01 0. -1.
       -4    1    3    3    0  502 -0.24713008678E+02 -0.11881388316E+03  0.21138401414E+04  0.21173212387E+04  0.12699999809E+01 0.  1.
</event>
<event>
 5   0  0.6414768E-05  0.2215298E+04  0.7818609E-02  0.8512088E-01
        2   -1    0    0  501    0  0.00000000000E+00  0.00000000000E+00  0.22060474267E+04  0.22060474267E+04  0.25500000920E-02 0.  1.
       -2   -1    0    0    0  501  0.00000000000E+00  0.00000000000E+00 -0.55614659655E+03  0.55614659656E+03  0.25500000920E-02 0. -1.
    10030    2    1    2    0    0  0.00000000000E+00  0.00000000000E+00  0.16499008302E+04  0.27621940233E+04  0.22152975134E+04 0.  0.
        2    1    3    3  502    0  0.19217639895E+03  0.38940815667E+03  0.20954857430E+04  0.21400072383E+04  0.25500000920E-02 0.  1.
       -2    1    3    3    0  502 -0.19217639895E+03 -0.38940815667E+03 -0.44558491287E+03  0.62218678496E+03  0.25500000920E-02 0. -1.
</event>
<event>
 5   0  0.6414768E-05  0.2203676E+04  0.7818609E-02  0.8516900E-01
        2   -1    0    0  501    0  0.00000000000E+00  0.00000000000E+00  0.12611624291E+04  0.12611624291E+04  0.25500000920E-02 0. -1.
       -2   -1    0    0    0  501  0.00000000000E+00  0.00000000000E+00 -0.96264135881E+03  0.96264135882E+03  0.25500000920E-02 0.  1.
    10030    2    1    2    0    0  0.00000000000E+00  0.00000000000E+00  0.29852107027E+03  0.22238037879E+04  0.22036761236E+04 0.  0.
        2    1    3    3  502    0  0.18050674786E+03 -0.94900704082E+03 -0.38553277228E+03  0.10401118056E+04  0.25500000920E-02 0.  1.
       -2    1    3    3    0  502 -0.18050674786E+03  0.94900704082E+03  0.68405384256E+03  0.11836919823E+04  0.25500000920E-02 0. -1.
</event>
<event>
 5   0  0.2929471E-05  0.2215996E+04  0.7818609E-02  0.8511800E-01
        1   -1    0    0  501    0  0.00000000000E+00  0.00000000000E+00  0.25540083600E+04  0.25540083600E+04  0.50400001928E-02 0. -1.
       -1   -1    0    0    0  501  0.00000000000E+00  0.00000000000E+00 -0.48067956040E+03  0.48067956043E+03  0.50400001928E-02 0.  1.
    10030    2    1    2    0    0  0.00000000000E+00  0.00000000000E+00  0.20733287996E+04  0.30346879204E+04  0.22159960431E+04 0.  0.
        2    1    3    3  502    0  0.81669034532E+03 -0.65760123948E+03  0.15270660340E+04  0.18523912067E+04  0.25500000920E-02 0.  1.
       -2    1    3    3    0  502 -0.81669034532E+03  0.65760123948E+03  0.54626276559E+03  0.11822967138E+04  0.25500000920E-02 0. -1.
</event>
<event>
 5   0  0.2820239E-05  0.2183179E+04  0.7818609E-02  0.8525462E-01
       -1   -1    0    0    0  501  0.00000000000E+00  0.00000000000E+00  0.72722392673E+03  0.72722392675E+03  0.50400001928E-02 0.  1.
        1   -1    0    0  501    0  0.00000000000E+00  0.00000000000E+00 -0.16385153259E+04  0.16385153259E+04  0.50400001928E-02 0. -1.
    10030    2    1    2    0    0  0.00000000000E+00  0.00000000000E+00 -0.91129139914E+03  0.23657392526E+04  0.21831789201E+04 0.  0.
        3    1    3    3  502    0  0.10708109242E+04  0.11302164856E+02 -0.68501474181E+03  0.12712234190E+04  0.10100000352E+00 0. -1.
       -3    1    3    3    0  502 -0.10708109242E+04 -0.11302164856E+02 -0.22627665733E+03  0.10945158337E+04  0.10100000352E+00 0.  1.
</event>
<event>
 5   0  0.6445740E-05  0.2186407E+04  0.7818609E-02  0.8524107E-01
       -2   -1    0    0    0  501  0.00000000000E+00  0.00000000000E+00  0.97018312821E+03  0.97018312822E+03  0.25500000920E-02 0. -1.
        2   -1    0    0  501    0  0.00000000000E+00  0.00000000000E+00 -0.12318228063E+04  0.12318228063E+04  0.25500000920E-02 0.  1.
    10030    2    1    2    0    0  0.00000000000E+00  0.00000000000E+00 -0.26163967807E+03  0.22020059345E+04  0.21864068273E+04 0.  0.
        5    1    3    3  502    0 -0.34903039564E+03 -0.10339046000E+04 -0.19679041829E+03  0.11088415116E+04  0.46999998093E+01 0. -1.
       -5    1    3    3    0  502  0.34903039564E+03  0.10339046000E+04 -0.64849259782E+02  0.10931644229E+04  0.46999998093E+01 0.  1.
</event>
<event>
 5   0  0.6293013E-05  0.2240679E+04  0.7818609E-02  0.8501685E-01
        2   -1    0    0  501    0  0.00000000000E+00  0.00000000000E+00  0.18649541648E+04  0.18649541648E+04  0.25500000920E-02 0. -1.
       -2   -1    0    0    0  501  0.00000000000E+00  0.00000000000E+00 -0.67302518363E+03  0.67302518364E+03  0.25500000920E-02 0.  1.
    10030    2    1    2    0    0  0.00000000000E+00  0.00000000000E+00  0.11919289811E+04  0.25379793484E+04  0.22406794677E+04 0.  0.
        1    1    3    3  502    0  0.86511272322E+03  0.76397614879E+02  0.13976163715E+04  0.16454750504E+04  0.50400001928E-02 0. -1.
       -1    1    3    3    0  502 -0.86511272322E+03 -0.76397614879E+02 -0.20568739038E+03  0.89250429804E+03  0.50400001928E-02 0.  1.
</event>
<event>
 5   0  0.2753631E-05  0.2175108E+04  0.7818609E-02  0.8528861E-01
       -1   -1    0    0    0  501  0.00000000000E+00  0.00000000000E+00  0.69043351912E+03  0.69043351914E+03  0.50400001928E-02 0. -1.
        1   -1    0    0  501    0  0.00000000000E+00  0.00000000000E+00 -0.17130879837E+04  0.17130879837E+04  0.50400001928E-02 0.  1.
    10030    2    1    2    0    0  0.00000000000E+00  0.00000000000E+00 -0.10226544645E+04  0.24035215028E+04  0.21751076894E+04 0.  0.
        4    1    3    3  502    0  0.54154072807E+03 -0.93698367991E+03 -0.39248326003E+03  0.11511948136E+04  0.12699999809E+01 0. -1.
       -4    1    3    3    0  502 -0.54154072807E+03  0.93698367991E+03 -0.63017120449E+03  0.12523266892E+04  0.12699999809E+01 0.  1.
</event>
<event>
 5   0  0.2820239E-05  0.2192463E+04  0.7818609E-02  0.8521572E-01
       -1   -1    0    0    0  501  0.00000000000E+00  0.00000000000E+00  0.75565853332E+03  0.75565853333E+03  0.50400001928E-02 0. -1.
        1   -1    0    0  501    0  0.00000000000E+00  0.00000000000E+00 -0.15902995956E+04  0.15902995956E+04  0.50400001928E-02 0.  1.
    10030    2    1    2    0    0  0.00000000000E+00  0.00000000000E+00 -0.83464106230E+03  0.23459581290E+04  0.21924629620E+04 0.  0.
        3    1    3    3  502    0 -0.14636431161E+03 -0.19498770829E+03 -0.15609212419E+04  0.15798474140E+04  0.10100000352E+00 0.  1.
       -3    1    3    3    0  502  0.14636431161E+03  0.19498770829E+03  0.72628017957E+03  0.76611071493E+03  0.10100000352E+00 0. -1.
</event>
<event>
 5   0  0.6445740E-05  0.2163062E+04  0.7818609E-02  0.8533962E-01
        2   -1    0    0  501    0  0.00000000000E+00  0.00000000000E+00  0.21928812401E+04  0.21928812401E+04  0.25500000920E-02 0. -1.
       -2   -1    0    0    0  501  0.00000000000E+00  0.00000000000E+00 -0.53341207131E+03  0.53341207132E+03  0.25500000920E-02 0.  1.
    10030    2    1    2    0    0  0.00000000000E+00  0.00000000000E+00  0.16594691687E+04  0.27262933114E+04  0.21630620189E+04 0.  0.
        5    1    3    3  502    0 -0.52609270125E+03 -0.61877679352E+03 -0.70386707632E+02  0.81525126747E+03  0.46999998093E+01 0.  1.
       -5    1    3    3    0  502  0.52609270125E+03  0.61877679352E+03  0.17298558764E+04  0.19110420439E+04  0.46999998093E+01 0. -1.
</event>
<event>
 5   0  0.6445740E-05  0.2215973E+04  0.7818609E-02  0.8511809E-01
       -2   -1    0    0    0  501  0.00000000000E+00  0.00000000000E+00  0.68885538052E+03  0.68885538052E+03  0.25500000920E-02 0. -1.
        2   -1    0    0  501    0  0.00000000000E+00  0.00000000000E+00 -0.17821361084E+04  0.17821361084E+04  0.25500000920E-02 0.  1.
    10030    2    1    2    0    0  0.00000000000E+00  0.00000000000E+00 -0.10932807279E+04  0.24709914890E+04  0.22159729666E+04 0.  0.
        5    1    3    3  502    0  0.22808614446E+03 -0.13264797213E+03 -0.17465810884E+04  0.17664049259E+04  0.46999998093E+01 0.  1.
       -5    1    3    3    0  502 -0.22808614446E+03  0.13264797213E+03  0.65330036051E+03  0.70458656306E+03  0.46999998093E+01 0. -1.
</event>
<event>
 5   0  0.6414768E-05  0.2186086E+04  0.7818609E-02  0.8524242E-01
       -2   -1    0    0    0  501  0.00000000000E+00  0.00000000000E+00  0.13755161368E+04  0.13755161368E+04  0.25500000920E-02 0. -1.
        2   -1    0    0  501    0  0.00000000000E+00  0.00000000000E+00 -0.86857815973E+03  0.86857815973E+03  0.25500000920E-02 0.  1.
    10030    2    1    2    0    0  0.00000000000E+00  0.00000000000E+00  0.50693797711E+03  0.22440942966E+04  0.21860862516E+04 0.  0.
        2    1    3    3  502    0 -0.20911331402E+03 -0.79947786509E+03  0.98789014618E+03  0.12879519307E+04  0.25500000920E-02 0. -1.
       -2    1    3    3    0  502  0.20911331402E+03  0.79947786509E+03 -0.48095216907E+03  0.95614236587E+03  0.25500000920E-02 0.  1.
</event>
<event>
 5   0  0.6628798E-05  0.2218900E+04  0.7818609E-02  0.8510602E-01
       -2   -1    0    0    0  501  0.00000000000E+00  0.00000000000E+00  0.50859705115E+03  0.50859705116E+03  0.25500000920E-02 0.  1.
        2   -1    0    0  501    0  0.00000000000E+00  0.00000000000E+00 -0.24201474418E+04  0.24201474418E+04  0.25500000920E-02 0. -1.
    10030    2    1    2    0    0  0.00000000000E+00  0.00000000000E+00 -0.19115503907E+04  0.29287444930E+04  0.22189004955E+04 0.  0.
        4    1    3    3  502    0  0.64375760383E+03  0.40922469775E+03 -0.20190915759E+04  0.21583839117E+04  0.12699999809E+01 0. -1.
       -4    1    3    3    0  502 -0.64375760383E+03 -0.40922469775E+03  0.10754118521E+03  0.77036058126E+03  0.12699999809E+01 0.  1.
</event>
<event>
 5   0  0.2908031E-05  0.2198241E+04  0.7818609E-02  0.8519161E-01
       -1   -1    0    0    0  501  0.00000000000E+00  0.00000000000E+00  0.73630304185E+03  0.73630304187E+03  0.50400001928E-02 0. -1.
        1   -1    0    0  501    0  0.00000000000E+00  0.00000000000E+00 -0.16407177522E+04  0.16407177522E+04  0.50400001928E-02 0.  1.
    10030    2    1    2    0    0  0.00000000000E+00  0.00000000000E+00 -0.90441471035E+03  0.23770207941E+04  0.21982406345E+04 0.  0.
        1    1    3    3  502    0 -0.24956571019E+03 -0.88015603055E+03  0.20652316381E+03  0.93787499116E+03  0.50400001928E-02 0. -1.
       -1    1    3    3    0  502  0.24956571019E+03  0.88015603055E+03 -0.11109378742E+04  0.14391458029E+04  0.50400001928E-02 0.  1.
</event>
<event>
 5   0  0.2908031E-05  0.2198504E+04  0.7818609E-02  0.8519051E-01
        1   -1    0    0  501    0  0.00000000000E+00  0.00000000000E+00  0.71813298138E+03  0.71813298140E+03  0.50400001928E-02 0. -1.
       -1   -1    0    0    0  501  0.00000000000E+00  0.00000000000E+00 -0.16826335370E+04  0.16826335370E+04  0.50400001928E-02 0.  1.
    10030    2    1    2    0    0  0.00000000000E+00  0.00000000000E+00 -0.96450055562E+03  0.24007665184E+04  0.21985037080E+04 0.  0.
        1    1    3    3  502    0 -0.35733469755E+03  0.10390981669E+04 -0.44874255995E+03  0.11869216367E+04  0.50400001928E-02 0. -1.
       -1    1    3    3    0  502  0.35733469755E+03 -0.10390981669E+04 -0.51575799568E+03  0.12138448817E+04  0.50400001928E-02 0.  1.
</event>
<event>
 5   0  0.2820239E-05  0.2183616E+04  0.7818609E-02  0.8525279E-01
       -1   -1    0    0    0  501  0.00000000000E+00  0.00000000000E+00  0.72987672570E+03  0.72987672572E+03  0.50400001928E-02 0.  1.
        1   -1    0    0  501    0  0.00000000000E+00  0.00000000000E+00 -0.16332133028E+04  0.16332133028E+04  0.50400001928E-02 0. -1.
    10030    2    1    2    0    0  0.00000000000E+00  0.00000000000E+00 -0.90333657707E+03  0.23630900285E+04  0.21836156968E+04 0.  0.
        3    1    3    3  502    0  0.30475926893E+03  0.14313990652E+03  0.67228896417E+03  0.75189075428E+03  0.10100000352E+00 0.  1.
       -3    1    3    3    0  502 -0.30475926893E+03 -0.14313990652E+03 -0.15756255412E+04  0.16111992742E+04  0.10100000352E+00 0. -1.
</event>
<event>
 5   0  0.6293013E-05  0.2233701E+04  0.7818609E-02  0.8504531E-01
        2   -1    0    0  501    0  0.00000000000E+00  0.00000000000E+00  0.96996235471E+03  0.96996235471E+03  0.25500000920E-02 0.  1.
       -2   -1    0    0    0  501  0.00000000000E+00  0.00000000000E+00 -0.12859826842E+04  0.12859826842E+04  0.25500000920E-02 0. -1.
    10030    2    1    2    0    0  0.00000000000E+00  0.00000000000E+00 -0.31602032945E+03  0.22559450389E+04  0.22337007789E+04 0.  0.
        1    1    3    3  502    0 -0.95830796011E+01 -0.99703384522E+02  0.96541699824E+03  0.97059908346E+03  0.50400001928E-02 0.  1.
       -1    1    3    3    0  502  0.95830796011E+01  0.99703384522E+02 -0.12814373277E+04  0.12853459554E+04  0.50400001928E-02 0. -1.
</event>
<event>
 5   0  0.2245375E-05  0.2210427E+04  0.7818609E-02  0.8514101E-01
       -3   -1    0    0    0  501  0.00000000000E+00  0.00000000000E+00  0.84266514416E+03  0.84266515021E+03  0.10100000352E+00 0.  1.
        3   -1    0    0  501    0  0.00000000000E+00  0.00000000000E+00 -0.14495633316E+04  0.14495633351E+04  0.10100000352E+00 0. -1.
    10030    2    1    2    0    0  0.00000000000E+00  0.00000000000E+00 -0.60689818745E+03  0.22922284853E+04  0.22104266600E+04 0.  0.
        5    1    3    3  502    0 -0.10128088138E+04 -0.27206965402E+03 -0.66517117528E+03  0.12418850077E+04  0.46999998093E+01 0. -1.
       -5    1    3    3    0  502  0.10128088138E+04  0.27206965402E+03  0.58272987832E+02  0.10503434776E+04  0.46999998093E+01 0.  1.
</event>
<event>
 5   0  0.6628798E-05  0.2225399E+04  0.7818609E-02  0.8507930E-01
       -2   -1    0    0    0  501  0.00000000000E+00  0.00000000000E+00  0.43106633097E+03  0.43106633097E+03  0.25500000920E-02 0.  1.
        2   -1    0    0  501    0  0.00000000000E+00  0.00000000000E+00 -0.28721813497E+04  0.28721813497E+04  0.25500000920E-02 0. -1.
    10030    2    1    2    0    0  0.00000000000E+00  0.00000000000E+00 -0.24411150187E+04  0.33032476806E+04  0.22253994484E+04 0.  0.
        4    1    3    3  502    0 -0.66964978055E+03 -0.24720179228E+03  0.46410584058E+02  0.71532867264E+03  0.12699999809E+01 0.  1.
       -4    1    3    3    0  502  0.66964978055E+03  0.24720179228E+03 -0.24875256028E+04  0.25879190080E+04  0.12699999809E+01 0. -1.
</event>
<event>
 5   0  0.2753631E-05  0.2200496E+04  0.7818609E-02  0.8518221E-01
       -1   -1    0    0    0  501  0.00000000000E+00  0.00000000000E+00  0.64232133590E+03  0.64232133592E+03  0.50400001928E-02 0.  1.
        1   -1    0    0  501    0  0.00000000000E+00  0.00000000000E+00 -0.18846426599E+04  0.18846426599E+04  0.50400001928E-02 0. -1.
    10030    2    1    2    0    0  0.00000000000E+00  0.00000000000E+00 -0.12423213240E+04  0.25269639958E+04  0.22004964813E+04 0.  0.
        4    1    3    3  502    0  0.69383701518E+03 -0.13727978306E+03 -0.15889836449E+04  0.17392889867E+04  0.12699999809E+01 0. -1.
       -4    1    3    3    0  502 -0.69383701518E+03  0.13727978306E+03  0.34666232087E+03  0.78767500918E+03  0.12699999809E+01 0.  1.
</event>
<event>
 5   0  0.2910318E-05  0.2213655E+04  0.7818609E-02  0.8512766E-01
       -1   -1    0    0    0  501  0.00000000000E+00  0.00000000000E+00  0.69035975015E+03  0.69035975017E+03  0.50400001928E-02 0.  1.
        1   -1    0    0  501    0  0.00000000000E+00  0.00000000000E+00 -0.17745338157E+04  0.17745338157E+04  0.50400001928E-02 0. -1.
    10030    2    1    2    0    0  0.00000000000E+00  0.00000000000E+00 -0.10841740656E+04  0.24648935659E+04  0.22136546449E+04 0.  0.
        5    1    3    3  502    0  0.14112880993E+02 -0.11010681004E+04 -0.66655215992E+03  0.12871922960E+04  0.46999998093E+01 0. -1.
       -5    1    3    3    0  502 -0.14112880993E+02  0.11010681004E+04 -0.41762190566E+03  0.11777012699E+04  0.46999998093E+01 0.  1.
</event>
<event>
 5   0  0.6293013E-05  0.2156601E+04  0.7818609E-02  0.8536712E-01
       -2   -1    0    0    0  501  0.00000000000E+00  0.00000000000E+00  0.85183204609E+03  0.85183204609E+03  0.25500000920E-02 0.  1.
        2   -1    0    0  501    0  0.00000000000E+00  0.00000000000E+00 -0.13649781815E+04  0.13649781815E+04  0.25500000920E-02 0. -1.
    10030    2    1    2    0    0  0.00000000000E+00  0.00000000000E+00 -0.51314613544E+03  0.22168102276E+04  0.21566011752E+04 0.  0.
        1    1    3    3  502    0 -0.44495062183E+03 -0.98987776175E+02  0.74792607128E+03  0.87588414977E+03  0.50400001928E-02 0.  1.
       -1    1    3    3    0  502  0.44495062183E+03  0.98987776175E+02 -0.12610722067E+04  0.13409260779E+04  0.50400001928E-02 0. -1.
</event>
<event>
 5   0  0.2820239E-05  0.2236153E+04  0.7818609E-02  0.8503529E-01
       -1   -1    0    0    0  501  0.00000000000E+00  0.00000000000E+00  0.14440125179E+04  0.14440125179E+04  0.50400001928E-02 0. -1.
        1   -1    0    0  501    0  0.00000000000E+00  0.00000000000E+00 -0.86570966863E+03  0.86570966864E+03  0.50400001928E-02 0.  1.
    10030    2    1    2    0    0  0.00000000000E+00  0.00000000000E+00  0.57830284926E+03  0.23097221865E+04  0.22361534817E+04 0.  0.
        3    1    3    3  502    0  0.67992014338E+03 -0.61266516552E+03 -0.37419663826E+03  0.98877355380E+03  0.10100000352E+00 0.  1.
       -3    1    3    3    0  502 -0.67992014338E+03  0.61266516552E+03  0.95249948752E+03  0.13209486327E+04  0.10100000352E+00 0. -1.
</event>
<event>
 5   0  0.6414768E-05  0.2216299E+04  0.7818609E-02  0.8511674E-01
       -2   -1    0    0    0  501  0.00000000000E+00  0.00000000000E+00  0.69589476303E+03  0.69589476303E+03  0.25500000920E-02 0. -1.
        2   -1    0    0  501    0  0.00000000000E+00  0.00000000000E+00 -0.17646283594E+04  0.17646283594E+04  0.25500000920E-02 0.  1.
    10030    2    1    2    0    0  0.00000000000E+00  0.00000000000E+00 -0.10687335964E+04  0.24605231225E+04  0.22162992885E+04 0.  0.
        2    1    3    3  502    0  0.25755083281E+03 -0.27106076332E+03 -0.16924806664E+04  0.17332908513E+04  0.25500000920E-02 0.  1.
       -2    1    3    3    0  502 -0.25755083281E+03  0.27106076332E+03  0.62374707002E+03  0.72723227119E+03  0.25500000920E-02 0. -1.
</event>
<event>
 5   0  0.6414768E-05  0.2120442E+04  0.7818609E-02  0.8552292E-01
       -2   -1    0    0    0  501  0.00000000000E+00  0.00000000000E+00  0.62675233696E+03  0.62675233697E+03  0.25500000920E-02 0. -1.
        2   -1    0    0  501    0  0.00000000000E+00  0.00000000000E+00 -0.17934814782E+04  0.17934814782E+04  0.25500000920E-02 0.  1.
    10030    2    1    2    0    0  0.00000000000E+00  0.00000000000E+00 -0.11667291412E+04  0.24202338151E+04  0.21204421310E+04 0.  0.
        2    1    3    3  502    0 -0.27603405874E+02 -0.30907827220E+03  0.57376083192E+03  0.65229810564E+03  0.25500000920E-02 0. -1.
       -2    1    3    3    0  502  0.27603405874E+02  0.30907827220E+03 -0.17404899731E+04  0.17679357095E+04  0.25500000920E-02 0.  1.
</event>
<event>
 5   0  0.6628798E-05  0.2173688E+04  0.7818609E-02  0.8529460E-01
        2   -1    0    0  501    0  0.00000000000E+00  0.00000000000E+00  0.13568269354E+04  0.13568269354E+04  0.25500000920E-02 0.  1.
       -2   -1    0    0    0  501  0.00000000000E+00  0.00000000000E+00 -0.87058218414E+03  0.87058218414E+03  0.25500000920E-02 0. -1.
    10030    2    1    2    0    0  0.00000000000E+00  0.00000000000E+00  0.48624475127E+03  0.22274091195E+04  0.21736875184E+04 0.  0.
        4    1    3    3  502    0  0.90130458604E+03 -0.58359910042E+03  0.41547520332E+03  0.11513292858E+04  0.12699999809E+01 0.  1.
       -4    1    3    3    0  502 -0.90130458604E+03  0.58359910042E+03  0.70769547953E+02  0.10760798338E+04  0.12699999809E+01 0. -1.
</event>
<event>
 5   0  0.6306919E-05  0.2178516E+04  0.7818609E-02  0.8527424E-01
       -2   -1    0    0    0  501  0.00000000000E+00  0.00000000000E+00  0.78900042258E+03  0.78900042259E+03  0.25500000920E-02 0.  1.
        2   -1    0    0  501    0  0.00000000000E+00  0.00000000000E+00 -0.15037800589E+04  0.15037800589E+04  0.25500000920E-02 0. -1.
    10030    2    1    2    0    0  0.00000000000E+00  0.00000000000E+00 -0.71477963630E+03  0.22927804815E+04  0.21785161022E+04 0.  0.
        3    1    3    3  502    0 -0.46607339931E+03  0.52597391241E+03  0.51849322491E+03  0.87333166927E+03  0.10100000352E+00 0.  1.
       -3    1    3    3    0  502  0.46607339931E+03 -0.52597391241E+03 -0.12332728612E+04  0.14194488122E+04  0.10100000352E+00 0. -1.
</event>
<event>
 5   0  0.6293013E-05  0.2205091E+04  0.7818609E-02  0.8516312E-01
       -2   -1    0    0    0  501  0.00000000000E+00  0.00000000000E+00  0.84002676439E+03  0.84002676440E+03  0.25500000920E-02 0.  1.
        2   -1    0    0  501    0  0.00000000000E+00  0.00000000000E+00 -0.14471041469E+04  0.14471041469E+04  0.25500000920E-02 0. -1.
    10030    2    1    2    0    0  0.00000000000E+00  0.00000000000E+00 -0.60707738250E+03  0.22871309113E+04  0.22050906687E+04 0.  0.
        1    1    3    3  502    0 -0.62730149357E+02  0.71926569075E+01 -0.14452273393E+04  0.14466059824E+04  0.50400001928E-02 0. -1.
       -1    1    3    3    0  502  0.62730149357E+02 -0.71926569075E+01  0.83814995682E+03  0.84052492890E+03  0.50400001928E-02 0.  1.
</event>
<event>
 5   0  0.6445740E-05  0.2214895E+04  0.7818609E-02  0.8512254E-01
        2   -1    0    0  501    0  0.00000000000E+00  0.00000000000E+00  0.21241362756E+04  0.21241362756E+04  0.25500000920E-02 0. -1.
       -2   -1    0    0    0  501  0.00000000000E+00  0.00000000000E+00 -0.57738273495E+03  0.57738273496E+03  0.25500000920E-02 0.  1.
    10030    2    1    2    0    0  0.00000000000E+00  0.00000000000E+00  0.15467535407E+04  0.27015190106E+04  0.22148946812E+04 0.  0.
        5    1    3    3  502    0  0.69814205481E+03  0.52526278425E+02  0.18199495270E+04  0.19499742843E+04  0.46999998093E+01 0. -1.
       -5    1    3    3    0  502 -0.69814205481E+03 -0.52526278425E+02 -0.27319598635E+03  0.75154472626E+03  0.46999998093E+01 0.  1.
</event>
<event>
 5   0  0.2753631E-05  0.2199789E+04  0.7818609E-02  0.8518516E-01
        1   -1    0    0  501    0  0.00000000000E+00  0.00000000000E+00  0.11082979453E+04  0.11082979453E+04  0.50400001928E-02 0.  1.
       -1   -1    0    0    0  501  0.00000000000E+00  0.00000000000E+00 -0.10915547756E+04  0.10915547756E+04  0.50400001928E-02 0. -1.
    10030    2    1    2    0    0  0.00000000000E+00  0.00000000000E+00  0.16743169686E+02  0.21998527209E+04  0.21997890035E+04 0.  0.
        4    1    3    3  502    0  0.64700027380E+03  0.26366734576E+03 -0.84114491521E+03  0.10934606554E+04  0.12699999809E+01 0. -1.
       -4    1    3    3    0  502 -0.64700027380E+03 -0.26366734576E+03  0.85788808489E+03  0.11063920655E+04  0.12699999809E+01 0.  1.
</event>
<event>
 5   0  0.2910318E-05  0.2184798E+04  0.7818609E-02  0.8524782E-01
       -1   -1    0    0    0  501  0.00000000000E+00  0.00000000000E+00  0.79472808115E+03  0.79472808117E+03  0.50400001928E-02 0.  1.
        1   -1    0    0  501    0  0.00000000000E+00  0.00000000000E+00 -0.15015650574E+04  0.15015650574E+04  0.50400001928E-02 0. -1.
    10030    2    1    2    0    0  0.00000000000E+00  0.00000000000E+00 -0.70683697625E+03  0.22962931386E+04  0.21847983127E+04 0.  0.
        5    1    3    3  502    0  0.10632044716E+04  0.24471909280E+03 -0.41120273719E+03  0.11659335161E+04  0.46999998093E+01 0. -1.
       -5    1    3    3    0  502 -0.10632044716E+04 -0.24471909280E+03 -0.29563423906E+03  0.11303596225E+04  0.46999998093E+01 0.  1.
</event>
<event>
 5   0  0.6628798E-05  0.2136558E+04  0.7818609E-02  0.8545308E-01
       -2   -1    0    0    0  501  0.00000000000E+00  0.00000000000E+00  0.98729980488E+03  0.98729980488E+03  0.25500000920E-02 0. -1.
        2   -1    0    0  501    0  0.00000000000E+00  0.00000000000E+00 -0.11558997602E+04  0.11558997602E+04  0.25500000920E-02 0.  1.
    10030    2    1    2    0    0  0.00000000000E+00  0.00000000000E+00 -0.16859995530E+03  0.21431995651E+04  0.21365576123E+04 0.  0.
        4    1    3    3  502    0 -0.43077022967E+03  0.10295035728E+00  0.89631511026E+03  0.99445733500E+03  0.12699999809E+01 0. -1.
       -4    1    3    3    0  502  0.43077022967E+03 -0.10295035728E+00 -0.10649150656E+04  0.11487422301E+04  0.12699999809E+01 0.  1.
</event>
<event>
 5   0  0.6414768E-05  0.2196654E+04  0.7818609E-02  0.8519822E-01
       -2   -1    0    0    0  501  0.00000000000E+00  0.00000000000E+00  0.58126999478E+03  0.58126999479E+03  0.25500000920E-02 0.  1.
        2   -1    0    0  501    0  0.00000000000E+00  0.00000000000E+00 -0.20753211532E+04  0.20753211532E+04  0.25500000920E-02 0. -1.
    10030    2    1    2    0    0  0.00000000000E+00  0.00000000000E+00 -0.14940511585E+04  0.26565911480E+04  0.21966537423E+04 0.  0.
        2    1    3    3  502    0 -0.10687188860E+04 -0.21090620747E+03 -0.57736520876E+03  0.12328795845E+04  0.25500000920E-02 0. -1.
       -2    1    3    3    0  502  0.10687188860E+04  0.21090620747E+03 -0.91668594970E+03  0.14237115635E+04  0.25500000920E-02 0.  1.
</event>
<event>
 5   0  0.2910318E-05  0.2192364E+04  0.7818609E-02  0.8521613E-01
       -1   -1    0    0    0  501  0.00000000000E+00  0.00000000000E+00  0.49844269028E+03  0.49844269030E+03  0.50400001928E-02 0.  1.
        1   -1    0    0  501    0  0.00000000000E+00  0.00000000000E+00 -0.24107388896E+04  0.24107388896E+04  0.50400001928E-02 0. -1.
    10030    2    1    2    0    0  0.00000000000E+00  0.00000000000E+00 -0.19122961993E+04  0.29091815799E+04  0.21923641830E+04 0.  0.
        5    1    3    3  502    0 -0.74544784250E+03 -0.71075638830E+03 -0.45835916532E+03  0.11273785273E+04  0.46999998093E+01 0.  1.
       -5    1    3    3    0  502  0.74544784250E+03  0.71075638830E+03 -0.14539370340E+04  0.17818030526E+04  0.46999998093E+01 0. -1.
</event>
<event>
 5   0  0.2753631E-05  0.2210653E+04  0.7818609E-02  0.8514007E-01
        1   -1    0    0  501    0  0.00000000000E+00  0.00000000000E+00  0.99527299783E+03  0.99527299785E+03  0.50400001928E-02 0. -1.
       -1   -1    0    0    0  501  0.00000000000E+00  0.00000000000E+00 -0.12275495558E+04  0.12275495558E+04  0.50400001928E-02 0.  1.
    10030    2    1    2    0    0  0.00000000000E+00  0.00000000000E+00 -0.23227655794E+03  0.22228225536E+04  0.22106532305E+04 0.  0.
        4    1    3    3  502    0 -0.51219390438E+03 -0.85329327828E+03 -0.59971534593E+03  0.11619432531E+04  0.12699999809E+01 0.  1.
       -4    1    3    3    0  502  0.51219390438E+03  0.85329327828E+03  0.36743878799E+03  0.10608793005E+04  0.12699999809E+01 0. -1.
</event>
<event>
 5   0  0.6445740E-05  0.1896739E+04  0.7818609E-02  0.8656481E-01
        2   -1    0    0  501    0  0.00000000000E+00  0.00000000000E+00  0.10764033722E+04  0.10764033722E+04  0.25500000920E-02 0.  1.
       -2   -1    0    0    0  501  0.00000000000E+00  0.00000000000E+00 -0.83556470937E+03  0.83556470937E+03  0.25500000920E-02 0. -1.
    10030    2    1    2    0    0  0.00000000000E+00  0.00000000000E+00  0.24083866286E+03  0.19119680816E+04  0.18967389603E+04 0.  0.
        5    1    3    3  502    0  0.31769461899E+03 -0.87578623378E+03  0.29918806491E+03  0.97850242024E+03  0.46999998093E+01 0.  1.
       -5    1    3    3    0  502 -0.31769461899E+03  0.87578623378E+03 -0.58349402055E+02  0.93346566136E+03  0.46999998093E+01 0. -1.
</event>
<event>
 5   0  0.2929471E-05  0.2109841E+04  0.7818609E-02  0.8556920E-01
       -1   -1    0    0    0  501  0.00000000000E+00  0.00000000000E+00  0.71652536257E+03  0.71652536259E+03  0.50400001928E-02 0. -1.
        1   -1    0    0  501    0  0.00000000000E+00  0.00000000000E+00 -0.15531309943E+04  0.15531309944E+04  0.50400001928E-02 0.  1.
    10030    2    1    2    0    0  0.00000000000E+00  0.00000000000E+00 -0.83660563177E+03  0.22696563569E+04  0.21098414622E+04 0.  0.
        2    1    3    3  502    0 -0.58239159159E+03  0.21279912767E+03 -0.13364103631E+04  0.14732467863E+04  0.25500000920E-02 0.  1.
       -2    1    3    3    0  502  0.58239159159E+03 -0.21279912767E+03  0.49980473136E+03  0.79640957063E+03  0.25500000920E-02 0. -1.
</event>
<event>
 5   0  0.2820239E-05  0.2201095E+04  0.7818609E-02  0.8517973E-01
        1   -1    0    0  501    0  0.00000000000E+00  0.00000000000E+00  0.14311849790E+04  0.14311849790E+04  0.50400001928E-02 0. -1.
       -1   -1    0    0    0  501  0.00000000000E+00  0.00000000000E+00 -0.84629480168E+03  0.84629480170E+03  0.50400001928E-02 0.  1.
    10030    2    1    2    0    0  0.00000000000E+00  0.00000000000E+00  0.58489017728E+03  0.22774797807E+04  0.22010946440E+04 0.  0.
        3    1    3    3  502    0  0.99588636297E+03  0.27699126361E+03 -0.98407938039E+02  0.10383631063E+04  0.10100000352E+00 0.  1.
       -3    1    3    3    0  502 -0.99588636297E+03 -0.27699126361E+03  0.68329811532E+03  0.12391166744E+04  0.10100000352E+00 0. -1.
</event>
<event>
 5   0  0.2908031E-05  0.2217874E+04  0.7818609E-02  0.8511025E-01
       -1   -1    0    0    0  501  0.00000000000E+00  0.00000000000E+00  0.79648579969E+03  0.79648579971E+03  0.50400001928E-02 0.  1.
        1   -1    0    0  501    0  0.00000000000E+00  0.00000000000E+00 -0.15439582542E+04  0.15439582543E+04  0.50400001928E-02 0. -1.
    10030    2    1    2    0    0  0.00000000000E+00  0.00000000000E+00 -0.74747245455E+03  0.23404440540E+04  0.22178735986E+04 0.  0.
        1    1    3    3  502    0  0.56864689243E+03  0.42814725543E+03  0.52359355950E+03  0.88363995845E+03  0.50400001928E-02 0.  1.
       -1    1    3    3    0  502 -0.56864689243E+03 -0.42814725543E+03 -0.12710660141E+04  0.14568040955E+04  0.50400001928E-02 0. -1.
</event>
<event>
 5   0  0.6293013E-05  0.2206954E+04  0.7818609E-02  0.8515539E-01
       -2   -1    0    0    0  501  0.00000000000E+00  0.00000000000E+00  0.80563668959E+03  0.80563668959E+03  0.25500000920E-02 0.  1.
        2   -1    0    0  501    0  0.00000000000E+00  0.00000000000E+00 -0.15114268704E+04  0.15114268704E+04  0.25500000920E-02 0. -1.
    10030    2    1    2    0    0  0.00000000000E+00  0.00000000000E+00 -0.70579018083E+03  0.23170635600E+04  0.22069535024E+04 0.  0.
        1    1    3    3  502    0  0.92184150394E+03  0.33990085598E+03 -0.88028871924E+03  0.13191787519E+04  0.50400001928E-02 0. -1.
       -1    1    3    3    0  502 -0.92184150394E+03 -0.33990085598E+03  0.17449853841E+03  0.99788480809E+03  0.50400001928E-02 0.  1.
</event>
<event>
 5   0  0.6306919E-05  0.2206246E+04  0.7818609E-02  0.8515833E-01
        2   -1    0    0  501    0  0.00000000000E+00  0.00000000000E+00  0.24827077606E+04  0.24827077606E+04  0.25500000920E-02 0. -1.
       -2   -1    0    0    0  501  0.00000000000E+00  0.00000000000E+00 -0.49014243649E+03  0.49014243649E+03  0.25500000920E-02 0.  1.
    10030    2    1    2    0    0  0.00000000000E+00  0.00000000000E+00  0.19925653241E+04  0.29728501971E+04  0.22062460705E+04 0.  0.
        3    1    3    3  502    0 -0.50154455661E+02  0.10021638128E+04  0.37874638434E+03  0.10725188161E+04  0.10100000352E+00 0. -1.
       -3    1    3    3    0  502  0.50154455661E+02 -0.10021638128E+04  0.16138189398E+04  0.19003313810E+04  0.10100000352E+00 0.  1.
</event>
<event>
 5   0  0.6445740E-05  0.2187699E+04  0.7818609E-02  0.8523566E-01
       -2   -1    0    0    0  501  0.00000000000E+00  0.00000000000E+00  0.13546277342E+04  0.13546277342E+04  0.25500000920E-02 0.  1.
        2   -1    0    0  501    0  0.00000000000E+00  0.00000000000E+00 -0.88327335726E+03  0.88327335726E+03  0.25500000920E-02 0. -1.
    10030    2    1    2    0    0  0.00000000000E+00  0.00000000000E+00  0.47135437697E+03  0.22379010915E+04  0.21876988702E+04 0.  0.
        5    1    3    3  502    0 -0.42249918738E+03  0.10001084214E+04  0.99344423981E+02  0.10902356729E+04  0.46999998093E+01 0.  1.
       -5    1    3    3    0  502  0.42249918738E+03 -0.10001084214E+04  0.37200995299E+03  0.11476654186E+04  0.46999998093E+01 0. -1.
</event>
<event>
 5   0  0.6628798E-05  0.2206678E+04  0.7818609E-02  0.8515654E-01
        2   -1    0    0  501    0  0.00000000000E+00  0.00000000000E+00  0.10453708110E+04  0.10453708111E+04  0.25500000920E-02 0. -1.
       -2   -1    0    0    0  501  0.00000000000E+00  0.00000000000E+00 -0.11645213399E+04  0.11645213399E+04  0.25500000920E-02 0.  1.
    10030    2    1    2    0    0  0.00000000000E+00  0.00000000000E+00 -0.11915052889E+03  0.22098921510E+04  0.22066776997E+04 0.  0.
        4    1    3    3  502    0  0.58739345147E+03 -0.37755595904E+03 -0.91508861986E+03  0.11510727015E+04  0.12699999809E+01 0.  1.
       -4    1    3    3    0  502 -0.58739345147E+03  0.37755595904E+03  0.79593809098E+03  0.10588194495E+04  0.12699999809E+01 0. -1.
</event>
<event>
 5   0  0.6293013E-05  0.2038002E+04  0.7818609E-02  0.8589057E-01
        2   -1    0    0  501    0  0.00000000000E+00  0.00000000000E+00  0.17675441034E+04  0.17675441034E+04  0.25500000920E-02 0. -1.
       -2   -1    0    0    0  501  0.00000000000E+00  0.00000000000E+00 -0.58746117895E+03  0.58746117896E+03  0.25500000920E-02 0.  1.
    10030    2    1    2    0    0  0.00000000000E+00  0.00000000000E+00  0.11800829245E+04  0.23550052824E+04  0.20380024954E+04 0.  0.
        1    1    3    3  502    0  0.32959147086E+03 -0.33724559913E+03 -0.45379347997E+03  0.65444148270E+03  0.50400001928E-02 0.  1.
       -1    1    3    3    0  502 -0.32959147086E+03  0.33724559913E+03  0.16338764044E+04  0.17005637997E+04  0.50400001928E-02 0. -1.
</event>
<event>
 5   0  0.2929471E-05  0.2229853E+04  0.7818609E-02  0.8506104E-01
       -1   -1    0    0    0  501  0.00000000000E+00  0.00000000000E+00  0.72551439879E+03  0.72551439880E+03  0.50400001928E-02 0.  1.
        1   -1    0    0  501    0  0.00000000000E+00  0.00000000000E+00 -0.17133512112E+04  0.17133512112E+04  0.50400001928E-02 0. -1.
    10030    2    1    2    0    0  0.00000000000E+00  0.00000000000E+00 -0.98783681236E+03  0.24388656100E+04  0.22298528865E+04 0.  0.
        2    1    3    3  502    0 -0.91265049794E+03  0.49857759576E+03 -0.54310283199E+02  0.10413741678E+04  0.25500000920E-02 0. -1.
       -2    1    3    3    0  502  0.91265049794E+03 -0.49857759576E+03 -0.93352652917E+03  0.13974914422E+04  0.25500000920E-02 0.  1.
</event>
<event>
 5   0  0.2820239E-05  0.2089888E+04  0.7818609E-02  0.8565711E-01
        1   -1    0    0  501    0  0.00000000000E+00  0.00000000000E+00  0.15956808546E+04  0.15956808546E+04  0.50400001928E-02 0. -1.
       -1   -1    0    0    0  501  0.00000000000E+00  0.00000000000E+00 -0.68428999063E+03  0.68428999065E+03  0.50400001928E-02 0.  1.
    10030    2    1    2    0    0  0.00000000000E+00  0.00000000000E+00  0.91139086398E+03  0.22799708453E+04  0.20898884536E+04 0.  0.
        3    1    3    3  502    0 -0.87109452920E+03 -0.29058152280E+03  0.99971388183E+03  0.13574502407E+04  0.10100000352E+00 0. -1.
       -3    1    3    3    0  502  0.87109452920E+03  0.29058152280E+03 -0.88323017849E+02  0.92252060458E+03  0.10100000352E+00 0.  1.
</event>
<event>
 5   0  0.6306919E-05  0.2220115E+04  0.7818609E-02  0.8510102E-01
       -2   -1    0    0    0  501  0.00000000000E+00  0.00000000000E+00  0.83766767381E+03  0.83766767381E+03  0.25500000920E-02 0. -1.
        2   -1    0    0  501    0  0.00000000000E+00  0.00000000000E+00 -0.14710221899E+04  0.14710221899E+04  0.25500000920E-02 0.  1.
    10030    2    1    2    0    0  0.00000000000E+00  0.00000000000E+00 -0.63335451610E+03  0.23086898637E+04  0.22201150744E+04 0.  0.
        3    1    3    3  502    0 -0.80264599237E+03  0.21917981176E+03 -0.10808047344E+04  0.13639718703E+04  0.10100000352E+00 0.  1.
       -3    1    3    3    0  502  0.80264599237E+03 -0.21917981176E+03  0.44745021831E+03  0.94471799338E+03  0.10100000352E+00 0. -1.
</event>
<event>
 5   0  0.6306919E-05  0.2198249E+04  0.7818609E-02  0.8519157E-01
        2   -1    0    0  501    0  0.00000000000E+00  0.00000000000E+00  0.21250511421E+04  0.21250511421E+04  0.25500000920E-02 0. -1.
       -2   -1    0    0    0  501  0.00000000000E+00  0.00000000000E+00 -0.56849222008E+03  0.56849222008E+03  0.25500000920E-02 0.  1.
    10030    2    1    2    0    0  0.00000000000E+00  0.00000000000E+00  0.15565589220E+04  0.26935433622E+04  0.21982493412E+04 0.  0.
        3    1    3    3  502    0 -0.63396191354E+03  0.13182317095E+03 -0.30996812133E+03  0.71788947802E+03  0.10100000352E+00 0.  1.
       -3    1    3    3    0  502  0.63396191354E+03 -0.13182317095E+03  0.18665270434E+04  0.19756538842E+04  0.10100000352E+00 0. -1.
</event>
<event>
 5   0  0.2753631E-05  0.2215247E+04  0.7818609E-02  0.8512108E-01
        1   -1    0    0  501    0  0.00000000000E+00  0.00000000000E+00  0.18377516996E+04  0.18377516996E+04  0.50400001928E-02 0. -1.
       -1   -1    0    0    0  501  0.00000000000E+00  0.00000000000E+00 -0.66757134064E+03  0.66757134066E+03  0.50400001928E-02 0.  1.
    10030    2    1    2    0    0  0.00000000000E+00  0.00000000000E+00  0.11701803590E+04  0.25053230403E+04  0.22152474949E+04 0.  0.
        4    1    3    3  502    0 -0.51352888942E+02 -0.89869125129E+03  0.13150060218E+04  0.15935888850E+04  0.12699999809E+01 0. -1.
       -4    1    3    3    0  502  0.51352888942E+02  0.89869125129E+03 -0.14482566279E+03  0.91173415525E+03  0.12699999809E+01 0.  1.
</event>
<event>
 5   0  0.2908031E-05  0.2220420E+04  0.7818609E-02  0.8509977E-01
        1   -1    0    0  501    0  0.00000000000E+00  0.00000000000E+00  0.12247527152E+04  0.12247527152E+04  0.50400001928E-02 0.  1.
       -1   -1    0    0    0  501  0.00000000000E+00  0.00000000000E+00 -0.10063795472E+04  0.10063795472E+04  0.50400001928E-02 0. -1.
    10030    2    1    2    0    0  0.00000000000E+00  0.00000000000E+00  0.21837316796E+03  0.22311322624E+04  0.22204198549E+04 0.  0.
        1    1    3    3  502    0 -0.97345547369E+03  0.52814724639E+03  0.31281834938E+02  0.11079411656E+04  0.50400001928E-02 0. -1.
       -1    1    3    3    0  502  0.97345547369E+03 -0.52814724639E+03  0.18709133302E+03  0.11231910969E+04  0.50400001928E-02 0.  1.
</event>
<event>
 5   0  0.6445740E-05  0.2147031E+04  0.7818609E-02  0.8540804E-01
       -2   -1    0    0    0  501  0.00000000000E+00  0.00000000000E+00  0.75151991270E+03  0.75151991271E+03  0.25500000920E-02 0.  1.
        2   -1    0    0  501    0  0.00000000000E+00  0.00000000000E+00 -0.15334727606E+04  0.15334727606E+04  0.25500000920E-02 0. -1.
    10030    2    1    2    0    0  0.00000000000E+00  0.00000000000E+00 -0.78195284790E+03  0.22849926733E+04  0.21470308011E+04 0.  0.
        5    1    3    3  502    0 -0.28805949583E+03  0.39041038669E+03 -0.14101183814E+04  0.14912593613E+04  0.46999998093E+01 0. -1.
       -5    1    3    3    0  502  0.28805949583E+03 -0.39041038669E+03  0.62816553346E+03  0.79373331202E+03  0.46999998093E+01 0.  1.
</event>
<event>
 5   0  0.2753631E-05  0.2176249E+04  0.7818609E-02  0.8528379E-01
        1   -1    0    0  501    0  0.00000000000E+00  0.00000000000E+00  0.10361688161E+04  0.10361688161E+04  0.50400001928E-02 0.  1.
       -1   -1    0    0    0  501  0.00000000000E+00  0.00000000000E+00 -0.11426849919E+04  0.11426849919E+04  0.50400001928E-02 0. -1.
    10030    2    1    2    0    0  0.00000000000E+00  0.00000000000E+00 -0.10651617577E+03  0.21788538080E+04  0.21762486579E+04 0.  0.
        4    1    3    3  502    0  0.10221181571E+04 -0.25620537472E+03 -0.32496132319E+03  0.11027094792E+04  0.12699999809E+01 0.  1.
       -4    1    3    3    0  502 -0.10221181571E+04  0.25620537472E+03  0.21844514741E+03  0.10761443288E+04  0.12699999809E+01 0. -1.
</event>
<event>
 5   0  0.2908031E-05  0.2210900E+04  0.7818609E-02  0.8513905E-01
       -1   -1    0    0    0  501  0.00000000000E+00  0.00000000000E+00  0.11000864062E+04  0.11000864062E+04  0.50400001928E-02 0.  1.
        1   -1    0    0  501    0  0.00000000000E+00  0.00000000000E+00 -0.11108396283E+04  0.11108396283E+04  0.50400001928E-02 0. -1.
    10030    2    1    2    0    0  0.00000000000E+00  0.00000000000E+00 -0.10753222145E+02  0.22109260345E+04  0.22108998842E+04 0.  0.
        1    1    3    3  502    0 -0.10124374530E+04 -0.86607985380E+02 -0.44068514263E+03  0.11075802158E+04  0.50400001928E-02 0.  1.
       -1    1    3    3    0  502  0.10124374530E+04  0.86607985380E+02  0.42993192049E+03  0.11033458187E+04  0.50400001928E-02 0. -1.
</event>
<event>
 5   0  0.6628798E-05  0.2201797E+04  0.7818609E-02  0.8517681E-01
        2   -1    0    0  501    0  0.00000000000E+00  0.00000000000E+00  0.16005103847E+04  0.16005103847E+04  0.25500000920E-02 0.  1.
       -2   -1    0    0    0  501  0.00000000000E+00  0.00000000000E+00 -0.75724413954E+03  0.75724413955E+03  0.25500000920E-02 0. -1.
    10030    2    1    2    0    0  0.00000000000E+00  0.00000000000E+00  0.84326624516E+03  0.23577545243E+04  0.22017966383E+04 0.  0.
        4    1    3    3  502    0  0.80872328961E+03 -0.65035368002E+03  0.81505606177E+03  0.13195875359E+04  0.12699999809E+01 0.  1.
       -4    1    3    3    0  502 -0.80872328961E+03  0.65035368002E+03  0.28210183387E+02  0.10381669883E+04  0.12699999809E+01 0. -1.
</event>
<event>
 5   0  0.2820239E-05  0.2203131E+04  0.7818609E-02  0.8517126E-01
        1   -1    0    0  501    0  0.00000000000E+00  0.00000000000E+00  0.19106092279E+04  0.19106092279E+04  0.50400001928E-02 0. -1.
       -1   -1    0    0    0  501  0.00000000000E+00  0.00000000000E+00 -0.63510993804E+03  0.63510993806E+03  0.50400001928E-02 0.  1.
    10030    2    1    2    0    0  0.00000000000E+00  0.00000000000E+00  0.12754992898E+04  0.25457191659E+04  0.22031313246E+04 0.  0.
        3    1    3    3  502    0 -0.45202842222E+03 -0.67829506269E+03  0.14939380376E+04  0.17018415781E+04  0.10100000352E+00 0. -1.
       -3    1    3    3    0  502  0.45202842222E+03  0.67829506269E+03 -0.21843874776E+03  0.84387758785E+03  0.10100000352E+00 0.  1.
</event>
<event>
 5   0  0.2908031E-05  0.2194955E+04  0.7818609E-02  0.8520531E-01
       -1   -1    0    0    0  501  0.00000000000E+00  0.00000000000E+00  0.83183316236E+03  0.83183316237E+03  0.50400001928E-02 0.  1.
        1   -1    0    0  501    0  0.00000000000E+00  0.00000000000E+00 -0.14479545523E+04  0.14479545523E+04  0.50400001928E-02 0. -1.
    10030    2    1    2    0    0  0.00000000000E+00  0.00000000000E+00 -0.61612138997E+03  0.22797877147E+04  0.21949547733E+04 0.  0.
        1    1    3    3  502    0  0.48172112906E+03 -0.36524570432E+03  0.64330836252E+03  0.88278271394E+03  0.50400001928E-02 0.  1.
       -1    1    3    3    0  502 -0.48172112906E+03  0.36524570432E+03 -0.12594297525E+04  0.13970050008E+04  0.50400001928E-02 0. -1.
</event>
<event>
 5   0  0.2908031E-05  0.2223767E+04  0.7818609E-02  0.8508600E-01
        1   -1    0    0  501    0  0.00000000000E+00  0.00000000000E+00  0.18214053248E+04  0.18214053248E+04  0.50400001928E-02 0.  1.
       -1   -1    0    0    0  501  0.00000000000E+00  0.00000000000E+00 -0.67875335700E+03  0.67875335702E+03  0.50400001928E-02 0. -1.
    10030    2    1    2    0    0  0.00000000000E+00  0.00000000000E+00  0.11426519678E+04  0.25001586819E+04  0.22237670550E+04 0.  0.
        1    1    3    3  502    0  0.42189825637E+03 -0.10658236536E+03 -0.57904121542E+03  0.72432497438E+03  0.50400001928E-02 0. -1.
       -1    1    3    3    0  502 -0.42189825637E+03  0.10658236536E+03  0.17216931832E+04  0.17758337075E+04  0.50400001928E-02 0.  1.
</event>
<event>
 5   0  0.2910318E-05  0.2169982E+04  0.7818609E-02  0.8531027E-01
        1   -1    0    0  501    0  0.00000000000E+00  0.00000000000E+00  0.56686710129E+03  0.56686710131E+03  0.50400001928E-02 0.  1.
       -1   -1    0    0    0  501  0.00000000000E+00  0.00000000000E+00 -0.20766873223E+04  0.20766873223E+04  0.50400001928E-02 0. -1.
    10030    2    1    2    0    0  0.00000000000E+00  0.00000000000E+00 -0.15098202210E+04  0.26435544236E+04  0.21699822328E+04 0.  0.
        5    1    3    3  502    0  0.64966335490E+03 -0.55677200856E+02  0.30153544853E+03  0.71840666904E+03  0.46999998093E+01 0.  1.
       -5    1    3    3    0  502 -0.64966335490E+03  0.55677200856E+02 -0.18113556695E+04  0.19251477546E+04  0.46999998093E+01 0. -1.
</event>
<event>
 5   0  0.2910318E-05  0.2194430E+04  0.7818609E-02  0.8520750E-01
       -1   -1    0    0    0  501  0.00000000000E+00  0.00000000000E+00  0.11370957618E+04  0.11370957618E+04  0.50400001928E-02 0.  1.
        1   -1    0    0  501    0  0.00000000000E+00  0.00000000000E+00 -0.10587327080E+04  0.10587327080E+04  0.50400001928E-02 0. -1.
    10030    2    1    2    0    0  0.00000000000E+00  0.00000000000E+00  0.78363053819E+02  0.21958284698E+04  0.21944297438E+04 0.  0.
        5    1    3    3  502    0  0.88302688850E+03  0.60275238664E+02  0.68804592220E+03  0.11210704132E+04  0.46999998093E+01 0.  1.
       -5    1    3    3    0  502 -0.88302688850E+03 -0.60275238664E+02 -0.60968286839E+03  0.10747580566E+04  0.46999998093E+01 0. -1.
</event>
<event>
 5   0  0.2929471E-05  0.1997598E+04  0.7818609E-02  0.8607745E-01
        1   -1    0    0  501    0  0.00000000000E+00  0.00000000000E+00  0.10560490221E+04  0.10560490221E+04  0.50400001928E-02 0. -1.
       -1   -1    0    0    0  501  0.00000000000E+00  0.00000000000E+00 -0.94465236568E+03  0.94465236570E+03  0.50400001928E-02 0.  1.
    10030    2    1    2    0    0  0.00000000000E+00  0.00000000000E+00  0.11139665639E+03  0.20007013878E+04  0.19975977643E+04 0.  0.
        2    1    3    3  502    0 -0.52762422857E+03  0.25583405909E+03 -0.75411267457E+03  0.95526138743E+03  0.25500000920E-02 0.  1.
       -2    1    3    3    0  502  0.52762422857E+03 -0.25583405909E+03  0.86550933096E+03  0.10454400004E+04  0.25500000920E-02 0. -1.
</event>
<event>
 5   0  0.2929471E-05  0.2206625E+04  0.7818609E-02  0.8515676E-01
       -1   -1    0    0    0  501  0.00000000000E+00  0.00000000000E+00  0.14678546968E+04  0.14678546968E+04  0.50400001928E-02 0. -1.
        1   -1    0    0  501    0  0.00000000000E+00  0.00000000000E+00 -0.82930463862E+03  0.82930463863E+03  0.50400001928E-02 0.  1.
    10030    2    1    2    0    0  0.00000000000E+00  0.00000000000E+00  0.63855005818E+03  0.22971593354E+04  0.22066252141E+04 0.  0.
        2    1    3    3  502    0  0.64137903679E+02 -0.30394000703E+03 -0.78284189666E+03  0.84222006253E+03  0.25500000920E-02 0.  1.
       -2    1    3    3    0  502 -0.64137903679E+02  0.30394000703E+03  0.14213919548E+04  0.14549392729E+04  0.25500000920E-02 0. -1.
</event>
<event>
 5   0  0.2929471E-05  0.2220819E+04  0.7818609E-02  0.8509813E-01
       -1   -1    0    0    0  501  0.00000000000E+00  0.00000000000E+00  0.10233802319E+04  0.10233802319E+04  0.50400001928E-02 0.  1.
        1   -1    0    0  501    0  0.00000000000E+00  0.00000000000E+00 -0.12048393881E+04  0.12048393881E+04  0.50400001928E-02 0. -1.
    10030    2    1    2    0    0  0.00000000000E+00  0.00000000000E+00 -0.18145915624E+03  0.22282196200E+04  0.22208185990E+04 0.  0.
        2    1    3    3  502    0  0.83740421848E+02  0.86811953178E+03 -0.78030803722E+03  0.11702668980E+04  0.25500000920E-02 0. -1.
       -2    1    3    3    0  502 -0.83740421848E+02 -0.86811953178E+03  0.59884888099E+03  0.10579527220E+04  0.25500000920E-02 0.  1.
</event>
<event>
 5   0  0.6445740E-05  0.2192477E+04  0.7818609E-02  0.8521566E-01
       -2   -1    0    0    0  501  0.00000000000E+00  0.00000000000E+00  0.12971398675E+04  0.12971398675E+04  0.25500000920E-02 0. -1.
        2   -1    0    0  501    0  0.00000000000E+00  0.00000000000E+00 -0.92645312123E+03  0.92645312123E+03  0.25500000920E-02 0.  1.
    10030    2    1    2    0    0  0.00000000000E+00  0.00000000000E+00  0.37068674625E+03  0.22235929887E+04  0.21924773923E+04 0.  0.
        5    1    3    3  502    0 -0.83691471802E+03 -0.70739211033E+03  0.15513226538E+03  0.11067601153E+04  0.46999998093E+01 0. -1.
       -5    1    3    3    0  502  0.83691471802E+03  0.70739211033E+03  0.21555448087E+03  0.11168328734E+04  0.46999998093E+01 0.  1.
</event>
<event>
 5   0  0.2908031E-05  0.2223990E+04  0.7818609E-02  0.8508509E-01
       -1   -1    0    0    0  501  0.00000000000E+00  0.00000000000E+00  0.99241961644E+03  0.99241961645E+03  0.50400001928E-02 0. -1.
        1   -1    0    0  501    0  0.00000000000E+00  0.00000000000E+00 -0.12459775452E+04  0.12459775452E+04  0.50400001928E-02 0.  1.
    10030    2    1    2    0    0  0.00000000000E+00  0.00000000000E+00 -0.25355792877E+03  0.22383971617E+04  0.22239897100E+04 0.  0.
        1    1    3    3  502    0 -0.29342468100E+03 -0.69438126632E+03  0.69599413921E+03  0.10259976746E+04  0.50400001928E-02 0. -1.
       -1    1    3    3    0  502  0.29342468100E+03  0.69438126632E+03 -0.94955206798E+03  0.12123994871E+04  0.50400001928E-02 0.  1.
</event>
<event>
 5   0  0.2245375E-05  0.2225466E+04  0.7818609E-02  0.8507903E-01
        3   -1    0    0  501    0  0.00000000000E+00  0.00000000000E+00  0.16571912257E+04  0.16571912287E+04  0.10100000352E+00 0. -1.
       -3   -1    0    0    0  501  0.00000000000E+00  0.00000000000E+00 -0.74715272163E+03  0.74715272846E+03  0.10100000352E+00 0.  1.
    10030    2    1    2    0    0  0.00000000000E+00  0.00000000000E+00  0.91003850402E+03  0.24043439572E+04  0.22254661951E+04 0.  0.
        4    1    3    3  502    0 -0.48296775201E+03 -0.60503064903E+03 -0.40850830064E+03  0.87532884126E+03  0.12699999809E+01 0.  1.
       -4    1    3    3    0  502  0.48296775201E+03  0.60503064903E+03  0.13185468047E+04  0.15290151159E+04  0.12699999809E+01 0. -1.
</event>
<event>
 5   0  0.6306919E-05  0.2210219E+04  0.7818609E-02  0.8514187E-01
        2   -1    0    0  501    0  0.00000000000E+00  0.00000000000E+00  0.17546164602E+04  0.17546164602E+04  0.25500000920E-02 0. -1.
       -2   -1    0    0    0  501  0.00000000000E+00  0.00000000000E+00 -0.69603055010E+03  0.69603055010E+03  0.25500000920E-02 0.  1.
    10030    2    1    2    0    0  0.00000000000E+00  0.00000000000E+00  0.10585859101E+04  0.24506470103E+04  0.22102186860E+04 0.  0.
        3    1    3    3  502    0 -0.74766334047E+02 -0.68288645757E+03  0.14891040446E+04  0.16399252374E+04  0.10100000352E+00 0. -1.
       -3    1    3    3    0  502  0.74766334047E+02  0.68288645757E+03 -0.43051813449E+03  0.81072177284E+03  0.10100000352E+00 0.  1.
</event>
<event>
 5   0  0.2753631E-05  0.2201591E+04  0.7818609E-02  0.8517766E-01
       -1   -1    0    0    0  501  0.00000000000E+00  0.00000000000E+00  0.10013866075E+04  0.10013866075E+04  0.50400001928E-02 0. -1.
        1   -1    0    0  501    0  0.00000000000E+00  0.00000000000E+00 -0.12100728803E+04  0.12100728803E+04  0.50400001928E-02 0.  1.
    10030    2    1    2    0    0  0.00000000000E+00  0.00000000000E+00 -0.20868627278E+03  0.22114594878E+04  0.22015910396E+04 0.  0.
        4    1    3    3  502    0 -0.46771565006E+03 -0.36949285837E+02 -0.11046109354E+04  0.12001208733E+04  0.12699999809E+01 0.  1.
       -4    1    3    3    0  502  0.46771565006E+03  0.36949285837E+02  0.89592466266E+03  0.10113386145E+04  0.12699999809E+01 0. -1.
</event>
<event>
 5   0  0.6628798E-05  0.2208230E+04  0.7818609E-02  0.8515010E-01
        2   -1    0    0  501    0  0.00000000000E+00  0.00000000000E+00  0.11317226652E+04  0.11317226652E+04  0.25500000920E-02 0.  1.
       -2   -1    0    0    0  501  0.00000000000E+00  0.00000000000E+00 -0.10771807955E+04  0.10771807955E+04  0.25500000920E-02 0. -1.
    10030    2    1    2    0    0  0.00000000000E+00  0.00000000000E+00  0.54541869700E+02  0.22089034607E+04  0.22082299887E+04 0.  0.
        4    1    3    3  502    0 -0.10118208035E+04 -0.37348315631E+03  0.26355750035E+03  0.11102860781E+04  0.12699999809E+01 0.  1.
       -4    1    3    3    0  502  0.10118208035E+04  0.37348315631E+03 -0.20901563065E+03  0.10986173825E+04  0.12699999809E+01 0. -1.
</event>
<event>
 5   0  0.6293013E-05  0.2219641E+04  0.7818609E-02  0.8510297E-01
       -2   -1    0    0    0  501  0.00000000000E+00  0.00000000000E+00  0.44953679554E+03  0.44953679555E+03  0.25500000920E-02 0.  1.
        2   -1    0    0  501    0  0.00000000000E+00  0.00000000000E+00 -0.27399351600E+04  0.27399351600E+04  0.25500000920E-02 0. -1.
    10030    2    1    2    0    0  0.00000000000E+00  0.00000000000E+00 -0.22903983645E+04  0.31894719555E+04  0.22196411168E+04 0.  0.
        1    1    3    3  502    0 -0.71547270239E+03 -0.77589126559E+03 -0.16383686576E+04  0.19488869393E+04  0.50400001928E-02 0. -1.
       -1    1    3    3    0  502  0.71547270239E+03  0.77589126559E+03 -0.65202970681E+03  0.12405850162E+04  0.50400001928E-02 0.  1.
</event>
<event>
 5   0  0.2820239E-05  0.2188264E+04  0.7818609E-02  0.8523329E-01
        1   -1    0    0  501    0  0.00000000000E+00  0.00000000000E+00  0.91942585063E+03  0.91942585064E+03  0.50400001928E-02 0.  1.
       -1   -1    0    0    0  501  0.00000000000E+00  0.00000000000E+00 -0.13020354523E+04  0.13020354523E+04  0.50400001928E-02 0. -1.
    10030    2    1    2    0    0  0.00000000000E+00  0.00000000000E+00 -0.38260960163E+03  0.22214613029E+04  0.21882642009E+04 0.  0.
        3    1    3    3  502    0  0.84241982403E+03 -0.89262008174E+02 -0.89425902110E+03  0.12318027736E+04  0.10100000352E+00 0. -1.
       -3    1    3    3    0  502 -0.84241982403E+03  0.89262008174E+02  0.51164941946E+03  0.98965852932E+03  0.10100000352E+00 0.  1.
</event>
<event>
 5   0  0.6306919E-05  0.2247894E+04  0.7818609E-02  0.8498754E-01
       -2   -1    0    0    0  501  0.00000000000E+00  0.00000000000E+00  0.42422714689E+03  0.42422714689E+03  0.25500000920E-02 0. -1.
        2   -1    0    0  501    0  0.00000000000E+00  0.00000000000E+00 -0.29777836452E+04  0.29777836452E+04  0.25500000920E-02 0.  1.
    10030    2    1    2    0    0  0.00000000000E+00  0.00000000000E+00 -0.25535564983E+04  0.34020107921E+04  0.22478938230E+04 0.  0.
        3    1    3    3  502    0 -0.15831439821E+03 -0.65827574595E+03 -0.26345343085E+04  0.27201399668E+04  0.10100000352E+00 0.  1.
       -3    1    3    3    0  502  0.15831439821E+03  0.65827574595E+03  0.80977810176E+02  0.68187082525E+03  0.10100000352E+00 0. -1.
</event>
<event>
 5   0  0.2753631E-05  0.2422758E+04  0.7818609E-02  0.8431032E-01
        1   -1    0    0  501    0  0.00000000000E+00  0.00000000000E+00  0.87170100397E+03  0.87170100399E+03  0.50400001928E-02 0. -1.
       -1   -1    0    0    0  501  0.00000000000E+00  0.00000000000E+00 -0.16834204342E+04  0.16834204342E+04  0.50400001928E-02 0.  1.
    10030    2    1    2    0    0  0.00000000000E+00  0.00000000000E+00 -0.81171943023E+03  0.25551214382E+04  0.24227581659E+04 0.  0.
        4    1    3    3  502    0  0.92662274949E+03 -0.27729930216E+03  0.36330933591E+03  0.10332085507E+04  0.12699999809E+01 0. -1.
       -4    1    3    3    0  502 -0.92662274949E+03  0.27729930216E+03 -0.11750287661E+04  0.15219128875E+04  0.12699999809E+01 0.  1.
</event>
<event>
 5   0  0.6414768E-05  0.2215608E+04  0.7818609E-02  0.8511960E-01
        2   -1    0    0  501    0  0.00000000000E+00  0.00000000000E+00  0.83131114453E+03  0.83131114453E+03  0.25500000920E-02 0.  1.
       -2   -1    0    0    0  501  0.00000000000E+00  0.00000000000E+00 -0.14762576306E+04  0.14762576306E+04  0.25500000920E-02 0. -1.
    10030    2    1    2    0    0  0.00000000000E+00  0.00000000000E+00 -0.64494648606E+03  0.23075687751E+04  0.22156077455E+04 0.  0.
        2    1    3    3  502    0 -0.16200986668E+03 -0.10761115359E+04 -0.10658689485E+03  0.10934459295E+04  0.25500000920E-02 0.  1.
       -2    1    3    3    0  502  0.16200986668E+03  0.10761115359E+04 -0.53835959121E+03  0.12141228456E+04  0.25500000920E-02 0. -1.
</event>
<event>
 5   0  0.2753631E-05  0.2181304E+04  0.7818609E-02  0.8526250E-01
        1   -1    0    0  501    0  0.00000000000E+00  0.00000000000E+00  0.10684547748E+04  0.10684547748E+04  0.50400001928E-02 0. -1.
       -1   -1    0    0    0  501  0.00000000000E+00  0.00000000000E+00 -0.11133108015E+04  0.11133108015E+04  0.50400001928E-02 0.  1.
    10030    2    1    2    0    0  0.00000000000E+00  0.00000000000E+00 -0.44856026702E+02  0.21817655764E+04  0.21813044187E+04 0.  0.
        4    1    3    3  502    0  0.58618983683E+03 -0.10364447237E+03 -0.93649206650E+03  0.11096754953E+04  0.12699999809E+01 0.  1.
       -4    1    3    3    0  502 -0.58618983683E+03  0.10364447237E+03  0.89163603980E+03  0.10720900810E+04  0.12699999809E+01 0. -1.
</event>
<event>
 5   0  0.2753631E-05  0.2200695E+04  0.7818609E-02  0.8518139E-01
        1   -1    0    0  501    0  0.00000000000E+00  0.00000000000E+00  0.16225775976E+04  0.16225775976E+04  0.50400001928E-02 0. -1.
       -1   -1    0    0    0  501  0.00000000000E+00  0.00000000000E+00 -0.74619821193E+03  0.74619821194E+03  0.50400001928E-02 0.  1.
    10030    2    1    2    0    0  0.00000000000E+00  0.00000000000E+00  0.87637938570E+03  0.23687758096E+04  0.22006948922E+04 0.  0.
        4    1    3    3  502    0  0.61264374622E+03 -0.86451001416E+03  0.11878880746E+03  0.10662187008E+04  0.12699999809E+01 0.  1.
       -4    1    3    3    0  502 -0.61264374622E+03  0.86451001416E+03  0.75759057824E+03  0.13025571087E+04  0.12699999809E+01 0. -1.
</event>
<event>
 5   0  0.2929471E-05  0.2193500E+04  0.7818609E-02  0.8521139E-01
        1   -1    0    0  501    0  0.00000000000E+00  0.00000000000E+00  0.13751981882E+04  0.13751981882E+04  0.50400001928E-02 0.  1.
       -1   -1    0    0    0  501  0.00000000000E+00  0.00000000000E+00 -0.87468132648E+03  0.87468132650E+03  0.50400001928E-02 0. -1.
    10030    2    1    2    0    0  0.00000000000E+00  0.00000000000E+00  0.50051686171E+03  0.22498795147E+04  0.21934996471E+04 0.  0.
        2    1    3    3  502    0  0.32383514169E+03 -0.97915405426E+03  0.63300972346E+03  0.12100880840E+04  0.25500000920E-02 0.  1.
       -2    1    3    3    0  502 -0.32383514169E+03  0.97915405426E+03 -0.13249286175E+03  0.10397914307E+04  0.25500000920E-02 0. -1.
</event>
<event>
 5   0  0.6414768E-05  0.2200200E+04  0.7818609E-02  0.8518345E-01
        2   -1    0    0  501    0  0.00000000000E+00  0.00000000000E+00  0.29642471423E+04  0.29642471423E+04  0.25500000920E-02 0. -1.
       -2   -1    0    0    0  501  0.00000000000E+00  0.00000000000E+00 -0.40827212917E+03  0.40827212918E+03  0.25500000920E-02 0.  1.
    10030    2    1    2    0    0  0.00000000000E+00  0.00000000000E+00  0.25559750131E+04  0.33725192714E+04  0.22001995293E+04 0.  0.
        2    1    3    3  502    0  0.73025996743E+03 -0.50779969103E+03  0.22702818171E+04  0.24383026218E+04  0.25500000920E-02 0. -1.
       -2    1    3    3    0  502 -0.73025996743E+03  0.50779969103E+03  0.28569319596E+03  0.93421664965E+03  0.25500000920E-02 0.  1.
</event>
<event>
 5   0  0.6293013E-05  0.2206141E+04  0.7818609E-02  0.8515876E-01
        2   -1    0    0  501    0  0.00000000000E+00  0.00000000000E+00  0.18450622977E+04  0.18450622977E+04  0.25500000920E-02 0.  1.
       -2   -1    0    0    0  501  0.00000000000E+00  0.00000000000E+00 -0.65947077160E+03  0.65947077161E+03  0.25500000920E-02 0. -1.
    10030    2    1    2    0    0  0.00000000000E+00  0.00000000000E+00  0.11855915261E+04  0.25045330693E+04  0.22061411171E+04 0.  0.
        1    1    3    3  502    0 -0.61169453843E+03  0.22222449921E+03  0.16038809999E+04  0.17308923127E+04  0.50400001928E-02 0.  1.
       -1    1    3    3    0  502  0.61169453843E+03 -0.22222449921E+03 -0.41828947377E+03  0.77364075661E+03  0.50400001928E-02 0. -1.
</event>
<event>
 5   0  0.2245375E-05  0.2164053E+04  0.7818609E-02  0.8533541E-01
        4   -1    0    0  501    0  0.00000000000E+00  0.00000000000E+00  0.95781476127E+03  0.95781560324E+03  0.12699999809E+01 0. -1.
       -4   -1    0    0    0  501  0.00000000000E+00  0.00000000000E+00 -0.12223442974E+04  0.12223449572E+04  0.12699999809E+01 0.  1.
    10030    2    1    2    0    0  0.00000000000E+00  0.00000000000E+00 -0.26452953616E+03  0.21801605604E+04  0.21640527243E+04 0.  0.
        4    1    3    3  502    0  0.93753798022E+03  0.23878945169E+03 -0.62041403513E+03  0.11493098166E+04  0.12699999809E+01 0.  1.
       -4    1    3    3    0  502 -0.93753798022E+03 -0.23878945169E+03  0.35588449897E+03  0.10308507439E+04  0.12699999809E+01 0. -1.
</event>
<event>
 5   0  0.6293013E-05  0.1921553E+04  0.7818609E-02  0.8644202E-01
       -2   -1    0    0    0  501  0.00000000000E+00  0.00000000000E+00  0.89926427849E+03  0.89926427849E+03  0.25500000920E-02 0. -1.
        2   -1    0    0  501    0  0.00000000000E+00  0.00000000000E+00 -0.10264958022E+04  0.10264958022E+04  0.25500000920E-02 0.  1.
    10030    2    1    2    0    0  0.00000000000E+00  0.00000000000E+00 -0.12723152374E+03  0.19257600807E+04  0.19215525046E+04 0.  0.
        1    1    3    3  502    0  0.59815810488E+03  0.38419772411E+03 -0.71132033261E+03  0.10056727227E+04  0.50400001928E-02 0.  1.
       -1    1    3    3    0  502 -0.59815810488E+03 -0.38419772411E+03  0.58408880888E+03  0.92008735799E+03  0.50400001928E-02 0. -1.
</event>
<event>
 5   0  0.2908031E-05  0.2211560E+04  0.7818609E-02  0.8513632E-01
       -1   -1    0    0    0  501  0.00000000000E+00  0.00000000000E+00  0.84575650111E+03  0.84575650113E+03  0.50400001928E-02 0. -1.
        1   -1    0    0  501    0  0.00000000000E+00  0.00000000000E+00 -0.14457466516E+04  0.14457466516E+04  0.50400001928E-02 0.  1.
    10030    2    1    2    0    0  0.00000000000E+00  0.00000000000E+00 -0.59999015051E+03  0.22915031528E+04  0.22115602000E+04 0.  0.
        1    1    3    3  502    0 -0.44223590611E+03  0.90164120985E+03 -0.77956491763E+03  0.12713185788E+04  0.50400001928E-02 0.  1.
       -1    1    3    3    0  502  0.44223590611E+03 -0.90164120985E+03  0.17957476712E+03  0.10201845740E+04  0.50400001928E-02 0. -1.
</event>
<event>
 5   0  0.6445740E-05  0.2332627E+04  0.7818609E-02  0.8465167E-01
        2   -1    0    0  501    0  0.00000000000E+00  0.00000000000E+00  0.13053722011E+04  0.13053722011E+04  0.25500000920E-02 0.  1.
       -2   -1    0    0    0  501  0.00000000000E+00  0.00000000000E+00 -0.10420688235E+04  0.10420688235E+04  0.25500000920E-02 0. -1.
    10030    2    1    2    0    0  0.00000000000E+00  0.00000000000E+00  0.26330337759E+03  0.23474410247E+04  0.23326274232E+04 0.  0.
        5    1    3    3  502    0  0.86104198681E+03  0.27400556717E+03 -0.61045476997E+03  0.10904813020E+04  0.46999998093E+01 0. -1.
       -5    1    3    3    0  502 -0.86104198681E+03 -0.27400556717E+03  0.87375814756E+03  0.12569597226E+04  0.46999998093E+01 0.  1.
</event>
<event>
 5   0  0.2245375E-05  0.2199861E+04  0.7818609E-02  0.8518486E-01
        3   -1    0    0  501    0  0.00000000000E+00  0.00000000000E+00  0.78395041934E+03  0.78395042585E+03  0.10100000352E+00 0.  1.
       -3   -1    0    0    0  501  0.00000000000E+00  0.00000000000E+00 -0.15432702348E+04  0.15432702381E+04  0.10100000352E+00 0. -1.
    10030    2    1    2    0    0  0.00000000000E+00  0.00000000000E+00 -0.75931981548E+03  0.23272206640E+04  0.21998612312E+04 0.  0.
        3    1    3    3  502    0 -0.88788507699E+03 -0.58723691766E+03 -0.86754513370E+02  0.10680418827E+04  0.10100000352E+00 0. -1.
       -3    1    3    3    0  502  0.88788507699E+03  0.58723691766E+03 -0.67256530211E+03  0.12591787813E+04  0.10100000352E+00 0.  1.
</event>
<event>
 5   0  0.6628798E-05  0.2206292E+04  0.7818609E-02  0.8515814E-01
        2   -1    0    0  501    0  0.00000000000E+00  0.00000000000E+00  0.10256866173E+04  0.10256866173E+04  0.25500000920E-02 0.  1.
       -2   -1    0    0    0  501  0.00000000000E+00  0.00000000000E+00 -0.11864554229E+04  0.11864554229E+04  0.25500000920E-02 0. -1.
    10030    2    1    2    0    0  0.00000000000E+00  0.00000000000E+00 -0.16076880560E+03  0.22121420402E+04  0.22062923190E+04 0.  0.
        4    1    3    3  502    0  0.49954999271E+03 -0.41800994931E+02  0.90488694267E+03  0.10344658092E+04  0.12699999809E+01 0.  1.
       -4    1    3    3    0  502 -0.49954999271E+03  0.41800994931E+02 -0.10656557483E+04  0.11776762310E+04  0.12699999809E+01 0. -1.
</event>
<event>
 5   0  0.6628798E-05  0.2216156E+04  0.7818609E-02  0.8511734E-01
        2   -1    0    0  501    0  0.00000000000E+00  0.00000000000E+00  0.15781948229E+04  0.15781948229E+04  0.25500000920E-02 0.  1.
       -2   -1    0    0    0  501  0.00000000000E+00  0.00000000000E+00 -0.77800089024E+03  0.77800089024E+03  0.25500000920E-02 0. -1.
    10030    2    1    2    0    0  0.00000000000E+00  0.00000000000E+00  0.80019393265E+03  0.23561957131E+04  0.22161561111E+04 0.  0.
        4    1    3    3  502    0 -0.52674223949E+03 -0.16780960209E+03 -0.62090784567E+03  0.83135167958E+03  0.12699999809E+01 0. -1.
       -4    1    3    3    0  502  0.52674223949E+03  0.16780960209E+03  0.14211017783E+04  0.15248440336E+04  0.12699999809E+01 0.  1.
</event>
<event>
 5   0  0.2929471E-05  0.2214021E+04  0.7818609E-02  0.8512615E-01
        1   -1    0    0  501    0  0.00000000000E+00  0.00000000000E+00  0.89181682639E+03  0.89181682640E+03  0.50400001928E-02 0. -1.
       -1   -1    0    0    0  501  0.00000000000E+00  0.00000000000E+00 -0.13741295274E+04  0.13741295274E+04  0.50400001928E-02 0.  1.
    10030    2    1    2    0    0  0.00000000000E+00  0.00000000000E+00 -0.48231270103E+03  0.22659463538E+04  0.22140206270E+04 0.  0.
        2    1    3    3  502    0 -0.19442102747E+03 -0.87357177015E+03  0.42569594843E+03  0.99103189355E+03  0.25500000920E-02 0. -1.
       -2    1    3    3    0  502  0.19442102747E+03  0.87357177015E+03 -0.90800864946E+03  0.12749144603E+04  0.25500000920E-02 0.  1.
</event>
<event>
 5   0  0.2820239E-05  0.2190225E+04  0.7818609E-02  0.8522508E-01
        1   -1    0    0  501    0  0.00000000000E+00  0.00000000000E+00  0.96297725597E+03  0.96297725598E+03  0.50400001928E-02 0.  1.
       -1   -1    0    0    0  501  0.00000000000E+00  0.00000000000E+00 -0.12453791997E+04  0.12453791997E+04  0.50400001928E-02 0. -1.
    10030    2    1    2    0    0  0.00000000000E+00  0.00000000000E+00 -0.28240194371E+03  0.22083564557E+04  0.21902254170E+04 0.  0.
        3    1    3    3  502    0 -0.31959111302E+03 -0.10407584556E+04 -0.22090961212E+02  0.10889465842E+04  0.10100000352E+00 0. -1.
       -3    1    3    3    0  502  0.31959111302E+03  0.10407584556E+04 -0.26031098250E+03  0.11194098715E+04  0.10100000352E+00 0.  1.
</event>
<event>
 5   0  0.2910318E-05  0.2164536E+04  0.7818609E-02  0.8533336E-01
       -1   -1    0    0    0  501  0.00000000000E+00  0.00000000000E+00  0.10777463677E+04  0.10777463677E+04  0.50400001928E-02 0. -1.
        1   -1    0    0  501    0  0.00000000000E+00  0.00000000000E+00 -0.10868082701E+04  0.10868082701E+04  0.50400001928E-02 0.  1.
    10030    2    1    2    0    0  0.00000000000E+00  0.00000000000E+00 -0.90619024059E+01  0.21645546379E+04  0.21645356690E+04 0.  0.
        5    1    3    3  502    0  0.11125858629E+03 -0.81126710026E+03 -0.71217321341E+03  0.10852398615E+04  0.46999998093E+01 0.  1.
       -5    1    3    3    0  502 -0.11125858629E+03  0.81126710026E+03  0.70311131101E+03  0.10793147764E+04  0.46999998093E+01 0. -1.
</event>
<event>
 5   0  0.6628798E-05  0.2217695E+04  0.7818609E-02  0.8511099E-01
        2   -1    0    0  501    0  0.00000000000E+00  0.00000000000E+00  0.16102395428E+04  0.16102395428E+04  0.25500000920E-02 0. -1.
       -2   -1    0    0    0  501  0.00000000000E+00  0.00000000000E+00 -0.76357756779E+03  0.76357756779E+03  0.25500000920E-02 0.  1.
    10030    2    1    2    0    0  0.00000000000E+00  0.00000000000E+00  0.84666197504E+03  0.23738171106E+04  0.22176950139E+04 0.  0.
        4    1    3    3  502    0 -0.61670517732E+03 -0.17682543368E+03  0.13914047763E+04  0.15321884264E+04  0.12699999809E+01 0. -1.
       -4    1    3    3    0  502  0.61670517732E+03  0.17682543368E+03 -0.54474280121E+03  0.84162868422E+03  0.12699999809E+01 0.  1.
</event>
<event>
 5   0  0.6445740E-05  0.2127102E+04  0.7818609E-02  0.8549398E-01
       -2   -1    0    0    0  501  0.00000000000E+00  0.00000000000E+00  0.43541245355E+03  0.43541245356E+03  0.25500000920E-02 0.  1.
        2   -1    0    0  501    0  0.00000000000E+00  0.00000000000E+00 -0.25978604855E+04  0.25978604855E+04  0.25500000920E-02 0. -1.
    10030    2    1    2    0    0  0.00000000000E+00  0.00000000000E+00 -0.21624480319E+04  0.30332729391E+04  0.21271020737E+04 0.  0.
        5    1    3    3  502    0 -0.26013377967E+03 -0.10111174489E+04 -0.13702884154E+04  0.17227131247E+04  0.46999998093E+01 0.  1.
       -5    1    3    3    0  502  0.26013377967E+03  0.10111174489E+04 -0.79215961656E+03  0.13105598143E+04  0.46999998093E+01 0. -1.
</event>
<event>
 5   0  0.6293013E-05  0.2159029E+04  0.7818609E-02  0.8535677E-01
        2   -1    0    0  501    0  0.00000000000E+00  0.00000000000E+00  0.10372943123E+04  0.10372943123E+04  0.25500000920E-02 0. -1.
       -2   -1    0    0    0  501  0.00000000000E+00  0.00000000000E+00 -0.11234526251E+04  0.11234526251E+04  0.25500000920E-02 0.  1.
    10030    2    1    2    0    0  0.00000000000E+00  0.00000000000E+00 -0.86158312836E+02  0.21607469374E+04  0.21590285021E+04 0.  0.
        1    1    3    3  502    0  0.42500804241E+03 -0.87365869893E+03 -0.51402745615E+03  0.10991522115E+04  0.50400001928E-02 0.  1.
       -1    1    3    3    0  502 -0.42500804241E+03  0.87365869893E+03  0.42786914331E+03  0.10615947259E+04  0.50400001928E-02 0. -1.
</event>
<event>
 5   0  0.6293013E-05  0.2154629E+04  0.7818609E-02  0.8537553E-01
        2   -1    0    0  501    0  0.00000000000E+00  0.00000000000E+00  0.10706764878E+04  0.10706764878E+04  0.25500000920E-02 0. -1.
       -2   -1    0    0    0  501  0.00000000000E+00  0.00000000000E+00 -0.10839936337E+04  0.10839936337E+04  0.25500000920E-02 0.  1.
    10030    2    1    2    0    0  0.00000000000E+00  0.00000000000E+00 -0.13317145903E+02  0.21546701215E+04  0.21546289672E+04 0.  0.
        1    1    3    3  502    0 -0.69851307223E+03  0.51078065332E+03 -0.64837879196E+03  0.10813012743E+04  0.50400001928E-02 0.  1.
       -1    1    3    3    0  502  0.69851307223E+03 -0.51078065332E+03  0.63506164605E+03  0.10733688472E+04  0.50400001928E-02 0. -1.
</event>
<event>
 5   0  0.2910318E-05  0.2210296E+04  0.7818609E-02  0.8514155E-01
       -1   -1    0    0    0  501  0.00000000000E+00  0.00000000000E+00  0.68858275713E+03  0.68858275714E+03  0.50400001928E-02 0. -1.
        1   -1    0    0  501    0  0.00000000000E+00  0.00000000000E+00 -0.17737189154E+04  0.17737189155E+04  0.50400001928E-02 0.  1.
    10030    2    1    2    0    0  0.00000000000E+00  0.00000000000E+00 -0.10851361583E+04  0.24623016726E+04  0.22102961441E+04 0.  0.
        5    1    3    3  502    0 -0.71602130681E+02  0.74324393401E+03  0.36505749131E+03  0.83116031698E+03  0.46999998093E+01 0. -1.
       -5    1    3    3    0  502  0.71602130681E+02 -0.74324393401E+03 -0.14501936496E+04  0.16311413556E+04  0.46999998093E+01 0.  1.
</event>
<event>
 5   0  0.2910318E-05  0.2200908E+04  0.7818609E-02  0.8518050E-01
        1   -1    0    0  501    0  0.00000000000E+00  0.00000000000E+00  0.85248961426E+03  0.85248961428E+03  0.50400001928E-02 0. -1.
       -1   -1    0    0    0  501  0.00000000000E+00  0.00000000000E+00 -0.14205437504E+04  0.14205437504E+04  0.50400001928E-02 0.  1.
    10030    2    1    2    0    0  0.00000000000E+00  0.00000000000E+00 -0.56805413614E+03  0.22730333647E+04  0.22009078071E+04 0.  0.
        5    1    3    3  502    0 -0.20186071528E+03  0.78107855951E+03  0.48892806256E+03  0.94334734052E+03  0.46999998093E+01 0.  1.
       -5    1    3    3    0  502  0.20186071528E+03 -0.78107855951E+03 -0.10569821987E+04  0.13296860242E+04  0.46999998093E+01 0. -1.
</event>
<event>
 5   0  0.6628798E-05  0.2190512E+04  0.7818609E-02  0.8522388E-01
        2   -1    0    0  501    0  0.00000000000E+00  0.00000000000E+00  0.26223937658E+04  0.26223937658E+04  0.25500000920E-02 0.  1.
       -2   -1    0    0    0  501  0.00000000000E+00  0.00000000000E+00 -0.45743914980E+03  0.45743914980E+03  0.25500000920E-02 0. -1.
    10030    2    1    2    0    0  0.00000000000E+00  0.00000000000E+00  0.21649546161E+04  0.30798329157E+04  0.21905118805E+04 0.  0.
        4    1    3    3  502    0 -0.14340600285E+03 -0.94617216347E+03  0.18314570589E+04  0.20664083856E+04  0.12699999809E+01 0.  1.
       -4    1    3    3    0  502  0.14340600285E+03  0.94617216347E+03  0.33349755714E+03  0.10134245300E+04  0.12699999809E+01 0. -1.
</event>
<event>
 5   0  0.2753631E-05  0.2198128E+04  0.7818609E-02  0.8519208E-01
        1   -1    0    0  501    0  0.00000000000E+00  0.00000000000E+00  0.10811358553E+04  0.10811358553E+04  0.50400001928E-02 0. -1.
       -1   -1    0    0    0  501  0.00000000000E+00  0.00000000000E+00 -0.11172895105E+04  0.11172895105E+04  0.50400001928E-02 0.  1.
    10030    2    1    2    0    0  0.00000000000E+00  0.00000000000E+00 -0.36153655205E+02  0.21984253658E+04  0.21981280678E+04 0.  0.
        4    1    3    3  502    0  0.64304271711E+03  0.75816745923E+03  0.45062106702E+03  0.10915048288E+04  0.12699999809E+01 0. -1.
       -4    1    3    3    0  502 -0.64304271711E+03 -0.75816745923E+03 -0.48677472222E+03  0.11069205371E+04  0.12699999809E+01 0.  1.
</event>
<event>
 5   0  0.6628798E-05  0.2196623E+04  0.7818609E-02  0.8519835E-01
       -2   -1    0    0    0  501  0.00000000000E+00  0.00000000000E+00  0.59244867574E+03  0.59244867575E+03  0.25500000920E-02 0.  1.
        2   -1    0    0  501    0  0.00000000000E+00  0.00000000000E+00 -0.20361052350E+04  0.20361052350E+04  0.25500000920E-02 0. -1.
    10030    2    1    2    0    0  0.00000000000E+00  0.00000000000E+00 -0.14436565592E+04  0.26285539107E+04  0.21966227260E+04 0.  0.
        4    1    3    3  502    0 -0.63157859114E+03 -0.87800133941E+03 -0.95047113157E+03  0.14398523722E+04  0.12699999809E+01 0. -1.
       -4    1    3    3    0  502  0.63157859114E+03  0.87800133941E+03 -0.49318542767E+03  0.11887015386E+04  0.12699999809E+01 0.  1.
</event>
<event>
 5   0  0.2820239E-05  0.2195642E+04  0.7818609E-02  0.8520244E-01
       -1   -1    0    0    0  501  0.00000000000E+00  0.00000000000E+00  0.75082008926E+03  0.75082008927E+03  0.50400001928E-02 0. -1.
        1   -1    0    0  501    0  0.00000000000E+00  0.00000000000E+00 -0.16051920561E+04  0.16051920561E+04  0.50400001928E-02 0.  1.
    10030    2    1    2    0    0  0.00000000000E+00  0.00000000000E+00 -0.85437196685E+03  0.23560121454E+04  0.21956415398E+04 0.  0.
        3    1    3    3  502    0 -0.34883001368E+03 -0.39028572602E+03  0.60828697244E+03  0.80250755599E+03  0.10100000352E+00 0. -1.
       -3    1    3    3    0  502  0.34883001368E+03  0.39028572602E+03 -0.14626589393E+04  0.15535045894E+04  0.10100000352E+00 0.  1.
</event>
<event>
 5   0  0.2753631E-05  0.2164231E+04  0.7818609E-02  0.8533465E-01
        1   -1    0    0  501    0  0.00000000000E+00  0.00000000000E+00  0.21043031189E+04  0.21043031189E+04  0.50400001928E-02 0. -1.
       -1   -1    0    0    0  501  0.00000000000E+00  0.00000000000E+00 -0.55646627293E+03  0.55646627295E+03  0.50400001928E-02 0.  1.
    10030    2    1    2    0    0  0.00000000000E+00  0.00000000000E+00  0.15478368460E+04  0.26607693919E+04  0.21642307767E+04 0.  0.
        4    1    3    3  502    0  0.19691886724E+03  0.90082610155E+03  0.14701571150E+04  0.17354043509E+04  0.12699999809E+01 0. -1.
       -4    1    3    3    0  502 -0.19691886724E+03 -0.90082610155E+03  0.77679730982E+02  0.92536504095E+03  0.12699999809E+01 0.  1.
</event>
<event>
 5   0  0.2929471E-05  0.2193732E+04  0.7818609E-02  0.8521041E-01
        1   -1    0    0  501    0  0.00000000000E+00  0.00000000000E+00  0.21751868581E+04  0.21751868581E+04  0.50400001928E-02 0. -1.
       -1   -1    0    0    0  501  0.00000000000E+00  0.00000000000E+00 -0.55310900660E+03  0.55310900662E+03  0.50400001928E-02 0.  1.
    10030    2    1    2    0    0  0.00000000000E+00  0.00000000000E+00  0.16220778515E+04  0.27282958647E+04  0.21937323832E+04 0.  0.
        2    1    3    3  502    0 -0.38476452150E+03  0.68138545051E+03 -0.14488373999E+03  0.79581478202E+03  0.25500000920E-02 0.  1.
       -2    1    3    3    0  502  0.38476452150E+03 -0.68138545051E+03  0.17669615914E+04  0.19324810827E+04  0.25500000920E-02 0. -1.
</event>
<event>
 5   0  0.6293013E-05  0.2131634E+04  0.7818609E-02  0.8547435E-01
        2   -1    0    0  501    0  0.00000000000E+00  0.00000000000E+00  0.97320371676E+03  0.97320371676E+03  0.25500000920E-02 0. -1.
       -2   -1    0    0    0  501  0.00000000000E+00  0.00000000000E+00 -0.11672434235E+04  0.11672434235E+04  0.25500000920E-02 0.  1.
    10030    2    1    2    0    0  0.00000000000E+00  0.00000000000E+00 -0.19403970674E+03  0.21404471403E+04  0.21316337754E+04 0.  0.
        1    1    3    3  502    0  0.98812641665E+03 -0.26001222684E+02 -0.49728526926E+03  0.11065091585E+04  0.50400001928E-02 0.  1.
       -1    1    3    3    0  502 -0.98812641665E+03  0.26001222684E+02  0.30324556252E+03  0.10339379817E+04  0.50400001928E-02 0. -1.
</event>
<event>
 5   0  0.2908031E-05  0.2218129E+04  0.7818609E-02  0.8510920E-01
        1   -1    0    0  501    0  0.00000000000E+00  0.00000000000E+00  0.10881549033E+04  0.10881549033E+04  0.50400001928E-02 0. -1.
       -1   -1    0    0    0  501  0.00000000000E+00  0.00000000000E+00 -0.11303757746E+04  0.11303757747E+04  0.50400001928E-02 0.  1.
    10030    2    1    2    0    0  0.00000000000E+00  0.00000000000E+00 -0.42220871378E+02  0.22185306779E+04  0.22181288887E+04 0.  0.
        1    1    3    3  502    0  0.81992818000E+03 -0.69765086339E+03  0.24544298721E+03  0.11041925591E+04  0.50400001928E-02 0.  1.
       -1    1    3    3    0  502 -0.81992818000E+03  0.69765086339E+03 -0.28766385859E+03  0.11143381188E+04  0.50400001928E-02 0. -1.
</event>
<event>
 5   0  0.6293013E-05  0.2143850E+04  0.7818609E-02  0.8542169E-01
        2   -1    0    0  501    0  0.00000000000E+00  0.00000000000E+00  0.16651697337E+04  0.16651697337E+04  0.25500000920E-02 0. -1.
       -2   -1    0    0    0  501  0.00000000000E+00  0.00000000000E+00 -0.69003362726E+03  0.69003362727E+03  0.25500000920E-02 0.  1.
    10030    2    1    2    0    0  0.00000000000E+00  0.00000000000E+00  0.97513610646E+03  0.23552033610E+04  0.21438499121E+04 0.  0.
        1    1    3    3  502    0 -0.22240062860E+03  0.10090170191E+04  0.80109017265E+03  0.13074107424E+04  0.50400001928E-02 0.  1.
       -1    1    3    3    0  502  0.22240062860E+03 -0.10090170191E+04  0.17404593381E+03  0.10477926186E+04  0.50400001928E-02 0. -1.
</event>
<event>
 5   0  0.6414768E-05  0.2184079E+04  0.7818609E-02  0.8525084E-01
       -2   -1    0    0    0  501  0.00000000000E+00  0.00000000000E+00  0.62302491729E+03  0.62302491729E+03  0.25500000920E-02 0. -1.
        2   -1    0    0  501    0  0.00000000000E+00  0.00000000000E+00 -0.19141286818E+04  0.19141286818E+04  0.25500000920E-02 0.  1.
    10030    2    1    2    0    0  0.00000000000E+00  0.00000000000E+00 -0.12911037645E+04  0.25371535991E+04  0.21840786283E+04 0.  0.
        2    1    3    3  502    0 -0.15985392600E+03  0.49827994310E+02 -0.18991282685E+04  0.19064952889E+04  0.25500000920E-02 0.  1.
       -2    1    3    3    0  502  0.15985392600E+03 -0.49827994310E+02  0.60802450398E+03  0.63065831012E+03  0.25500000920E-02 0. -1.
</event>
<event>
 5   0  0.6628798E-05  0.2186840E+04  0.7818609E-02  0.8523926E-01
        2   -1    0    0  501    0  0.00000000000E+00  0.00000000000E+00  0.98043614995E+03  0.98043614996E+03  0.25500000920E-02 0. -1.
       -2   -1    0    0    0  501  0.00000000000E+00  0.00000000000E+00 -0.12194236552E+04  0.12194236552E+04  0.25500000920E-02 0.  1.
    10030    2    1    2    0    0  0.00000000000E+00  0.00000000000E+00 -0.23898750521E+03  0.21998598051E+04  0.21868397597E+04 0.  0.
        4    1    3    3  502    0 -0.44220587950E+03 -0.98975039516E+03  0.24232851517E+02  0.10843157882E+04  0.12699999809E+01 0. -1.
       -4    1    3    3    0  502  0.44220587950E+03  0.98975039516E+03 -0.26322035673E+03  0.11155440169E+04  0.12699999809E+01 0.  1.
</event>
<event>
 5   0  0.2753631E-05  0.2168538E+04  0.7818609E-02  0.8531639E-01
        1   -1    0    0  501    0  0.00000000000E+00  0.00000000000E+00  0.48380955623E+03  0.48380955626E+03  0.50400001928E-02 0.  1.
       -1   -1    0    0    0  501  0.00000000000E+00  0.00000000000E+00 -0.24299617806E+04  0.24299617806E+04  0.50400001928E-02 0. -1.
    10030    2    1    2    0    0  0.00000000000E+00  0.00000000000E+00 -0.19461522243E+04  0.29137713368E+04  0.21685375079E+04 0.  0.
        4    1    3    3  502    0  0.70368593079E+03  0.16650428189E+03  0.11249553836E+03  0.73181584031E+03  0.12699999809E+01 0.  1.
       -4    1    3    3    0  502 -0.70368593079E+03 -0.16650428189E+03 -0.20586477627E+04  0.21819554965E+04  0.12699999809E+01 0. -1.
</event>
<event>
 5   0  0.2908031E-05  0.2202153E+04  0.7818609E-02  0.8517533E-01
       -1   -1    0    0    0  501  0.00000000000E+00  0.00000000000E+00  0.85936000603E+03  0.85936000605E+03  0.50400001928E-02 0.  1.
        1   -1    0    0  501    0  0.00000000000E+00  0.00000000000E+00 -0.14107817737E+04  0.14107817737E+04  0.50400001928E-02 0. -1.
    10030    2    1    2    0    0  0.00000000000E+00  0.00000000000E+00 -0.55142176764E+03  0.22701417797E+04  0.22021529770E+04 0.  0.
        1    1    3    3  502    0  0.90683840148E+03 -0.62424613605E+03 -0.25697537283E+03  0.11305199985E+04  0.50400001928E-02 0.  1.
       -1    1    3    3    0  502 -0.90683840148E+03  0.62424613605E+03 -0.29444639480E+03  0.11396217812E+04  0.50400001928E-02 0. -1.
</event>
<event>
 5   0  0.6628798E-05  0.2197848E+04  0.7818609E-02  0.8519324E-01
        2   -1    0    0  501    0  0.00000000000E+00  0.00000000000E+00  0.13347920811E+04  0.13347920811E+04  0.25500000920E-02 0.  1.
       -2   -1    0    0    0  501  0.00000000000E+00  0.00000000000E+00 -0.90473573742E+03  0.90473573742E+03  0.25500000920E-02 0. -1.
    10030    2    1    2    0    0  0.00000000000E+00  0.00000000000E+00  0.43005634365E+03  0.22395278185E+04  0.21978481274E+04 0.  0.
        4    1    3    3  502    0  0.10172233328E+04 -0.39356027560E+03  0.78321777427E+02  0.10935121915E+04  0.12699999809E+01 0. -1.
       -4    1    3    3    0  502 -0.10172233328E+04  0.39356027560E+03  0.35173456622E+03  0.11460156270E+04  0.12699999809E+01 0.  1.
</event>
<event>
 5   0  0.6445740E-05  0.2215789E+04  0.7818609E-02  0.8511885E-01
       -2   -1    0    0    0  501  0.00000000000E+00  0.00000000000E+00  0.25516334749E+04  0.25516334749E+04  0.25500000920E-02 0. -1.
        2   -1    0    0  501    0  0.00000000000E+00  0.00000000000E+00 -0.48103718209E+03  0.48103718210E+03  0.25500000920E-02 0.  1.
    10030    2    1    2    0    0  0.00000000000E+00  0.00000000000E+00  0.20705962929E+04  0.30326706570E+04  0.22157893190E+04 0.  0.
        5    1    3    3  502    0 -0.62676396504E+03  0.38183744088E+03  0.21711865285E+04  0.22918782538E+04  0.46999998093E+01 0. -1.
       -5    1    3    3    0  502  0.62676396504E+03 -0.38183744088E+03 -0.10059023560E+03  0.74079240319E+03  0.46999998093E+01 0.  1.
</event>
<event>
 5   0  0.2929471E-05  0.2213085E+04  0.7818609E-02  0.8513002E-01
       -1   -1    0    0    0  501  0.00000000000E+00  0.00000000000E+00  0.75956507154E+03  0.75956507156E+03  0.50400001928E-02 0.  1.
        1   -1    0    0  501    0  0.00000000000E+00  0.00000000000E+00 -0.16120225479E+04  0.16120225479E+04  0.50400001928E-02 0. -1.
    10030    2    1    2    0    0  0.00000000000E+00  0.00000000000E+00 -0.85245747636E+03  0.23715876195E+04  0.22130847448E+04 0.  0.
        2    1    3    3  502    0  0.39514708299E+02  0.10035167768E+04  0.71618057014E+02  0.10068448141E+04  0.25500000920E-02 0.  1.
       -2    1    3    3    0  502 -0.39514708299E+02 -0.10035167768E+04 -0.92407553338E+03  0.13647428054E+04  0.25500000920E-02 0. -1.
</event>
<event>
 5   0  0.2820239E-05  0.2222649E+04  0.7818609E-02  0.8509060E-01
        1   -1    0    0  501    0  0.00000000000E+00  0.00000000000E+00  0.86519004567E+03  0.86519004568E+03  0.50400001928E-02 0.  1.
       -1   -1    0    0    0  501  0.00000000000E+00  0.00000000000E+00 -0.14274805056E+04  0.14274805056E+04  0.50400001928E-02 0. -1.
    10030    2    1    2    0    0  0.00000000000E+00  0.00000000000E+00 -0.56229045991E+03  0.22926705513E+04  0.22226488016E+04 0.  0.
        3    1    3    3  502    0 -0.56248352419E+03 -0.21379123960E+03  0.68260583466E+03  0.90996985930E+03  0.10100000352E+00 0.  1.
       -3    1    3    3    0  502  0.56248352419E+03  0.21379123960E+03 -0.12448962946E+04  0.13827006920E+04  0.10100000352E+00 0. -1.
</event>
<event>
 5   0  0.6414768E-05  0.2194535E+04  0.7818609E-02  0.8520706E-01
       -2   -1    0    0    0  501  0.00000000000E+00  0.00000000000E+00  0.55642056664E+03  0.55642056664E+03  0.25500000920E-02 0. -1.
        2   -1    0    0  501    0  0.00000000000E+00  0.00000000000E+00 -0.21638240497E+04  0.21638240497E+04  0.25500000920E-02 0.  1.
    10030    2    1    2    0    0  0.00000000000E+00  0.00000000000E+00 -0.16074034831E+04  0.27202446164E+04  0.21945352163E+04 0.  0.
        2    1    3    3  502    0 -0.87452838668E+03  0.54311076058E+01  0.17746415065E+02  0.87472528905E+03  0.25500000920E-02 0. -1.
       -2    1    3    3    0  502  0.87452838668E+03 -0.54311076058E+01 -0.16251498982E+04  0.18455193273E+04  0.25500000920E-02 0.  1.
</event>
<event>
 5   0  0.6628798E-05  0.2064546E+04  0.7818609E-02  0.8577024E-01
        2   -1    0    0  501    0  0.00000000000E+00  0.00000000000E+00  0.17238035514E+04  0.17238035514E+04  0.25500000920E-02 0.  1.
       -2   -1    0    0    0  501  0.00000000000E+00  0.00000000000E+00 -0.61816063773E+03  0.61816063773E+03  0.25500000920E-02 0. -1.
    10030    2    1    2    0    0  0.00000000000E+00  0.00000000000E+00  0.11056429137E+04  0.23419641891E+04  0.20645459575E+04 0.  0.
        4    1    3    3  502    0  0.72962837247E+03 -0.72852023359E+03  0.49625507437E+03  0.11442770663E+04  0.12699999809E+01 0.  1.
       -4    1    3    3    0  502 -0.72962837247E+03  0.72852023359E+03  0.60938783931E+03  0.11976871229E+04  0.12699999809E+01 0. -1.
</event>
<event>
 5   0  0.2908031E-05  0.2334850E+04  0.7818609E-02  0.8464306E-01
        1   -1    0    0  501    0  0.00000000000E+00  0.00000000000E+00  0.15692204439E+04  0.15692204439E+04  0.50400001928E-02 0. -1.
       -1   -1    0    0    0  501  0.00000000000E+00  0.00000000000E+00 -0.86850861663E+03  0.86850861664E+03  0.50400001928E-02 0.  1.
    10030    2    1    2    0    0  0.00000000000E+00  0.00000000000E+00  0.70071182723E+03  0.24377290605E+04  0.23348502966E+04 0.  0.
        1    1    3    3  502    0  0.10428272562E+04  0.45500574744E+03  0.62333888362E+03  0.12973319854E+04  0.50400001928E-02 0. -1.
       -1    1    3    3    0  502 -0.10428272562E+04 -0.45500574744E+03  0.77372943611E+02  0.11403970751E+04  0.50400001928E-02 0.  1.
</event>
<event>
 5   0  0.2908031E-05  0.2196378E+04  0.7818609E-02  0.8519937E-01
        1   -1    0    0  501    0  0.00000000000E+00  0.00000000000E+00  0.13030282094E+04  0.13030282095E+04  0.50400001928E-02 0. -1.
       -1   -1    0    0    0  501  0.00000000000E+00  0.00000000000E+00 -0.92555140415E+03  0.92555140416E+03  0.50400001928E-02 0.  1.
    10030    2    1    2    0    0  0.00000000000E+00  0.00000000000E+00  0.37747680530E+03  0.22285796136E+04  0.21963784637E+04 0.  0.
        1    1    3    3  502    0 -0.88117180696E+03  0.50920403663E+03  0.60742236607E+03  0.11852064947E+04  0.50400001928E-02 0. -1.
       -1    1    3    3    0  502  0.88117180696E+03 -0.50920403663E+03 -0.22994556077E+03  0.10433731189E+04  0.50400001928E-02 0.  1.
</event>
<event>
 5   0  0.6306919E-05  0.2179600E+04  0.7818609E-02  0.8526967E-01
       -2   -1    0    0    0  501  0.00000000000E+00  0.00000000000E+00  0.64019004457E+03  0.64019004458E+03  0.25500000920E-02 0. -1.
        2   -1    0    0  501    0  0.00000000000E+00  0.00000000000E+00 -0.18551741530E+04  0.18551741530E+04  0.25500000920E-02 0.  1.
    10030    2    1    2    0    0  0.00000000000E+00  0.00000000000E+00 -0.12149841085E+04  0.24953641976E+04  0.21795999851E+04 0.  0.
        3    1    3    3  502    0 -0.47286476816E+03  0.62621293238E+03  0.25832252558E+03  0.82612000525E+03  0.10100000352E+00 0. -1.
       -3    1    3    3    0  502  0.47286476816E+03 -0.62621293238E+03 -0.14733066340E+04  0.16692441924E+04  0.10100000352E+00 0.  1.
</event>
<event>
 5   0  0.2753631E-05  0.2193438E+04  0.7818609E-02  0.8521164E-01
        1   -1    0    0  501    0  0.00000000000E+00  0.00000000000E+00  0.11196079812E+04  0.11196079812E+04  0.50400001928E-02 0.  1.
       -1   -1    0    0    0  501  0.00000000000E+00  0.00000000000E+00 -0.10742977634E+04  0.10742977634E+04  0.50400001928E-02 0. -1.
    10030    2    1    2    0    0  0.00000000000E+00  0.00000000000E+00  0.45310217745E+02  0.21939057446E+04  0.21934378041E+04 0.  0.
        4    1    3    3  502    0  0.41434655176E+03 -0.86343705704E+03  0.55716982787E+03  0.11079920787E+04  0.12699999809E+01 0.  1.
       -4    1    3    3    0  502 -0.41434655176E+03  0.86343705704E+03 -0.51185961013E+03  0.10859136659E+04  0.12699999809E+01 0. -1.
</event>
<event>
 5   0  0.2908031E-05  0.2222139E+04  0.7818609E-02  0.8509269E-01
        1   -1    0    0  501    0  0.00000000000E+00  0.00000000000E+00  0.19627702111E+04  0.19627702111E+04  0.50400001928E-02 0.  1.
       -1   -1    0    0    0  501  0.00000000000E+00  0.00000000000E+00 -0.62894564651E+03  0.62894564653E+03  0.50400001928E-02 0. -1.
    10030    2    1    2    0    0  0.00000000000E+00  0.00000000000E+00  0.13338245646E+04  0.25917158577E+04  0.22221393111E+04 0.  0.
        1    1    3    3  502    0  0.38581732729E+03 -0.10190783304E+04  0.92003267587E+03  0.14261261439E+04  0.50400001928E-02 0.  1.
       -1    1    3    3    0  502 -0.38581732729E+03  0.10190783304E+04  0.41379188875E+03  0.11655897138E+04  0.50400001928E-02 0. -1.
</event>
<event>
 5   0  0.2908031E-05  0.1911294E+04  0.7818609E-02  0.8649255E-01
        1   -1    0    0  501    0  0.00000000000E+00  0.00000000000E+00  0.13401074095E+04  0.13401074095E+04  0.50400001928E-02 0. -1.
       -1   -1    0    0    0  501  0.00000000000E+00  0.00000000000E+00 -0.68148383116E+03  0.68148383118E+03  0.50400001928E-02 0.  1.
    10030    2    1    2    0    0  0.00000000000E+00  0.00000000000E+00  0.65862357834E+03  0.20215912407E+04  0.19112943589E+04 0.  0.
        1    1    3    3  502    0 -0.40317468999E+03  0.22060309443E+03 -0.55692249389E+03  0.72206524646E+03  0.50400001928E-02 0.  1.
       -1    1    3    3    0  502  0.40317468999E+03 -0.22060309443E+03  0.12155460722E+04  0.12995259942E+04  0.50400001928E-02 0. -1.
</event>
<event>
 5   0  0.2820239E-05  0.2167530E+04  0.7818609E-02  0.8532066E-01
       -1   -1    0    0    0  501  0.00000000000E+00  0.00000000000E+00  0.97854554728E+03  0.97854554729E+03  0.50400001928E-02 0. -1.
        1   -1    0    0  501    0  0.00000000000E+00  0.00000000000E+00 -0.12002981681E+04  0.12002981681E+04  0.50400001928E-02 0.  1.
    10030    2    1    2    0    0  0.00000000000E+00  0.00000000000E+00 -0.22175262081E+03  0.21788437154E+04  0.21675298640E+04 0.  0.
        3    1    3    3  502    0 -0.39995185562E+03 -0.99744015234E+03  0.30206098034E+02  0.10750631437E+04  0.10100000352E+00 0. -1.
       -3    1    3    3    0  502  0.39995185562E+03  0.99744015234E+03 -0.25195871885E+03  0.11037805717E+04  0.10100000352E+00 0.  1.
</event>
<event>
 5   0  0.6445740E-05  0.2169208E+04  0.7818609E-02  0.8531355E-01
       -2   -1    0    0    0  501  0.00000000000E+00  0.00000000000E+00  0.61584031795E+03  0.61584031796E+03  0.25500000920E-02 0.  1.
        2   -1    0    0  501    0  0.00000000000E+00  0.00000000000E+00 -0.19101801835E+04  0.19101801835E+04  0.25500000920E-02 0. -1.
    10030    2    1    2    0    0  0.00000000000E+00  0.00000000000E+00 -0.12943398656E+04  0.25260205015E+04  0.21692081242E+04 0.  0.
        5    1    3    3  502    0 -0.59302423468E+02 -0.49658424382E+03  0.47354549398E+03  0.68875257786E+03  0.46999998093E+01 0.  1.
       -5    1    3    3    0  502  0.59302423468E+02  0.49658424382E+03 -0.17678853595E+04  0.18372679236E+04  0.46999998093E+01 0. -1.
</event>
<event>
 5   0  0.2753631E-05  0.2173138E+04  0.7818609E-02  0.8529693E-01
       -1   -1    0    0    0  501  0.00000000000E+00  0.00000000000E+00  0.87366867330E+03  0.87366867331E+03  0.50400001928E-02 0. -1.
        1   -1    0    0  501    0  0.00000000000E+00  0.00000000000E+00 -0.13513501286E+04  0.13513501286E+04  0.50400001928E-02 0.  1.
    10030    2    1    2    0    0  0.00000000000E+00  0.00000000000E+00 -0.47768145525E+03  0.22250188019E+04  0.21731380757E+04 0.  0.
        4    1    3    3  502    0 -0.56700023662E+03 -0.92300035902E+03 -0.32579002852E+03  0.11311762403E+04  0.12699999809E+01 0.  1.
       -4    1    3    3    0  502  0.56700023662E+03  0.92300035902E+03 -0.15189142673E+03  0.10938425616E+04  0.12699999809E+01 0. -1.
</event>
<event>
 5   0  0.2908031E-05  0.2204321E+04  0.7818609E-02  0.8516632E-01
       -1   -1    0    0    0  501  0.00000000000E+00  0.00000000000E+00  0.79737216123E+03  0.79737216124E+03  0.50400001928E-02 0.  1.
        1   -1    0    0  501    0  0.00000000000E+00  0.00000000000E+00 -0.15234508068E+04  0.15234508068E+04  0.50400001928E-02 0. -1.
    10030    2    1    2    0    0  0.00000000000E+00  0.00000000000E+00 -0.72607864561E+03  0.23208229681E+04  0.22043205415E+04 0.  0.
        1    1    3    3  502    0 -0.84187251190E+03 -0.63896706760E+03 -0.33900551353E+02  0.10574391175E+04  0.50400001928E-02 0.  1.
       -1    1    3    3    0  502  0.84187251190E+03  0.63896706760E+03 -0.69217809426E+03  0.12633838506E+04  0.50400001928E-02 0. -1.
</event>
<event>
 5   0  0.2908031E-05  0.2180525E+04  0.7818609E-02  0.8526578E-01
        1   -1    0    0  501    0  0.00000000000E+00  0.00000000000E+00  0.33165152130E+04  0.33165152131E+04  0.50400001928E-02 0. -1.
       -1   -1    0    0    0  501  0.00000000000E+00  0.00000000000E+00 -0.35840987440E+03  0.35840987444E+03  0.50400001928E-02 0.  1.
    10030    2    1    2    0    0  0.00000000000E+00  0.00000000000E+00  0.29581053386E+04  0.36749250875E+04  0.21805245250E+04 0.  0.
        1    1    3    3  502    0 -0.12464923794E+03 -0.22890795918E+03  0.32632343753E+04  0.32736271740E+04  0.50400001928E-02 0. -1.
       -1    1    3    3    0  502  0.12464923794E+03  0.22890795918E+03 -0.30512903668E+03  0.40129791345E+03  0.50400001928E-02 0.  1.
</event>
<event>
 5   0  0.6445740E-05  0.2207460E+04  0.7818609E-02  0.8515329E-01
       -2   -1    0    0    0  501  0.00000000000E+00  0.00000000000E+00  0.86166198189E+03  0.86166198189E+03  0.25500000920E-02 0.  1.
        2   -1    0    0  501    0  0.00000000000E+00  0.00000000000E+00 -0.14138031322E+04  0.14138031322E+04  0.25500000920E-02 0. -1.
    10030    2    1    2    0    0  0.00000000000E+00  0.00000000000E+00 -0.55214115028E+03  0.22754651141E+04  0.22074604494E+04 0.  0.
        5    1    3    3  502    0 -0.27212756925E+03 -0.77451162013E+03 -0.10365493618E+04  0.13222625810E+04  0.46999998093E+01 0. -1.
       -5    1    3    3    0  502  0.27212756925E+03  0.77451162013E+03  0.48440821152E+03  0.95320253307E+03  0.46999998093E+01 0.  1.
</event>
<event>
 5   0  0.6628798E-05  0.2364834E+04  0.7818609E-02  0.8452788E-01
        2   -1    0    0  501    0  0.00000000000E+00  0.00000000000E+00  0.13199273588E+04  0.13199273588E+04  0.25500000920E-02 0.  1.
       -2   -1    0    0    0  501  0.00000000000E+00  0.00000000000E+00 -0.10592324914E+04  0.10592324914E+04  0.25500000920E-02 0. -1.
    10030    2    1    2    0    0  0.00000000000E+00  0.00000000000E+00  0.26069486738E+03  0.23791598503E+04  0.23648339856E+04 0.  0.
        4    1    3    3  502    0  0.11488763021E+04 -0.91020790258E+02  0.39634805106E+03  0.12187267669E+04  0.12699999809E+01 0.  1.
       -4    1    3    3    0  502 -0.11488763021E+04  0.91020790258E+02 -0.13565318368E+03  0.11604330834E+04  0.12699999809E+01 0. -1.
</event>
<event>
 5   0  0.2910318E-05  0.2216025E+04  0.7818609E-02  0.8511788E-01
        1   -1    0    0  501    0  0.00000000000E+00  0.00000000000E+00  0.13852037067E+04  0.13852037068E+04  0.50400001928E-02 0.  1.
       -1   -1    0    0    0  501  0.00000000000E+00  0.00000000000E+00 -0.88628972737E+03  0.88628972739E+03  0.50400001928E-02 0. -1.
    10030    2    1    2    0    0  0.00000000000E+00  0.00000000000E+00  0.49891397938E+03  0.22714934341E+04  0.22160251042E+04 0.  0.
        5    1    3    3  502    0  0.16069142673E+03  0.10962572110E+04  0.25791696466E+03  0.11376048777E+04  0.46999998093E+01 0. -1.
       -5    1    3    3    0  502 -0.16069142673E+03 -0.10962572110E+04  0.24099701471E+03  0.11338885564E+04  0.46999998093E+01 0.  1.
</event>
<event>
 5   0  0.6628798E-05  0.2118919E+04  0.7818609E-02  0.8552955E-01
       -2   -1    0    0    0  501  0.00000000000E+00  0.00000000000E+00  0.87341241625E+03  0.87341241626E+03  0.25500000920E-02 0. -1.
        2   -1    0    0  501    0  0.00000000000E+00  0.00000000000E+00 -0.12851365653E+04  0.12851365653E+04  0.25500000920E-02 0.  1.
    10030    2    1    2    0    0  0.00000000000E+00  0.00000000000E+00 -0.41172414909E+03  0.21585489816E+04  0.21189188118E+04 0.  0.
        4    1    3    3  502    0 -0.26800344462E+03  0.39222219776E+03  0.75883866563E+03  0.89526634701E+03  0.12699999809E+01 0. -1.
       -4    1    3    3    0  502  0.26800344462E+03 -0.39222219776E+03 -0.11705628147E+04  0.12632826346E+04  0.12699999809E+01 0.  1.
</event>
<event>
 5   0  0.2820239E-05  0.2185103E+04  0.7818609E-02  0.8524654E-01
        1   -1    0    0  501    0  0.00000000000E+00  0.00000000000E+00  0.13405973246E+04  0.13405973246E+04  0.50400001928E-02 0. -1.
       -1   -1    0    0    0  501  0.00000000000E+00  0.00000000000E+00 -0.89040107193E+03  0.89040107194E+03  0.50400001928E-02 0.  1.
    10030    2    1    2    0    0  0.00000000000E+00  0.00000000000E+00  0.45019625263E+03  0.22309983965E+04  0.21851034711E+04 0.  0.
        3    1    3    3  502    0  0.15330360552E+03  0.33486826575E+03  0.12753086161E+04  0.13274226258E+04  0.10100000352E+00 0. -1.
       -3    1    3    3    0  502 -0.15330360552E+03 -0.33486826575E+03 -0.82511236349E+03  0.90357577073E+03  0.10100000352E+00 0.  1.
</event>
<event>
 5   0  0.6414768E-05  0.2157456E+04  0.7818609E-02  0.8536348E-01
       -2   -1    0    0    0  501  0.00000000000E+00  0.00000000000E+00  0.12351354744E+04  0.12351354744E+04  0.25500000920E-02 0. -1.
        2   -1    0    0  501    0  0.00000000000E+00  0.00000000000E+00 -0.94212644964E+03  0.94212644964E+03  0.25500000920E-02 0.  1.
    10030    2    1    2    0    0  0.00000000000E+00  0.00000000000E+00  0.29300902475E+03  0.21772619240E+04  0.21574557231E+04 0.  0.
        2    1    3    3  502    0 -0.10230291331E+04  0.21454104990E+03 -0.12247060222E+03  0.10524331417E+04  0.25500000920E-02 0.  1.
       -2    1    3    3    0  502  0.10230291331E+04 -0.21454104990E+03  0.41547962698E+03  0.11248287824E+04  0.25500000920E-02 0. -1.
</event>
<event>
 5   0  0.6293013E-05  0.2205197E+04  0.7818609E-02  0.8516268E-01
       -2   -1    0    0    0  501  0.00000000000E+00  0.00000000000E+00  0.61568096479E+03  0.61568096479E+03  0.25500000920E-02 0. -1.
        2   -1    0    0  501    0  0.00000000000E+00  0.00000000000E+00 -0.19745993462E+04  0.19745993462E+04  0.25500000920E-02 0.  1.
    10030    2    1    2    0    0  0.00000000000E+00  0.00000000000E+00 -0.13589183814E+04  0.25902803110E+04  0.22051967990E+04 0.  0.
        1    1    3    3  502    0 -0.18350761519E+03  0.38486651936E+03  0.51492522592E+03  0.66853965542E+03  0.50400001928E-02 0. -1.
       -1    1    3    3    0  502  0.18350761519E+03 -0.38486651936E+03 -0.18738436073E+04  0.19217406556E+04  0.50400001928E-02 0.  1.
</event>
<event>
 5   0  0.2753631E-05  0.2132701E+04  0.7818609E-02  0.8546974E-01
        1   -1    0    0  501    0  0.00000000000E+00  0.00000000000E+00  0.17472451520E+04  0.17472451520E+04  0.50400001928E-02 0.  1.
       -1   -1    0    0    0  501  0.00000000000E+00  0.00000000000E+00 -0.65079760167E+03  0.65079760169E+03  0.50400001928E-02 0. -1.
    10030    2    1    2    0    0  0.00000000000E+00  0.00000000000E+00  0.10964475503E+04  0.23980427537E+04  0.21327005927E+04 0.  0.
        4    1    3    3  502    0  0.68301896342E+03  0.72155501660E+02 -0.36897171402E+03  0.77965573137E+03  0.12699999809E+01 0. -1.
       -4    1    3    3    0  502 -0.68301896342E+03 -0.72155501660E+02  0.14654192644E+04  0.16183870223E+04  0.12699999809E+01 0.  1.
</event>
<event>
 5   0  0.6293013E-05  0.2239500E+04  0.7818609E-02  0.8502165E-01
        2   -1    0    0  501    0  0.00000000000E+00  0.00000000000E+00  0.13127848325E+04  0.13127848325E+04  0.25500000920E-02 0.  1.
       -2   -1    0    0    0  501  0.00000000000E+00  0.00000000000E+00 -0.95509961859E+03  0.95509961860E+03  0.25500000920E-02 0. -1.
    10030    2    1    2    0    0  0.00000000000E+00  0.00000000000E+00  0.35768521388E+03  0.22678844511E+04  0.22395002057E+04 0.  0.
        1    1    3    3  502    0  0.29819362971E+03 -0.18503695048E+03 -0.89796989804E+03  0.96410997902E+03  0.50400001928E-02 0. -1.
       -1    1    3    3    0  502 -0.29819362971E+03  0.18503695048E+03  0.12556551119E+04  0.13037744720E+04  0.50400001928E-02 0.  1.
</event>
<event>
 5   0  0.2929471E-05  0.2203823E+04  0.7818609E-02  0.8516838E-01
        1   -1    0    0  501    0  0.00000000000E+00  0.00000000000E+00  0.13372611102E+04  0.13372611102E+04  0.50400001928E-02 0. -1.
       -1   -1    0    0    0  501  0.00000000000E+00  0.00000000000E+00 -0.90798227390E+03  0.90798227391E+03  0.50400001928E-02 0.  1.
    10030    2    1    2    0    0  0.00000000000E+00  0.00000000000E+00  0.42927883631E+03  0.22452433841E+04  0.22038233901E+04 0.  0.
        2    1    3    3  502    0 -0.90840408785E+03  0.48222731966E+03 -0.18835561450E+03  0.10455711416E+04  0.25500000920E-02 0.  1.
       -2    1    3    3    0  502  0.90840408785E+03 -0.48222731966E+03  0.61763445081E+03  0.11996722425E+04  0.25500000920E-02 0. -1.
</event>
<event>
 5   0  0.6628798E-05  0.2210807E+04  0.7818609E-02  0.8513944E-01
        2   -1    0    0  501    0  0.00000000000E+00  0.00000000000E+00  0.13840764336E+04  0.13840764336E+04  0.25500000920E-02 0.  1.
       -2   -1    0    0    0  501  0.00000000000E+00  0.00000000000E+00 -0.88283878232E+03  0.88283878232E+03  0.25500000920E-02 0. -1.
    10030    2    1    2    0    0  0.00000000000E+00  0.00000000000E+00  0.50123765124E+03  0.22669152159E+04  0.22108065074E+04 0.  0.
        4    1    3    3  502    0  0.25102195988E+03  0.10349808746E+04 -0.53068861322E+02  0.10663092198E+04  0.12699999809E+01 0.  1.
       -4    1    3    3    0  502 -0.25102195988E+03 -0.10349808746E+04  0.55430651256E+03  0.12006059961E+04  0.12699999809E+01 0. -1.
</event>
<event>
 5   0  0.6306919E-05  0.2203572E+04  0.7818609E-02  0.8516943E-01
       -2   -1    0    0    0  501  0.00000000000E+00  0.00000000000E+00  0.10356110501E+04  0.10356110501E+04  0.25500000920E-02 0.  1.
        2   -1    0    0  501    0  0.00000000000E+00  0.00000000000E+00 -0.11721891243E+04  0.11721891243E+04  0.25500000920E-02 0. -1.
    10030    2    1    2    0    0  0.00000000000E+00  0.00000000000E+00 -0.13657807418E+03  0.22078001745E+04  0.22035716553E+04 0.  0.
        3    1    3    3  502    0 -0.65310467241E+03  0.29336069471E+03  0.77076994447E+03  0.10519945474E+04  0.10100000352E+00 0.  1.
       -3    1    3    3    0  502  0.65310467241E+03 -0.29336069471E+03 -0.90734801865E+03  0.11558056270E+04  0.10100000352E+00 0. -1.
</event>
<event>
 5   0  0.2929471E-05  0.2271264E+04  0.7818609E-02  0.8489338E-01
       -1   -1    0    0    0  501  0.00000000000E+00  0.00000000000E+00  0.12746462481E+04  0.12746462481E+04  0.50400001928E-02 0. -1.
        1   -1    0    0  501    0  0.00000000000E+00  0.00000000000E+00 -0.10117789933E+04  0.10117789933E+04  0.50400001928E-02 0.  1.
    10030    2    1    2    0    0  0.00000000000E+00  0.00000000000E+00  0.26286725482E+03  0.22864252414E+04  0.22712642274E+04 0.  0.
        2    1    3    3  502    0  0.39051557328E+03  0.96395422820E+03 -0.32762583519E+03  0.10904351677E+04  0.25500000920E-02 0.  1.
       -2    1    3    3    0  502 -0.39051557328E+03 -0.96395422820E+03  0.59049309001E+03  0.11959900737E+04  0.25500000920E-02 0. -1.
</event>
<event>
 5   0  0.2753631E-05  0.1938831E+04  0.7818609E-02  0.8635765E-01
        1   -1    0    0  501    0  0.00000000000E+00  0.00000000000E+00  0.40127819725E+03  0.40127819728E+03  0.50400001928E-02 0. -1.
       -1   -1    0    0    0  501  0.00000000000E+00  0.00000000000E+00 -0.23419327782E+04  0.23419327782E+04  0.50400001928E-02 0.  1.
    10030    2    1    2    0    0  0.00000000000E+00  0.00000000000E+00 -0.19406545809E+04  0.27432109755E+04  0.19388311565E+04 0.  0.
        4    1    3    3  502    0  0.13541918864E+03 -0.82668520304E+03 -0.28004890525E+03  0.88327559901E+03  0.12699999809E+01 0. -1.
       -4    1    3    3    0  502 -0.13541918864E+03  0.82668520304E+03 -0.16606056757E+04  0.18599353765E+04  0.12699999809E+01 0.  1.
</event>
<event>
 5   0  0.2820239E-05  0.2199017E+04  0.7818609E-02  0.8518837E-01
       -1   -1    0    0    0  501  0.00000000000E+00  0.00000000000E+00  0.81647517821E+03  0.81647517822E+03  0.50400001928E-02 0.  1.
        1   -1    0    0  501    0  0.00000000000E+00  0.00000000000E+00 -0.14806559571E+04  0.14806559571E+04  0.50400001928E-02 0. -1.
    10030    2    1    2    0    0  0.00000000000E+00  0.00000000000E+00 -0.66418077892E+03  0.22971311354E+04  0.21990169044E+04 0.  0.
        3    1    3    3  502    0 -0.34623882051E+03 -0.85512467911E+03 -0.95694209097E+03  0.13292320013E+04  0.10100000352E+00 0. -1.
       -3    1    3    3    0  502  0.34623882051E+03  0.85512467911E+03  0.29276131205E+03  0.96789913405E+03  0.10100000352E+00 0.  1.
</event>
<event>
 5   0  0.2820239E-05  0.2191354E+04  0.7818609E-02  0.8522036E-01
        1   -1    0    0  501    0  0.00000000000E+00  0.00000000000E+00  0.61106302176E+03  0.61106302178E+03  0.50400001928E-02 0. -1.
       -1   -1    0    0    0  501  0.00000000000E+00  0.00000000000E+00 -0.19646215472E+04  0.19646215472E+04  0.50400001928E-02 0.  1.
    10030    2    1    2    0    0  0.00000000000E+00  0.00000000000E+00 -0.13535585254E+04  0.25756845690E+04  0.21913535354E+04 0.  0.
        3    1    3    3  502    0  0.34150512580E+03  0.73041156606E+03  0.19521143107E+03  0.82959889091E+03  0.10100000352E+00 0. -1.
       -3    1    3    3    0  502 -0.34150512580E+03 -0.73041156606E+03 -0.15487699565E+04  0.17460856780E+04  0.10100000352E+00 0.  1.
</event>
<event>
 5   0  0.6306919E-05  0.2187669E+04  0.7818609E-02  0.8523578E-01
        2   -1    0    0  501    0  0.00000000000E+00  0.00000000000E+00  0.23963385110E+04  0.23963385110E+04  0.25500000920E-02 0.  1.
       -2   -1    0    0    0  501  0.00000000000E+00  0.00000000000E+00 -0.49929248922E+03  0.49929248923E+03  0.25500000920E-02 0. -1.
    10030    2    1    2    0    0  0.00000000000E+00  0.00000000000E+00  0.18970460218E+04  0.28956310002E+04  0.21876689148E+04 0.  0.
        3    1    3    3  502    0 -0.47672817547E+03 -0.18568056249E+03 -0.33116460062E+03  0.60943992935E+03  0.10100000352E+00 0. -1.
       -3    1    3    3    0  502  0.47672817547E+03  0.18568056249E+03  0.22282106224E+04  0.22861910709E+04  0.10100000352E+00 0.  1.
</event>
<event>
 5   0  0.6445740E-05  0.2190337E+04  0.7818609E-02  0.8522461E-01
        2   -1    0    0  501    0  0.00000000000E+00  0.00000000000E+00  0.93508125327E+03  0.93508125327E+03  0.25500000920E-02 0. -1.
       -2   -1    0    0    0  501  0.00000000000E+00  0.00000000000E+00 -0.12826633694E+04  0.12826633694E+04  0.25500000920E-02 0.  1.
    10030    2    1    2    0    0  0.00000000000E+00  0.00000000000E+00 -0.34758211610E+03  0.22177446226E+04  0.21903373904E+04 0.  0.
        5    1    3    3  502    0  0.85205294981E+03  0.62605362675E+03  0.11514789178E+03  0.10635875610E+04  0.46999998093E+01 0. -1.
       -5    1    3    3    0  502 -0.85205294981E+03 -0.62605362675E+03 -0.46273000788E+03  0.11541570617E+04  0.46999998093E+01 0.  1.
</event>
<event>
 5   0  0.6414768E-05  0.2435191E+04  0.7818609E-02  0.8426445E-01
        2   -1    0    0  501    0  0.00000000000E+00  0.00000000000E+00  0.26303889395E+04  0.26303889395E+04  0.25500000920E-02 0. -1.
       -2   -1    0    0    0  501  0.00000000000E+00  0.00000000000E+00 -0.56361964200E+03  0.56361964201E+03  0.25500000920E-02 0.  1.
    10030    2    1    2    0    0  0.00000000000E+00  0.00000000000E+00  0.20667692975E+04  0.31940085815E+04  0.24351910582E+04 0.  0.
        2    1    3    3  502    0 -0.11875539582E+03  0.11625659399E+04  0.58498365152E+03  0.13068543458E+04  0.25500000920E-02 0.  1.
       -2    1    3    3    0  502  0.11875539582E+03 -0.11625659399E+04  0.14817856460E+04  0.18871542357E+04  0.25500000920E-02 0. -1.
</event>
<event>
 5   0  0.2908031E-05  0.2200450E+04  0.7818609E-02  0.8518241E-01
       -1   -1    0    0    0  501  0.00000000000E+00  0.00000000000E+00  0.10536951976E+04  0.10536951976E+04  0.50400001928E-02 0.  1.
        1   -1    0    0  501    0  0.00000000000E+00  0.00000000000E+00 -0.11488090943E+04  0.11488090943E+04  0.50400001928E-02 0. -1.
    10030    2    1    2    0    0  0.00000000000E+00  0.00000000000E+00 -0.95113896696E+02  0.22025042919E+04  0.22004496137E+04 0.  0.
        1    1    3    3  502    0  0.24248978857E+03 -0.10589839675E+04 -0.22163393152E+03  0.11087695616E+04  0.50400001928E-02 0.  1.
       -1    1    3    3    0  502 -0.24248978857E+03  0.10589839675E+04  0.12652003482E+03  0.10937347303E+04  0.50400001928E-02 0. -1.
</event>
<event>
 5   0  0.6414768E-05  0.2249920E+04  0.7818609E-02  0.8497933E-01
       -2   -1    0    0    0  501  0.00000000000E+00  0.00000000000E+00  0.51463276758E+03  0.51463276758E+03  0.25500000920E-02 0.  1.
        2   -1    0    0  501    0  0.00000000000E+00  0.00000000000E+00 -0.24591034001E+04  0.24591034001E+04  0.25500000920E-02 0. -1.
    10030    2    1    2    0    0  0.00000000000E+00  0.00000000000E+00 -0.19444706325E+04  0.29737361676E+04  0.22499201662E+04 0.  0.
        2    1    3    3  502    0 -0.59421800013E+03  0.42935028778E+03 -0.21000309034E+04  0.22243125897E+04  0.25500000920E-02 0. -1.
       -2    1    3    3    0  502  0.59421800013E+03 -0.42935028778E+03  0.15556027094E+03  0.74942357796E+03  0.25500000920E-02 0.  1.
</event>
<event>
 5   0  0.2908031E-05  0.2185342E+04  0.7818609E-02  0.8524554E-01
        1   -1    0    0  501    0  0.00000000000E+00  0.00000000000E+00  0.12335008481E+04  0.12335008481E+04  0.50400001928E-02 0. -1.
       -1   -1    0    0    0  501  0.00000000000E+00  0.00000000000E+00 -0.96792002582E+03  0.96792002583E+03  0.50400001928E-02 0.  1.
    10030    2    1    2    0    0  0.00000000000E+00  0.00000000000E+00  0.26558082231E+03  0.22014208740E+04  0.21853422366E+04 0.  0.
        1    1    3    3  502    0 -0.95403715504E+03 -0.25238244482E+03  0.60533276023E+03  0.11577182482E+04  0.50400001928E-02 0.  1.
       -1    1    3    3    0  502  0.95403715504E+03  0.25238244482E+03 -0.33975193791E+03  0.10437026257E+04  0.50400001928E-02 0. -1.
</event>
<event>
 5   0  0.2910318E-05  0.2200546E+04  0.7818609E-02  0.8518201E-01
        1   -1    0    0  501    0  0.00000000000E+00  0.00000000000E+00  0.17875233216E+04  0.17875233216E+04  0.50400001928E-02 0.  1.
       -1   -1    0    0    0  501  0.00000000000E+00  0.00000000000E+00 -0.67725008399E+03  0.67725008401E+03  0.50400001928E-02 0. -1.
    10030    2    1    2    0    0  0.00000000000E+00  0.00000000000E+00  0.11102732376E+04  0.24647734056E+04  0.22005456775E+04 0.  0.
        5    1    3    3  502    0 -0.47861716030E+03 -0.97619022643E+03  0.74441411813E+03  0.13176479855E+04  0.46999998093E+01 0.  1.
       -5    1    3    3    0  502  0.47861716030E+03  0.97619022643E+03  0.36585911950E+03  0.11471254202E+04  0.46999998093E+01 0. -1.
</event>
<event>
 5   0  0.6628798E-05  0.2166920E+04  0.7818609E-02  0.8532324E-01
        2   -1    0    0  501    0  0.00000000000E+00  0.00000000000E+00  0.11975360806E+04  0.11975360806E+04  0.25500000920E-02 0. -1.
       -2   -1    0    0    0  501  0.00000000000E+00  0.00000000000E+00 -0.98025090972E+03  0.98025090972E+03  0.25500000920E-02 0.  1.
    10030    2    1    2    0    0  0.00000000000E+00  0.00000000000E+00  0.21728517091E+03  0.21777869903E+04  0.21669202408E+04 0.  0.
        4    1    3    3  502    0  0.87629060403E+03 -0.22276686979E+02 -0.53134179201E+03  0.10250400901E+04  0.12699999809E+01 0.  1.
       -4    1    3    3    0  502 -0.87629060403E+03  0.22276686979E+02  0.74862696292E+03  0.11527469002E+04  0.12699999809E+01 0. -1.
</event>
<event>
 5   0  0.2820239E-05  0.2169560E+04  0.7818609E-02  0.8531206E-01
       -1   -1    0    0    0  501  0.00000000000E+00  0.00000000000E+00  0.13035509012E+04  0.13035509012E+04  0.50400001928E-02 0.  1.
        1   -1    0    0  501    0  0.00000000000E+00  0.00000000000E+00 -0.90272489878E+03  0.90272489880E+03  0.50400001928E-02 0. -1.
    10030    2    1    2    0    0  0.00000000000E+00  0.00000000000E+00  0.40082600243E+03  0.22062758000E+04  0.21695601908E+04 0.  0.
        3    1    3    3  502    0  0.92700312015E+03 -0.17872953655E+03  0.74374768949E+03  0.12018484380E+04  0.10100000352E+00 0.  1.
       -3    1    3    3    0  502 -0.92700312015E+03  0.17872953655E+03 -0.34292168706E+03  0.10044273621E+04  0.10100000352E+00 0. -1.
</event>
<event>
 5   0  0.2245375E-05  0.2187391E+04  0.7818609E-02  0.8523695E-01
        3   -1    0    0  501    0  0.00000000000E+00  0.00000000000E+00  0.14619900663E+04  0.14619900698E+04  0.10100000352E+00 0.  1.
       -3   -1    0    0    0  501  0.00000000000E+00  0.00000000000E+00 -0.81817907405E+03  0.81817908028E+03  0.10100000352E+00 0. -1.
    10030    2    1    2    0    0  0.00000000000E+00  0.00000000000E+00  0.64381099228E+03  0.22801691501E+04  0.21873908565E+04 0.  0.
        4    1    3    3  502    0  0.17763192598E+02  0.29790374539E+03 -0.77491424016E+03  0.83039500542E+03  0.12699999809E+01 0. -1.
       -4    1    3    3    0  502 -0.17763192598E+02 -0.29790374539E+03  0.14187252324E+04  0.14497741447E+04  0.12699999809E+01 0.  1.
</event>
<event>
 5   0  0.2908031E-05  0.2221533E+04  0.7818609E-02  0.8509519E-01
        1   -1    0    0  501    0  0.00000000000E+00  0.00000000000E+00  0.91414004530E+03  0.91414004531E+03  0.50400001928E-02 0. -1.
       -1   -1    0    0    0  501  0.00000000000E+00  0.00000000000E+00 -0.13496857041E+04  0.13496857042E+04  0.50400001928E-02 0.  1.
    10030    2    1    2    0    0  0.00000000000E+00  0.00000000000E+00 -0.43554565885E+03  0.22638257495E+04  0.22215325798E+04 0.  0.
        1    1    3    3  502    0  0.69402161627E+03  0.35494311845E+03  0.58858887256E+03  0.97677401793E+03  0.50400001928E-02 0. -1.
       -1    1    3    3    0  502 -0.69402161627E+03 -0.35494311845E+03 -0.10241345314E+04  0.12870517315E+04  0.50400001928E-02 0.  1.
</event>
<event>
 5   0  0.2929471E-05  0.2164741E+04  0.7818609E-02  0.8533249E-01
        1   -1    0    0  501    0  0.00000000000E+00  0.00000000000E+00  0.17932970938E+04  0.17932970938E+04  0.50400001928E-02 0. -1.
       -1   -1    0    0    0  501  0.00000000000E+00  0.00000000000E+00 -0.65328037192E+03  0.65328037194E+03  0.50400001928E-02 0.  1.
    10030    2    1    2    0    0  0.00000000000E+00  0.00000000000E+00  0.11400167219E+04  0.24465774658E+04  0.21647409013E+04 0.  0.
        2    1    3    3  502    0 -0.84311627414E+03 -0.66140412692E+03  0.74224832130E+03  0.13035463326E+04  0.25500000920E-02 0. -1.
       -2    1    3    3    0  502  0.84311627414E+03  0.66140412692E+03  0.39776840061E+03  0.11430311332E+04  0.25500000920E-02 0.  1.
</event>
<event>
 5   0  0.2753631E-05  0.2172265E+04  0.7818609E-02  0.8530061E-01
        1   -1    0    0  501    0  0.00000000000E+00  0.00000000000E+00  0.20756819756E+04  0.20756819757E+04  0.50400001928E-02 0.  1.
       -1   -1    0    0    0  501  0.00000000000E+00  0.00000000000E+00 -0.56833575196E+03  0.56833575198E+03  0.50400001928E-02 0. -1.
    10030    2    1    2    0    0  0.00000000000E+00  0.00000000000E+00  0.15073462237E+04  0.26440177276E+04  0.21722654318E+04 0.  0.
        4    1    3    3  502    0  0.29494220964E+03 -0.30375022508E+03  0.19711039392E+04  0.20160623647E+04  0.12699999809E+01 0.  1.
       -4    1    3    3    0  502 -0.29494220964E+03  0.30375022508E+03 -0.46375771551E+03  0.62795536295E+03  0.12699999809E+01 0. -1.
</event>
<event>
 5   0  0.2910318E-05  0.2204122E+04  0.7818609E-02  0.8516714E-01
       -1   -1    0    0    0  501  0.00000000000E+00  0.00000000000E+00  0.13713995390E+04  0.13713995390E+04  0.50400001928E-02 0. -1.
        1   -1    0    0  501    0  0.00000000000E+00  0.00000000000E+00 -0.88561982603E+03  0.88561982605E+03  0.50400001928E-02 0.  1.
    10030    2    1    2    0    0  0.00000000000E+00  0.00000000000E+00  0.48577971297E+03  0.22570193651E+04  0.22041221574E+04 0.  0.
        5    1    3    3  502    0 -0.40897476985E+03  0.33517199064E+03  0.12330054471E+04  0.13416128906E+04  0.46999998093E+01 0. -1.
       -5    1    3    3    0  502  0.40897476985E+03 -0.33517199064E+03 -0.74722573414E+03  0.91540647444E+03  0.46999998093E+01 0.  1.
</event>
<event>
 5   0  0.6293013E-05  0.2230929E+04  0.7818609E-02  0.8505664E-01
       -2   -1    0    0    0  501  0.00000000000E+00  0.00000000000E+00  0.13565110715E+04  0.13565110715E+04  0.25500000920E-02 0.  1.
        2   -1    0    0  501    0  0.00000000000E+00  0.00000000000E+00 -0.91725056442E+03  0.91725056442E+03  0.25500000920E-02 0. -1.
    10030    2    1    2    0    0  0.00000000000E+00  0.00000000000E+00  0.43926050708E+03  0.22737616359E+04  0.22309285475E+04 0.  0.
        1    1    3    3  502    0  0.49130071925E+03  0.52000363532E+02 -0.79966119552E+03  0.93996726655E+03  0.50400001928E-02 0. -1.
       -1    1    3    3    0  502 -0.49130071925E+03 -0.52000363532E+02  0.12389217026E+04  0.13337943694E+04  0.50400001928E-02 0.  1.
</event>
<event>
 5   0  0.2929471E-05  0.2184235E+04  0.7818609E-02  0.8525019E-01
        1   -1    0    0  501    0  0.00000000000E+00  0.00000000000E+00  0.14599573751E+04  0.14599573751E+04  0.50400001928E-02 0.  1.
       -1   -1    0    0    0  501  0.00000000000E+00  0.00000000000E+00 -0.81695573712E+03  0.81695573713E+03  0.50400001928E-02 0. -1.
    10030    2    1    2    0    0  0.00000000000E+00  0.00000000000E+00  0.64300163800E+03  0.22769131123E+04  0.21842349265E+04 0.  0.
        2    1    3    3  502    0  0.75190876526E+03  0.76446232298E+03  0.53754091046E+03  0.11994664084E+04  0.25500000920E-02 0.  1.
       -2    1    3    3    0  502 -0.75190876526E+03 -0.76446232298E+03  0.10546072754E+03  0.10774467038E+04  0.25500000920E-02 0. -1.
</event>
<event>
 5   0  0.6306919E-05  0.2189990E+04  0.7818609E-02  0.8522606E-01
       -2   -1    0    0    0  501  0.00000000000E+00  0.00000000000E+00  0.99647858831E+03  0.99647858831E+03  0.25500000920E-02 0. -1.
        2   -1    0    0  501    0  0.00000000000E+00  0.00000000000E+00 -0.12032508403E+04  0.12032508403E+04  0.25500000920E-02 0.  1.
    10030    2    1    2    0    0  0.00000000000E+00  0.00000000000E+00 -0.20677225202E+03  0.21997294286E+04  0.21899896792E+04 0.  0.
        3    1    3    3  502    0  0.50562508396E+03  0.53599367152E+03  0.71019626607E+03  0.10233888254E+04  0.10100000352E+00 0. -1.
       -3    1    3    3    0  502 -0.50562508396E+03 -0.53599367152E+03 -0.91696851808E+03  0.11763406032E+04  0.10100000352E+00 0.  1.
</event>
<event>
 5   0  0.2753631E-05  0.2193852E+04  0.7818609E-02  0.8520992E-01
       -1   -1    0    0    0  501  0.00000000000E+00  0.00000000000E+00  0.67544239620E+03  0.67544239621E+03  0.50400001928E-02 0.  1.
        1   -1    0    0  501    0  0.00000000000E+00  0.00000000000E+00 -0.17814194364E+04  0.17814194364E+04  0.50400001928E-02 0. -1.
    10030    2    1    2    0    0  0.00000000000E+00  0.00000000000E+00 -0.11059770402E+04  0.24568618326E+04  0.21938516019E+04 0.  0.
        4    1    3    3  502    0  0.99217161883E+03 -0.45832981822E+03 -0.65788689188E+03  0.12756518016E+04  0.12699999809E+01 0. -1.
       -4    1    3    3    0  502 -0.99217161883E+03  0.45832981822E+03 -0.44809014832E+03  0.11812100310E+04  0.12699999809E+01 0.  1.
</event>
<event>
 5   0  0.6293013E-05  0.2430059E+04  0.7818609E-02  0.8428335E-01
       -2   -1    0    0    0  501  0.00000000000E+00  0.00000000000E+00  0.67419179490E+03  0.67419179490E+03  0.25500000920E-02 0.  1.
        2   -1    0    0  501    0  0.00000000000E+00  0.00000000000E+00 -0.21897288207E+04  0.21897288207E+04  0.25500000920E-02 0. -1.
    10030    2    1    2    0    0  0.00000000000E+00  0.00000000000E+00 -0.15155370258E+04  0.28639206157E+04  0.24300594264E+04 0.  0.
        1    1    3    3  502    0 -0.87222858539E+03 -0.82324029955E+02  0.23440290492E+03  0.90692043364E+03  0.50400001928E-02 0.  1.
       -1    1    3    3    0  502  0.87222858539E+03  0.82324029955E+02 -0.17499399308E+04  0.19570001820E+04  0.50400001928E-02 0. -1.
</event>
<event>
 5   0  0.2820239E-05  0.2170912E+04  0.7818609E-02  0.8530634E-01
        1   -1    0    0  501    0  0.00000000000E+00  0.00000000000E+00  0.13434467736E+04  0.13434467736E+04  0.50400001928E-02 0. -1.
       -1   -1    0    0    0  501  0.00000000000E+00  0.00000000000E+00 -0.87700903662E+03  0.87700903664E+03  0.50400001928E-02 0.  1.
    10030    2    1    2    0    0  0.00000000000E+00  0.00000000000E+00  0.46643773695E+03  0.22204558102E+04  0.21709122144E+04 0.  0.
        3    1    3    3  502    0  0.68272788829E+02  0.39660365567E+03  0.12643220872E+04  0.13268255288E+04  0.10100000352E+00 0. -1.
       -3    1    3    3    0  502 -0.68272788829E+02 -0.39660365567E+03 -0.79788435025E+03  0.89363028147E+03  0.10100000352E+00 0.  1.
</event>
<event>
 5   0  0.6628798E-05  0.2237019E+04  0.7818609E-02  0.8503176E-01
       -2   -1    0    0    0  501  0.00000000000E+00  0.00000000000E+00  0.58980815887E+03  0.58980815888E+03  0.25500000920E-02 0.  1.
        2   -1    0    0  501    0  0.00000000000E+00  0.00000000000E+00 -0.21211372462E+04  0.21211372462E+04  0.25500000920E-02 0. -1.
    10030    2    1    2    0    0  0.00000000000E+00  0.00000000000E+00 -0.15313290873E+04  0.27109454051E+04  0.22370194938E+04 0.  0.
        4    1    3    3  502    0  0.93404864978E+02 -0.75494362125E+03 -0.17593850271E+04  0.19167946230E+04  0.12699999809E+01 0. -1.
       -4    1    3    3    0  502 -0.93404864978E+02  0.75494362125E+03  0.22805593984E+03  0.79415078207E+03  0.12699999809E+01 0.  1.
</event>
<event>
 5   0  0.6628798E-05  0.2211578E+04  0.7818609E-02  0.8513625E-01
       -2   -1    0    0    0  501  0.00000000000E+00  0.00000000000E+00  0.78452509704E+03  0.78452509704E+03  0.25500000920E-02 0. -1.
        2   -1    0    0  501    0  0.00000000000E+00  0.00000000000E+00 -0.15586101413E+04  0.15586101413E+04  0.25500000920E-02 0.  1.
    10030    2    1    2    0    0  0.00000000000E+00  0.00000000000E+00 -0.77408504430E+03  0.23431352384E+04  0.22115775115E+04 0.  0.
        4    1    3    3  502    0  0.91187054886E+03  0.45911118708E+03 -0.83713850279E+03  0.13202626503E+04  0.12699999809E+01 0.  1.
       -4    1    3    3    0  502 -0.91187054886E+03 -0.45911118708E+03  0.63053458488E+02  0.10228725881E+04  0.12699999809E+01 0. -1.
</event>
<event>
 5   0  0.6445740E-05  0.2199912E+04  0.7818609E-02  0.8518465E-01
        2   -1    0    0  501    0  0.00000000000E+00  0.00000000000E+00  0.17432881465E+04  0.17432881465E+04  0.25500000920E-02 0.  1.
       -2   -1    0    0    0  501  0.00000000000E+00  0.00000000000E+00 -0.69403487818E+03  0.69403487819E+03  0.25500000920E-02 0. -1.
    10030    2    1    2    0    0  0.00000000000E+00  0.00000000000E+00  0.10492532684E+04  0.24373230247E+04  0.21999116132E+04 0.  0.
        5    1    3    3  502    0 -0.49642623112E+03 -0.86051942112E+03  0.14965955408E+01  0.99345709865E+03  0.46999998093E+01 0.  1.
       -5    1    3    3    0  502  0.49642623112E+03  0.86051942112E+03  0.10477566728E+04  0.14438659261E+04  0.46999998093E+01 0. -1.
</event>
<event>
 5   0  0.6414768E-05  0.2203599E+04  0.7818609E-02  0.8516932E-01
        2   -1    0    0  501    0  0.00000000000E+00  0.00000000000E+00  0.79147817688E+03  0.79147817689E+03  0.25500000920E-02 0.  1.
       -2   -1    0    0    0  501  0.00000000000E+00  0.00000000000E+00 -0.15337911216E+04  0.15337911216E+04  0.25500000920E-02 0. -1.
    10030    2    1    2    0    0  0.00000000000E+00  0.00000000000E+00 -0.74231294469E+03  0.23252692985E+04  0.22035990567E+04 0.  0.
        2    1    3    3  502    0  0.83823617479E+03 -0.14397362872E+03  0.36794106655E+03  0.92668706635E+03  0.25500000920E-02 0.  1.
       -2    1    3    3    0  502 -0.83823617479E+03  0.14397362872E+03 -0.11102540112E+04  0.13985822321E+04  0.25500000920E-02 0. -1.
</event>
<event>
 5   0  0.6306919E-05  0.2212766E+04  0.7818609E-02  0.8513133E-01
       -2   -1    0    0    0  501  0.00000000000E+00  0.00000000000E+00  0.15389558585E+04  0.15389558585E+04  0.25500000920E-02 0.  1.
        2   -1    0    0  501    0  0.00000000000E+00  0.00000000000E+00 -0.79539881431E+03  0.79539881432E+03  0.25500000920E-02 0. -1.
    10030    2    1    2    0    0  0.00000000000E+00  0.00000000000E+00  0.74355704421E+03  0.23343546728E+04  0.22127662915E+04 0.  0.
        3    1    3    3  502    0  0.10449637660E+03 -0.22763464058E+03  0.15086522419E+04  0.15293033118E+04  0.10100000352E+00 0.  1.
       -3    1    3    3    0  502 -0.10449637660E+03  0.22763464058E+03 -0.76509519764E+03  0.80505136108E+03  0.10100000352E+00 0. -1.
</event>
<event>
 5   0  0.6306919E-05  0.2194099E+04  0.7818609E-02  0.8520888E-01
        2   -1    0    0  501    0  0.00000000000E+00  0.00000000000E+00  0.14296202012E+04  0.14296202012E+04  0.25500000920E-02 0. -1.
       -2   -1    0    0    0  501  0.00000000000E+00  0.00000000000E+00 -0.84184399689E+03  0.84184399690E+03  0.25500000920E-02 0.  1.
    10030    2    1    2    0    0  0.00000000000E+00  0.00000000000E+00  0.58777620431E+03  0.22714641981E+04  0.21940986160E+04 0.  0.
        3    1    3    3  502    0 -0.20086567036E+03  0.62612995600E+03  0.12029929133E+04  0.13709769141E+04  0.10100000352E+00 0. -1.
       -3    1    3    3    0  502  0.20086567036E+03 -0.62612995600E+03 -0.61521670903E+03  0.90048728398E+03  0.10100000352E+00 0.  1.
</event>
<event>
 5   0  0.6414768E-05  0.2209134E+04  0.7818609E-02  0.8514636E-01
       -2   -1    0    0    0  501  0.00000000000E+00  0.00000000000E+00  0.31929586080E+04  0.31929586080E+04  0.25500000920E-02 0. -1.
        2   -1    0    0  501    0  0.00000000000E+00  0.00000000000E+00 -0.38211220767E+03  0.38211220768E+03  0.25500000920E-02 0.  1.
    10030    2    1    2    0    0  0.00000000000E+00  0.00000000000E+00  0.28108464004E+04  0.35750708157E+04  0.22091341858E+04 0.  0.
        2    1    3    3  502    0 -0.14013046478E+02 -0.57805256491E+03 -0.11762123831E+03  0.59006430919E+03  0.25500000920E-02 0.  1.
       -2    1    3    3    0  502  0.14013046478E+02  0.57805256491E+03  0.29284676387E+04  0.29850065065E+04  0.25500000920E-02 0. -1.
</event>
<event>
 5   0  0.2245375E-05  0.2187120E+04  0.7818609E-02  0.8523808E-01
       -3   -1    0    0    0  501  0.00000000000E+00  0.00000000000E+00  0.16058478658E+04  0.16058478690E+04  0.10100000352E+00 0.  1.
        3   -1    0    0  501    0  0.00000000000E+00  0.00000000000E+00 -0.74469887688E+03  0.74469888373E+03  0.10100000352E+00 0. -1.
    10030    2    1    2    0    0  0.00000000000E+00  0.00000000000E+00  0.86114898892E+03  0.23505467527E+04  0.21871196711E+04 0.  0.
        3    1    3    3  502    0  0.51347407006E+02  0.37075543272E+03 -0.67371371840E+03  0.77070508734E+03  0.10100000352E+00 0. -1.
       -3    1    3    3    0  502 -0.51347407006E+02 -0.37075543272E+03  0.15348627073E+04  0.15798416654E+04  0.10100000352E+00 0.  1.
</event>
<event>
 5   0  0.2245375E-05  0.2135144E+04  0.7818609E-02  0.8545918E-01
       -4   -1    0    0    0  501  0.00000000000E+00  0.00000000000E+00  0.94386661865E+03  0.94386747306E+03  0.12699999809E+01 0. -1.
        4   -1    0    0  501    0  0.00000000000E+00  0.00000000000E+00 -0.12074889108E+04  0.12074895786E+04  0.12699999809E+01 0.  1.
    10030    2    1    2    0    0  0.00000000000E+00  0.00000000000E+00 -0.26362229212E+03  0.21513570517E+04  0.21351441289E+04 0.  0.
        4    1    3    3  502    0 -0.59257308911E+03  0.83842028330E+03 -0.42663692820E+03  0.11118057919E+04  0.12699999809E+01 0.  1.
       -4    1    3    3    0  502  0.59257308911E+03 -0.83842028330E+03  0.16301463608E+03  0.10395512599E+04  0.12699999809E+01 0. -1.
</event>
<event>
 5   0  0.6306919E-05  0.1995185E+04  0.7818609E-02  0.8608875E-01
       -2   -1    0    0    0  501  0.00000000000E+00  0.00000000000E+00  0.85331029767E+03  0.85331029767E+03  0.25500000920E-02 0.  1.
        2   -1    0    0  501    0  0.00000000000E+00  0.00000000000E+00 -0.11662708693E+04  0.11662708693E+04  0.25500000920E-02 0. -1.
    10030    2    1    2    0    0  0.00000000000E+00  0.00000000000E+00 -0.31296057164E+03  0.20195811670E+04  0.19951851470E+04 0.  0.
        3    1    3    3  502    0 -0.52301454802E+03  0.75942030997E+03  0.22886807963E+03  0.95007580367E+03  0.10100000352E+00 0. -1.
       -3    1    3    3    0  502  0.52301454802E+03 -0.75942030997E+03 -0.54182865127E+03  0.10695053633E+04  0.10100000352E+00 0.  1.
</event>
<event>
 5   0  0.2753631E-05  0.2261837E+04  0.7818609E-02  0.8493122E-01
       -1   -1    0    0    0  501  0.00000000000E+00  0.00000000000E+00  0.14956633030E+04  0.14956633030E+04  0.50400001928E-02 0. -1.
        1   -1    0    0  501    0  0.00000000000E+00  0.00000000000E+00 -0.85512324151E+03  0.85512324152E+03  0.50400001928E-02 0.  1.
    10030    2    1    2    0    0  0.00000000000E+00  0.00000000000E+00  0.64054006149E+03  0.23507865445E+04  0.22618368216E+04 0.  0.
        4    1    3    3  502    0 -0.40346408100E+03  0.13292721501E+03 -0.76905201232E+03  0.87857584744E+03  0.12699999809E+01 0.  1.
       -4    1    3    3    0  502  0.40346408100E+03 -0.13292721501E+03  0.14095920738E+04  0.14722106971E+04  0.12699999809E+01 0. -1.
</event>
<event>
 5   0  0.6293013E-05  0.2196936E+04  0.7818609E-02  0.8519705E-01
        2   -1    0    0  501    0  0.00000000000E+00  0.00000000000E+00  0.14948866680E+04  0.14948866680E+04  0.25500000920E-02 0. -1.
       -2   -1    0    0    0  501  0.00000000000E+00  0.00000000000E+00 -0.80717257964E+03  0.80717257965E+03  0.25500000920E-02 0.  1.
    10030    2    1    2    0    0  0.00000000000E+00  0.00000000000E+00  0.68771408833E+03  0.23020592476E+04  0.21969356186E+04 0.  0.
        1    1    3    3  502    0  0.92477511017E+03 -0.52002882256E+03  0.45647392154E+02  0.10619428728E+04  0.50400001928E-02 0. -1.
       -1    1    3    3    0  502 -0.92477511017E+03  0.52002882256E+03  0.64206669617E+03  0.12401163748E+04  0.50400001928E-02 0.  1.
</event>
<event>
 5   0  0.6414768E-05  0.2217874E+04  0.7818609E-02  0.8511025E-01
        2   -1    0    0  501    0  0.00000000000E+00  0.00000000000E+00  0.20542916712E+04  0.20542916712E+04  0.25500000920E-02 0.  1.
       -2   -1    0    0    0  501  0.00000000000E+00  0.00000000000E+00 -0.59862056322E+03  0.59862056323E+03  0.25500000920E-02 0. -1.
    10030    2    1    2    0    0  0.00000000000E+00  0.00000000000E+00  0.14556711079E+04  0.26529122344E+04  0.22178739705E+04 0.  0.
        2    1    3    3  502    0 -0.64291907392E+03 -0.52927819399E+03  0.16037749973E+04  0.18070900874E+04  0.25500000920E-02 0.  1.
       -2    1    3    3    0  502  0.64291907392E+03  0.52927819399E+03 -0.14810388932E+03  0.84582214696E+03  0.25500000920E-02 0. -1.
</event>
<event>
 5   0  0.2929471E-05  0.2193990E+04  0.7818609E-02  0.8520934E-01
       -1   -1    0    0    0  501  0.00000000000E+00  0.00000000000E+00  0.49205262394E+03  0.49205262397E+03  0.50400001928E-02 0.  1.
        1   -1    0    0  501    0  0.00000000000E+00  0.00000000000E+00 -0.24456700634E+04  0.24456700635E+04  0.50400001928E-02 0. -1.
    10030    2    1    2    0    0  0.00000000000E+00  0.00000000000E+00 -0.19536174395E+04  0.29377226874E+04  0.21939903118E+04 0.  0.
        2    1    3    3  502    0 -0.97712499336E+03  0.28191564787E+03 -0.15275027989E+04  0.18350788772E+04  0.25500000920E-02 0. -1.
       -2    1    3    3    0  502  0.97712499336E+03 -0.28191564787E+03 -0.42611464065E+03  0.11026438102E+04  0.25500000920E-02 0.  1.
</event>
<event>
 5   0  0.6445740E-05  0.2230744E+04  0.7818609E-02  0.8505740E-01
       -2   -1    0    0    0  501  0.00000000000E+00  0.00000000000E+00  0.95675947054E+03  0.95675947054E+03  0.25500000920E-02 0.  1.
        2   -1    0    0  501    0  0.00000000000E+00  0.00000000000E+00 -0.13002797352E+04  0.13002797352E+04  0.25500000920E-02 0. -1.
    10030    2    1    2    0    0  0.00000000000E+00  0.00000000000E+00 -0.34352026469E+03  0.22570392058E+04  0.22307442265E+04 0.  0.
        5    1    3    3  502    0  0.55835054049E+03  0.41142559378E+03  0.71203875143E+03  0.99400584446E+03  0.46999998093E+01 0.  1.
       -5    1    3    3    0  502 -0.55835054049E+03 -0.41142559378E+03 -0.10555590161E+04  0.12630333613E+04  0.46999998093E+01 0. -1.
</event>
<event>
 5   0  0.2820239E-05  0.2191573E+04  0.7818609E-02  0.8521944E-01
       -1   -1    0    0    0  501  0.00000000000E+00  0.00000000000E+00  0.10038908697E+04  0.10038908697E+04  0.50400001928E-02 0.  1.
        1   -1    0    0  501    0  0.00000000000E+00  0.00000000000E+00 -0.11960947073E+04  0.11960947074E+04  0.50400001928E-02 0. -1.
    10030    2    1    2    0    0  0.00000000000E+00  0.00000000000E+00 -0.19220383765E+03  0.21999855771E+04  0.21915734585E+04 0.  0.
        3    1    3    3  502    0  0.73491288086E+03  0.72221929439E+03 -0.47042852298E+03  0.11326961892E+04  0.10100000352E+00 0. -1.
       -3    1    3    3    0  502 -0.73491288086E+03 -0.72221929439E+03  0.27822468533E+03  0.10672893878E+04  0.10100000352E+00 0.  1.
</event>
<event>
 5   0  0.2820239E-05  0.2217466E+04  0.7818609E-02  0.8511193E-01
        1   -1    0    0  501    0  0.00000000000E+00  0.00000000000E+00  0.30054435728E+04  0.30054435728E+04  0.50400001928E-02 0.  1.
       -1   -1    0    0    0  501  0.00000000000E+00  0.00000000000E+00 -0.40902091521E+03  0.40902091524E+03  0.50400001928E-02 0. -1.
    10030    2    1    2    0    0  0.00000000000E+00  0.00000000000E+00  0.25964226576E+04  0.34144644880E+04  0.22174663748E+04 0.  0.
        3    1    3    3  502    0 -0.79809112654E+03  0.13440604660E+02  0.11330290120E+03  0.80620571428E+03  0.10100000352E+00 0.  1.
       -3    1    3    3    0  502  0.79809112654E+03 -0.13440604660E+02  0.24831197564E+04  0.26082587737E+04  0.10100000352E+00 0. -1.
</event>
<event>
 5   0  0.2753631E-05  0.2189096E+04  0.7818609E-02  0.8522980E-01
       -1   -1    0    0    0  501  0.00000000000E+00  0.00000000000E+00  0.16437652002E+04  0.16437652003E+04  0.50400001928E-02 0. -1.
        1   -1    0    0  501    0  0.00000000000E+00  0.00000000000E+00 -0.72883581884E+03  0.72883581885E+03  0.50400001928E-02 0.  1.
    10030    2    1    2    0    0  0.00000000000E+00  0.00000000000E+00  0.91492938141E+03  0.23726010191E+04  0.21890956633E+04 0.  0.
        4    1    3    3  502    0 -0.72296648658E+02 -0.94855430406E+03  0.10441858837E+04  0.14125536612E+04  0.12699999809E+01 0. -1.
       -4    1    3    3    0  502  0.72296648658E+02  0.94855430406E+03 -0.12925650228E+03  0.96004735792E+03  0.12699999809E+01 0.  1.
</event>
<event>
 5   0  0.6628798E-05  0.2214767E+04  0.7818609E-02  0.8512307E-01
       -2   -1    0    0    0  501  0.00000000000E+00  0.00000000000E+00  0.45790013384E+03  0.45790013385E+03  0.25500000920E-02 0. -1.
        2   -1    0    0  501    0  0.00000000000E+00  0.00000000000E+00 -0.26780904873E+04  0.26780904873E+04  0.25500000920E-02 0.  1.
    10030    2    1    2    0    0  0.00000000000E+00  0.00000000000E+00 -0.22201903534E+04  0.31359906211E+04  0.22147667982E+04 0.  0.
        4    1    3    3  502    0  0.11906600782E+03  0.12099379875E+02  0.44871514100E+03  0.46440284224E+03  0.12699999809E+01 0. -1.
       -4    1    3    3    0  502 -0.11906600782E+03 -0.12099379875E+02 -0.26689054944E+04  0.26715877789E+04  0.12699999809E+01 0.  1.
</event>
<event>
 5   0  0.6414768E-05  0.2159901E+04  0.7818609E-02  0.8535306E-01
       -2   -1    0    0    0  501  0.00000000000E+00  0.00000000000E+00  0.49893488113E+03  0.49893488114E+03  0.25500000920E-02 0.  1.
        2   -1    0    0  501    0  0.00000000000E+00  0.00000000000E+00 -0.23375662466E+04  0.23375662466E+04  0.25500000920E-02 0. -1.
    10030    2    1    2    0    0  0.00000000000E+00  0.00000000000E+00 -0.18386313654E+04  0.28365011277E+04  0.21599012361E+04 0.  0.
        2    1    3    3  502    0 -0.10199525863E+04  0.27927590043E+03 -0.63161081900E+03  0.12317591215E+04  0.25500000920E-02 0.  1.
       -2    1    3    3    0  502  0.10199525863E+04 -0.27927590043E+03 -0.12070205464E+04  0.16047420062E+04  0.25500000920E-02 0. -1.
</event>
<event>
 5   0  0.6628798E-05  0.2189143E+04  0.7818609E-02  0.8522960E-01
       -2   -1    0    0    0  501  0.00000000000E+00  0.00000000000E+00  0.70602232098E+03  0.70602232098E+03  0.25500000920E-02 0. -1.
        2   -1    0    0  501    0  0.00000000000E+00  0.00000000000E+00 -0.16969538271E+04  0.16969538271E+04  0.25500000920E-02 0.  1.
    10030    2    1    2    0    0  0.00000000000E+00  0.00000000000E+00 -0.99093150609E+03  0.24029761481E+04  0.21891434668E+04 0.  0.
        4    1    3    3  502    0 -0.87847796281E+03  0.42295232293E+03 -0.10415247387E+04  0.14266701065E+04  0.12699999809E+01 0.  1.
       -4    1    3    3    0  502  0.87847796281E+03 -0.42295232293E+03  0.50593232631E+02  0.97630604152E+03  0.12699999809E+01 0. -1.
</event>
<event>
 5   0  0.6293013E-05  0.2211105E+04  0.7818609E-02  0.8513820E-01
       -2   -1    0    0    0  501  0.00000000000E+00  0.00000000000E+00  0.16198957343E+04  0.16198957343E+04  0.25500000920E-02 0.  1.
        2   -1    0    0  501    0  0.00000000000E+00  0.00000000000E+00 -0.75452135722E+03  0.75452135722E+03  0.25500000920E-02 0. -1.
    10030    2    1    2    0    0  0.00000000000E+00  0.00000000000E+00  0.86537437705E+03  0.23744170915E+04  0.22111046361E+04 0.  0.
        1    1    3    3  502    0 -0.35120976901E+02 -0.96833297603E+03  0.10043033367E+04  0.13955384007E+04  0.50400001928E-02 0.  1.
       -1    1    3    3    0  502  0.35120976901E+02  0.96833297603E+03 -0.13892895969E+03  0.97887869083E+03  0.50400001928E-02 0. -1.
</event>
<event>
 5   0  0.6306919E-05  0.2251753E+04  0.7818609E-02  0.8497191E-01
       -2   -1    0    0    0  501  0.00000000000E+00  0.00000000000E+00  0.71488648137E+03  0.71488648137E+03  0.25500000920E-02 0.  1.
        2   -1    0    0  501    0  0.00000000000E+00  0.00000000000E+00 -0.17731449935E+04  0.17731449935E+04  0.25500000920E-02 0. -1.
    10030    2    1    2    0    0  0.00000000000E+00  0.00000000000E+00 -0.10582585121E+04  0.24880314749E+04  0.22517525489E+04 0.  0.
        3    1    3    3  502    0 -0.90065433452E+03 -0.62073509579E+03 -0.23448929604E+03  0.11186936710E+04  0.10100000352E+00 0.  1.
       -3    1    3    3    0  502  0.90065433452E+03  0.62073509579E+03 -0.82376921608E+03  0.13693378038E+04  0.10100000352E+00 0. -1.
</event>
<event>
 5   0  0.2908031E-05  0.2252589E+04  0.7818609E-02  0.8496853E-01
       -1   -1    0    0    0  501  0.00000000000E+00  0.00000000000E+00  0.71786556634E+03  0.71786556635E+03  0.50400001928E-02 0. -1.
        1   -1    0    0  501    0  0.00000000000E+00  0.00000000000E+00 -0.17670989757E+04  0.17670989757E+04  0.50400001928E-02 0.  1.
    10030    2    1    2    0    0  0.00000000000E+00  0.00000000000E+00 -0.10492334094E+04  0.24849645421E+04  0.22525891831E+04 0.  0.
        1    1    3    3  502    0 -0.85451272260E+03 -0.73316032366E+03 -0.55627283279E+03  0.12558485250E+04  0.50400001928E-02 0. -1.
       -1    1    3    3    0  502  0.85451272260E+03  0.73316032366E+03 -0.49296057658E+03  0.12291160170E+04  0.50400001928E-02 0.  1.
</event>
<event>
 5   0  0.6414768E-05  0.2184316E+04  0.7818609E-02  0.8524985E-01
        2   -1    0    0  501    0  0.00000000000E+00  0.00000000000E+00  0.16352125526E+04  0.16352125526E+04  0.25500000920E-02 0. -1.
       -2   -1    0    0    0  501  0.00000000000E+00  0.00000000000E+00 -0.72945205164E+03  0.72945205165E+03  0.25500000920E-02 0.  1.
    10030    2    1    2    0    0  0.00000000000E+00  0.00000000000E+00  0.90576050092E+03  0.23646646042E+04  0.21843160498E+04 0.  0.
        2    1    3    3  502    0 -0.10805546216E+03  0.85772976797E+03  0.11753924379E+04  0.14590831782E+04  0.25500000920E-02 0. -1.
       -2    1    3    3    0  502  0.10805546216E+03 -0.85772976797E+03 -0.26963193696E+03  0.90558142605E+03  0.25500000920E-02 0.  1.
</event>
<event>
 5   0  0.2929471E-05  0.2208606E+04  0.7818609E-02  0.8514855E-01
       -1   -1    0    0    0  501  0.00000000000E+00  0.00000000000E+00  0.80223217551E+03  0.80223217552E+03  0.50400001928E-02 0. -1.
        1   -1    0    0  501    0  0.00000000000E+00  0.00000000000E+00 -0.15201150486E+04  0.15201150486E+04  0.50400001928E-02 0.  1.
    10030    2    1    2    0    0  0.00000000000E+00  0.00000000000E+00 -0.71788287312E+03  0.23223472242E+04  0.22086060785E+04 0.  0.
        2    1    3    3  502    0  0.62886673561E+03  0.40598902595E+03 -0.12126555548E+04  0.14250733156E+04  0.25500000920E-02 0.  1.
       -2    1    3    3    0  502 -0.62886673561E+03 -0.40598902595E+03  0.49477268169E+03  0.89727390851E+03  0.25500000920E-02 0. -1.
</event>
<event>
 5   0  0.6628798E-05  0.2175135E+04  0.7818609E-02  0.8528849E-01
       -2   -1    0    0    0  501  0.00000000000E+00  0.00000000000E+00  0.13337780613E+04  0.13337780613E+04  0.25500000920E-02 0.  1.
        2   -1    0    0  501    0  0.00000000000E+00  0.00000000000E+00 -0.88680630703E+03  0.88680630704E+03  0.25500000920E-02 0. -1.
    10030    2    1    2    0    0  0.00000000000E+00  0.00000000000E+00  0.44697175426E+03  0.22205843683E+04  0.21751347516E+04 0.  0.
        4    1    3    3  502    0  0.48774009792E+03  0.90202485735E+03 -0.14638532317E+03  0.10358424215E+04  0.12699999809E+01 0. -1.
       -4    1    3    3    0  502 -0.48774009792E+03 -0.90202485735E+03  0.59335707743E+03  0.11847419469E+04  0.12699999809E+01 0.  1.
</event>
<event>
 5   0  0.6628798E-05  0.2199987E+04  0.7818609E-02  0.8518434E-01
       -2   -1    0    0    0  501  0.00000000000E+00  0.00000000000E+00  0.79154821336E+03  0.79154821337E+03  0.25500000920E-02 0. -1.
        2   -1    0    0  501    0  0.00000000000E+00  0.00000000000E+00 -0.15286310200E+04  0.15286310200E+04  0.25500000920E-02 0.  1.
    10030    2    1    2    0    0  0.00000000000E+00  0.00000000000E+00 -0.73708280664E+03  0.23201792334E+04  0.21999865025E+04 0.  0.
        4    1    3    3  502    0  0.19926545420E+02  0.80240209437E+03  0.42470652319E+03  0.90808778871E+03  0.12699999809E+01 0. -1.
       -4    1    3    3    0  502 -0.19926545420E+02 -0.80240209437E+03 -0.11617893298E+04  0.14120914447E+04  0.12699999809E+01 0.  1.
</event>
<event>
 5   0  0.2908031E-05  0.2210684E+04  0.7818609E-02  0.8513994E-01
        1   -1    0    0  501    0  0.00000000000E+00  0.00000000000E+00  0.13808027980E+04  0.13808027980E+04  0.50400001928E-02 0.  1.
       -1   -1    0    0    0  501  0.00000000000E+00  0.00000000000E+00 -0.88483392261E+03  0.88483392263E+03  0.50400001928E-02 0. -1.
    10030    2    1    2    0    0  0.00000000000E+00  0.00000000000E+00  0.49596887539E+03  0.22656367206E+04  0.22106841983E+04 0.  0.
        1    1    3    3  502    0 -0.12714768759E+02 -0.88086768766E+03  0.93218085571E+03  0.12825952972E+04  0.50400001928E-02 0.  1.
       -1    1    3    3    0  502  0.12714768759E+02  0.88086768766E+03 -0.43621198032E+03  0.98304142349E+03  0.50400001928E-02 0. -1.
</event>
<event>
 5   0  0.2820239E-05  0.2164465E+04  0.7818609E-02  0.8533366E-01
        1   -1    0    0  501    0  0.00000000000E+00  0.00000000000E+00  0.91371266987E+03  0.91371266988E+03  0.50400001928E-02 0.  1.
       -1   -1    0    0    0  501  0.00000000000E+00  0.00000000000E+00 -0.12818326231E+04  0.12818326231E+04  0.50400001928E-02 0. -1.
    10030    2    1    2    0    0  0.00000000000E+00  0.00000000000E+00 -0.36811995321E+03  0.21955452930E+04  0.21644645605E+04 0.  0.
        3    1    3    3  502    0 -0.10259886550E+04 -0.32832617948E+03 -0.28935762038E+03  0.11154275607E+04  0.10100000352E+00 0.  1.
       -3    1    3    3    0  502  0.10259886550E+04  0.32832617948E+03 -0.78762332823E+02  0.10801177323E+04  0.10100000352E+00 0. -1.
</event>
<event>
 5   0  0.6306919E-05  0.2177813E+04  0.7818609E-02  0.8527720E-01
        2   -1    0    0  501    0  0.00000000000E+00  0.00000000000E+00  0.22007641937E+04  0.22007641937E+04  0.25500000920E-02 0.  1.
       -2   -1    0    0    0  501  0.00000000000E+00  0.00000000000E+00 -0.53877506001E+03  0.53877506002E+03  0.25500000920E-02 0. -1.
    10030    2    1    2    0    0  0.00000000000E+00  0.00000000000E+00  0.16619891337E+04  0.27395392537E+04  0.21778125360E+04 0.  0.
        3    1    3    3  502    0  0.82190528893E+02 -0.14211884185E+02  0.21967396752E+04  0.21983226496E+04  0.10100000352E+00 0.  1.
       -3    1    3    3    0  502 -0.82190528893E+02  0.14211884185E+02 -0.53475054155E+03  0.54121660413E+03  0.10100000352E+00 0. -1.
</event>
<event>
 5   0  0.2910318E-05  0.2197611E+04  0.7818609E-02  0.8519423E-01
       -1   -1    0    0    0  501  0.00000000000E+00  0.00000000000E+00  0.64128599885E+03  0.64128599887E+03  0.50400001928E-02 0. -1.
        1   -1    0    0  501    0  0.00000000000E+00  0.00000000000E+00 -0.18827380277E+04  0.18827380277E+04  0.50400001928E-02 0.  1.
    10030    2    1    2    0    0  0.00000000000E+00  0.00000000000E+00 -0.12414520289E+04  0.25240240266E+04  0.21976110090E+04 0.  0.
        5    1    3    3  502    0  0.33752252826E+03 -0.30326426245E+02  0.57975537634E+03  0.67155009910E+03  0.46999998093E+01 0. -1.
       -5    1    3    3    0  502 -0.33752252826E+03  0.30326426245E+02 -0.18212074052E+04  0.18524739275E+04  0.46999998093E+01 0.  1.
</event>
<event>
 5   0  0.2753631E-05  0.2200328E+04  0.7818609E-02  0.8518292E-01
        1   -1    0    0  501    0  0.00000000000E+00  0.00000000000E+00  0.18420493145E+04  0.18420493145E+04  0.50400001928E-02 0. -1.
       -1   -1    0    0    0  501  0.00000000000E+00  0.00000000000E+00 -0.65707304066E+03  0.65707304068E+03  0.50400001928E-02 0.  1.
    10030    2    1    2    0    0  0.00000000000E+00  0.00000000000E+00  0.11849762738E+04  0.24991223551E+04  0.22003281066E+04 0.  0.
        4    1    3    3  502    0 -0.76090434630E+03 -0.33749781439E+03 -0.22455783573E+03  0.86215313804E+03  0.12699999809E+01 0.  1.
       -4    1    3    3    0  502  0.76090434630E+03  0.33749781439E+03  0.14095341095E+04  0.16369692171E+04  0.12699999809E+01 0. -1.
</event>
<event>
 5   0  0.6628798E-05  0.1777178E+04  0.7818609E-02  0.8718531E-01
        2   -1    0    0  501    0  0.00000000000E+00  0.00000000000E+00  0.90403222174E+03  0.90403222174E+03  0.25500000920E-02 0.  1.
       -2   -1    0    0    0  501  0.00000000000E+00  0.00000000000E+00 -0.87341007278E+03  0.87341007279E+03  0.25500000920E-02 0. -1.
    10030    2    1    2    0    0  0.00000000000E+00  0.00000000000E+00  0.30622148956E+02  0.17774422945E+04  0.17771784926E+04 0.  0.
        4    1    3    3  502    0 -0.64145659333E+03  0.71700795977E+02  0.62612398236E+03  0.89924436026E+03  0.12699999809E+01 0.  1.
       -4    1    3    3    0  502  0.64145659333E+03 -0.71700795977E+02 -0.59550183341E+03  0.87819793427E+03  0.12699999809E+01 0. -1.
</event>
<event>
 5   0  0.6293013E-05  0.2189965E+04  0.7818609E-02  0.8522617E-01
        2   -1    0    0  501    0  0.00000000000E+00  0.00000000000E+00  0.18643260592E+04  0.18643260592E+04  0.25500000920E-02 0.  1.
       -2   -1    0    0    0  501  0.00000000000E+00  0.00000000000E+00 -0.64312047087E+03  0.64312047088E+03  0.25500000920E-02 0. -1.
    10030    2    1    2    0    0  0.00000000000E+00  0.00000000000E+00  0.12212055884E+04  0.25074465301E+04  0.21899646144E+04 0.  0.
        1    1    3    3  502    0 -0.52802075023E+03 -0.74949947026E+03  0.12960867513E+04  0.15875755842E+04  0.50400001928E-02 0.  1.
       -1    1    3    3    0  502  0.52802075023E+03  0.74949947026E+03 -0.74881162918E+02  0.91987094594E+03  0.50400001928E-02 0. -1.
</event>
<event>
 5   0  0.2929471E-05  0.2206986E+04  0.7818609E-02  0.8515526E-01
       -1   -1    0    0    0  501  0.00000000000E+00  0.00000000000E+00  0.68868361977E+03  0.68868361979E+03  0.50400001928E-02 0. -1.
        1   -1    0    0  501    0  0.00000000000E+00  0.00000000000E+00 -0.17681516564E+04  0.17681516564E+04  0.50400001928E-02 0.  1.
    10030    2    1    2    0    0  0.00000000000E+00  0.00000000000E+00 -0.10794680367E+04  0.24568352762E+04  0.22069862556E+04 0.  0.
        2    1    3    3  502    0  0.49856801185E+03  0.23970465807E+03 -0.16026401990E+04  0.16954303268E+04  0.25500000920E-02 0.  1.
       -2    1    3    3    0  502 -0.49856801185E+03 -0.23970465807E+03  0.52317216235E+03  0.76140494942E+03  0.25500000920E-02 0. -1.
</event>
<event>
 5   0  0.6414768E-05  0.2216539E+04  0.7818609E-02  0.8511576E-01
       -2   -1    0    0    0  501  0.00000000000E+00  0.00000000000E+00  0.89388958007E+03  0.89388958007E+03  0.25500000920E-02 0. -1.
        2   -1    0    0  501    0  0.00000000000E+00  0.00000000000E+00 -0.13740640372E+04  0.13740640372E+04  0.25500000920E-02 0.  1.
    10030    2    1    2    0    0  0.00000000000E+00  0.00000000000E+00 -0.48017445713E+03  0.22679536173E+04  0.22165392171E+04 0.  0.
        2    1    3    3  502    0  0.45177098347E+03 -0.49842133035E+03  0.66110415838E+03  0.94317525004E+03  0.25500000920E-02 0. -1.
       -2    1    3    3    0  502 -0.45177098347E+03  0.49842133035E+03 -0.11412786155E+04  0.13247783672E+04  0.25500000920E-02 0.  1.
</event>
<event>
 5   0  0.6293013E-05  0.2195686E+04  0.7818609E-02  0.8520226E-01
        2   -1    0    0  501    0  0.00000000000E+00  0.00000000000E+00  0.96499788934E+03  0.96499788934E+03  0.25500000920E-02 0. -1.
       -2   -1    0    0    0  501  0.00000000000E+00  0.00000000000E+00 -0.12489757489E+04  0.12489757489E+04  0.25500000920E-02 0.  1.
    10030    2    1    2    0    0  0.00000000000E+00  0.00000000000E+00 -0.28397785958E+03  0.22139736383E+04  0.21956857348E+04 0.  0.
        1    1    3    3  502    0 -0.29997733629E+03  0.10473410522E+04 -0.54011721354E+01  0.10894672343E+04  0.50400001928E-02 0.  1.
       -1    1    3    3    0  502  0.29997733629E+03 -0.10473410522E+04 -0.27857668744E+03  0.11245064040E+04  0.50400001928E-02 0. -1.
</event>
<event>
 5   0  0.6306919E-05  0.2232053E+04  0.7818609E-02  0.8505204E-01
        2   -1    0    0  501    0  0.00000000000E+00  0.00000000000E+00  0.13684104536E+04  0.13684104536E+04  0.25500000920E-02 0. -1.
       -2   -1    0    0    0  501  0.00000000000E+00  0.00000000000E+00 -0.91019152381E+03  0.91019152381E+03  0.25500000920E-02 0.  1.
    10030    2    1    2    0    0  0.00000000000E+00  0.00000000000E+00  0.45821892983E+03  0.22786019775E+04  0.22320534008E+04 0.  0.
        3    1    3    3  502    0 -0.10146214811E+04 -0.32501419190E+03 -0.11012254696E+03  0.10710826114E+04  0.10100000352E+00 0. -1.
       -3    1    3    3    0  502  0.10146214811E+04  0.32501419190E+03  0.56834147679E+03  0.12075193660E+04  0.10100000352E+00 0.  1.
</event>
<event>
 5   0  0.6414768E-05  0.2185893E+04  0.7818609E-02  0.8524323E-01
       -2   -1    0    0    0  501  0.00000000000E+00  0.00000000000E+00  0.94892537232E+03  0.94892537233E+03  0.25500000920E-02 0. -1.
        2   -1    0    0  501    0  0.00000000000E+00  0.00000000000E+00 -0.12588255557E+04  0.12588255557E+04  0.25500000920E-02 0.  1.
    10030    2    1    2    0    0  0.00000000000E+00  0.00000000000E+00 -0.30990018340E+03  0.22077509281E+04  0.21858925035E+04 0.  0.
        2    1    3    3  502    0 -0.75936395497E+03  0.97541523880E+02 -0.94273925896E+03  0.12144567820E+04  0.25500000920E-02 0.  1.
       -2    1    3    3    0  502  0.75936395497E+03 -0.97541523880E+02  0.63283907556E+03  0.99329414604E+03  0.25500000920E-02 0. -1.
</event>
<event>
 5   0  0.2910318E-05  0.2268583E+04  0.7818609E-02  0.8490412E-01
        1   -1    0    0  501    0  0.00000000000E+00  0.00000000000E+00  0.10903118364E+04  0.10903118364E+04  0.50400001928E-02 0. -1.
       -1   -1    0    0    0  501  0.00000000000E+00  0.00000000000E+00 -0.11800453020E+04  0.11800453020E+04  0.50400001928E-02 0.  1.
    10030    2    1    2    0    0  0.00000000000E+00  0.00000000000E+00 -0.89733465577E+02  0.22703571384E+04  0.22685831352E+04 0.  0.
        5    1    3    3  502    0 -0.88836516789E+03 -0.33991355612E+03  0.57356582470E+03  0.11107356762E+04  0.46999998093E+01 0. -1.
       -5    1    3    3    0  502  0.88836516789E+03  0.33991355612E+03 -0.66329929028E+03  0.11596214622E+04  0.46999998093E+01 0.  1.
</event>
<event>
 5   0  0.6628798E-05  0.2008211E+04  0.7818609E-02  0.8602791E-01
        2   -1    0    0  501    0  0.00000000000E+00  0.00000000000E+00  0.14981152295E+04  0.14981152295E+04  0.25500000920E-02 0.  1.
       -2   -1    0    0    0  501  0.00000000000E+00  0.00000000000E+00 -0.67299764619E+03  0.67299764619E+03  0.25500000920E-02 0. -1.
    10030    2    1    2    0    0  0.00000000000E+00  0.00000000000E+00  0.82511758336E+03  0.21711128757E+04  0.20082111674E+04 0.  0.
        4    1    3    3  502    0  0.77013925319E+03  0.41746475244E+03 -0.11799929181E+03  0.88392122647E+03  0.12699999809E+01 0.  1.
       -4    1    3    3    0  502 -0.77013925319E+03 -0.41746475244E+03  0.94311687516E+03  0.12871916493E+04  0.12699999809E+01 0. -1.
</event>
<event>
 5   0  0.2820239E-05  0.2197643E+04  0.7818609E-02  0.8519410E-01
        1   -1    0    0  501    0  0.00000000000E+00  0.00000000000E+00  0.20370204232E+04  0.20370204232E+04  0.50400001928E-02 0.  1.
       -1   -1    0    0    0  501  0.00000000000E+00  0.00000000000E+00 -0.59273288646E+03  0.59273288648E+03  0.50400001928E-02 0. -1.
    10030    2    1    2    0    0  0.00000000000E+00  0.00000000000E+00  0.14442875368E+04  0.26297533097E+04  0.21976432789E+04 0.  0.
        3    1    3    3  502    0  0.61943056992E+03 -0.41197394529E+02  0.18070653552E+04  0.19107267372E+04  0.10100000352E+00 0.  1.
       -3    1    3    3    0  502 -0.61943056992E+03  0.41197394529E+02 -0.36277781839E+03  0.71902657251E+03  0.10100000352E+00 0. -1.
</event>
<event>
 5   0  0.2908031E-05  0.2606322E+04  0.7818609E-02  0.8366057E-01
       -1   -1    0    0    0  501  0.00000000000E+00  0.00000000000E+00  0.10691449279E+04  0.10691449279E+04  0.50400001928E-02 0. -1.
        1   -1    0    0  501    0  0.00000000000E+00  0.00000000000E+00 -0.15883984019E+04  0.15883984019E+04  0.50400001928E-02 0.  1.
    10030    2    1    2    0    0  0.00000000000E+00  0.00000000000E+00 -0.51925347408E+03  0.26575433298E+04  0.26063216186E+04 0.  0.
        1    1    3    3  502    0  0.10208016548E+04 -0.64231047453E+03  0.24366190998E+03  0.12304348380E+04  0.50400001928E-02 0. -1.
       -1    1    3    3    0  502 -0.10208016548E+04  0.64231047453E+03 -0.76291538406E+03  0.14271084918E+04  0.50400001928E-02 0.  1.
</event>
<event>
 5   0  0.6306919E-05  0.2190178E+04  0.7818609E-02  0.8522527E-01
        2   -1    0    0  501    0  0.00000000000E+00  0.00000000000E+00  0.15529287466E+04  0.15529287466E+04  0.25500000920E-02 0. -1.
       -2   -1    0    0    0  501  0.00000000000E+00  0.00000000000E+00 -0.77223137622E+03  0.77223137622E+03  0.25500000920E-02 0.  1.
    10030    2    1    2    0    0  0.00000000000E+00  0.00000000000E+00  0.78069737043E+03  0.23251601229E+04  0.21901783518E+04 0.  0.
        3    1    3    3  502    0 -0.95473306833E+03  0.15312502455E+02  0.95955550278E+03  0.13536973360E+04  0.10100000352E+00 0. -1.
       -3    1    3    3    0  502  0.95473306833E+03 -0.15312502455E+02 -0.17885813235E+03  0.97146278683E+03  0.10100000352E+00 0.  1.
</event>
<event>
 5   0  0.2245375E-05  0.2191887E+04  0.7818609E-02  0.8521813E-01
       -3   -1    0    0    0  501  0.00000000000E+00  0.00000000000E+00  0.62278667079E+03  0.62278667898E+03  0.10100000352E+00 0.  1.
        3   -1    0    0  501    0  0.00000000000E+00  0.00000000000E+00 -0.19285766769E+04  0.19285766795E+04  0.10100000352E+00 0. -1.
    10030    2    1    2    0    0  0.00000000000E+00  0.00000000000E+00 -0.13057900061E+04  0.25513633585E+04  0.21918867323E+04 0.  0.
        4    1    3    3  502    0 -0.75599119204E+03  0.63058223272E+03 -0.12134730086E+04  0.15625859945E+04  0.12699999809E+01 0. -1.
       -4    1    3    3    0  502  0.75599119204E+03 -0.63058223272E+03 -0.92316997495E+02  0.98877736402E+03  0.12699999809E+01 0.  1.
</event>
<event>
 5   0  0.2820239E-05  0.2162590E+04  0.7818609E-02  0.8534162E-01
       -1   -1    0    0    0  501  0.00000000000E+00  0.00000000000E+00  0.61706825618E+03  0.61706825620E+03  0.50400001928E-02 0. -1.
        1   -1    0    0  501    0  0.00000000000E+00  0.00000000000E+00 -0.18947635936E+04  0.18947635936E+04  0.50400001928E-02 0.  1.
    10030    2    1    2    0    0  0.00000000000E+00  0.00000000000E+00 -0.12776953374E+04  0.25118318498E+04  0.21625896204E+04 0.  0.
        3    1    3    3  502    0  0.10311152308E+04  0.90147746425E+02 -0.27547823733E+03  0.10710805314E+04  0.10100000352E+00 0. -1.
       -3    1    3    3    0  502 -0.10311152308E+04 -0.90147746425E+02 -0.10022171000E+04  0.14407513183E+04  0.10100000352E+00 0.  1.
</event>
<event>
 5   0  0.2753631E-05  0.2209241E+04  0.7818609E-02  0.8514592E-01
        1   -1    0    0  501    0  0.00000000000E+00  0.00000000000E+00  0.22084879932E+04  0.22084879932E+04  0.50400001928E-02 0.  1.
       -1   -1    0    0    0  501  0.00000000000E+00  0.00000000000E+00 -0.55249840665E+03  0.55249840667E+03  0.50400001928E-02 0. -1.
    10030    2    1    2    0    0  0.00000000000E+00  0.00000000000E+00  0.16559895866E+04  0.27609863999E+04  0.22092406817E+04 0.  0.
        4    1    3    3  502    0  0.14567241796E+03 -0.10692850968E+04  0.53332684190E+03  0.12037567050E+04  0.12699999809E+01 0. -1.
       -4    1    3    3    0  502 -0.14567241796E+03  0.10692850968E+04  0.11226627447E+04  0.15572296949E+04  0.12699999809E+01 0.  1.
</event>
<event>
 5   0  0.2910318E-05  0.2290258E+04  0.7818609E-02  0.8481772E-01
       -1   -1    0    0    0  501  0.00000000000E+00  0.00000000000E+00  0.77853049923E+03  0.77853049924E+03  0.50400001928E-02 0. -1.
        1   -1    0    0  501    0  0.00000000000E+00  0.00000000000E+00 -0.16843537460E+04  0.16843537460E+04  0.50400001928E-02 0.  1.
    10030    2    1    2    0    0  0.00000000000E+00  0.00000000000E+00 -0.90582324677E+03  0.24628842452E+04  0.22902582935E+04 0.  0.
        5    1    3    3  502    0  0.14975916848E+03 -0.97408549390E+02 -0.16692648981E+04  0.16788042245E+04  0.46999998093E+01 0.  1.
       -5    1    3    3    0  502 -0.14975916848E+03  0.97408549390E+02  0.76344165132E+03  0.78408002079E+03  0.46999998093E+01 0. -1.
</event>
<event>
 5   0  0.2753631E-05  0.2200121E+04  0.7818609E-02  0.8518378E-01
        1   -1    0    0  501    0  0.00000000000E+00  0.00000000000E+00  0.23460179171E+04  0.23460179171E+04  0.50400001928E-02 0.  1.
       -1   -1    0    0    0  501  0.00000000000E+00  0.00000000000E+00 -0.51582434683E+03  0.51582434685E+03  0.50400001928E-02 0. -1.
    10030    2    1    2    0    0  0.00000000000E+00  0.00000000000E+00  0.18301935703E+04  0.28618422640E+04  0.22001210510E+04 0.  0.
        4    1    3    3  502    0 -0.13017225873E+03 -0.84517167743E+03  0.14959726823E+02  0.85526919014E+03  0.12699999809E+01 0. -1.
       -4    1    3    3    0  502  0.13017225873E+03  0.84517167743E+03  0.18152338434E+04  0.20065730738E+04  0.12699999809E+01 0.  1.
</event>
<event>
 5   0  0.6306919E-05  0.2155997E+04  0.7818609E-02  0.8536970E-01
        2   -1    0    0  501    0  0.00000000000E+00  0.00000000000E+00  0.19889189204E+04  0.19889189204E+04  0.25500000920E-02 0. -1.
       -2   -1    0    0    0  501  0.00000000000E+00  0.00000000000E+00 -0.58427755263E+03  0.58427755263E+03  0.25500000920E-02 0.  1.
    10030    2    1    2    0    0  0.00000000000E+00  0.00000000000E+00  0.14046413678E+04  0.25731964730E+04  0.21559969195E+04 0.  0.
        3    1    3    3  502    0  0.79320804190E+03 -0.72967870314E+03  0.72821348995E+03  0.13007324493E+04  0.10100000352E+00 0. -1.
       -3    1    3    3    0  502 -0.79320804190E+03  0.72967870314E+03  0.67642787781E+03  0.12724640237E+04  0.10100000352E+00 0.  1.
</event>
<event>
 5   0  0.2908031E-05  0.2230677E+04  0.7818609E-02  0.8505767E-01
        1   -1    0    0  501    0  0.00000000000E+00  0.00000000000E+00  0.19014142135E+04  0.19014142135E+04  0.50400001928E-02 0.  1.
       -1   -1    0    0    0  501  0.00000000000E+00  0.00000000000E+00 -0.65423917717E+03  0.65423917719E+03  0.50400001928E-02 0. -1.
    10030    2    1    2    0    0  0.00000000000E+00  0.00000000000E+00  0.12471750363E+04  0.25556533907E+04  0.22306767319E+04 0.  0.
        1    1    3    3  502    0  0.10663181993E+04 -0.32554518599E+03  0.58798821284E+03  0.12604540089E+04  0.50400001928E-02 0. -1.
       -1    1    3    3    0  502 -0.10663181993E+04  0.32554518599E+03  0.65918682349E+03  0.12951993818E+04  0.50400001928E-02 0.  1.
</event>
<event>
 5   0  0.6306919E-05  0.2202529E+04  0.7818609E-02  0.8517376E-01
       -2   -1    0    0    0  501  0.00000000000E+00  0.00000000000E+00  0.77495379548E+03  0.77495379549E+03  0.25500000920E-02 0.  1.
        2   -1    0    0  501    0  0.00000000000E+00  0.00000000000E+00 -0.15649750956E+04  0.15649750956E+04  0.25500000920E-02 0. -1.
    10030    2    1    2    0    0  0.00000000000E+00  0.00000000000E+00 -0.79002130013E+03  0.23399288911E+04  0.22025289012E+04 0.  0.
        3    1    3    3  502    0 -0.10134839361E+04  0.19173238706E+03  0.14898972833E+02  0.10315682172E+04  0.10100000352E+00 0. -1.
       -3    1    3    3    0  502  0.10134839361E+04 -0.19173238706E+03 -0.80492027296E+03  0.13083606739E+04  0.10100000352E+00 0.  1.
</event>
<event>
 5   0  0.6628798E-05  0.2174133E+04  0.7818609E-02  0.8529272E-01
        2   -1    0    0  501    0  0.00000000000E+00  0.00000000000E+00  0.13244241763E+04  0.13244241763E+04  0.25500000920E-02 0. -1.
       -2   -1    0    0    0  501  0.00000000000E+00  0.00000000000E+00 -0.89224718883E+03  0.89224718883E+03  0.25500000920E-02 0.  1.
    10030    2    1    2    0    0  0.00000000000E+00  0.00000000000E+00  0.43217698749E+03  0.22166713651E+04  0.21741331589E+04 0.  0.
        4    1    3    3  502    0  0.16956148351E+03  0.24172725995E+03 -0.85057836529E+03  0.90037121971E+03  0.12699999809E+01 0.  1.
       -4    1    3    3    0  502 -0.16956148351E+03 -0.24172725995E+03  0.12827553528E+04  0.13163001454E+04  0.12699999809E+01 0. -1.
</event>
<event>
 5   0  0.2753631E-05  0.2240836E+04  0.7818609E-02  0.8501621E-01
        1   -1    0    0  501    0  0.00000000000E+00  0.00000000000E+00  0.12595216710E+04  0.12595216710E+04  0.50400001928E-02 0.  1.
       -1   -1    0    0    0  501  0.00000000000E+00  0.00000000000E+00 -0.99667740562E+03  0.99667740563E+03  0.50400001928E-02 0. -1.
    10030    2    1    2    0    0  0.00000000000E+00  0.00000000000E+00  0.26284426540E+03  0.22561990767E+04  0.22408362648E+04 0.  0.
        4    1    3    3  502    0 -0.10236931527E+04  0.87189982906E+02 -0.31861586364E+03  0.10756706956E+04  0.12699999809E+01 0. -1.
       -4    1    3    3    0  502  0.10236931527E+04 -0.87189982906E+02  0.58146012904E+03  0.11805283811E+04  0.12699999809E+01 0.  1.
</event>
<event>
 5   0  0.2908031E-05  0.1953373E+04  0.7818609E-02  0.8628736E-01
       -1   -1    0    0    0  501  0.00000000000E+00  0.00000000000E+00  0.52511341593E+03  0.52511341596E+03  0.50400001928E-02 0.  1.
        1   -1    0    0  501    0  0.00000000000E+00  0.00000000000E+00 -0.18165911973E+04  0.18165911973E+04  0.50400001928E-02 0. -1.
    10030    2    1    2    0    0  0.00000000000E+00  0.00000000000E+00 -0.12914777813E+04  0.23417046132E+04  0.19533728871E+04 0.  0.
        1    1    3    3  502    0 -0.42563146627E+02  0.61705233604E+03  0.26040784203E+03  0.67110166971E+03  0.50400001928E-02 0.  1.
       -1    1    3    3    0  502  0.42563146627E+02 -0.61705233604E+03 -0.15518856234E+04  0.16706029435E+04  0.50400001928E-02 0. -1.
</event>
<event>
 5   0  0.6414768E-05  0.2205817E+04  0.7818609E-02  0.8516011E-01
       -2   -1    0    0    0  501  0.00000000000E+00  0.00000000000E+00  0.63148138935E+03  0.63148138936E+03  0.25500000920E-02 0.  1.
        2   -1    0    0  501    0  0.00000000000E+00  0.00000000000E+00 -0.19262748306E+04  0.19262748306E+04  0.25500000920E-02 0. -1.
    10030    2    1    2    0    0  0.00000000000E+00  0.00000000000E+00 -0.12947934413E+04  0.25577562200E+04  0.22058165892E+04 0.  0.
        2    1    3    3  502    0  0.31889495266E+03 -0.55077631846E+03 -0.16918669258E+04  0.18076123032E+04  0.25500000920E-02 0. -1.
       -2    1    3    3    0  502 -0.31889495266E+03  0.55077631846E+03  0.39707348455E+03  0.75014391683E+03  0.25500000920E-02 0.  1.
</event>
<event>
 5   0  0.6306919E-05  0.2256974E+04  0.7818609E-02  0.8495082E-01
        2   -1    0    0  501    0  0.00000000000E+00  0.00000000000E+00  0.26515708477E+04  0.26515708477E+04  0.25500000920E-02 0.  1.
       -2   -1    0    0    0  501  0.00000000000E+00  0.00000000000E+00 -0.48027470892E+03  0.48027470892E+03  0.25500000920E-02 0. -1.
    10030    2    1    2    0    0  0.00000000000E+00  0.00000000000E+00  0.21712961387E+04  0.31318455566E+04  0.22569735639E+04 0.  0.
        3    1    3    3  502    0  0.11241079594E+04 -0.91597186643E+02  0.10323793587E+04  0.15289917919E+04  0.10100000352E+00 0.  1.
       -3    1    3    3    0  502 -0.11241079594E+04  0.91597186643E+02  0.11389167800E+04  0.16028537647E+04  0.10100000352E+00 0. -1.
</event>
<event>
 5   0  0.2753631E-05  0.2198253E+04  0.7818609E-02  0.8519156E-01
       -1   -1    0    0    0  501  0.00000000000E+00  0.00000000000E+00  0.18447288413E+04  0.18447288413E+04  0.50400001928E-02 0. -1.
        1   -1    0    0  501    0  0.00000000000E+00  0.00000000000E+00 -0.65488162334E+03  0.65488162336E+03  0.50400001928E-02 0.  1.
    10030    2    1    2    0    0  0.00000000000E+00  0.00000000000E+00  0.11898472179E+04  0.24996104646E+04  0.21982529593E+04 0.  0.
        4    1    3    3  502    0 -0.40455049092E+03 -0.48954598504E+03  0.16149892930E+04  0.17353698166E+04  0.12699999809E+01 0. -1.
       -4    1    3    3    0  502  0.40455049092E+03  0.48954598504E+03 -0.42514207504E+03  0.76424064800E+03  0.12699999809E+01 0.  1.
</event>
<event>
 5   0  0.2929471E-05  0.2184903E+04  0.7818609E-02  0.8524738E-01
        1   -1    0    0  501    0  0.00000000000E+00  0.00000000000E+00  0.86402329203E+03  0.86402329205E+03  0.50400001928E-02 0. -1.
       -1   -1    0    0    0  501  0.00000000000E+00  0.00000000000E+00 -0.13812713719E+04  0.13812713719E+04  0.50400001928E-02 0.  1.
    10030    2    1    2    0    0  0.00000000000E+00  0.00000000000E+00 -0.51724807985E+03  0.22452946639E+04  0.21849033278E+04 0.  0.
        2    1    3    3  502    0 -0.21164009009E+03 -0.41433367474E+03  0.75712272425E+03  0.88864995434E+03  0.25500000920E-02 0. -1.
       -2    1    3    3    0  502  0.21164009009E+03  0.41433367474E+03 -0.12743708041E+04  0.13566447096E+04  0.25500000920E-02 0.  1.
</event>
<event>
 5   0  0.2908031E-05  0.2177334E+04  0.7818609E-02  0.8527922E-01
       -1   -1    0    0    0  501  0.00000000000E+00  0.00000000000E+00  0.18826001489E+04  0.18826001489E+04  0.50400001928E-02 0. -1.
        1   -1    0    0  501    0  0.00000000000E+00  0.00000000000E+00 -0.62955246330E+03  0.62955246332E+03  0.50400001928E-02 0.  1.
    10030    2    1    2    0    0  0.00000000000E+00  0.00000000000E+00  0.12530476856E+04  0.25121526122E+04  0.21773337467E+04 0.  0.
        1    1    3    3  502    0 -0.41184360229E+03 -0.71708848934E+03  0.14434782276E+04  0.16635685883E+04  0.50400001928E-02 0. -1.
       -1    1    3    3    0  502  0.41184360229E+03  0.71708848934E+03 -0.19043054203E+03  0.84858402393E+03  0.50400001928E-02 0.  1.
</event>
<event>
 5   0  0.6414768E-05  0.2224072E+04  0.7818609E-02  0.8508475E-01
       -2   -1    0    0    0  501  0.00000000000E+00  0.00000000000E+00  0.57971939089E+03  0.57971939089E+03  0.25500000920E-02 0. -1.
        2   -1    0    0  501    0  0.00000000000E+00  0.00000000000E+00 -0.21331433443E+04  0.21331433443E+04  0.25500000920E-02 0.  1.
    10030    2    1    2    0    0  0.00000000000E+00  0.00000000000E+00 -0.15534239534E+04  0.27128627352E+04  0.22240724451E+04 0.  0.
        2    1    3    3  502    0  0.58216399767E+03  0.14551619151E+03 -0.19187049766E+04  0.20103528719E+04  0.25500000920E-02 0.  1.
       -2    1    3    3    0  502 -0.58216399767E+03 -0.14551619151E+03  0.36528102319E+03  0.70250986333E+03  0.25500000920E-02 0. -1.
</event>
<event>
 5   0  0.2910318E-05  0.2217390E+04  0.7818609E-02  0.8511225E-01
       -1   -1    0    0    0  501  0.00000000000E+00  0.00000000000E+00  0.88844256347E+03  0.88844256348E+03  0.50400001928E-02 0. -1.
        1   -1    0    0  501    0  0.00000000000E+00  0.00000000000E+00 -0.13835504464E+04  0.13835504464E+04  0.50400001928E-02 0.  1.
    10030    2    1    2    0    0  0.00000000000E+00  0.00000000000E+00 -0.49510788296E+03  0.22719930099E+04  0.22173904531E+04 0.  0.
        5    1    3    3  502    0  0.62259967851E+03  0.82214630724E+03  0.16944200586E+03  0.10451256353E+04  0.46999998093E+01 0. -1.
       -5    1    3    3    0  502 -0.62259967851E+03 -0.82214630724E+03 -0.66454988882E+03  0.12268673746E+04  0.46999998093E+01 0.  1.
</event>
<event>
 5   0  0.2820239E-05  0.2207629E+04  0.7818609E-02  0.8515259E-01
        1   -1    0    0  501    0  0.00000000000E+00  0.00000000000E+00  0.17602103097E+04  0.17602103097E+04  0.50400001928E-02 0.  1.
       -1   -1    0    0    0  501  0.00000000000E+00  0.00000000000E+00 -0.69219368819E+03  0.69219368821E+03  0.50400001928E-02 0. -1.
    10030    2    1    2    0    0  0.00000000000E+00  0.00000000000E+00  0.10680166215E+04  0.24524039979E+04  0.22076290144E+04 0.  0.
        3    1    3    3  502    0 -0.83338122846E+03 -0.37770434148E+03 -0.15188201979E+03  0.92749824779E+03  0.10100000352E+00 0. -1.
       -3    1    3    3    0  502  0.83338122846E+03  0.37770434148E+03  0.12198986413E+04  0.15249057501E+04  0.10100000352E+00 0.  1.
</event>
<event>
 5   0  0.6306919E-05  0.1968191E+04  0.7818609E-02  0.8621638E-01
       -2   -1    0    0    0  501  0.00000000000E+00  0.00000000000E+00  0.20941489680E+04  0.20941489680E+04  0.25500000920E-02 0. -1.
        2   -1    0    0  501    0  0.00000000000E+00  0.00000000000E+00 -0.46245234380E+03  0.46245234381E+03  0.25500000920E-02 0.  1.
    10030    2    1    2    0    0  0.00000000000E+00  0.00000000000E+00  0.16316966242E+04  0.25566013118E+04  0.19681911477E+04 0.  0.
        3    1    3    3  502    0  0.18610416283E+03  0.93460093947E+03  0.49679454126E+03  0.10746713460E+04  0.10100000352E+00 0.  1.
       -3    1    3    3    0  502 -0.18610416283E+03 -0.93460093947E+03  0.11349020829E+04  0.14819299658E+04  0.10100000352E+00 0. -1.
</event>
<event>
 5   0  0.6306919E-05  0.2206446E+04  0.7818609E-02  0.8515750E-01
        2   -1    0    0  501    0  0.00000000000E+00  0.00000000000E+00  0.13243093778E+04  0.13243093778E+04  0.25500000920E-02 0.  1.
       -2   -1    0    0    0  501  0.00000000000E+00  0.00000000000E+00 -0.91904618230E+03  0.91904618230E+03  0.25500000920E-02 0. -1.
    10030    2    1    2    0    0  0.00000000000E+00  0.00000000000E+00  0.40526319550E+03  0.22433555601E+04  0.22064464443E+04 0.  0.
        3    1    3    3  502    0  0.34533045919E+03  0.59659373802E+03 -0.67312719431E+03  0.96347155859E+03  0.10100000352E+00 0. -1.
       -3    1    3    3    0  502 -0.34533045919E+03 -0.59659373802E+03  0.10783903898E+04  0.12798840015E+04  0.10100000352E+00 0.  1.
</event>
<event>
 5   0  0.2908031E-05  0.2204518E+04  0.7818609E-02  0.8516550E-01
       -1   -1    0    0    0  501  0.00000000000E+00  0.00000000000E+00  0.12042808593E+04  0.12042808593E+04  0.50400001928E-02 0.  1.
        1   -1    0    0  501    0  0.00000000000E+00  0.00000000000E+00 -0.10088804082E+04  0.10088804083E+04  0.50400001928E-02 0. -1.
    10030    2    1    2    0    0  0.00000000000E+00  0.00000000000E+00  0.19540045102E+03  0.22131612675E+04  0.22045184190E+04 0.  0.
        1    1    3    3  502    0 -0.35840689088E+03 -0.98117300856E+03  0.45095957445E+03  0.11377699723E+04  0.50400001928E-02 0.  1.
       -1    1    3    3    0  502  0.35840689088E+03  0.98117300856E+03 -0.25555912343E+03  0.10753912952E+04  0.50400001928E-02 0. -1.
</event>
<event>
 5   0  0.6293013E-05  0.2205799E+04  0.7818609E-02  0.8516018E-01
        2   -1    0    0  501    0  0.00000000000E+00  0.00000000000E+00  0.20062795947E+04  0.20062795947E+04  0.25500000920E-02 0.  1.
       -2   -1    0    0    0  501  0.00000000000E+00  0.00000000000E+00 -0.60629022094E+03  0.60629022094E+03  0.25500000920E-02 0. -1.
    10030    2    1    2    0    0  0.00000000000E+00  0.00000000000E+00  0.13999893738E+04  0.26125698157E+04  0.22057993551E+04 0.  0.
        1    1    3    3  502    0 -0.14248971663E+03 -0.89802505071E+03 -0.39323000519E+02  0.91010911953E+03  0.50400001928E-02 0. -1.
       -1    1    3    3    0  502  0.14248971663E+03  0.89802505071E+03  0.14393123743E+04  0.17024606962E+04  0.50400001928E-02 0.  1.
</event>
<event>
 5   0  0.2929471E-05  0.2197092E+04  0.7818609E-02  0.8519639E-01
       -1   -1    0    0    0  501  0.00000000000E+00  0.00000000000E+00  0.12574030315E+04  0.12574030315E+04  0.50400001928E-02 0. -1.
        1   -1    0    0  501    0  0.00000000000E+00  0.00000000000E+00 -0.95975859585E+03  0.95975859586E+03  0.50400001928E-02 0.  1.
    10030    2    1    2    0    0  0.00000000000E+00  0.00000000000E+00  0.29764443566E+03  0.22171616274E+04  0.21970920490E+04 0.  0.
        2    1    3    3  502    0  0.58946345773E+03  0.92387699404E+03  0.22559275824E+03  0.11188869294E+04  0.25500000920E-02 0.  1.
       -2    1    3    3    0  502 -0.58946345773E+03 -0.92387699404E+03  0.72051677418E+02  0.10982746980E+04  0.25500000920E-02 0. -1.
</event>
<event>
 5   0  0.2908031E-05  0.1837388E+04  0.7818609E-02  0.8686666E-01
       -1   -1    0    0    0  501  0.00000000000E+00  0.00000000000E+00  0.10622306669E+04  0.10622306669E+04  0.50400001928E-02 0.  1.
        1   -1    0    0  501    0  0.00000000000E+00  0.00000000000E+00 -0.79455337282E+03  0.79455337284E+03  0.50400001928E-02 0. -1.
    10030    2    1    2    0    0  0.00000000000E+00  0.00000000000E+00  0.26767729407E+03  0.18567840397E+04  0.18373883195E+04 0.  0.
        1    1    3    3  502    0 -0.16896292647E+03  0.24783319976E+03 -0.74367630184E+03  0.80188790200E+03  0.50400001928E-02 0. -1.
       -1    1    3    3    0  502  0.16896292647E+03 -0.24783319976E+03  0.10113535959E+04  0.10548961377E+04  0.50400001928E-02 0.  1.
</event>
<event>
 5   0  0.2245375E-05  0.1986743E+04  0.7818609E-02  0.8612844E-01
       -4   -1    0    0    0  501  0.00000000000E+00  0.00000000000E+00  0.83262970024E+03  0.83263066880E+03  0.12699999809E+01 0. -1.
        4   -1    0    0  501    0  0.00000000000E+00  0.00000000000E+00 -0.11851429707E+04  0.11851436511E+04  0.12699999809E+01 0.  1.
    10030    2    1    2    0    0  0.00000000000E+00  0.00000000000E+00 -0.35251327041E+03  0.20177743199E+04  0.19867429628E+04 0.  0.
        5    1    3    3  502    0 -0.33170336863E+02 -0.14033974760E+03 -0.11744451483E+04  0.11832746986E+04  0.46999998093E+01 0.  1.
       -5    1    3    3    0  502  0.33170336863E+02  0.14033974760E+03  0.82193187791E+03  0.83449962129E+03  0.46999998093E+01 0. -1.
</event>
<event>
 5   0  0.6293013E-05  0.2234883E+04  0.7818609E-02  0.8504048E-01
        2   -1    0    0  501    0  0.00000000000E+00  0.00000000000E+00  0.23850835157E+04  0.23850835157E+04  0.25500000920E-02 0.  1.
       -2   -1    0    0    0  501  0.00000000000E+00  0.00000000000E+00 -0.52353523735E+03  0.52353523736E+03  0.25500000920E-02 0. -1.
    10030    2    1    2    0    0  0.00000000000E+00  0.00000000000E+00  0.18615482783E+04  0.29086187530E+04  0.22348827839E+04 0.  0.
        1    1    3    3  502    0 -0.88416018961E+03  0.16430868008E+03  0.67540960665E+02  0.90183056315E+03  0.50400001928E-02 0. -1.
       -1    1    3    3    0  502  0.88416018961E+03 -0.16430868008E+03  0.17940073177E+04  0.20067881899E+04  0.50400001928E-02 0.  1.
</event>
<event>
 5   0  0.2753631E-05  0.2308036E+04  0.7818609E-02  0.8474759E-01
        1   -1    0    0  501    0  0.00000000000E+00  0.00000000000E+00  0.18172537420E+04  0.18172537420E+04  0.50400001928E-02 0.  1.
       -1   -1    0    0    0  501  0.00000000000E+00  0.00000000000E+00 -0.73284093716E+03  0.73284093718E+03  0.50400001928E-02 0. -1.
    10030    2    1    2    0    0  0.00000000000E+00  0.00000000000E+00  0.10844128049E+04  0.25500946792E+04  0.23080363389E+04 0.  0.
        4    1    3    3  502    0 -0.62041195814E+03 -0.31034735913E+03 -0.47675665910E+03  0.84173927437E+03  0.12699999809E+01 0. -1.
       -4    1    3    3    0  502  0.62041195814E+03  0.31034735913E+03  0.15611694640E+04  0.17083554049E+04  0.12699999809E+01 0.  1.
</event>
<event>
 5   0  0.2929471E-05  0.2179955E+04  0.7818609E-02  0.8526818E-01
        1   -1    0    0  501    0  0.00000000000E+00  0.00000000000E+00  0.19631199867E+04  0.19631199867E+04  0.50400001928E-02 0.  1.
       -1   -1    0    0    0  501  0.00000000000E+00  0.00000000000E+00 -0.60518528146E+03  0.60518528148E+03  0.50400001928E-02 0. -1.
    10030    2    1    2    0    0  0.00000000000E+00  0.00000000000E+00  0.13579347052E+04  0.25683052682E+04  0.21799553406E+04 0.  0.
        2    1    3    3  502    0 -0.41435767561E+03  0.35534029513E+02 -0.50803801724E+03  0.65654975254E+03  0.25500000920E-02 0. -1.
       -2    1    3    3    0  502  0.41435767561E+03 -0.35534029513E+02  0.18659727225E+04  0.19117555157E+04  0.25500000920E-02 0.  1.
</event>
<event>
 5   0  0.6414768E-05  0.2244732E+04  0.7818609E-02  0.8500037E-01
        2   -1    0    0  501    0  0.00000000000E+00  0.00000000000E+00  0.19631542431E+04  0.19631542431E+04  0.25500000920E-02 0.  1.
       -2   -1    0    0    0  501  0.00000000000E+00  0.00000000000E+00 -0.64167403406E+03  0.64167403406E+03  0.25500000920E-02 0. -1.
    10030    2    1    2    0    0  0.00000000000E+00  0.00000000000E+00  0.13214802091E+04  0.26048282772E+04  0.22447317013E+04 0.  0.
        2    1    3    3  502    0 -0.95939603648E+03 -0.62917229611E+02  0.13326873398E+04  0.16433060817E+04  0.25500000920E-02 0.  1.
       -2    1    3    3    0  502  0.95939603648E+03  0.62917229611E+02 -0.11207130707E+02  0.96152219547E+03  0.25500000920E-02 0. -1.
</event>
<event>
 5   0  0.2820239E-05  0.2205961E+04  0.7818609E-02  0.8515951E-01
        1   -1    0    0  501    0  0.00000000000E+00  0.00000000000E+00  0.14914702052E+04  0.14914702052E+04  0.50400001928E-02 0.  1.
       -1   -1    0    0    0  501  0.00000000000E+00  0.00000000000E+00 -0.81568205012E+03  0.81568205014E+03  0.50400001928E-02 0. -1.
    10030    2    1    2    0    0  0.00000000000E+00  0.00000000000E+00  0.67578815508E+03  0.23071522553E+04  0.22059605388E+04 0.  0.
        3    1    3    3  502    0  0.35634007179E+03 -0.59053493195E+03 -0.56231903215E+03  0.88989463237E+03  0.10100000352E+00 0. -1.
       -3    1    3    3    0  502 -0.35634007179E+03  0.59053493195E+03  0.12381071872E+04  0.14172576230E+04  0.10100000352E+00 0.  1.
</event>
<event>
 5   0  0.6445740E-05  0.2202420E+04  0.7818609E-02  0.8517422E-01
       -2   -1    0    0    0  501  0.00000000000E+00  0.00000000000E+00  0.96351510669E+03  0.96351510669E+03  0.25500000920E-02 0.  1.
        2   -1    0    0  501    0  0.00000000000E+00  0.00000000000E+00 -0.12585823942E+04  0.12585823942E+04  0.25500000920E-02 0. -1.
    10030    2    1    2    0    0  0.00000000000E+00  0.00000000000E+00 -0.29506728750E+03  0.22220975009E+04  0.22024197146E+04 0.  0.
        5    1    3    3  502    0 -0.48896238221E+03  0.75702844381E+03 -0.78601054575E+03  0.11958306502E+04  0.46999998093E+01 0. -1.
       -5    1    3    3    0  502  0.48896238221E+03 -0.75702844381E+03  0.49094325825E+03  0.10262668507E+04  0.46999998093E+01 0.  1.
</event>
<event>
 5   0  0.2820239E-05  0.2235722E+04  0.7818609E-02  0.8503705E-01
        1   -1    0    0  501    0  0.00000000000E+00  0.00000000000E+00  0.13941854154E+04  0.13941854154E+04  0.50400001928E-02 0. -1.
       -1   -1    0    0    0  501  0.00000000000E+00  0.00000000000E+00 -0.89630357932E+03  0.89630357933E+03  0.50400001928E-02 0.  1.
    10030    2    1    2    0    0  0.00000000000E+00  0.00000000000E+00  0.49788183612E+03  0.22904889948E+04  0.22357221456E+04 0.  0.
        3    1    3    3  502    0  0.30146817319E+03  0.85882924934E+03 -0.41591108677E+03  0.10007261270E+04  0.10100000352E+00 0.  1.
       -3    1    3    3    0  502 -0.30146817319E+03 -0.85882924934E+03  0.91379292289E+03  0.12897628678E+04  0.10100000352E+00 0. -1.
</event>
<event>
 5   0  0.6414768E-05  0.2202880E+04  0.7818609E-02  0.8517230E-01
       -2   -1    0    0    0  501  0.00000000000E+00  0.00000000000E+00  0.85659274381E+03  0.85659274381E+03  0.25500000920E-02 0.  1.
        2   -1    0    0  501    0  0.00000000000E+00  0.00000000000E+00 -0.14162737075E+04  0.14162737075E+04  0.25500000920E-02 0. -1.
    10030    2    1    2    0    0  0.00000000000E+00  0.00000000000E+00 -0.55968096369E+03  0.22728664513E+04  0.22028797344E+04 0.  0.
        2    1    3    3  502    0 -0.22999585511E+03 -0.69567056304E+03  0.56867030819E+03  0.92749207278E+03  0.25500000920E-02 0.  1.
       -2    1    3    3    0  502  0.22999585511E+03  0.69567056304E+03 -0.11283512719E+04  0.13453743785E+04  0.25500000920E-02 0. -1.
</event>
<event>
 5   0  0.6414768E-05  0.2196790E+04  0.7818609E-02  0.8519765E-01
        2   -1    0    0  501    0  0.00000000000E+00  0.00000000000E+00  0.15009142517E+04  0.15009142517E+04  0.25500000920E-02 0.  1.
       -2   -1    0    0    0  501  0.00000000000E+00  0.00000000000E+00 -0.80382422485E+03  0.80382422485E+03  0.25500000920E-02 0. -1.
    10030    2    1    2    0    0  0.00000000000E+00  0.00000000000E+00  0.69709002684E+03  0.23047384765E+04  0.21967896895E+04 0.  0.
        2    1    3    3  502    0  0.62557714844E+03 -0.76608392298E+03  0.84976565100E+03  0.13039681773E+04  0.25500000920E-02 0.  1.
       -2    1    3    3    0  502 -0.62557714844E+03  0.76608392298E+03 -0.15267562417E+03  0.10007702993E+04  0.25500000920E-02 0. -1.
</event>
<event>
 5   0  0.2908031E-05  0.2208802E+04  0.7818609E-02  0.8514774E-01
       -1   -1    0    0    0  501  0.00000000000E+00  0.00000000000E+00  0.64967741265E+03  0.64967741267E+03  0.50400001928E-02 0. -1.
        1   -1    0    0  501    0  0.00000000000E+00  0.00000000000E+00 -0.18773954313E+04  0.18773954313E+04  0.50400001928E-02 0.  1.
    10030    2    1    2    0    0  0.00000000000E+00  0.00000000000E+00 -0.12277180186E+04  0.25270728439E+04  0.22088018529E+04 0.  0.
        1    1    3    3  502    0  0.27617635779E+03  0.66585843494E+02  0.60715820826E+03  0.67033435317E+03  0.50400001928E-02 0. -1.
       -1    1    3    3    0  502 -0.27617635779E+03 -0.66585843494E+02 -0.18348762269E+04  0.18567384908E+04  0.50400001928E-02 0.  1.
</event>
<event>
 5   0  0.6306919E-05  0.2079249E+04  0.7818609E-02  0.8570440E-01
       -2   -1    0    0    0  501  0.00000000000E+00  0.00000000000E+00  0.60808446629E+03  0.60808446630E+03  0.25500000920E-02 0.  1.
        2   -1    0    0  501    0  0.00000000000E+00  0.00000000000E+00 -0.17774152847E+04  0.17774152847E+04  0.25500000920E-02 0. -1.
    10030    2    1    2    0    0  0.00000000000E+00  0.00000000000E+00 -0.11693308184E+04  0.23854997510E+04  0.20792485419E+04 0.  0.
        3    1    3    3  502    0 -0.80862609214E+03 -0.62672391526E+03 -0.79671102894E+03  0.12966909796E+04  0.10100000352E+00 0.  1.
       -3    1    3    3    0  502  0.80862609214E+03  0.62672391526E+03 -0.37261978945E+03  0.10888087713E+04  0.10100000352E+00 0. -1.
</event>
<event>
 5   0  0.6414768E-05  0.2193680E+04  0.7818609E-02  0.8521063E-01
        2   -1    0    0  501    0  0.00000000000E+00  0.00000000000E+00  0.14145481358E+04  0.14145481358E+04  0.25500000920E-02 0.  1.
       -2   -1    0    0    0  501  0.00000000000E+00  0.00000000000E+00 -0.85048891387E+03  0.85048891387E+03  0.25500000920E-02 0. -1.
    10030    2    1    2    0    0  0.00000000000E+00  0.00000000000E+00  0.56405922190E+03  0.22650370496E+04  0.21936795642E+04 0.  0.
        2    1    3    3  502    0  0.89207126936E+03 -0.36627648463E+03  0.82162626504E+03  0.12668935757E+04  0.25500000920E-02 0.  1.
       -2    1    3    3    0  502 -0.89207126936E+03  0.36627648463E+03 -0.25756704314E+03  0.99814347392E+03  0.25500000920E-02 0. -1.
</event>
<event>
 5   0  0.2820239E-05  0.2206749E+04  0.7818609E-02  0.8515624E-01
        1   -1    0    0  501    0  0.00000000000E+00  0.00000000000E+00  0.19336933446E+04  0.19336933446E+04  0.50400001928E-02 0. -1.
       -1   -1    0    0    0  501  0.00000000000E+00  0.00000000000E+00 -0.62959080378E+03  0.62959080381E+03  0.50400001928E-02 0.  1.
    10030    2    1    2    0    0  0.00000000000E+00  0.00000000000E+00  0.13041025408E+04  0.25632841484E+04  0.22067492355E+04 0.  0.
        3    1    3    3  502    0 -0.27941736812E+02 -0.99022913095E+03  0.12164587229E+04  0.15687913523E+04  0.10100000352E+00 0. -1.
       -3    1    3    3    0  502  0.27941736812E+02  0.99022913095E+03  0.87643817907E+02  0.99449279608E+03  0.10100000352E+00 0.  1.
</event>
<event>
 5   0  0.2820239E-05  0.2209516E+04  0.7818609E-02  0.8514478E-01
        1   -1    0    0  501    0  0.00000000000E+00  0.00000000000E+00  0.20676115103E+04  0.20676115103E+04  0.50400001928E-02 0. -1.
       -1   -1    0    0    0  501  0.00000000000E+00  0.00000000000E+00 -0.59028969796E+03  0.59028969798E+03  0.50400001928E-02 0.  1.
    10030    2    1    2    0    0  0.00000000000E+00  0.00000000000E+00  0.14773218124E+04  0.26579012083E+04  0.22095155795E+04 0.  0.
        3    1    3    3  502    0 -0.95419788396E+03  0.83923494372E+01  0.14083459243E+04  0.17011767356E+04  0.10100000352E+00 0. -1.
       -3    1    3    3    0  502  0.95419788396E+03 -0.83923494372E+01  0.68975888100E+02  0.95672447268E+03  0.10100000352E+00 0.  1.
</event>
<event>
 5   0  0.2753631E-05  0.2196159E+04  0.7818609E-02  0.8520028E-01
        1   -1    0    0  501    0  0.00000000000E+00  0.00000000000E+00  0.20804897577E+04  0.20804897577E+04  0.50400001928E-02 0.  1.
       -1   -1    0    0    0  501  0.00000000000E+00  0.00000000000E+00 -0.57956489600E+03  0.57956489602E+03  0.50400001928E-02 0. -1.
    10030    2    1    2    0    0  0.00000000000E+00  0.00000000000E+00  0.15009248617E+04  0.26600546537E+04  0.21961592202E+04 0.  0.
        4    1    3    3  502    0 -0.81206185492E+03 -0.58980074663E+03  0.21086259533E+03  0.10255603463E+04  0.12699999809E+01 0. -1.
       -4    1    3    3    0  502  0.81206185492E+03  0.58980074663E+03  0.12900622663E+04  0.16344943074E+04  0.12699999809E+01 0.  1.
</event>
<event>
 5   0  0.6306919E-05  0.2202229E+04  0.7818609E-02  0.8517501E-01
       -2   -1    0    0    0  501  0.00000000000E+00  0.00000000000E+00  0.17272119822E+04  0.17272119822E+04  0.25500000920E-02 0. -1.
        2   -1    0    0  501    0  0.00000000000E+00  0.00000000000E+00 -0.70197123742E+03  0.70197123742E+03  0.25500000920E-02 0.  1.
    10030    2    1    2    0    0  0.00000000000E+00  0.00000000000E+00  0.10252407448E+04  0.24291832196E+04  0.22022289912E+04 0.  0.
        3    1    3    3  502    0 -0.74019631987E+03  0.25413837765E+02 -0.38616207538E+03  0.83525900998E+03  0.10100000352E+00 0.  1.
       -3    1    3    3    0  502  0.74019631987E+03 -0.25413837765E+02  0.14114028202E+04  0.15939242096E+04  0.10100000352E+00 0. -1.
</event>
<event>
 5   0  0.6414768E-05  0.2217624E+04  0.7818609E-02  0.8511128E-01
        2   -1    0    0  501    0  0.00000000000E+00  0.00000000000E+00  0.21370269616E+04  0.21370269616E+04  0.25500000920E-02 0.  1.
       -2   -1    0    0    0  501  0.00000000000E+00  0.00000000000E+00 -0.57531502295E+03  0.57531502295E+03  0.25500000920E-02 0. -1.
    10030    2    1    2    0    0  0.00000000000E+00  0.00000000000E+00  0.15617119386E+04  0.27123419845E+04  0.22176236971E+04 0.  0.
        2    1    3    3  502    0 -0.64210404705E+03  0.85373584038E+03  0.41740992013E+03  0.11469060702E+04  0.25500000920E-02 0. -1.
       -2    1    3    3    0  502  0.64210404705E+03 -0.85373584038E+03  0.11443020185E+04  0.15654359143E+04  0.25500000920E-02 0.  1.
</event>
<event>
 5   0  0.6628798E-05  0.2188201E+04  0.7818609E-02  0.8523355E-01
       -2   -1    0    0    0  501  0.00000000000E+00  0.00000000000E+00  0.18264195836E+04  0.18264195836E+04  0.25500000920E-02 0.  1.
        2   -1    0    0  501    0  0.00000000000E+00  0.00000000000E+00 -0.65541143744E+03  0.65541143744E+03  0.25500000920E-02 0. -1.
    10030    2    1    2    0    0  0.00000000000E+00  0.00000000000E+00  0.11710081462E+04  0.24818310211E+04  0.21882013479E+04 0.  0.
        4    1    3    3  502    0 -0.44870742998E+03 -0.45579910000E+02  0.17160785976E+04  0.17743571376E+04  0.12699999809E+01 0.  1.
       -4    1    3    3    0  502  0.44870742998E+03  0.45579910000E+02 -0.54507045137E+03  0.70747388346E+03  0.12699999809E+01 0. -1.
</event>
<event>
 5   0  0.2929471E-05  0.2198935E+04  0.7818609E-02  0.8518872E-01
        1   -1    0    0  501    0  0.00000000000E+00  0.00000000000E+00  0.19936552001E+04  0.19936552001E+04  0.50400001928E-02 0. -1.
       -1   -1    0    0    0  501  0.00000000000E+00  0.00000000000E+00 -0.60633787698E+03  0.60633787700E+03  0.50400001928E-02 0.  1.
    10030    2    1    2    0    0  0.00000000000E+00  0.00000000000E+00  0.13873173231E+04  0.25999930771E+04  0.21989348890E+04 0.  0.
        2    1    3    3  502    0  0.62407660358E+03 -0.70675449408E+03  0.24950708613E+02  0.94318400108E+03  0.25500000920E-02 0.  1.
       -2    1    3    3    0  502 -0.62407660358E+03  0.70675449408E+03  0.13623666145E+04  0.16568090760E+04  0.25500000920E-02 0. -1.
</event>
<event>
 5   0  0.2245375E-05  0.2019375E+04  0.7818609E-02  0.8597615E-01
       -3   -1    0    0    0  501  0.00000000000E+00  0.00000000000E+00  0.14287519388E+04  0.14287519424E+04  0.10100000352E+00 0. -1.
        3   -1    0    0  501    0  0.00000000000E+00  0.00000000000E+00 -0.71353796226E+03  0.71353796941E+03  0.10100000352E+00 0.  1.
    10030    2    1    2    0    0  0.00000000000E+00  0.00000000000E+00  0.71521397658E+03  0.21422899118E+04  0.20193749117E+04 0.  0.
        3    1    3    3  502    0  0.13964931252E+03  0.93161680191E+03  0.74312255688E+03  0.11998512161E+04  0.10100000352E+00 0. -1.
       -3    1    3    3    0  502 -0.13964931252E+03 -0.93161680191E+03 -0.27908580302E+02  0.94243869570E+03  0.10100000352E+00 0.  1.
</event>
<event>
 5   0  0.6306919E-05  0.2191286E+04  0.7818609E-02  0.8522064E-01
        2   -1    0    0  501    0  0.00000000000E+00  0.00000000000E+00  0.19312057209E+04  0.19312057209E+04  0.25500000920E-02 0. -1.
       -2   -1    0    0    0  501  0.00000000000E+00  0.00000000000E+00 -0.62159806353E+03  0.62159806353E+03  0.25500000920E-02 0.  1.
    10030    2    1    2    0    0  0.00000000000E+00  0.00000000000E+00  0.13096076574E+04  0.25528037845E+04  0.21912861396E+04 0.  0.
        3    1    3    3  502    0  0.20713892642E+03  0.10402338073E+04  0.97478287248E+03  0.14405535628E+04  0.10100000352E+00 0. -1.
       -3    1    3    3    0  502 -0.20713892642E+03 -0.10402338073E+04  0.33482478492E+03  0.11122502216E+04  0.10100000352E+00 0.  1.
</event>
<event>
 5   0  0.6414768E-05  0.2245254E+04  0.7818609E-02  0.8499825E-01
        2   -1    0    0  501    0  0.00000000000E+00  0.00000000000E+00  0.15367278608E+04  0.15367278608E+04  0.25500000920E-02 0.  1.
       -2   -1    0    0    0  501  0.00000000000E+00  0.00000000000E+00 -0.82011346665E+03  0.82011346666E+03  0.25500000920E-02 0. -1.
    10030    2    1    2    0    0  0.00000000000E+00  0.00000000000E+00  0.71661439418E+03  0.23568413275E+04  0.22452538505E+04 0.  0.
        2    1    3    3  502    0 -0.10743139807E+04 -0.30843251800E+03  0.24816344832E+03  0.11449306723E+04  0.25500000920E-02 0.  1.
       -2    1    3    3    0  502  0.10743139807E+04  0.30843251800E+03  0.46845094586E+03  0.12119106551E+04  0.25500000920E-02 0. -1.
</event>
<event>
 5   0  0.2908031E-05  0.2096944E+04  0.7818609E-02  0.8562591E-01
       -1   -1    0    0    0  501  0.00000000000E+00  0.00000000000E+00  0.11121882036E+04  0.11121882036E+04  0.50400001928E-02 0. -1.
        1   -1    0    0  501    0  0.00000000000E+00  0.00000000000E+00 -0.98840614184E+03  0.98840614185E+03  0.50400001928E-02 0.  1.
    10030    2    1    2    0    0  0.00000000000E+00  0.00000000000E+00  0.12378206173E+03  0.21005943454E+04  0.20969441111E+04 0.  0.
        1    1    3    3  502    0 -0.66514504926E+03 -0.48810673168E+03 -0.58624957505E+03  0.10121040867E+04  0.50400001928E-02 0.  1.
       -1    1    3    3    0  502  0.66514504926E+03  0.48810673168E+03  0.71003163679E+03  0.10884902587E+04  0.50400001928E-02 0. -1.
</event>
<event>
 5   0  0.2820239E-05  0.2176145E+04  0.7818609E-02  0.8528423E-01
       -1   -1    0    0    0  501  0.00000000000E+00  0.00000000000E+00  0.12244009586E+04  0.12244009586E+04  0.50400001928E-02 0. -1.
        1   -1    0    0  501    0  0.00000000000E+00  0.00000000000E+00 -0.96692336737E+03  0.96692336739E+03  0.50400001928E-02 0.  1.
    10030    2    1    2    0    0  0.00000000000E+00  0.00000000000E+00  0.25747759125E+03  0.21913243260E+04  0.21761451220E+04 0.  0.
        3    1    3    3  502    0  0.73172820032E+03  0.70352824005E+03  0.52329291537E+03  0.11420217289E+04  0.10100000352E+00 0. -1.
       -3    1    3    3    0  502 -0.73172820032E+03 -0.70352824005E+03 -0.26581532412E+03  0.10493025972E+04  0.10100000352E+00 0.  1.
</event>
<event>
 5   0  0.2753631E-05  0.2214850E+04  0.7818609E-02  0.8512272E-01
       -1   -1    0    0    0  501  0.00000000000E+00  0.00000000000E+00  0.16713423338E+04  0.16713423338E+04  0.50400001928E-02 0. -1.
        1   -1    0    0  501    0  0.00000000000E+00  0.00000000000E+00 -0.73377580753E+03  0.73377580754E+03  0.50400001928E-02 0.  1.
    10030    2    1    2    0    0  0.00000000000E+00  0.00000000000E+00  0.93756652627E+03  0.24051181413E+04  0.22148503973E+04 0.  0.
        4    1    3    3  502    0  0.21951500845E+03  0.94626219481E+03  0.10462460784E+04  0.14276664350E+04  0.12699999809E+01 0. -1.
       -4    1    3    3    0  502 -0.21951500845E+03 -0.94626219481E+03 -0.10867955211E+03  0.97745170633E+03  0.12699999809E+01 0.  1.
</event>
<event>
 5   0  0.2908031E-05  0.2201880E+04  0.7818609E-02  0.8517646E-01
       -1   -1    0    0    0  501  0.00000000000E+00  0.00000000000E+00  0.67183512540E+03  0.67183512542E+03  0.50400001928E-02 0. -1.
        1   -1    0    0  501    0  0.00000000000E+00  0.00000000000E+00 -0.18041162352E+04  0.18041162352E+04  0.50400001928E-02 0.  1.
    10030    2    1    2    0    0  0.00000000000E+00  0.00000000000E+00 -0.11322811098E+04  0.24759513606E+04  0.22018797943E+04 0.  0.
        1    1    3    3  502    0  0.10372486371E+04 -0.46483484402E+02 -0.97780040024E+03  0.14262324748E+04  0.50400001928E-02 0. -1.
       -1    1    3    3    0  502 -0.10372486371E+04  0.46483484402E+02 -0.15448070958E+03  0.10497188858E+04  0.50400001928E-02 0.  1.
</event>
<event>
 5   0  0.6306919E-05  0.2205844E+04  0.7818609E-02  0.8516000E-01
        2   -1    0    0  501    0  0.00000000000E+00  0.00000000000E+00  0.31595060120E+04  0.31595060120E+04  0.25500000920E-02 0. -1.
       -2   -1    0    0    0  501  0.00000000000E+00  0.00000000000E+00 -0.38500858606E+03  0.38500858607E+03  0.25500000920E-02 0.  1.
    10030    2    1    2    0    0  0.00000000000E+00  0.00000000000E+00  0.27744974259E+04  0.35445145981E+04  0.22058440039E+04 0.  0.
        3    1    3    3  502    0  0.65486234763E+03  0.24989671104E+03  0.18908583626E+02  0.70117801254E+03  0.10100000352E+00 0.  1.
       -3    1    3    3    0  502 -0.65486234763E+03 -0.24989671104E+03  0.27555888423E+04  0.28433365855E+04  0.10100000352E+00 0. -1.
</event>
<event>
 5   0  0.2929471E-05  0.2251486E+04  0.7818609E-02  0.8497299E-01
        1   -1    0    0  501    0  0.00000000000E+00  0.00000000000E+00  0.23589861820E+04  0.23589861820E+04  0.50400001928E-02 0.  1.
       -1   -1    0    0    0  501  0.00000000000E+00  0.00000000000E+00 -0.53722115174E+03  0.53722115177E+03  0.50400001928E-02 0. -1.
    10030    2    1    2    0    0  0.00000000000E+00  0.00000000000E+00  0.18217650302E+04  0.28962073337E+04  0.22514859748E+04 0.  0.
        2    1    3    3  502    0  0.60858269782E+03 -0.34830526019E+03 -0.22199117894E+03  0.73550631397E+03  0.25500000920E-02 0. -1.
       -2    1    3    3    0  502 -0.60858269782E+03  0.34830526019E+03  0.20437562092E+04  0.21607010198E+04  0.25500000920E-02 0.  1.
</event>
<event>
 5   0  0.6293013E-05  0.2209957E+04  0.7818609E-02  0.8514295E-01
        2   -1    0    0  501    0  0.00000000000E+00  0.00000000000E+00  0.16151747299E+04  0.16151747299E+04  0.25500000920E-02 0.  1.
       -2   -1    0    0    0  501  0.00000000000E+00  0.00000000000E+00 -0.75594166932E+03  0.75594166933E+03  0.25500000920E-02 0. -1.
    10030    2    1    2    0    0  0.00000000000E+00  0.00000000000E+00  0.85923306055E+03  0.23711163992E+04  0.22099573585E+04 0.  0.
        1    1    3    3  502    0 -0.10436550767E+04 -0.97033508497E+02  0.54328523972E+02  0.10495632470E+04  0.50400001928E-02 0. -1.
       -1    1    3    3    0  502  0.10436550767E+04  0.97033508497E+02  0.80490453657E+03  0.13215531522E+04  0.50400001928E-02 0.  1.
</event>
<event>
 5   0  0.2929471E-05  0.2232742E+04  0.7818609E-02  0.8504923E-01
       -1   -1    0    0    0  501  0.00000000000E+00  0.00000000000E+00  0.93434628388E+03  0.93434628390E+03  0.50400001928E-02 0.  1.
        1   -1    0    0  501    0  0.00000000000E+00  0.00000000000E+00 -0.13338565682E+04  0.13338565682E+04  0.50400001928E-02 0. -1.
    10030    2    1    2    0    0  0.00000000000E+00  0.00000000000E+00 -0.39951028427E+03  0.22682028521E+04  0.22327417475E+04 0.  0.
        2    1    3    3  502    0  0.28121184489E+03 -0.27379023615E+03 -0.12614579874E+04  0.13211046322E+04  0.25500000920E-02 0. -1.
       -2    1    3    3    0  502 -0.28121184489E+03  0.27379023615E+03  0.86194770316E+03  0.94709821988E+03  0.25500000920E-02 0.  1.
</event>
<event>
 5   0  0.2820239E-05  0.2231911E+04  0.7818609E-02  0.8505262E-01
        1   -1    0    0  501    0  0.00000000000E+00  0.00000000000E+00  0.12725395055E+04  0.12725395055E+04  0.50400001928E-02 0.  1.
       -1   -1    0    0    0  501  0.00000000000E+00  0.00000000000E+00 -0.97863868603E+03  0.97863868604E+03  0.50400001928E-02 0. -1.
    10030    2    1    2    0    0  0.00000000000E+00  0.00000000000E+00  0.29390081949E+03  0.22511781916E+04  0.22319107416E+04 0.  0.
        3    1    3    3  502    0 -0.39513400773E+03  0.34947289115E+03 -0.84494855833E+03  0.99609249678E+03  0.10100000352E+00 0. -1.
       -3    1    3    3    0  502  0.39513400773E+03 -0.34947289115E+03  0.11388493778E+04  0.12550856948E+04  0.10100000352E+00 0.  1.
</event>
<event>
 5   0  0.6293013E-05  0.2311002E+04  0.7818609E-02  0.8473596E-01
        2   -1    0    0  501    0  0.00000000000E+00  0.00000000000E+00  0.25116868568E+04  0.25116868568E+04  0.25500000920E-02 0.  1.
       -2   -1    0    0    0  501  0.00000000000E+00  0.00000000000E+00 -0.53158791524E+03  0.53158791524E+03  0.25500000920E-02 0. -1.
    10030    2    1    2    0    0  0.00000000000E+00  0.00000000000E+00  0.19800989415E+04  0.30432747720E+04  0.23110018433E+04 0.  0.
        1    1    3    3  502    0 -0.30509325760E+03  0.82506525571E+03  0.33960499677E+01  0.87967386298E+03  0.50400001928E-02 0. -1.
       -1    1    3    3    0  502  0.30509325760E+03 -0.82506525571E+03  0.19767028916E+04  0.21636009090E+04  0.50400001928E-02 0.  1.
</event>
<event>
 5   0  0.2753631E-05  0.2180231E+04  0.7818609E-02  0.8526702E-01
       -1   -1    0    0    0  501  0.00000000000E+00  0.00000000000E+00  0.77864782460E+03  0.77864782462E+03  0.50400001928E-02 0.  1.
        1   -1    0    0  501    0  0.00000000000E+00  0.00000000000E+00 -0.15261737137E+04  0.15261737137E+04  0.50400001928E-02 0. -1.
    10030    2    1    2    0    0  0.00000000000E+00  0.00000000000E+00 -0.74752588911E+03  0.23048215383E+04  0.21802310356E+04 0.  0.
        4    1    3    3  502    0  0.44313980958E+03  0.96355639896E+03 -0.64023158334E+03  0.12388349035E+04  0.12699999809E+01 0.  1.
       -4    1    3    3    0  502 -0.44313980958E+03 -0.96355639896E+03 -0.10729430577E+03  0.10659866349E+04  0.12699999809E+01 0. -1.
</event>
<event>
 5   0  0.6414768E-05  0.2206741E+04  0.7818609E-02  0.8515628E-01
       -2   -1    0    0    0  501  0.00000000000E+00  0.00000000000E+00  0.61716006985E+03  0.61716006985E+03  0.25500000920E-02 0. -1.
        2   -1    0    0  501    0  0.00000000000E+00  0.00000000000E+00 -0.19726261988E+04  0.19726261988E+04  0.25500000920E-02 0.  1.
    10030    2    1    2    0    0  0.00000000000E+00  0.00000000000E+00 -0.13554661290E+04  0.25897862687E+04  0.22067406940E+04 0.  0.
        2    1    3    3  502    0  0.54280789576E+03 -0.41853877993E+03 -0.16924629742E+04  0.18259917965E+04  0.25500000920E-02 0.  1.
       -2    1    3    3    0  502 -0.54280789576E+03  0.41853877993E+03  0.33699684520E+03  0.76379447215E+03  0.25500000920E-02 0. -1.
</event>
<event>
 5   0  0.2910318E-05  0.2193864E+04  0.7818609E-02  0.8520986E-01
        1   -1    0    0  501    0  0.00000000000E+00  0.00000000000E+00  0.16970660292E+04  0.16970660292E+04  0.50400001928E-02 0.  1.
       -1   -1    0    0    0  501  0.00000000000E+00  0.00000000000E+00 -0.70902383897E+03  0.70902383898E+03  0.50400001928E-02 0. -1.
    10030    2    1    2    0    0  0.00000000000E+00  0.00000000000E+00  0.98804219024E+03  0.24060898682E+04  0.21938644179E+04 0.  0.
        5    1    3    3  502    0  0.74637852903E+03 -0.80370062417E+03  0.47765879740E+03  0.11963258831E+04  0.46999998093E+01 0.  1.
       -5    1    3    3    0  502 -0.74637852903E+03  0.80370062417E+03  0.51038339284E+03  0.12097639851E+04  0.46999998093E+01 0. -1.
</event>
<event>
 5   0  0.6306919E-05  0.2204113E+04  0.7818609E-02  0.8516718E-01
        2   -1    0    0  501    0  0.00000000000E+00  0.00000000000E+00  0.18458645359E+04  0.18458645359E+04  0.25500000920E-02 0.  1.
       -2   -1    0    0    0  501  0.00000000000E+00  0.00000000000E+00 -0.65797255815E+03  0.65797255816E+03  0.25500000920E-02 0. -1.
    10030    2    1    2    0    0  0.00000000000E+00  0.00000000000E+00  0.11878919777E+04  0.25038370940E+04  0.22041127110E+04 0.  0.
        3    1    3    3  502    0  0.91962513165E+03 -0.18179976639E+03  0.12521962758E+04  0.15642113224E+04  0.10100000352E+00 0. -1.
       -3    1    3    3    0  502 -0.91962513165E+03  0.18179976639E+03 -0.64304298035E+02  0.93962577166E+03  0.10100000352E+00 0.  1.
</event>
<event>
 5   0  0.2929471E-05  0.2185988E+04  0.7818609E-02  0.8524283E-01
        1   -1    0    0  501    0  0.00000000000E+00  0.00000000000E+00  0.16063062549E+04  0.16063062549E+04  0.50400001928E-02 0. -1.
       -1   -1    0    0    0  501  0.00000000000E+00  0.00000000000E+00 -0.74371644202E+03  0.74371644203E+03  0.50400001928E-02 0.  1.
    10030    2    1    2    0    0  0.00000000000E+00  0.00000000000E+00  0.86258981287E+03  0.23500226969E+04  0.21859884471E+04 0.  0.
        2    1    3    3  502    0 -0.71382495823E+03 -0.17311289794E+03 -0.43883753595E+03  0.85562405845E+03  0.25500000920E-02 0.  1.
       -2    1    3    3    0  502  0.71382495823E+03  0.17311289794E+03  0.13014273488E+04  0.14943986385E+04  0.25500000920E-02 0. -1.
</event>
<event>
 5   0  0.6414768E-05  0.2212950E+04  0.7818609E-02  0.8513057E-01
        2   -1    0    0  501    0  0.00000000000E+00  0.00000000000E+00  0.15325719638E+04  0.15325719638E+04  0.25500000920E-02 0.  1.
       -2   -1    0    0    0  501  0.00000000000E+00  0.00000000000E+00 -0.79884467602E+03  0.79884467602E+03  0.25500000920E-02 0. -1.
    10030    2    1    2    0    0  0.00000000000E+00  0.00000000000E+00  0.73372728781E+03  0.23314166399E+04  0.22129500256E+04 0.  0.
        2    1    3    3  502    0  0.63675265343E+03  0.73318191058E+03  0.92561118674E+03  0.13415534744E+04  0.25500000920E-02 0.  1.
       -2    1    3    3    0  502 -0.63675265343E+03 -0.73318191058E+03 -0.19188389892E+03  0.98986316545E+03  0.25500000920E-02 0. -1.
</event>
<event>
 5   0  0.6293013E-05  0.2206584E+04  0.7818609E-02  0.8515693E-01
        2   -1    0    0  501    0  0.00000000000E+00  0.00000000000E+00  0.11222452253E+04  0.11222452253E+04  0.25500000920E-02 0.  1.
       -2   -1    0    0    0  501  0.00000000000E+00  0.00000000000E+00 -0.10846587092E+04  0.10846587092E+04  0.25500000920E-02 0. -1.
    10030    2    1    2    0    0  0.00000000000E+00  0.00000000000E+00  0.37586516077E+02  0.22069039345E+04  0.22065838371E+04 0.  0.
        1    1    3    3  502    0  0.26095263437E+03 -0.43416575078E+03  0.99906649342E+03  0.11201473273E+04  0.50400001928E-02 0.  1.
       -1    1    3    3    0  502 -0.26095263437E+03  0.43416575078E+03 -0.96147997734E+03  0.10867566072E+04  0.50400001928E-02 0. -1.
</event>
<event>
 5   0  0.2820239E-05  0.2209527E+04  0.7818609E-02  0.8514473E-01
       -1   -1    0    0    0  501  0.00000000000E+00  0.00000000000E+00  0.92648806307E+03  0.92648806308E+03  0.50400001928E-02 0.  1.
        1   -1    0    0  501    0  0.00000000000E+00  0.00000000000E+00 -0.13173432328E+04  0.13173432328E+04  0.50400001928E-02 0. -1.
    10030    2    1    2    0    0  0.00000000000E+00  0.00000000000E+00 -0.39085516969E+03  0.22438312959E+04  0.22095273523E+04 0.  0.
        3    1    3    3  502    0  0.19543133837E+03  0.28876874639E+03 -0.12599976439E+04  0.13073541485E+04  0.10100000352E+00 0. -1.
       -3    1    3    3    0  502 -0.19543133837E+03 -0.28876874639E+03  0.86914247416E+03  0.93647714734E+03  0.10100000352E+00 0.  1.
</event>
<event>
 5   0  0.2753631E-05  0.2323317E+04  0.7818609E-02  0.8468784E-01
       -1   -1    0    0    0  501  0.00000000000E+00  0.00000000000E+00  0.13167804508E+04  0.13167804508E+04  0.50400001928E-02 0. -1.
        1   -1    0    0  501    0  0.00000000000E+00  0.00000000000E+00 -0.10248108568E+04  0.10248108568E+04  0.50400001928E-02 0.  1.
    10030    2    1    2    0    0  0.00000000000E+00  0.00000000000E+00  0.29196959394E+03  0.23415913076E+04  0.23233173714E+04 0.  0.
        4    1    3    3  502    0  0.16345812455E+02 -0.18490211048E+03 -0.10097663412E+04  0.10266867355E+04  0.12699999809E+01 0.  1.
       -4    1    3    3    0  502 -0.16345812455E+02  0.18490211048E+03  0.13017359352E+04  0.13149045721E+04  0.12699999809E+01 0. -1.
</event>
<event>
 5   0  0.6414768E-05  0.2259905E+04  0.7818609E-02  0.8493900E-01
        2   -1    0    0  501    0  0.00000000000E+00  0.00000000000E+00  0.13112144578E+04  0.13112144578E+04  0.25500000920E-02 0. -1.
       -2   -1    0    0    0  501  0.00000000000E+00  0.00000000000E+00 -0.97374844415E+03  0.97374844415E+03  0.25500000920E-02 0.  1.
    10030    2    1    2    0    0  0.00000000000E+00  0.00000000000E+00  0.33746601368E+03  0.22849629020E+04  0.22599053416E+04 0.  0.
        2    1    3    3  502    0  0.45124288831E+03  0.49370566270E+03  0.10895602284E+04  0.12784783599E+04  0.25500000920E-02 0. -1.
       -2    1    3    3    0  502 -0.45124288831E+03 -0.49370566270E+03 -0.75209421467E+03  0.10064845420E+04  0.25500000920E-02 0.  1.
</event>
<event>
 5   0  0.6628798E-05  0.2202822E+04  0.7818609E-02  0.8517254E-01
       -2   -1    0    0    0  501  0.00000000000E+00  0.00000000000E+00  0.77668161586E+03  0.77668161586E+03  0.25500000920E-02 0. -1.
        2   -1    0    0  501    0  0.00000000000E+00  0.00000000000E+00 -0.15619096625E+04  0.15619096625E+04  0.25500000920E-02 0.  1.
    10030    2    1    2    0    0  0.00000000000E+00  0.00000000000E+00 -0.78522804665E+03  0.23385912784E+04  0.22028222992E+04 0.  0.
        4    1    3    3  502    0  0.66047207424E+00 -0.10108071024E+04  0.71811127535E+02  0.10133557546E+04  0.12699999809E+01 0.  1.
       -4    1    3    3    0  502 -0.66047207424E+00  0.10108071024E+04 -0.85703917418E+03  0.13252355238E+04  0.12699999809E+01 0. -1.
</event>
<event>
 5   0  0.6306919E-05  0.2338284E+04  0.7818609E-02  0.8462978E-01
       -2   -1    0    0    0  501  0.00000000000E+00  0.00000000000E+00  0.10740776853E+04  0.10740776853E+04  0.25500000920E-02 0. -1.
        2   -1    0    0  501    0  0.00000000000E+00  0.00000000000E+00 -0.12726199372E+04  0.12726199372E+04  0.25500000920E-02 0.  1.
    10030    2    1    2    0    0  0.00000000000E+00  0.00000000000E+00 -0.19854225184E+03  0.23466976225E+04  0.23382837094E+04 0.  0.
        3    1    3    3  502    0  0.57372288435E+03 -0.87412136001E+03  0.42572358817E+03  0.11289316559E+04  0.10100000352E+00 0. -1.
       -3    1    3    3    0  502 -0.57372288435E+03  0.87412136001E+03 -0.62426584001E+03  0.12177659665E+04  0.10100000352E+00 0.  1.
</event>
<event>
 5   0  0.6445740E-05  0.2195460E+04  0.7818609E-02  0.8520320E-01
       -2   -1    0    0    0  501  0.00000000000E+00  0.00000000000E+00  0.12766945297E+04  0.12766945297E+04  0.25500000920E-02 0. -1.
        2   -1    0    0  501    0  0.00000000000E+00  0.00000000000E+00 -0.94385263429E+03  0.94385263430E+03  0.25500000920E-02 0.  1.
    10030    2    1    2    0    0  0.00000000000E+00  0.00000000000E+00  0.33284189543E+03  0.22205471640E+04  0.21954603117E+04 0.  0.
        5    1    3    3  502    0  0.89976114201E+03  0.50054149098E+02  0.80041194921E+03  0.12053036584E+04  0.46999998093E+01 0. -1.
       -5    1    3    3    0  502 -0.89976114201E+03 -0.50054149098E+02 -0.46757005378E+03  0.10152435056E+04  0.46999998093E+01 0.  1.
</event>
<event>
 5   0  0.2753631E-05  0.2187467E+04  0.7818609E-02  0.8523663E-01
        1   -1    0    0  501    0  0.00000000000E+00  0.00000000000E+00  0.21774853389E+04  0.21774853389E+04  0.50400001928E-02 0. -1.
       -1   -1    0    0    0  501  0.00000000000E+00  0.00000000000E+00 -0.54937368216E+03  0.54937368218E+03  0.50400001928E-02 0.  1.
    10030    2    1    2    0    0  0.00000000000E+00  0.00000000000E+00  0.16281116568E+04  0.27268590211E+04  0.21874671550E+04 0.  0.
        4    1    3    3  502    0 -0.82943857369E+03  0.15851901304E+03  0.16805473930E+04  0.18807811616E+04  0.12699999809E+01 0.  1.
       -4    1    3    3    0  502  0.82943857369E+03 -0.15851901304E+03 -0.52435736176E+02  0.84607785951E+03  0.12699999809E+01 0. -1.
</event>
<event>
 5   0  0.2910318E-05  0.2194478E+04  0.7818609E-02  0.8520730E-01
       -1   -1    0    0    0  501  0.00000000000E+00  0.00000000000E+00  0.92852868313E+03  0.92852868314E+03  0.50400001928E-02 0.  1.
        1   -1    0    0  501    0  0.00000000000E+00  0.00000000000E+00 -0.12966033765E+04  0.12966033765E+04  0.50400001928E-02 0. -1.
    10030    2    1    2    0    0  0.00000000000E+00  0.00000000000E+00 -0.36807469335E+03  0.22251320596E+04  0.21944780024E+04 0.  0.
        5    1    3    3  502    0 -0.88350642468E+03  0.35011723773E+02  0.47473175198E+03  0.10035944149E+04  0.46999998093E+01 0.  1.
       -5    1    3    3    0  502  0.88350642468E+03 -0.35011723773E+02 -0.84280644533E+03  0.12215376448E+04  0.46999998093E+01 0. -1.
</event>
<event>
 5   0  0.2908031E-05  0.2191926E+04  0.7818609E-02  0.8521796E-01
        1   -1    0    0  501    0  0.00000000000E+00  0.00000000000E+00  0.17111692284E+04  0.17111692284E+04  0.50400001928E-02 0. -1.
       -1   -1    0    0    0  501  0.00000000000E+00  0.00000000000E+00 -0.70193842959E+03  0.70193842961E+03  0.50400001928E-02 0.  1.
    10030    2    1    2    0    0  0.00000000000E+00  0.00000000000E+00  0.10092307988E+04  0.24131076580E+04  0.21919264960E+04 0.  0.
        1    1    3    3  502    0 -0.84154432474E+03  0.54177234837E+03  0.12987526704E+02  0.10009409592E+04  0.50400001928E-02 0.  1.
       -1    1    3    3    0  502  0.84154432474E+03 -0.54177234837E+03  0.99624327214E+03  0.14121666988E+04  0.50400001928E-02 0. -1.
</event>
<event>
 5   0  0.6628798E-05  0.2192801E+04  0.7818609E-02  0.8521431E-01
       -2   -1    0    0    0  501  0.00000000000E+00  0.00000000000E+00  0.74157334846E+03  0.74157334846E+03  0.25500000920E-02 0.  1.
        2   -1    0    0  501    0  0.00000000000E+00  0.00000000000E+00 -0.16210044938E+04  0.16210044938E+04  0.25500000920E-02 0. -1.
    10030    2    1    2    0    0  0.00000000000E+00  0.00000000000E+00 -0.87943114531E+03  0.23625778422E+04  0.21928007026E+04 0.  0.
        4    1    3    3  502    0 -0.10356010508E+04  0.30125359075E+03 -0.65213187251E+03  0.12603574312E+04  0.12699999809E+01 0.  1.
       -4    1    3    3    0  502  0.10356010508E+04 -0.30125359075E+03 -0.22729927280E+03  0.11022204111E+04  0.12699999809E+01 0. -1.
</event>
<event>
 5   0  0.6628798E-05  0.2209433E+04  0.7818609E-02  0.8514512E-01
        2   -1    0    0  501    0  0.00000000000E+00  0.00000000000E+00  0.22689510506E+04  0.22689510506E+04  0.25500000920E-02 0.  1.
       -2   -1    0    0    0  501  0.00000000000E+00  0.00000000000E+00 -0.53786893309E+03  0.53786893309E+03  0.25500000920E-02 0. -1.
    10030    2    1    2    0    0  0.00000000000E+00  0.00000000000E+00  0.17310821175E+04  0.28068199837E+04  0.22094327605E+04 0.  0.
        4    1    3    3  502    0 -0.10978391163E+04 -0.37458743414E+02  0.10144672726E+04  0.14952589551E+04  0.12699999809E+01 0.  1.
       -4    1    3    3    0  502  0.10978391163E+04  0.37458743414E+02  0.71661484485E+03  0.13115610285E+04  0.12699999809E+01 0. -1.
</event>
<event>
 5   0  0.2245375E-05  0.2191370E+04  0.7818609E-02  0.8522029E-01
        3   -1    0    0  501    0  0.00000000000E+00  0.00000000000E+00  0.24065225268E+04  0.24065225289E+04  0.10100000352E+00 0. -1.
       -3   -1    0    0    0  501  0.00000000000E+00  0.00000000000E+00 -0.49886317526E+03  0.49886318548E+03  0.10100000352E+00 0.  1.
    10030    2    1    2    0    0  0.00000000000E+00  0.00000000000E+00  0.19076593515E+04  0.29053857144E+04  0.21913698793E+04 0.  0.
        2    1    3    3  502    0  0.10077143762E+04 -0.42966381015E+03  0.92645734590E+03  0.14347203447E+04  0.25500000920E-02 0. -1.
       -2    1    3    3    0  502 -0.10077143762E+04  0.42966381015E+03  0.98120200561E+03  0.14706653697E+04  0.25500000920E-02 0.  1.
</event>
<event>
 5   0  0.6414768E-05  0.2219724E+04  0.7818609E-02  0.8510263E-01
        2   -1    0    0  501    0  0.00000000000E+00  0.00000000000E+00  0.18006188552E+04  0.18006188552E+04  0.25500000920E-02 0. -1.
       -2   -1    0    0    0  501  0.00000000000E+00  0.00000000000E+00 -0.68409474724E+03  0.68409474725E+03  0.25500000920E-02 0.  1.
    10030    2    1    2    0    0  0.00000000000E+00  0.00000000000E+00  0.11165241079E+04  0.24847136024E+04  0.22197242177E+04 0.  0.
        2    1    3    3  502    0 -0.20148761004E+01  0.10724342911E+04  0.23835733629E+03  0.10986052923E+04  0.25500000920E-02 0.  1.
       -2    1    3    3    0  502  0.20148761004E+01 -0.10724342911E+04  0.87816677165E+03  0.13861083101E+04  0.25500000920E-02 0. -1.
</event>
<event>
 5   0  0.2929471E-05  0.2185255E+04  0.7818609E-02  0.8524591E-01
       -1   -1    0    0    0  501  0.00000000000E+00  0.00000000000E+00  0.16829930264E+04  0.16829930264E+04  0.50400001928E-02 0.  1.
        1   -1    0    0  501    0  0.00000000000E+00  0.00000000000E+00 -0.70935215326E+03  0.70935215328E+03  0.50400001928E-02 0. -1.
    10030    2    1    2    0    0  0.00000000000E+00  0.00000000000E+00  0.97364087317E+03  0.23923451797E+04  0.21852548842E+04 0.  0.
        2    1    3    3  502    0 -0.12675843110E+03 -0.62037157206E+03  0.14616588471E+04  0.15929140506E+04  0.25500000920E-02 0.  1.
       -2    1    3    3    0  502  0.12675843110E+03  0.62037157206E+03 -0.48801797395E+03  0.79943112911E+03  0.25500000920E-02 0. -1.
</event>
<event>
 5   0  0.2820239E-05  0.2198784E+04  0.7818609E-02  0.8518934E-01
        1   -1    0    0  501    0  0.00000000000E+00  0.00000000000E+00  0.65651852554E+03  0.65651852556E+03  0.50400001928E-02 0.  1.
       -1   -1    0    0    0  501  0.00000000000E+00  0.00000000000E+00 -0.18410184333E+04  0.18410184333E+04  0.50400001928E-02 0. -1.
    10030    2    1    2    0    0  0.00000000000E+00  0.00000000000E+00 -0.11844999077E+04  0.24975369588E+04  0.21987839433E+04 0.  0.
        3    1    3    3  502    0 -0.10507442053E+03 -0.25229979974E+03 -0.18018158988E+04  0.18224259563E+04  0.10100000352E+00 0. -1.
       -3    1    3    3    0  502  0.10507442053E+03  0.25229979974E+03  0.61731599104E+03  0.67511100257E+03  0.10100000352E+00 0.  1.
</event>
<event>
 5   0  0.6445740E-05  0.2200704E+04  0.7818609E-02  0.8518135E-01
        2   -1    0    0  501    0  0.00000000000E+00  0.00000000000E+00  0.12809668960E+04  0.12809668960E+04  0.25500000920E-02 0. -1.
       -2   -1    0    0    0  501  0.00000000000E+00  0.00000000000E+00 -0.94520358084E+03  0.94520358085E+03  0.25500000920E-02 0.  1.
    10030    2    1    2    0    0  0.00000000000E+00  0.00000000000E+00  0.33576331520E+03  0.22261704769E+04  0.22007039756E+04 0.  0.
        5    1    3    3  502    0 -0.17754636472E+03 -0.42127030226E+03 -0.84458063333E+03  0.96038008902E+03  0.46999998093E+01 0.  1.
       -5    1    3    3    0  502  0.17754636472E+03  0.42127030226E+03  0.11803439485E+04  0.12657903879E+04  0.46999998093E+01 0. -1.
</event>
<event>
 5   0  0.6293013E-05  0.2219046E+04  0.7818609E-02  0.8510542E-01
       -2   -1    0    0    0  501  0.00000000000E+00  0.00000000000E+00  0.14991521597E+04  0.14991521598E+04  0.25500000920E-02 0.  1.
        2   -1    0    0  501    0  0.00000000000E+00  0.00000000000E+00 -0.82115814742E+03  0.82115814743E+03  0.25500000920E-02 0. -1.
    10030    2    1    2    0    0  0.00000000000E+00  0.00000000000E+00  0.67799401232E+03  0.23203103072E+04  0.22190457501E+04 0.  0.
        1    1    3    3  502    0 -0.82418890314E+03  0.54079129706E+03  0.87144814589E+03  0.13157372253E+04  0.50400001928E-02 0. -1.
       -1    1    3    3    0  502  0.82418890314E+03 -0.54079129706E+03 -0.19345413356E+03  0.10045730819E+04  0.50400001928E-02 0.  1.
</event>
<event>
 5   0  0.2753631E-05  0.2181954E+04  0.7818609E-02  0.8525977E-01
       -1   -1    0    0    0  501  0.00000000000E+00  0.00000000000E+00  0.98990010404E+03  0.98990010405E+03  0.50400001928E-02 0.  1.
        1   -1    0    0  501    0  0.00000000000E+00  0.00000000000E+00 -0.12023745739E+04  0.12023745739E+04  0.50400001928E-02 0. -1.
    10030    2    1    2    0    0  0.00000000000E+00  0.00000000000E+00 -0.21247446989E+03  0.21922746780E+04  0.21819539095E+04 0.  0.
        4    1    3    3  502    0 -0.95695139371E+03 -0.52344429901E+03 -0.12823139003E+03  0.10982690046E+04  0.12699999809E+01 0. -1.
       -4    1    3    3    0  502  0.95695139371E+03  0.52344429901E+03 -0.84243079866E+02  0.10940056734E+04  0.12699999809E+01 0.  1.
</event>
<event>
 5   0  0.2753631E-05  0.2199798E+04  0.7818609E-02  0.8518512E-01
       -1   -1    0    0    0  501  0.00000000000E+00  0.00000000000E+00  0.83498891594E+03  0.83498891596E+03  0.50400001928E-02 0. -1.
        1   -1    0    0  501    0  0.00000000000E+00  0.00000000000E+00 -0.14488553783E+04  0.14488553783E+04  0.50400001928E-02 0.  1.
    10030    2    1    2    0    0  0.00000000000E+00  0.00000000000E+00 -0.61386646235E+03  0.22838442943E+04  0.21997983378E+04 0.  0.
        4    1    3    3  502    0  0.99905846333E+03  0.88671957919E+02 -0.77561870351E+03  0.12678984642E+04  0.12699999809E+01 0.  1.
       -4    1    3    3    0  502 -0.99905846333E+03 -0.88671957919E+02  0.16175224116E+03  0.10159458301E+04  0.12699999809E+01 0. -1.
</event>
<event>
 5   0  0.2910318E-05  0.2186076E+04  0.7818609E-02  0.8524246E-01
       -1   -1    0    0    0  501  0.00000000000E+00  0.00000000000E+00  0.86702995607E+03  0.86702995608E+03  0.50400001928E-02 0.  1.
        1   -1    0    0  501    0  0.00000000000E+00  0.00000000000E+00 -0.13779590627E+04  0.13779590627E+04  0.50400001928E-02 0. -1.
    10030    2    1    2    0    0  0.00000000000E+00  0.00000000000E+00 -0.51092910663E+03  0.22449890188E+04  0.21860757403E+04 0.  0.
        5    1    3    3  502    0  0.18893618769E+03 -0.52783648272E+03 -0.12190481390E+04  0.13417930879E+04  0.46999998093E+01 0. -1.
       -5    1    3    3    0  502 -0.18893618769E+03  0.52783648272E+03  0.70811903240E+03  0.90319593088E+03  0.46999998093E+01 0.  1.
</event>
<event>
 5   0  0.6628798E-05  0.2204373E+04  0.7818609E-02  0.8516610E-01
       -2   -1    0    0    0  501  0.00000000000E+00  0.00000000000E+00  0.44899661675E+03  0.44899661675E+03  0.25500000920E-02 0. -1.
        2   -1    0    0  501    0  0.00000000000E+00  0.00000000000E+00 -0.27056226801E+04  0.27056226801E+04  0.25500000920E-02 0.  1.
    10030    2    1    2    0    0  0.00000000000E+00  0.00000000000E+00 -0.22566260634E+04  0.31546192969E+04  0.22043733165E+04 0.  0.
        4    1    3    3  502    0  0.44127724684E+03 -0.49382362879E+03  0.13251548765E+03  0.67538829742E+03  0.12699999809E+01 0. -1.
       -4    1    3    3    0  502 -0.44127724684E+03  0.49382362879E+03 -0.23891415510E+04  0.24792309994E+04  0.12699999809E+01 0.  1.
</event>
<event>
 5   0  0.2910318E-05  0.2198335E+04  0.7818609E-02  0.8519121E-01
       -1   -1    0    0    0  501  0.00000000000E+00  0.00000000000E+00  0.14645507412E+04  0.14645507412E+04  0.50400001928E-02 0. -1.
        1   -1    0    0  501    0  0.00000000000E+00  0.00000000000E+00 -0.82494193374E+03  0.82494193376E+03  0.50400001928E-02 0.  1.
    10030    2    1    2    0    0  0.00000000000E+00  0.00000000000E+00  0.63960880744E+03  0.22894926750E+04  0.21983351160E+04 0.  0.
        5    1    3    3  502    0 -0.49644939732E+02 -0.30973862015E+02  0.14629169817E+04  0.14640943226E+04  0.46999998093E+01 0. -1.
       -5    1    3    3    0  502  0.49644939732E+02  0.30973862015E+02 -0.82330817428E+03  0.82539835232E+03  0.46999998093E+01 0.  1.
</event>
<event>
 5   0  0.6306919E-05  0.2197341E+04  0.7818609E-02  0.8519536E-01
       -2   -1    0    0    0  501  0.00000000000E+00  0.00000000000E+00  0.10096812340E+04  0.10096812340E+04  0.25500000920E-02 0. -1.
        2   -1    0    0  501    0  0.00000000000E+00  0.00000000000E+00 -0.11955029539E+04  0.11955029539E+04  0.25500000920E-02 0.  1.
    10030    2    1    2    0    0  0.00000000000E+00  0.00000000000E+00 -0.18582171986E+03  0.22051841879E+04  0.21973410275E+04 0.  0.
        3    1    3    3  502    0  0.20345846611E+03 -0.78026528916E+03 -0.84181009579E+03  0.11656987246E+04  0.10100000352E+00 0.  1.
       -3    1    3    3    0  502 -0.20345846611E+03  0.78026528916E+03  0.65598837593E+03  0.10394854633E+04  0.10100000352E+00 0. -1.
</event>
<event>
 5   0  0.6306919E-05  0.2216981E+04  0.7818609E-02  0.8511393E-01
        2   -1    0    0  501    0  0.00000000000E+00  0.00000000000E+00  0.24766021738E+04  0.24766021738E+04  0.25500000920E-02 0.  1.
       -2   -1    0    0    0  501  0.00000000000E+00  0.00000000000E+00 -0.49614390482E+03  0.49614390483E+03  0.25500000920E-02 0. -1.
    10030    2    1    2    0    0  0.00000000000E+00  0.00000000000E+00  0.19804582690E+04  0.29727460786E+04  0.22169808959E+04 0.  0.
        3    1    3    3  502    0 -0.26548351358E+03 -0.39665164537E+03 -0.35129732966E+03  0.59264141586E+03  0.10100000352E+00 0. -1.
       -3    1    3    3    0  502  0.26548351358E+03  0.39665164537E+03  0.23317555986E+04  0.23801046628E+04  0.10100000352E+00 0.  1.
</event>
<event>
 5   0  0.2245375E-05  0.2214624E+04  0.7818609E-02  0.8512366E-01
       -3   -1    0    0    0  501  0.00000000000E+00  0.00000000000E+00  0.71096041584E+03  0.71096042301E+03  0.10100000352E+00 0.  1.
        3   -1    0    0  501    0  0.00000000000E+00  0.00000000000E+00 -0.17246240050E+04  0.17246240079E+04  0.10100000352E+00 0. -1.
    10030    2    1    2    0    0  0.00000000000E+00  0.00000000000E+00 -0.10136635891E+04  0.24355844310E+04  0.22146235907E+04 0.  0.
        4    1    3    3  502    0  0.23318510343E+03 -0.94541857534E+03  0.72975475688E+02  0.97648277405E+03  0.12699999809E+01 0.  1.
       -4    1    3    3    0  502 -0.23318510343E+03  0.94541857534E+03 -0.10866390648E+04  0.14591016569E+04  0.12699999809E+01 0. -1.
</event>
<event>
 5   0  0.2910318E-05  0.2187934E+04  0.7818609E-02  0.8523467E-01
       -1   -1    0    0    0  501  0.00000000000E+00  0.00000000000E+00  0.77975225320E+03  0.77975225322E+03  0.50400001928E-02 0.  1.
        1   -1    0    0  501    0  0.00000000000E+00  0.00000000000E+00 -0.15347998118E+04  0.15347998118E+04  0.50400001928E-02 0. -1.
    10030    2    1    2    0    0  0.00000000000E+00  0.00000000000E+00 -0.75504755863E+03  0.23145520651E+04  0.21879338304E+04 0.  0.
        5    1    3    3  502    0  0.83862749575E+03  0.29366235656E+03 -0.10525814087E+04  0.13774916944E+04  0.46999998093E+01 0. -1.
       -5    1    3    3    0  502 -0.83862749575E+03 -0.29366235656E+03  0.29753385006E+03  0.93706037064E+03  0.46999998093E+01 0.  1.
</event>
<event>
 5   0  0.6306919E-05  0.2201710E+04  0.7818609E-02  0.8517717E-01
       -2   -1    0    0    0  501  0.00000000000E+00  0.00000000000E+00  0.95536824686E+03  0.95536824687E+03  0.25500000920E-02 0.  1.
        2   -1    0    0  501    0  0.00000000000E+00  0.00000000000E+00 -0.12684966705E+04  0.12684966705E+04  0.25500000920E-02 0. -1.
    10030    2    1    2    0    0  0.00000000000E+00  0.00000000000E+00 -0.31312842361E+03  0.22238649173E+04  0.22017097358E+04 0.  0.
        3    1    3    3  502    0 -0.91451235925E+03 -0.61094065151E+03 -0.20500611996E+03  0.11187532589E+04  0.10100000352E+00 0. -1.
       -3    1    3    3    0  502  0.91451235925E+03  0.61094065151E+03 -0.10812230365E+03  0.11051116584E+04  0.10100000352E+00 0.  1.
</event>
<event>
 5   0  0.2245375E-05  0.2216713E+04  0.7818609E-02  0.8511504E-01
        3   -1    0    0  501    0  0.00000000000E+00  0.00000000000E+00  0.88108353331E+03  0.88108353910E+03  0.10100000352E+00 0.  1.
       -3   -1    0    0    0  501  0.00000000000E+00  0.00000000000E+00 -0.13942538070E+04  0.13942538107E+04  0.10100000352E+00 0. -1.
    10030    2    1    2    0    0  0.00000000000E+00  0.00000000000E+00 -0.51317027372E+03  0.22753373498E+04  0.22167129551E+04 0.  0.
        3    1    3    3  502    0 -0.83346126605E+03 -0.68296835566E+03  0.97982382157E+01  0.10775896587E+04  0.10100000352E+00 0.  1.
       -3    1    3    3    0  502  0.83346126605E+03  0.68296835566E+03 -0.52296851193E+03  0.11977476911E+04  0.10100000352E+00 0. -1.
</event>
<event>
 5   0  0.6414768E-05  0.2182883E+04  0.7818609E-02  0.8525586E-01
        2   -1    0    0  501    0  0.00000000000E+00  0.00000000000E+00  0.10306707057E+04  0.10306707057E+04  0.25500000920E-02 0.  1.
       -2   -1    0    0    0  501  0.00000000000E+00  0.00000000000E+00 -0.11557959818E+04  0.11557959818E+04  0.25500000920E-02 0. -1.
    10030    2    1    2    0    0  0.00000000000E+00  0.00000000000E+00 -0.12512527611E+03  0.21864666876E+04  0.21828834694E+04 0.  0.
        2    1    3    3  502    0  0.38331807811E+03  0.74266478448E+03  0.64055925686E+03  0.10529956755E+04  0.25500000920E-02 0.  1.
       -2    1    3    3    0  502 -0.38331807811E+03 -0.74266478448E+03 -0.76568453297E+03  0.11334710120E+04  0.25500000920E-02 0. -1.
</event>
<event>
 5   0  0.6293013E-05  0.2207718E+04  0.7818609E-02  0.8515222E-01
       -2   -1    0    0    0  501  0.00000000000E+00  0.00000000000E+00  0.10177654419E+04  0.10177654419E+04  0.25500000920E-02 0. -1.
        2   -1    0    0  501    0  0.00000000000E+00  0.00000000000E+00 -0.11972357454E+04  0.11972357454E+04  0.25500000920E-02 0.  1.
    10030    2    1    2    0    0  0.00000000000E+00  0.00000000000E+00 -0.17947030353E+03  0.22150011873E+04  0.22077184308E+04 0.  0.
        1    1    3    3  502    0  0.83323380838E+03 -0.62593180040E+03  0.27538285951E+03  0.10779169344E+04  0.50400001928E-02 0.  1.
       -1    1    3    3    0  502 -0.83323380838E+03  0.62593180040E+03 -0.45485316305E+03  0.11370842529E+04  0.50400001928E-02 0. -1.
</event>
<event>
 5   0  0.2908031E-05  0.2230452E+04  0.7818609E-02  0.8505859E-01
       -1   -1    0    0    0  501  0.00000000000E+00  0.00000000000E+00  0.13900062545E+04  0.13900062545E+04  0.50400001928E-02 0.  1.
        1   -1    0    0  501    0  0.00000000000E+00  0.00000000000E+00 -0.89476487843E+03  0.89476487844E+03  0.50400001928E-02 0. -1.
    10030    2    1    2    0    0  0.00000000000E+00  0.00000000000E+00  0.49524137610E+03  0.22847711330E+04  0.22304517725E+04 0.  0.
        1    1    3    3  502    0 -0.39540227570E+03  0.10427008556E+04  0.23463345593E+03  0.11395704860E+04  0.50400001928E-02 0. -1.
       -1    1    3    3    0  502  0.39540227570E+03 -0.10427008556E+04  0.26060792016E+03  0.11452006470E+04  0.50400001928E-02 0.  1.
</event>
<event>
 5   0  0.6628798E-05  0.2187426E+04  0.7818609E-02  0.8523680E-01
        2   -1    0    0  501    0  0.00000000000E+00  0.00000000000E+00  0.87080254709E+03  0.87080254709E+03  0.25500000920E-02 0. -1.
       -2   -1    0    0    0  501  0.00000000000E+00  0.00000000000E+00 -0.13736844241E+04  0.13736844241E+04  0.25500000920E-02 0.  1.
    10030    2    1    2    0    0  0.00000000000E+00  0.00000000000E+00 -0.50288187704E+03  0.22444869712E+04  0.21874257888E+04 0.  0.
        4    1    3    3  502    0 -0.60620250714E+03 -0.37410435628E+03 -0.11030124094E+04  0.13130398080E+04  0.12699999809E+01 0.  1.
       -4    1    3    3    0  502  0.60620250714E+03  0.37410435628E+03  0.60013053241E+03  0.93144716323E+03  0.12699999809E+01 0. -1.
</event>
<event>
 5   0  0.6628798E-05  0.2055211E+04  0.7818609E-02  0.8581234E-01
        2   -1    0    0  501    0  0.00000000000E+00  0.00000000000E+00  0.14976788702E+04  0.14976788702E+04  0.25500000920E-02 0.  1.
       -2   -1    0    0    0  501  0.00000000000E+00  0.00000000000E+00 -0.70507333195E+03  0.70507333196E+03  0.25500000920E-02 0. -1.
    10030    2    1    2    0    0  0.00000000000E+00  0.00000000000E+00  0.79260553824E+03  0.22027522022E+04  0.20552113577E+04 0.  0.
        4    1    3    3  502    0 -0.35159098828E+03 -0.95477771978E+03  0.24189413574E+03  0.10458159987E+04  0.12699999809E+01 0.  1.
       -4    1    3    3    0  502  0.35159098828E+03  0.95477771978E+03  0.55071140250E+03  0.11569362035E+04  0.12699999809E+01 0. -1.
</event>
<event>
 5   0  0.6445740E-05  0.1890806E+04  0.7818609E-02  0.8659446E-01
       -2   -1    0    0    0  501  0.00000000000E+00  0.00000000000E+00  0.10394027206E+04  0.10394027206E+04  0.25500000920E-02 0.  1.
        2   -1    0    0  501    0  0.00000000000E+00  0.00000000000E+00 -0.85990439819E+03  0.85990439820E+03  0.25500000920E-02 0. -1.
    10030    2    1    2    0    0  0.00000000000E+00  0.00000000000E+00  0.17949832239E+03  0.18993071188E+04  0.18908061465E+04 0.  0.
        5    1    3    3  502    0  0.15789818220E+03  0.26685817748E+03 -0.80736175723E+03  0.86487005952E+03  0.46999998093E+01 0. -1.
       -5    1    3    3    0  502 -0.15789818220E+03 -0.26685817748E+03  0.98686007962E+03  0.10344370593E+04  0.46999998093E+01 0.  1.
</event>
<event>
 5   0  0.2753631E-05  0.2201194E+04  0.7818609E-02  0.8517931E-01
       -1   -1    0    0    0  501  0.00000000000E+00  0.00000000000E+00  0.11317198030E+04  0.11317198030E+04  0.50400001928E-02 0. -1.
        1   -1    0    0  501    0  0.00000000000E+00  0.00000000000E+00 -0.10703303698E+04  0.10703303698E+04  0.50400001928E-02 0.  1.
    10030    2    1    2    0    0  0.00000000000E+00  0.00000000000E+00  0.61389433205E+02  0.22020501728E+04  0.22011942897E+04 0.  0.
        4    1    3    3  502    0  0.54587222552E+03 -0.55228107932E+03  0.81094771433E+03  0.11227772199E+04  0.12699999809E+01 0. -1.
       -4    1    3    3    0  502 -0.54587222552E+03  0.55228107932E+03 -0.74955828112E+03  0.10792729529E+04  0.12699999809E+01 0.  1.
</event>
<event>
 5   0  0.2929471E-05  0.2181359E+04  0.7818609E-02  0.8526227E-01
        1   -1    0    0  501    0  0.00000000000E+00  0.00000000000E+00  0.13645946256E+04  0.13645946256E+04  0.50400001928E-02 0.  1.
       -1   -1    0    0    0  501  0.00000000000E+00  0.00000000000E+00 -0.87174770614E+03  0.87174770616E+03  0.50400001928E-02 0. -1.
    10030    2    1    2    0    0  0.00000000000E+00  0.00000000000E+00  0.49284691945E+03  0.22363423318E+04  0.21813594245E+04 0.  0.
        2    1    3    3  502    0 -0.75122519221E+02 -0.18660073650E+03 -0.85256607838E+03  0.87597496869E+03  0.25500000920E-02 0. -1.
       -2    1    3    3    0  502  0.75122519221E+02  0.18660073650E+03  0.13454129978E+04  0.13603673631E+04  0.25500000920E-02 0.  1.
</event>
<event>
 5   0  0.6306919E-05  0.2197000E+04  0.7818609E-02  0.8519678E-01
        2   -1    0    0  501    0  0.00000000000E+00  0.00000000000E+00  0.99501468118E+03  0.99501468118E+03  0.25500000920E-02 0. -1.
       -2   -1    0    0    0  501  0.00000000000E+00  0.00000000000E+00 -0.12127478446E+04  0.12127478446E+04  0.25500000920E-02 0.  1.
    10030    2    1    2    0    0  0.00000000000E+00  0.00000000000E+00 -0.21773316342E+03  0.22077625258E+04  0.21969996904E+04 0.  0.
        3    1    3    3  502    0  0.62604019786E+03 -0.89065094437E+03  0.38536929742E+02  0.10893440867E+04  0.10100000352E+00 0.  1.
       -3    1    3    3    0  502 -0.62604019786E+03  0.89065094437E+03 -0.25627009316E+03  0.11184184391E+04  0.10100000352E+00 0. -1.
</event>
<event>
 5   0  0.6293013E-05  0.2184607E+04  0.7818609E-02  0.8524862E-01
       -2   -1    0    0    0  501  0.00000000000E+00  0.00000000000E+00  0.68319110004E+03  0.68319110005E+03  0.25500000920E-02 0.  1.
        2   -1    0    0  501    0  0.00000000000E+00  0.00000000000E+00 -0.17464027291E+04  0.17464027291E+04  0.25500000920E-02 0. -1.
    10030    2    1    2    0    0  0.00000000000E+00  0.00000000000E+00 -0.10632116291E+04  0.24295938292E+04  0.21846068769E+04 0.  0.
        1    1    3    3  502    0  0.35558718992E+03  0.49394421824E+03  0.47714080989E+03  0.77336051933E+03  0.50400001928E-02 0.  1.
       -1    1    3    3    0  502 -0.35558718992E+03 -0.49394421824E+03 -0.15403524390E+04  0.16562333098E+04  0.50400001928E-02 0. -1.
</event>
<event>
 5   0  0.6628798E-05  0.2174743E+04  0.7818609E-02  0.8529015E-01
       -2   -1    0    0    0  501  0.00000000000E+00  0.00000000000E+00  0.61946266972E+03  0.61946266972E+03  0.25500000920E-02 0. -1.
        2   -1    0    0  501    0  0.00000000000E+00  0.00000000000E+00 -0.19087137363E+04  0.19087137363E+04  0.25500000920E-02 0.  1.
    10030    2    1    2    0    0  0.00000000000E+00  0.00000000000E+00 -0.12892510666E+04  0.25281764060E+04  0.21747431176E+04 0.  0.
        4    1    3    3  502    0  0.23201303419E+03  0.56535529549E+03 -0.16901924409E+04  0.17972781527E+04  0.12699999809E+01 0.  1.
       -4    1    3    3    0  502 -0.23201303419E+03 -0.56535529549E+03  0.40094137428E+03  0.73089825331E+03  0.12699999809E+01 0. -1.
</event>
<event>
 5   0  0.2820239E-05  0.2143187E+04  0.7818609E-02  0.8542454E-01
       -1   -1    0    0    0  501  0.00000000000E+00  0.00000000000E+00  0.11417993423E+04  0.11417993423E+04  0.50400001928E-02 0. -1.
        1   -1    0    0  501    0  0.00000000000E+00  0.00000000000E+00 -0.10057048172E+04  0.10057048172E+04  0.50400001928E-02 0.  1.
    10030    2    1    2    0    0  0.00000000000E+00  0.00000000000E+00  0.13609452504E+03  0.21475041595E+04  0.21431874382E+04 0.  0.
        3    1    3    3  502    0  0.14654920116E+02 -0.35184652902E+03 -0.94606945360E+03  0.10094841098E+04  0.10100000352E+00 0.  1.
       -3    1    3    3    0  502 -0.14654920116E+02  0.35184652902E+03  0.10821639786E+04  0.11380200497E+04  0.10100000352E+00 0. -1.
</event>
<event>
 5   0  0.2908031E-05  0.2192693E+04  0.7818609E-02  0.8521476E-01
        1   -1    0    0  501    0  0.00000000000E+00  0.00000000000E+00  0.16638011691E+04  0.16638011691E+04  0.50400001928E-02 0. -1.
       -1   -1    0    0    0  501  0.00000000000E+00  0.00000000000E+00 -0.72242753830E+03  0.72242753832E+03  0.50400001928E-02 0.  1.
    10030    2    1    2    0    0  0.00000000000E+00  0.00000000000E+00  0.94137363078E+03  0.23862287074E+04  0.21926931229E+04 0.  0.
        1    1    3    3  502    0  0.67589434355E+03  0.20144325023E+03  0.13841566298E+04  0.15534806477E+04  0.50400001928E-02 0. -1.
       -1    1    3    3    0  502 -0.67589434355E+03 -0.20144325023E+03 -0.44278299906E+03  0.83274805974E+03  0.50400001928E-02 0.  1.
</event>
<event>
 5   0  0.2753631E-05  0.2220176E+04  0.7818609E-02  0.8510077E-01
       -1   -1    0    0    0  501  0.00000000000E+00  0.00000000000E+00  0.11264069809E+04  0.11264069809E+04  0.50400001928E-02 0.  1.
        1   -1    0    0  501    0  0.00000000000E+00  0.00000000000E+00 -0.10940057393E+04  0.10940057393E+04  0.50400001928E-02 0. -1.
    10030    2    1    2    0    0  0.00000000000E+00  0.00000000000E+00  0.32401241596E+02  0.22204127201E+04  0.22201763009E+04 0.  0.
        4    1    3    3  502    0  0.24619137248E+03 -0.89039852958E+03 -0.59939262965E+03  0.11012233519E+04  0.12699999809E+01 0. -1.
       -4    1    3    3    0  502 -0.24619137248E+03  0.89039852958E+03  0.63179387124E+03  0.11191893682E+04  0.12699999809E+01 0.  1.
</event>
<event>
 5   0  0.6293013E-05  0.2198053E+04  0.7818609E-02  0.8519239E-01
        2   -1    0    0  501    0  0.00000000000E+00  0.00000000000E+00  0.14188949595E+04  0.14188949595E+04  0.25500000920E-02 0. -1.
       -2   -1    0    0    0  501  0.00000000000E+00  0.00000000000E+00 -0.85126737820E+03  0.85126737820E+03  0.25500000920E-02 0.  1.
    10030    2    1    2    0    0  0.00000000000E+00  0.00000000000E+00  0.56762758132E+03  0.22701623377E+04  0.21980527675E+04 0.  0.
        1    1    3    3  502    0  0.19270315365E+03 -0.17758822622E+03 -0.81852805296E+03  0.85945346415E+03  0.50400001928E-02 0.  1.
       -1    1    3    3    0  502 -0.19270315365E+03  0.17758822622E+03  0.13861556343E+04  0.14107088736E+04  0.50400001928E-02 0. -1.
</event>
<event>
 5   0  0.6628798E-05  0.2209745E+04  0.7818609E-02  0.8514383E-01
       -2   -1    0    0    0  501  0.00000000000E+00  0.00000000000E+00  0.76052804998E+03  0.76052804999E+03  0.25500000920E-02 0. -1.
        2   -1    0    0  501    0  0.00000000000E+00  0.00000000000E+00 -0.16051252081E+04  0.16051252081E+04  0.25500000920E-02 0.  1.
    10030    2    1    2    0    0  0.00000000000E+00  0.00000000000E+00 -0.84459715814E+03  0.23656532581E+04  0.22097445504E+04 0.  0.
        4    1    3    3  502    0 -0.50254908054E+03 -0.89397574897E+03 -0.86239036639E+03  0.13399503629E+04  0.12699999809E+01 0.  1.
       -4    1    3    3    0  502  0.50254908054E+03  0.89397574897E+03  0.17793208244E+02  0.10257028952E+04  0.12699999809E+01 0. -1.
</event>
<event>
 5   0  0.2910318E-05  0.2182012E+04  0.7818609E-02  0.8525953E-01
       -1   -1    0    0    0  501  0.00000000000E+00  0.00000000000E+00  0.10681376272E+04  0.10681376272E+04  0.50400001928E-02 0. -1.
        1   -1    0    0  501    0  0.00000000000E+00  0.00000000000E+00 -0.11143641743E+04  0.11143641743E+04  0.50400001928E-02 0.  1.
    10030    2    1    2    0    0  0.00000000000E+00  0.00000000000E+00 -0.46226547168E+02  0.21825018015E+04  0.21820121952E+04 0.  0.
        5    1    3    3  502    0 -0.10426892525E+04  0.12878391747E+03  0.27103780437E+03  0.10850206247E+04  0.46999998093E+01 0.  1.
       -5    1    3    3    0  502  0.10426892525E+04 -0.12878391747E+03 -0.31726435154E+03  0.10974811768E+04  0.46999998093E+01 0. -1.
</event>
<event>
 5   0  0.6293013E-05  0.2113816E+04  0.7818609E-02  0.8555182E-01
        2   -1    0    0  501    0  0.00000000000E+00  0.00000000000E+00  0.18775743806E+04  0.18775743806E+04  0.25500000920E-02 0.  1.
       -2   -1    0    0    0  501  0.00000000000E+00  0.00000000000E+00 -0.59494547201E+03  0.59494547202E+03  0.25500000920E-02 0. -1.
    10030    2    1    2    0    0  0.00000000000E+00  0.00000000000E+00  0.12826289086E+04  0.24725198526E+04  0.21138158634E+04 0.  0.
        1    1    3    3  502    0 -0.90537211953E+03 -0.25394105559E+03  0.76859782473E+02  0.94344695703E+03  0.50400001928E-02 0. -1.
       -1    1    3    3    0  502  0.90537211953E+03  0.25394105559E+03  0.12057691261E+04  0.15290728956E+04  0.50400001928E-02 0.  1.
</event>
<event>
 5   0  0.2820239E-05  0.2254655E+04  0.7818609E-02  0.8496018E-01
       -1   -1    0    0    0  501  0.00000000000E+00  0.00000000000E+00  0.14406512438E+04  0.14406512438E+04  0.50400001928E-02 0.  1.
        1   -1    0    0  501    0  0.00000000000E+00  0.00000000000E+00 -0.88214802195E+03  0.88214802196E+03  0.50400001928E-02 0. -1.
    10030    2    1    2    0    0  0.00000000000E+00  0.00000000000E+00  0.55850322180E+03  0.23227992657E+04  0.22546553129E+04 0.  0.
        3    1    3    3  502    0  0.23326106981E+03 -0.94945539305E+03  0.85745528484E+03  0.13004252557E+04  0.10100000352E+00 0.  1.
       -3    1    3    3    0  502 -0.23326106981E+03  0.94945539305E+03 -0.29895206304E+03  0.10223740100E+04  0.10100000352E+00 0. -1.
</event>
<event>
 5   0  0.2910318E-05  0.2194400E+04  0.7818609E-02  0.8520763E-01
        1   -1    0    0  501    0  0.00000000000E+00  0.00000000000E+00  0.70376878995E+03  0.70376878996E+03  0.50400001928E-02 0. -1.
       -1   -1    0    0    0  501  0.00000000000E+00  0.00000000000E+00 -0.17105723737E+04  0.17105723737E+04  0.50400001928E-02 0.  1.
    10030    2    1    2    0    0  0.00000000000E+00  0.00000000000E+00 -0.10068035838E+04  0.24143411637E+04  0.21943996442E+04 0.  0.
        5    1    3    3  502    0 -0.94450671360E+03  0.31913526588E+03  0.64833580261E+00  0.99697681031E+03  0.46999998093E+01 0. -1.
       -5    1    3    3    0  502  0.94450671360E+03 -0.31913526588E+03 -0.10074519196E+04  0.14173643534E+04  0.46999998093E+01 0.  1.
</event>
<event>
 5   0  0.2910318E-05  0.2189526E+04  0.7818609E-02  0.8522800E-01
       -1   -1    0    0    0  501  0.00000000000E+00  0.00000000000E+00  0.67660418949E+03  0.67660418950E+03  0.50400001928E-02 0.  1.
        1   -1    0    0  501    0  0.00000000000E+00  0.00000000000E+00 -0.17713543958E+04  0.17713543958E+04  0.50400001928E-02 0. -1.
    10030    2    1    2    0    0  0.00000000000E+00  0.00000000000E+00 -0.10947502063E+04  0.24479585853E+04  0.21895257982E+04 0.  0.
        5    1    3    3  502    0 -0.23744401500E+03 -0.54702183456E+03  0.47906733229E+03  0.76494453826E+03  0.46999998093E+01 0.  1.
       -5    1    3    3    0  502  0.23744401500E+03  0.54702183456E+03 -0.15738175386E+04  0.16830140470E+04  0.46999998093E+01 0. -1.
</event>
<event>
 5   0  0.2245375E-05  0.2188276E+04  0.7818609E-02  0.8523324E-01
       -4   -1    0    0    0  501  0.00000000000E+00  0.00000000000E+00  0.86117845967E+03  0.86117939612E+03  0.12699999809E+01 0. -1.
        4   -1    0    0  501    0  0.00000000000E+00  0.00000000000E+00 -0.13901138162E+04  0.13901143963E+04  0.12699999809E+01 0.  1.
    10030    2    1    2    0    0  0.00000000000E+00  0.00000000000E+00 -0.52893535649E+03  0.22512937924E+04  0.21882758346E+04 0.  0.
        4    1    3    3  502    0  0.15582030172E+03  0.87054944099E+03 -0.92722432452E+03  0.12813597686E+04  0.12699999809E+01 0.  1.
       -4    1    3    3    0  502 -0.15582030172E+03 -0.87054944099E+03  0.39828896803E+03  0.96993402383E+03  0.12699999809E+01 0. -1.
</event>
<event>
 5   0  0.6445740E-05  0.2208095E+04  0.7818609E-02  0.8515066E-01
        2   -1    0    0  501    0  0.00000000000E+00  0.00000000000E+00  0.22832537223E+04  0.22832537223E+04  0.25500000920E-02 0. -1.
       -2   -1    0    0    0  501  0.00000000000E+00  0.00000000000E+00 -0.53385266760E+03  0.53385266761E+03  0.25500000920E-02 0.  1.
    10030    2    1    2    0    0  0.00000000000E+00  0.00000000000E+00  0.17494010547E+04  0.28171063899E+04  0.22080951886E+04 0.  0.
        5    1    3    3  502    0  0.10107697108E+03  0.10759643652E+04  0.58663007846E+03  0.12296636972E+04  0.46999998093E+01 0.  1.
       -5    1    3    3    0  502 -0.10107697108E+03 -0.10759643652E+04  0.11627709762E+04  0.15874426927E+04  0.46999998093E+01 0. -1.
</event>
<event>
 5   0  0.6628798E-05  0.2250181E+04  0.7818609E-02  0.8497827E-01
        2   -1    0    0  501    0  0.00000000000E+00  0.00000000000E+00  0.22567895782E+04  0.22567895782E+04  0.25500000920E-02 0.  1.
       -2   -1    0    0    0  501  0.00000000000E+00  0.00000000000E+00 -0.56089776754E+03  0.56089776755E+03  0.25500000920E-02 0. -1.
    10030    2    1    2    0    0  0.00000000000E+00  0.00000000000E+00  0.16958918106E+04  0.28176873457E+04  0.22501806472E+04 0.  0.
        4    1    3    3  502    0  0.92428131139E+03 -0.45701901221E+03  0.28422512253E+03  0.10695549791E+04  0.12699999809E+01 0.  1.
       -4    1    3    3    0  502 -0.92428131139E+03  0.45701901221E+03  0.14116666881E+04  0.17481323666E+04  0.12699999809E+01 0. -1.
</event>
<event>
 5   0  0.2908031E-05  0.2202597E+04  0.7818609E-02  0.8517348E-01
       -1   -1    0    0    0  501  0.00000000000E+00  0.00000000000E+00  0.82666900678E+03  0.82666900680E+03  0.50400001928E-02 0. -1.
        1   -1    0    0  501    0  0.00000000000E+00  0.00000000000E+00 -0.14671635860E+04  0.14671635860E+04  0.50400001928E-02 0.  1.
    10030    2    1    2    0    0  0.00000000000E+00  0.00000000000E+00 -0.64049457917E+03  0.22938325928E+04  0.22025972527E+04 0.  0.
        1    1    3    3  502    0  0.57848864790E+03 -0.44543498752E+03  0.53840299533E+03  0.90715997997E+03  0.50400001928E-02 0. -1.
       -1    1    3    3    0  502 -0.57848864790E+03  0.44543498752E+03 -0.11788975745E+04  0.13866726128E+04  0.50400001928E-02 0.  1.
</event>
<event>
 5   0  0.6445740E-05  0.2211865E+04  0.7818609E-02  0.8513506E-01
       -2   -1    0    0    0  501  0.00000000000E+00  0.00000000000E+00  0.64324523735E+03  0.64324523736E+03  0.25500000920E-02 0. -1.
        2   -1    0    0  501    0  0.00000000000E+00  0.00000000000E+00 -0.19014316581E+04  0.19014316581E+04  0.25500000920E-02 0.  1.
    10030    2    1    2    0    0  0.00000000000E+00  0.00000000000E+00 -0.12581864208E+04  0.25446768955E+04  0.22118651480E+04 0.  0.
        5    1    3    3  502    0  0.39699337183E+02 -0.66653449251E+03 -0.16433457993E+04  0.17738240536E+04  0.46999998093E+01 0.  1.
       -5    1    3    3    0  502 -0.39699337183E+02  0.66653449251E+03  0.38515937847E+03  0.77085284193E+03  0.46999998093E+01 0. -1.
</event>
<event>
 5   0  0.2910318E-05  0.2176071E+04  0.7818609E-02  0.8528455E-01
        1   -1    0    0  501    0  0.00000000000E+00  0.00000000000E+00  0.88866094596E+03  0.88866094597E+03  0.50400001928E-02 0. -1.
       -1   -1    0    0    0  501  0.00000000000E+00  0.00000000000E+00 -0.13321401021E+04  0.13321401021E+04  0.50400001928E-02 0.  1.
    10030    2    1    2    0    0  0.00000000000E+00  0.00000000000E+00 -0.44347915617E+03  0.22208010481E+04  0.21760706637E+04 0.  0.
        5    1    3    3  502    0 -0.24580748636E+03  0.86294506622E+03 -0.84977797471E+03  0.12358156027E+04  0.46999998093E+01 0.  1.
       -5    1    3    3    0  502  0.24580748636E+03 -0.86294506622E+03  0.40629881854E+03  0.98498544538E+03  0.46999998093E+01 0. -1.
</event>
<event>
 5   0  0.6306919E-05  0.2205150E+04  0.7818609E-02  0.8516288E-01
        2   -1    0    0  501    0  0.00000000000E+00  0.00000000000E+00  0.27902375264E+04  0.27902375264E+04  0.25500000920E-02 0. -1.
       -2   -1    0    0    0  501  0.00000000000E+00  0.00000000000E+00 -0.43568740495E+03  0.43568740495E+03  0.25500000920E-02 0.  1.
    10030    2    1    2    0    0  0.00000000000E+00  0.00000000000E+00  0.23545501214E+04  0.32259249313E+04  0.22051497428E+04 0.  0.
        3    1    3    3  502    0 -0.43029819877E+03  0.98916804241E+03  0.84348452965E+03  0.13693341878E+04  0.10100000352E+00 0. -1.
       -3    1    3    3    0  502  0.43029819877E+03 -0.98916804241E+03  0.15110655918E+04  0.18565907435E+04  0.10100000352E+00 0.  1.
</event>
<event>
 5   0  0.6445740E-05  0.2184704E+04  0.7818609E-02  0.8524822E-01
       -2   -1    0    0    0  501  0.00000000000E+00  0.00000000000E+00  0.59353493434E+03  0.59353493435E+03  0.25500000920E-02 0.  1.
        2   -1    0    0  501    0  0.00000000000E+00  0.00000000000E+00 -0.20103842113E+04  0.20103842113E+04  0.25500000920E-02 0. -1.
    10030    2    1    2    0    0  0.00000000000E+00  0.00000000000E+00 -0.14168492769E+04  0.26039191456E+04  0.21847043378E+04 0.  0.
        5    1    3    3  502    0  0.46251910452E+03 -0.45272723889E+03 -0.17572339814E+04  0.18726396424E+04  0.46999998093E+01 0. -1.
       -5    1    3    3    0  502 -0.46251910452E+03  0.45272723889E+03  0.34038470443E+03  0.73127950326E+03  0.46999998093E+01 0.  1.
</event>
<event>
 5   0  0.2753631E-05  0.2198218E+04  0.7818609E-02  0.8519170E-01
        1   -1    0    0  501    0  0.00000000000E+00  0.00000000000E+00  0.12583397767E+04  0.12583397767E+04  0.50400001928E-02 0. -1.
       -1   -1    0    0    0  501  0.00000000000E+00  0.00000000000E+00 -0.96002712213E+03  0.96002712214E+03  0.50400001928E-02 0.  1.
    10030    2    1    2    0    0  0.00000000000E+00  0.00000000000E+00  0.29831265456E+03  0.22183668988E+04  0.21982177458E+04 0.  0.
        4    1    3    3  502    0  0.86935191586E+03 -0.54562156858E+03 -0.24759236962E+03  0.10558310680E+04  0.12699999809E+01 0. -1.
       -4    1    3    3    0  502 -0.86935191586E+03  0.54562156858E+03  0.54590502418E+03  0.11625358309E+04  0.12699999809E+01 0.  1.
</event>
<event>
 5   0  0.6306919E-05  0.2150479E+04  0.7818609E-02  0.8539327E-01
       -2   -1    0    0    0  501  0.00000000000E+00  0.00000000000E+00  0.44340504844E+03  0.44340504845E+03  0.25500000920E-02 0.  1.
        2   -1    0    0  501    0  0.00000000000E+00  0.00000000000E+00 -0.26074119373E+04  0.26074119373E+04  0.25500000920E-02 0. -1.
    10030    2    1    2    0    0  0.00000000000E+00  0.00000000000E+00 -0.21640068888E+04  0.30508169857E+04  0.21504786596E+04 0.  0.
        3    1    3    3  502    0 -0.58943029498E+03 -0.65585787971E+03 -0.20913355364E+03  0.90626402581E+03  0.10100000352E+00 0.  1.
       -3    1    3    3    0  502  0.58943029498E+03  0.65585787971E+03 -0.19548733352E+04  0.21445529599E+04  0.10100000352E+00 0. -1.
</event>
<event>
 5   0  0.6414768E-05  0.2232856E+04  0.7818609E-02  0.8504876E-01
        2   -1    0    0  501    0  0.00000000000E+00  0.00000000000E+00  0.11626224154E+04  0.11626224154E+04  0.25500000920E-02 0. -1.
       -2   -1    0    0    0  501  0.00000000000E+00  0.00000000000E+00 -0.10720691704E+04  0.10720691704E+04  0.25500000920E-02 0.  1.
    10030    2    1    2    0    0  0.00000000000E+00  0.00000000000E+00  0.90553244937E+02  0.22346915858E+04  0.22328561515E+04 0.  0.
        2    1    3    3  502    0 -0.23098369124E+02 -0.68818097329E+03 -0.83424326845E+03  0.10817062529E+04  0.25500000920E-02 0.  1.
       -2    1    3    3    0  502  0.23098369124E+02  0.68818097329E+03  0.92479651338E+03  0.11529853329E+04  0.25500000920E-02 0. -1.
</event>
<event>
 5   0  0.6628798E-05  0.2187198E+04  0.7818609E-02  0.8523776E-01
       -2   -1    0    0    0  501  0.00000000000E+00  0.00000000000E+00  0.11361344148E+04  0.11361344148E+04  0.25500000920E-02 0. -1.
        2   -1    0    0  501    0  0.00000000000E+00  0.00000000000E+00 -0.10526560288E+04  0.10526560288E+04  0.25500000920E-02 0.  1.
    10030    2    1    2    0    0  0.00000000000E+00  0.00000000000E+00  0.83478386023E+02  0.21887904436E+04  0.21871979711E+04 0.  0.
        4    1    3    3  502    0 -0.82521283713E+03 -0.37202036815E+03  0.65584856138E+03  0.11178167691E+04  0.12699999809E+01 0. -1.
       -4    1    3    3    0  502  0.82521283713E+03  0.37202036815E+03 -0.57237017535E+03  0.10709736745E+04  0.12699999809E+01 0.  1.
</event>
<event>
 5   0  0.6445740E-05  0.2174831E+04  0.7818609E-02  0.8528977E-01
       -2   -1    0    0    0  501  0.00000000000E+00  0.00000000000E+00  0.11118634561E+04  0.11118634561E+04  0.25500000920E-02 0.  1.
        2   -1    0    0  501    0  0.00000000000E+00  0.00000000000E+00 -0.10635054037E+04  0.10635054037E+04  0.25500000920E-02 0. -1.
    10030    2    1    2    0    0  0.00000000000E+00  0.00000000000E+00  0.48358052415E+02  0.21753688599E+04  0.21748312981E+04 0.  0.
        5    1    3    3  502    0  0.15446984932E+03  0.48170739663E+03  0.98699045486E+03  0.11090875521E+04  0.46999998093E+01 0.  1.
       -5    1    3    3    0  502 -0.15446984932E+03 -0.48170739663E+03 -0.93863240245E+03  0.10662813077E+04  0.46999998093E+01 0. -1.
</event>
<event>
 5   0  0.6293013E-05  0.2198486E+04  0.7818609E-02  0.8519059E-01
        2   -1    0    0  501    0  0.00000000000E+00  0.00000000000E+00  0.24719121033E+04  0.24719121033E+04  0.25500000920E-02 0.  1.
       -2   -1    0    0    0  501  0.00000000000E+00  0.00000000000E+00 -0.48882608687E+03  0.48882608688E+03  0.25500000920E-02 0. -1.
    10030    2    1    2    0    0  0.00000000000E+00  0.00000000000E+00  0.19830860164E+04  0.29607381901E+04  0.21984859522E+04 0.  0.
        1    1    3    3  502    0  0.72891145544E+03  0.67351330949E+03  0.16280758894E+04  0.19067152880E+04  0.50400001928E-02 0.  1.
       -1    1    3    3    0  502 -0.72891145544E+03 -0.67351330949E+03  0.35501012704E+03  0.10540229022E+04  0.50400001928E-02 0. -1.
</event>
<event>
 5   0  0.6293013E-05  0.2213142E+04  0.7818609E-02  0.8512978E-01
       -2   -1    0    0    0  501  0.00000000000E+00  0.00000000000E+00  0.51125158304E+03  0.51125158304E+03  0.25500000920E-02 0.  1.
        2   -1    0    0  501    0  0.00000000000E+00  0.00000000000E+00 -0.23951003608E+04  0.23951003608E+04  0.25500000920E-02 0. -1.
    10030    2    1    2    0    0  0.00000000000E+00  0.00000000000E+00 -0.18838487778E+04  0.29063519439E+04  0.22131415237E+04 0.  0.
        1    1    3    3  502    0 -0.90114933460E+02  0.26460066391E+03 -0.23479732333E+04  0.23645533440E+04  0.50400001928E-02 0. -1.
       -1    1    3    3    0  502  0.90114933460E+02 -0.26460066391E+03  0.46412445549E+03  0.54179859984E+03  0.50400001928E-02 0.  1.
</event>
<event>
 5   0  0.2908031E-05  0.2194014E+04  0.7818609E-02  0.8520924E-01
       -1   -1    0    0    0  501  0.00000000000E+00  0.00000000000E+00  0.16063062166E+04  0.16063062166E+04  0.50400001928E-02 0. -1.
        1   -1    0    0  501    0  0.00000000000E+00  0.00000000000E+00 -0.74918722398E+03  0.74918722400E+03  0.50400001928E-02 0.  1.
    10030    2    1    2    0    0  0.00000000000E+00  0.00000000000E+00  0.85711899263E+03  0.23554934406E+04  0.21940137605E+04 0.  0.
        1    1    3    3  502    0 -0.28720166964E+03 -0.66092254400E+03  0.13165512111E+04  0.15008699144E+04  0.50400001928E-02 0. -1.
       -1    1    3    3    0  502  0.28720166964E+03  0.66092254400E+03 -0.45943221852E+03  0.85462352627E+03  0.50400001928E-02 0.  1.
</event>
<event>
 5   0  0.2929471E-05  0.2193719E+04  0.7818609E-02  0.8521047E-01
        1   -1    0    0  501    0  0.00000000000E+00  0.00000000000E+00  0.13321091441E+04  0.13321091441E+04  0.50400001928E-02 0. -1.
       -1   -1    0    0    0  501  0.00000000000E+00  0.00000000000E+00 -0.90315500562E+03  0.90315500563E+03  0.50400001928E-02 0.  1.
    10030    2    1    2    0    0  0.00000000000E+00  0.00000000000E+00  0.42895413848E+03  0.22352641497E+04  0.21937192542E+04 0.  0.
        2    1    3    3  502    0 -0.33219956482E+03  0.23002040793E+02  0.12793602139E+04  0.13219864604E+04  0.25500000920E-02 0. -1.
       -2    1    3    3    0  502  0.33219956482E+03 -0.23002040793E+02 -0.85040607538E+03  0.91327768931E+03  0.25500000920E-02 0.  1.
</event>
<event>
 5   0  0.6293013E-05  0.2114101E+04  0.7818609E-02  0.8555057E-01
        2   -1    0    0  501    0  0.00000000000E+00  0.00000000000E+00  0.14642534931E+04  0.14642534931E+04  0.25500000920E-02 0.  1.
       -2   -1    0    0    0  501  0.00000000000E+00  0.00000000000E+00 -0.76308867660E+03  0.76308867660E+03  0.25500000920E-02 0. -1.
    10030    2    1    2    0    0  0.00000000000E+00  0.00000000000E+00  0.70116481650E+03  0.22273421697E+04  0.21141005277E+04 0.  0.
        1    1    3    3  502    0  0.99931785984E+03  0.88954910529E+02 -0.12354485136E+00  0.10032692442E+04  0.50400001928E-02 0. -1.
       -1    1    3    3    0  502 -0.99931785984E+03 -0.88954910529E+02  0.70128836135E+03  0.12240729255E+04  0.50400001928E-02 0.  1.
</event>
<event>
 5   0  0.2820239E-05  0.2154748E+04  0.7818609E-02  0.8537503E-01
        1   -1    0    0  501    0  0.00000000000E+00  0.00000000000E+00  0.18318023154E+04  0.18318023154E+04  0.50400001928E-02 0. -1.
       -1   -1    0    0    0  501  0.00000000000E+00  0.00000000000E+00 -0.63365734411E+03  0.63365734413E+03  0.50400001928E-02 0.  1.
    10030    2    1    2    0    0  0.00000000000E+00  0.00000000000E+00  0.11981449713E+04  0.24654596596E+04  0.21547482360E+04 0.  0.
        3    1    3    3  502    0 -0.94670521087E+03  0.69990833919E+02  0.16108685310E+02  0.94942560165E+03  0.10100000352E+00 0.  1.
       -3    1    3    3    0  502  0.94670521087E+03 -0.69990833919E+02  0.11820362860E+04  0.15160340579E+04  0.10100000352E+00 0. -1.
</event>
<event>
 5   0  0.6445740E-05  0.1908963E+04  0.7818609E-02  0.8650408E-01
       -2   -1    0    0    0  501  0.00000000000E+00  0.00000000000E+00  0.11299986365E+04  0.11299986365E+04  0.25500000920E-02 0.  1.
        2   -1    0    0  501    0  0.00000000000E+00  0.00000000000E+00 -0.80622641842E+03  0.80622641843E+03  0.25500000920E-02 0. -1.
    10030    2    1    2    0    0  0.00000000000E+00  0.00000000000E+00  0.32377221806E+03  0.19362250549E+04  0.19089628111E+04 0.  0.
        5    1    3    3  502    0  0.79603925545E+03 -0.33626448852E+03 -0.24919238260E+03  0.89937269027E+03  0.46999998093E+01 0. -1.
       -5    1    3    3    0  502 -0.79603925545E+03  0.33626448852E+03  0.57296460066E+03  0.10368523646E+04  0.46999998093E+01 0.  1.
</event>
<event>
 5   0  0.2820239E-05  0.2176443E+04  0.7818609E-02  0.8528297E-01
        1   -1    0    0  501    0  0.00000000000E+00  0.00000000000E+00  0.19993659290E+04  0.19993659290E+04  0.50400001928E-02 0.  1.
       -1   -1    0    0    0  501  0.00000000000E+00  0.00000000000E+00 -0.59230092976E+03  0.59230092978E+03  0.50400001928E-02 0. -1.
    10030    2    1    2    0    0  0.00000000000E+00  0.00000000000E+00  0.14070649992E+04  0.25916668588E+04  0.21764432441E+04 0.  0.
        3    1    3    3  502    0  0.52603450959E+02  0.10477994694E+04  0.35928471225E+03  0.11089347888E+04  0.10100000352E+00 0. -1.
       -3    1    3    3    0  502 -0.52603450959E+02 -0.10477994694E+04  0.10477802870E+04  0.14827320699E+04  0.10100000352E+00 0.  1.
</event>
<event>
 5   0  0.6414768E-05  0.2200893E+04  0.7818609E-02  0.8518056E-01
        2   -1    0    0  501    0  0.00000000000E+00  0.00000000000E+00  0.11653358785E+04  0.11653358785E+04  0.25500000920E-02 0. -1.
       -2   -1    0    0    0  501  0.00000000000E+00  0.00000000000E+00 -0.10391707669E+04  0.10391707669E+04  0.25500000920E-02 0.  1.
    10030    2    1    2    0    0  0.00000000000E+00  0.00000000000E+00  0.12616511164E+03  0.22045066454E+04  0.22008934354E+04 0.  0.
        2    1    3    3  502    0  0.87951117863E+03 -0.54773119043E+02  0.72328751854E+03  0.11400372110E+04  0.25500000920E-02 0.  1.
       -2    1    3    3    0  502 -0.87951117863E+03  0.54773119043E+02 -0.59712240690E+03  0.10644694344E+04  0.25500000920E-02 0. -1.
</event>
<event>
 5   0  0.2753631E-05  0.2191259E+04  0.7818609E-02  0.8522075E-01
       -1   -1    0    0    0  501  0.00000000000E+00  0.00000000000E+00  0.11518944213E+04  0.11518944213E+04  0.50400001928E-02 0. -1.
        1   -1    0    0  501    0  0.00000000000E+00  0.00000000000E+00 -0.10421128073E+04  0.10421128073E+04  0.50400001928E-02 0.  1.
    10030    2    1    2    0    0  0.00000000000E+00  0.00000000000E+00  0.10978161403E+03  0.21940072286E+04  0.21912589342E+04 0.  0.
        4    1    3    3  502    0 -0.97199106974E+03  0.22008314689E+03 -0.40087135955E+03  0.10741986274E+04  0.12699999809E+01 0.  1.
       -4    1    3    3    0  502  0.97199106974E+03 -0.22008314689E+03  0.51065297358E+03  0.11198086013E+04  0.12699999809E+01 0. -1.
</event>
<event>
 5   0  0.2910318E-05  0.2218302E+04  0.7818609E-02  0.8510849E-01
        1   -1    0    0  501    0  0.00000000000E+00  0.00000000000E+00  0.17012789599E+04  0.17012789599E+04  0.50400001928E-02 0. -1.
       -1   -1    0    0    0  501  0.00000000000E+00  0.00000000000E+00 -0.72311255451E+03  0.72311255453E+03  0.50400001928E-02 0.  1.
    10030    2    1    2    0    0  0.00000000000E+00  0.00000000000E+00  0.97816640541E+03  0.24243915145E+04  0.22183022109E+04 0.  0.
        5    1    3    3  502    0  0.19523851367E+02  0.42433968493E+03 -0.63067621399E+03  0.76040773659E+03  0.46999998093E+01 0.  1.
       -5    1    3    3    0  502 -0.19523851367E+02 -0.42433968493E+03  0.16088426194E+04  0.16639837779E+04  0.46999998093E+01 0. -1.
</event>
<event>
 5   0  0.2908031E-05  0.2447008E+04  0.7818609E-02  0.8422111E-01
       -1   -1    0    0    0  501  0.00000000000E+00  0.00000000000E+00  0.31687649158E+04  0.31687649158E+04  0.50400001928E-02 0. -1.
        1   -1    0    0  501    0  0.00000000000E+00  0.00000000000E+00 -0.47241174943E+03  0.47241174945E+03  0.50400001928E-02 0.  1.
    10030    2    1    2    0    0  0.00000000000E+00  0.00000000000E+00  0.26963531664E+04  0.36411766652E+04  0.24470077870E+04 0.  0.
        1    1    3    3  502    0  0.38026580283E+03  0.92887917683E+03  0.23892992408E+04  0.25915573442E+04  0.50400001928E-02 0. -1.
       -1    1    3    3    0  502 -0.38026580283E+03 -0.92887917683E+03  0.30705392555E+03  0.10496193211E+04  0.50400001928E-02 0.  1.
</event>
<event>
 5   0  0.2929471E-05  0.2210205E+04  0.7818609E-02  0.8514193E-01
        1   -1    0    0  501    0  0.00000000000E+00  0.00000000000E+00  0.13225838603E+04  0.13225838604E+04  0.50400001928E-02 0.  1.
       -1   -1    0    0    0  501  0.00000000000E+00  0.00000000000E+00 -0.92338305294E+03  0.92338305296E+03  0.50400001928E-02 0. -1.
    10030    2    1    2    0    0  0.00000000000E+00  0.00000000000E+00  0.39920080740E+03  0.22459669133E+04  0.22102049885E+04 0.  0.
        2    1    3    3  502    0  0.44136390735E+03 -0.90122001882E+03  0.66996339332E+03  0.12065863290E+04  0.25500000920E-02 0.  1.
       -2    1    3    3    0  502 -0.44136390735E+03  0.90122001882E+03 -0.27076258592E+03  0.10393805843E+04  0.25500000920E-02 0. -1.
</event>
<event>
 5   0  0.6306919E-05  0.2204352E+04  0.7818609E-02  0.8516619E-01
        2   -1    0    0  501    0  0.00000000000E+00  0.00000000000E+00  0.14664112855E+04  0.14664112855E+04  0.25500000920E-02 0.  1.
       -2   -1    0    0    0  501  0.00000000000E+00  0.00000000000E+00 -0.82841128761E+03  0.82841128761E+03  0.25500000920E-02 0. -1.
    10030    2    1    2    0    0  0.00000000000E+00  0.00000000000E+00  0.63799999786E+03  0.22948225731E+04  0.22043517516E+04 0.  0.
        3    1    3    3  502    0 -0.93701048412E+03  0.74611461150E+02  0.91815207668E+03  0.13139858308E+04  0.10100000352E+00 0.  1.
       -3    1    3    3    0  502  0.93701048412E+03 -0.74611461150E+02 -0.28015207883E+03  0.98083674225E+03  0.10100000352E+00 0. -1.
</event>
<event>
 5   0  0.6293013E-05  0.2197811E+04  0.7818609E-02  0.8519340E-01
       -2   -1    0    0    0  501  0.00000000000E+00  0.00000000000E+00  0.77585458628E+03  0.77585458629E+03  0.25500000920E-02 0.  1.
        2   -1    0    0  501    0  0.00000000000E+00  0.00000000000E+00 -0.15564688727E+04  0.15564688727E+04  0.25500000920E-02 0. -1.
    10030    2    1    2    0    0  0.00000000000E+00  0.00000000000E+00 -0.78061428646E+03  0.23323234590E+04  0.21978111960E+04 0.  0.
        1    1    3    3  502    0 -0.14751359524E+03 -0.98757965523E+03 -0.87721271771E+03  0.13291260243E+04  0.50400001928E-02 0. -1.
       -1    1    3    3    0  502  0.14751359524E+03  0.98757965523E+03  0.96598431248E+02  0.10031974348E+04  0.50400001928E-02 0.  1.
</event>
<event>
 5   0  0.2929471E-05  0.2182514E+04  0.7818609E-02  0.8525742E-01
        1   -1    0    0  501    0  0.00000000000E+00  0.00000000000E+00  0.11211771486E+04  0.11211771486E+04  0.50400001928E-02 0.  1.
       -1   -1    0    0    0  501  0.00000000000E+00  0.00000000000E+00 -0.10621354293E+04  0.10621354293E+04  0.50400001928E-02 0. -1.
    10030    2    1    2    0    0  0.00000000000E+00  0.00000000000E+00  0.59041719294E+02  0.21833125780E+04  0.21825141211E+04 0.  0.
        2    1    3    3  502    0 -0.74189851050E+03  0.16459570275E+03 -0.75392389184E+03  0.10704701677E+04  0.25500000920E-02 0. -1.
       -2    1    3    3    0  502  0.74189851050E+03 -0.16459570275E+03  0.81296561113E+03  0.11128424103E+04  0.25500000920E-02 0.  1.
</event>
<event>
 5   0  0.2753631E-05  0.2181337E+04  0.7818609E-02  0.8526236E-01
       -1   -1    0    0    0  501  0.00000000000E+00  0.00000000000E+00  0.12440986212E+04  0.12440986212E+04  0.50400001928E-02 0. -1.
        1   -1    0    0  501    0  0.00000000000E+00  0.00000000000E+00 -0.95616078693E+03  0.95616078695E+03  0.50400001928E-02 0.  1.
    10030    2    1    2    0    0  0.00000000000E+00  0.00000000000E+00  0.28793783425E+03  0.22002594081E+04  0.21813374949E+04 0.  0.
        4    1    3    3  502    0  0.94388909335E+03 -0.54594363002E+03  0.11976837916E+03  0.10969626909E+04  0.12699999809E+01 0.  1.
       -4    1    3    3    0  502 -0.94388909335E+03  0.54594363002E+03  0.16816945509E+03  0.11032967172E+04  0.12699999809E+01 0. -1.
</event>
<event>
 5   0  0.2820239E-05  0.2198745E+04  0.7818609E-02  0.8518951E-01
       -1   -1    0    0    0  501  0.00000000000E+00  0.00000000000E+00  0.79803183528E+03  0.79803183530E+03  0.50400001928E-02 0.  1.
        1   -1    0    0  501    0  0.00000000000E+00  0.00000000000E+00 -0.15145009859E+04  0.15145009859E+04  0.50400001928E-02 0. -1.
    10030    2    1    2    0    0  0.00000000000E+00  0.00000000000E+00 -0.71646915058E+03  0.23125328212E+04  0.21987450978E+04 0.  0.
        3    1    3    3  502    0  0.11727631275E+02  0.45594809091E+03 -0.14102980016E+04  0.14822168068E+04  0.10100000352E+00 0. -1.
       -3    1    3    3    0  502 -0.11727631275E+02 -0.45594809091E+03  0.69382885102E+03  0.83031601433E+03  0.10100000352E+00 0.  1.
</event>
<event>
 5   0  0.2753631E-05  0.2160348E+04  0.7818609E-02  0.8535116E-01
       -1   -1    0    0    0  501  0.00000000000E+00  0.00000000000E+00  0.57615637590E+03  0.57615637592E+03  0.50400001928E-02 0.  1.
        1   -1    0    0  501    0  0.00000000000E+00  0.00000000000E+00 -0.20251025501E+04  0.20251025501E+04  0.50400001928E-02 0. -1.
    10030    2    1    2    0    0  0.00000000000E+00  0.00000000000E+00 -0.14489461742E+04  0.26012589261E+04  0.21603478851E+04 0.  0.
        4    1    3    3  502    0  0.58890320321E+03  0.67240815902E+03 -0.14547474815E+04  0.17074049206E+04  0.12699999809E+01 0. -1.
       -4    1    3    3    0  502 -0.58890320321E+03 -0.67240815902E+03  0.58013072363E+01  0.89385400549E+03  0.12699999809E+01 0.  1.
</event>
<event>
 5   0  0.6414768E-05  0.2247649E+04  0.7818609E-02  0.8498853E-01
       -2   -1    0    0    0  501  0.00000000000E+00  0.00000000000E+00  0.12870298738E+04  0.12870298738E+04  0.25500000920E-02 0.  1.
        2   -1    0    0  501    0  0.00000000000E+00  0.00000000000E+00 -0.98131505863E+03  0.98131505863E+03  0.25500000920E-02 0. -1.
    10030    2    1    2    0    0  0.00000000000E+00  0.00000000000E+00  0.30571481521E+03  0.22683449325E+04  0.22476492574E+04 0.  0.
        2    1    3    3  502    0 -0.53364728166E+03  0.83213380836E+03 -0.38662589237E+03  0.10614639310E+04  0.25500000920E-02 0. -1.
       -2    1    3    3    0  502  0.53364728166E+03 -0.83213380836E+03  0.69234070758E+03  0.12068810014E+04  0.25500000920E-02 0.  1.
</event>
<event>
 5   0  0.6293013E-05  0.2348994E+04  0.7818609E-02  0.8458850E-01
       -2   -1    0    0    0  501  0.00000000000E+00  0.00000000000E+00  0.14755819265E+04  0.14755819265E+04  0.25500000920E-02 0. -1.
        2   -1    0    0  501    0  0.00000000000E+00  0.00000000000E+00 -0.93484714480E+03  0.93484714480E+03  0.25500000920E-02 0.  1.
    10030    2    1    2    0    0  0.00000000000E+00  0.00000000000E+00  0.54073478166E+03  0.24104290713E+04  0.23489942962E+04 0.  0.
        1    1    3    3  502    0  0.40790007809E+03  0.31095173974E+02 -0.85937799182E+03  0.95177724096E+03  0.50400001928E-02 0.  1.
       -1    1    3    3    0  502 -0.40790007809E+03 -0.31095173974E+02  0.14001127735E+04  0.14586518303E+04  0.50400001928E-02 0. -1.
</event>
<event>
 5   0  0.2908031E-05  0.2176438E+04  0.7818609E-02  0.8528300E-01
       -1   -1    0    0    0  501  0.00000000000E+00  0.00000000000E+00  0.68158524035E+03  0.68158524037E+03  0.50400001928E-02 0. -1.
        1   -1    0    0  501    0  0.00000000000E+00  0.00000000000E+00 -0.17374504814E+04  0.17374504814E+04  0.50400001928E-02 0.  1.
    10030    2    1    2    0    0  0.00000000000E+00  0.00000000000E+00 -0.10558652411E+04  0.24190357218E+04  0.21764380111E+04 0.  0.
        1    1    3    3  502    0  0.76949662851E+02 -0.79836444057E+03 -0.13453802132E+04  0.15663189167E+04  0.50400001928E-02 0.  1.
       -1    1    3    3    0  502 -0.76949662851E+02  0.79836444057E+03  0.28951497218E+03  0.85271680511E+03  0.50400001928E-02 0. -1.
</event>
<event>
 5   0  0.6414768E-05  0.2207262E+04  0.7818609E-02  0.8515411E-01
        2   -1    0    0  501    0  0.00000000000E+00  0.00000000000E+00  0.11781525014E+04  0.11781525014E+04  0.25500000920E-02 0.  1.
       -2   -1    0    0    0  501  0.00000000000E+00  0.00000000000E+00 -0.10338234445E+04  0.10338234445E+04  0.25500000920E-02 0. -1.
    10030    2    1    2    0    0  0.00000000000E+00  0.00000000000E+00  0.14432905693E+03  0.22119759459E+04  0.22072622655E+04 0.  0.
        2    1    3    3  502    0 -0.22618163498E+03  0.10585938003E+03  0.11494659763E+04  0.11762807364E+04  0.25500000920E-02 0.  1.
       -2    1    3    3    0  502  0.22618163498E+03 -0.10585938003E+03 -0.10051369193E+04  0.10356952095E+04  0.25500000920E-02 0. -1.
</event>
<event>
 5   0  0.2820239E-05  0.2201476E+04  0.7818609E-02  0.8517814E-01
       -1   -1    0    0    0  501  0.00000000000E+00  0.00000000000E+00  0.12752893471E+04  0.12752893471E+04  0.50400001928E-02 0.  1.
        1   -1    0    0  501    0  0.00000000000E+00  0.00000000000E+00 -0.95007811832E+03  0.95007811833E+03  0.50400001928E-02 0. -1.
    10030    2    1    2    0    0  0.00000000000E+00  0.00000000000E+00  0.32521122874E+03  0.22253674654E+04  0.22014763257E+04 0.  0.
        3    1    3    3  502    0 -0.23756036089E+03  0.97684185792E+03 -0.29055572081E+03  0.10464595441E+04  0.10100000352E+00 0. -1.
       -3    1    3    3    0  502  0.23756036089E+03 -0.97684185792E+03  0.61576694954E+03  0.11789079213E+04  0.10100000352E+00 0.  1.
</event>
<event>
 5   0  0.6293013E-05  0.2147009E+04  0.7818609E-02  0.8540814E-01
        2   -1    0    0  501    0  0.00000000000E+00  0.00000000000E+00  0.19012400242E+04  0.19012400242E+04  0.25500000920E-02 0.  1.
       -2   -1    0    0    0  501  0.00000000000E+00  0.00000000000E+00 -0.60613689949E+03  0.60613689949E+03  0.25500000920E-02 0. -1.
    10030    2    1    2    0    0  0.00000000000E+00  0.00000000000E+00  0.12951031247E+04  0.25073769237E+04  0.21470088341E+04 0.  0.
        1    1    3    3  502    0 -0.14031642874E+03 -0.75001752263E+03  0.15294085522E+04  0.17091827006E+04  0.50400001928E-02 0.  1.
       -1    1    3    3    0  502  0.14031642874E+03  0.75001752263E+03 -0.23430542749E+03  0.79819422311E+03  0.50400001928E-02 0. -1.
</event>
<event>
 5   0  0.2820239E-05  0.2197751E+04  0.7818609E-02  0.8519365E-01
       -1   -1    0    0    0  501  0.00000000000E+00  0.00000000000E+00  0.11111487004E+04  0.11111487004E+04  0.50400001928E-02 0.  1.
        1   -1    0    0  501    0  0.00000000000E+00  0.00000000000E+00 -0.10867374656E+04  0.10867374656E+04  0.50400001928E-02 0. -1.
    10030    2    1    2    0    0  0.00000000000E+00  0.00000000000E+00  0.24411234855E+02  0.21978861660E+04  0.21977505979E+04 0.  0.
        3    1    3    3  502    0 -0.39075259046E+03  0.59580677186E+03  0.84882976220E+03  0.11082352060E+04  0.10100000352E+00 0.  1.
       -3    1    3    3    0  502  0.39075259046E+03 -0.59580677186E+03 -0.82441852735E+03  0.10896509601E+04  0.10100000352E+00 0. -1.
</event>
<event>
 5   0  0.6445740E-05  0.2199334E+04  0.7818609E-02  0.8518705E-01
        2   -1    0    0  501    0  0.00000000000E+00  0.00000000000E+00  0.15296993178E+04  0.15296993178E+04  0.25500000920E-02 0.  1.
       -2   -1    0    0    0  501  0.00000000000E+00  0.00000000000E+00 -0.79052652219E+03  0.79052652220E+03  0.25500000920E-02 0. -1.
    10030    2    1    2    0    0  0.00000000000E+00  0.00000000000E+00  0.73917279556E+03  0.23202258400E+04  0.21993343372E+04 0.  0.
        5    1    3    3  502    0 -0.67993861967E+03  0.48967362853E+03 -0.38170219077E+03  0.92076894030E+03  0.46999998093E+01 0. -1.
       -5    1    3    3    0  502  0.67993861967E+03 -0.48967362853E+03  0.11208749863E+04  0.13994568996E+04  0.46999998093E+01 0.  1.
</event>
<event>
 5   0  0.6293013E-05  0.2176815E+04  0.7818609E-02  0.8528141E-01
       -2   -1    0    0    0  501  0.00000000000E+00  0.00000000000E+00  0.75250837593E+03  0.75250837594E+03  0.25500000920E-02 0.  1.
        2   -1    0    0  501    0  0.00000000000E+00  0.00000000000E+00 -0.15742427154E+04  0.15742427154E+04  0.25500000920E-02 0. -1.
    10030    2    1    2    0    0  0.00000000000E+00  0.00000000000E+00 -0.82173433951E+03  0.23267510914E+04  0.21768149477E+04 0.  0.
        1    1    3    3  502    0  0.20224288929E+03 -0.56652053591E+03  0.55868482299E+03  0.82096067831E+03  0.50400001928E-02 0.  1.
       -1    1    3    3    0  502 -0.20224288929E+03  0.56652053591E+03 -0.13804191625E+04  0.15057904131E+04  0.50400001928E-02 0. -1.
</event>
<event>
 5   0  0.2929471E-05  0.2210217E+04  0.7818609E-02  0.8514188E-01
        1   -1    0    0  501    0  0.00000000000E+00  0.00000000000E+00  0.90811611256E+03  0.90811611257E+03  0.50400001928E-02 0. -1.
       -1   -1    0    0    0  501  0.00000000000E+00  0.00000000000E+00 -0.13448331869E+04  0.13448331870E+04  0.50400001928E-02 0.  1.
    10030    2    1    2    0    0  0.00000000000E+00  0.00000000000E+00 -0.43671707438E+03  0.22529492995E+04  0.22102168996E+04 0.  0.
        2    1    3    3  502    0 -0.38346566573E+03  0.17117553798E+03 -0.12603341799E+04  0.13284536976E+04  0.25500000920E-02 0.  1.
       -2    1    3    3    0  502  0.38346566573E+03 -0.17117553798E+03  0.82361710549E+03  0.92449560197E+03  0.25500000920E-02 0. -1.
</event>
<event>
 5   0  0.6414768E-05  0.2187705E+04  0.7818609E-02  0.8523563E-01
        2   -1    0    0  501    0  0.00000000000E+00  0.00000000000E+00  0.20198208218E+04  0.20198208218E+04  0.25500000920E-02 0. -1.
       -2   -1    0    0    0  501  0.00000000000E+00  0.00000000000E+00 -0.59238596475E+03  0.59238596475E+03  0.25500000920E-02 0.  1.
    10030    2    1    2    0    0  0.00000000000E+00  0.00000000000E+00  0.14274348570E+04  0.26122067865E+04  0.21877051960E+04 0.  0.
        2    1    3    3  502    0  0.51912070249E+03  0.45294765895E+03  0.17282054757E+04  0.18604682345E+04  0.25500000920E-02 0. -1.
       -2    1    3    3    0  502 -0.51912070249E+03 -0.45294765895E+03 -0.30077061866E+03  0.75173855199E+03  0.25500000920E-02 0.  1.
</event>
<event>
 5   0  0.6293013E-05  0.2174541E+04  0.7818609E-02  0.8529100E-01
        2   -1    0    0  501    0  0.00000000000E+00  0.00000000000E+00  0.18873161312E+04  0.18873161312E+04  0.25500000920E-02 0. -1.
       -2   -1    0    0    0  501  0.00000000000E+00  0.00000000000E+00 -0.62636928897E+03  0.62636928898E+03  0.25500000920E-02 0.  1.
    10030    2    1    2    0    0  0.00000000000E+00  0.00000000000E+00  0.12609468422E+04  0.25136854201E+04  0.21745407452E+04 0.  0.
        1    1    3    3  502    0 -0.34206691410E+03  0.91836016811E+03  0.11748339644E+04  0.15299117674E+04  0.50400001928E-02 0. -1.
       -1    1    3    3    0  502  0.34206691410E+03 -0.91836016811E+03  0.86112877806E+02  0.98377365275E+03  0.50400001928E-02 0.  1.
</event>
<event>
 5   0  0.2929471E-05  0.2190803E+04  0.7818609E-02  0.8522266E-01
        1   -1    0    0  501    0  0.00000000000E+00  0.00000000000E+00  0.80083627715E+03  0.80083627717E+03  0.50400001928E-02 0.  1.
       -1   -1    0    0    0  501  0.00000000000E+00  0.00000000000E+00 -0.14983146723E+04  0.14983146724E+04  0.50400001928E-02 0. -1.
    10030    2    1    2    0    0  0.00000000000E+00  0.00000000000E+00 -0.69747839520E+03  0.22991509495E+04  0.21908032721E+04 0.  0.
        2    1    3    3  502    0 -0.19460239662E+03  0.19540086650E+03  0.76380913919E+03  0.81206895798E+03  0.25500000920E-02 0.  1.
       -2    1    3    3    0  502  0.19460239662E+03 -0.19540086650E+03 -0.14612875344E+04  0.14870819915E+04  0.25500000920E-02 0. -1.
</event>
<event>
 5   0  0.2753631E-05  0.2185387E+04  0.7818609E-02  0.8524535E-01
       -1   -1    0    0    0  501  0.00000000000E+00  0.00000000000E+00  0.70421947830E+03  0.70421947832E+03  0.50400001928E-02 0. -1.
        1   -1    0    0  501    0  0.00000000000E+00  0.00000000000E+00 -0.16954649476E+04  0.16954649476E+04  0.50400001928E-02 0.  1.
    10030    2    1    2    0    0  0.00000000000E+00  0.00000000000E+00 -0.99124546931E+03  0.23996844259E+04  0.21853873258E+04 0.  0.
        4    1    3    3  502    0 -0.35535401843E+03 -0.43786611985E+03 -0.15233348404E+04  0.16243626030E+04  0.12699999809E+01 0.  1.
       -4    1    3    3    0  502  0.35535401843E+03  0.43786611985E+03  0.53208937108E+03  0.77532182289E+03  0.12699999809E+01 0. -1.
</event>
<event>
 5   0  0.6445740E-05  0.2207886E+04  0.7818609E-02  0.8515153E-01
        2   -1    0    0  501    0  0.00000000000E+00  0.00000000000E+00  0.20649626377E+04  0.20649626377E+04  0.25500000920E-02 0.  1.
       -2   -1    0    0    0  501  0.00000000000E+00  0.00000000000E+00 -0.59017519425E+03  0.59017519426E+03  0.25500000920E-02 0. -1.
    10030    2    1    2    0    0  0.00000000000E+00  0.00000000000E+00  0.14747874434E+04  0.26551378319E+04  0.22078856183E+04 0.  0.
        5    1    3    3  502    0  0.26901934436E+03  0.20149094878E+03 -0.52713497291E+03  0.62519067471E+03  0.46999998093E+01 0. -1.
       -5    1    3    3    0  502 -0.26901934436E+03 -0.20149094878E+03  0.20019224163E+04  0.20299471572E+04  0.46999998093E+01 0.  1.
</event>
<event>
 5   0  0.2820239E-05  0.2231168E+04  0.7818609E-02  0.8505566E-01
        1   -1    0    0  501    0  0.00000000000E+00  0.00000000000E+00  0.20383959659E+04  0.20383959659E+04  0.50400001928E-02 0. -1.
       -1   -1    0    0    0  501  0.00000000000E+00  0.00000000000E+00 -0.61054261939E+03  0.61054261941E+03  0.50400001928E-02 0.  1.
    10030    2    1    2    0    0  0.00000000000E+00  0.00000000000E+00  0.14278533465E+04  0.26489385853E+04  0.22311679564E+04 0.  0.
        3    1    3    3  502    0  0.94931499855E+03  0.44650064438E+03  0.11644002361E+04  0.15672873737E+04  0.10100000352E+00 0. -1.
       -3    1    3    3    0  502 -0.94931499855E+03 -0.44650064438E+03  0.26345311043E+03  0.10816512116E+04  0.10100000352E+00 0.  1.
</event>
<event>
 5   0  0.2820239E-05  0.2178794E+04  0.7818609E-02  0.8527306E-01
       -1   -1    0    0    0  501  0.00000000000E+00  0.00000000000E+00  0.96496726170E+03  0.96496726172E+03  0.50400001928E-02 0. -1.
        1   -1    0    0  501    0  0.00000000000E+00  0.00000000000E+00 -0.12298720860E+04  0.12298720860E+04  0.50400001928E-02 0.  1.
    10030    2    1    2    0    0  0.00000000000E+00  0.00000000000E+00 -0.26490482425E+03  0.21948393477E+04  0.21787944364E+04 0.  0.
        3    1    3    3  502    0 -0.61194258274E+03  0.23884486074E+03  0.74300769249E+03  0.99175653936E+03  0.10100000352E+00 0.  1.
       -3    1    3    3    0  502  0.61194258274E+03 -0.23884486074E+03 -0.10079125167E+04  0.12030828083E+04  0.10100000352E+00 0. -1.
</event>
<event>
 5   0  0.6306919E-05  0.2190151E+04  0.7818609E-02  0.8522539E-01
       -2   -1    0    0    0  501  0.00000000000E+00  0.00000000000E+00  0.49307677109E+03  0.49307677109E+03  0.25500000920E-02 0.  1.
        2   -1    0    0  501    0  0.00000000000E+00  0.00000000000E+00 -0.24320556541E+04  0.24320556541E+04  0.25500000920E-02 0. -1.
    10030    2    1    2    0    0  0.00000000000E+00  0.00000000000E+00 -0.19389788830E+04  0.29251324252E+04  0.21901508159E+04 0.  0.
        3    1    3    3  502    0  0.10407274027E+01  0.10335761669E+04 -0.48625612941E+03  0.11422459496E+04  0.10100000352E+00 0.  1.
       -3    1    3    3    0  502 -0.10407274027E+01 -0.10335761669E+04 -0.14527227536E+04  0.17828864756E+04  0.10100000352E+00 0. -1.
</event>
<event>
 5   0  0.6445740E-05  0.2196468E+04  0.7818609E-02  0.8519900E-01
       -2   -1    0    0    0  501  0.00000000000E+00  0.00000000000E+00  0.12565602013E+04  0.12565602013E+04  0.25500000920E-02 0. -1.
        2   -1    0    0  501    0  0.00000000000E+00  0.00000000000E+00 -0.95985688582E+03  0.95985688582E+03  0.25500000920E-02 0.  1.
    10030    2    1    2    0    0  0.00000000000E+00  0.00000000000E+00  0.29670331545E+03  0.22164170871E+04  0.21964680390E+04 0.  0.
        5    1    3    3  502    0 -0.93060762994E+03  0.23528211092E+02  0.73632007122E+03  0.11869176361E+04  0.46999998093E+01 0. -1.
       -5    1    3    3    0  502  0.93060762994E+03 -0.23528211092E+02 -0.43961675578E+03  0.10294994510E+04  0.46999998093E+01 0.  1.
</event>
<event>
 5   0  0.2910318E-05  0.2156533E+04  0.7818609E-02  0.8536741E-01
        1   -1    0    0  501    0  0.00000000000E+00  0.00000000000E+00  0.29501251195E+04  0.29501251195E+04  0.50400001928E-02 0. -1.
       -1   -1    0    0    0  501  0.00000000000E+00  0.00000000000E+00 -0.39410496145E+03  0.39410496148E+03  0.50400001928E-02 0.  1.
    10030    2    1    2    0    0  0.00000000000E+00  0.00000000000E+00  0.25560201581E+04  0.33442300810E+04  0.21565332796E+04 0.  0.
        5    1    3    3  502    0 -0.94070787793E+03 -0.49918453071E+03  0.15398991675E+04  0.18722788370E+04  0.46999998093E+01 0. -1.
       -5    1    3    3    0  502  0.94070787793E+03  0.49918453071E+03  0.10161209905E+04  0.14719512440E+04  0.46999998093E+01 0.  1.
</event>
<event>
 5   0  0.2929471E-05  0.2299600E+04  0.7818609E-02  0.8478079E-01
       -1   -1    0    0    0  501  0.00000000000E+00  0.00000000000E+00  0.64057958438E+03  0.64057958440E+03  0.50400001928E-02 0. -1.
        1   -1    0    0  501    0  0.00000000000E+00  0.00000000000E+00 -0.20638190880E+04  0.20638190880E+04  0.50400001928E-02 0.  1.
    10030    2    1    2    0    0  0.00000000000E+00  0.00000000000E+00 -0.14232395036E+04  0.27043986724E+04  0.22996002902E+04 0.  0.
        2    1    3    3  502    0  0.11465391439E+04  0.44561961547E+02 -0.79885704808E+03  0.13981095666E+04  0.25500000920E-02 0.  1.
       -2    1    3    3    0  502 -0.11465391439E+04 -0.44561961547E+02 -0.62438245550E+03  0.13062891057E+04  0.25500000920E-02 0. -1.
</event>
<event>
 5   0  0.6628798E-05  0.2233226E+04  0.7818609E-02  0.8504725E-01
        2   -1    0    0  501    0  0.00000000000E+00  0.00000000000E+00  0.16758918504E+04  0.16758918504E+04  0.25500000920E-02 0. -1.
       -2   -1    0    0    0  501  0.00000000000E+00  0.00000000000E+00 -0.74397688727E+03  0.74397688728E+03  0.25500000920E-02 0.  1.
    10030    2    1    2    0    0  0.00000000000E+00  0.00000000000E+00  0.93191496309E+03  0.24198687376E+04  0.22332261885E+04 0.  0.
        4    1    3    3  502    0  0.31140700264E+03 -0.31716639209E+02 -0.69546284746E+03  0.76266011538E+03  0.12699999809E+01 0.  1.
       -4    1    3    3    0  502 -0.31140700264E+03  0.31716639209E+02  0.16273778106E+04  0.16572086223E+04  0.12699999809E+01 0. -1.
</event>
<event>
 5   0  0.6445740E-05  0.2320503E+04  0.7818609E-02  0.8469881E-01
        2   -1    0    0  501    0  0.00000000000E+00  0.00000000000E+00  0.18666568500E+04  0.18666568500E+04  0.25500000920E-02 0. -1.
       -2   -1    0    0    0  501  0.00000000000E+00  0.00000000000E+00 -0.72117372779E+03  0.72117372780E+03  0.25500000920E-02 0.  1.
    10030    2    1    2    0    0  0.00000000000E+00  0.00000000000E+00  0.11454831222E+04  0.25878305778E+04  0.23205032894E+04 0.  0.
        5    1    3    3  502    0 -0.95685180479E+03 -0.12788003066E+03 -0.14502182192E+03  0.97620289766E+03  0.46999998093E+01 0.  1.
       -5    1    3    3    0  502  0.95685180479E+03  0.12788003066E+03  0.12905049441E+04  0.16116276801E+04  0.46999998093E+01 0. -1.
</event>
<event>
 5   0  0.2908031E-05  0.2205181E+04  0.7818609E-02  0.8516275E-01
       -1   -1    0    0    0  501  0.00000000000E+00  0.00000000000E+00  0.19226377038E+04  0.19226377038E+04  0.50400001928E-02 0.  1.
        1   -1    0    0  501    0  0.00000000000E+00  0.00000000000E+00 -0.63231117683E+03  0.63231117685E+03  0.50400001928E-02 0. -1.
    10030    2    1    2    0    0  0.00000000000E+00  0.00000000000E+00  0.12903265270E+04  0.25549488807E+04  0.22051805451E+04 0.  0.
        1    1    3    3  502    0  0.10164545652E+03 -0.73037948959E+03  0.15948855392E+04  0.17571129391E+04  0.50400001928E-02 0.  1.
       -1    1    3    3    0  502 -0.10164545652E+03  0.73037948959E+03 -0.30455901223E+03  0.79783594154E+03  0.50400001928E-02 0. -1.
</event>
<event>
 5   0  0.6414768E-05  0.2186025E+04  0.7818609E-02  0.8524267E-01
        2   -1    0    0  501    0  0.00000000000E+00  0.00000000000E+00  0.15415142685E+04  0.15415142685E+04  0.25500000920E-02 0.  1.
       -2   -1    0    0    0  501  0.00000000000E+00  0.00000000000E+00 -0.77500204190E+03  0.77500204190E+03  0.25500000920E-02 0. -1.
    10030    2    1    2    0    0  0.00000000000E+00  0.00000000000E+00  0.76651222662E+03  0.23165163104E+04  0.21860253482E+04 0.  0.
        2    1    3    3  502    0  0.26703906043E+03  0.99800881662E+03  0.76141258778E+03  0.12833863747E+04  0.25500000920E-02 0.  1.
       -2    1    3    3    0  502 -0.26703906043E+03 -0.99800881662E+03  0.50996388370E+01  0.10331299358E+04  0.25500000920E-02 0. -1.
</event>
<event>
 5   0  0.2929471E-05  0.2153288E+04  0.7818609E-02  0.8538126E-01
        1   -1    0    0  501    0  0.00000000000E+00  0.00000000000E+00  0.89603506890E+03  0.89603506891E+03  0.50400001928E-02 0. -1.
       -1   -1    0    0    0  501  0.00000000000E+00  0.00000000000E+00 -0.12936572472E+04  0.12936572472E+04  0.50400001928E-02 0.  1.
    10030    2    1    2    0    0  0.00000000000E+00  0.00000000000E+00 -0.39762217832E+03  0.21896923161E+04  0.21532879609E+04 0.  0.
        2    1    3    3  502    0  0.79609103070E+02  0.21193350810E+03 -0.12691787910E+04  0.12892122496E+04  0.25500000920E-02 0.  1.
       -2    1    3    3    0  502 -0.79609103070E+02 -0.21193350810E+03  0.87155661264E+03  0.90048006652E+03  0.25500000920E-02 0. -1.
</event>
<event>
 5   0  0.6293013E-05  0.2215918E+04  0.7818609E-02  0.8511832E-01
        2   -1    0    0  501    0  0.00000000000E+00  0.00000000000E+00  0.12455000345E+04  0.12455000345E+04  0.25500000920E-02 0. -1.
       -2   -1    0    0    0  501  0.00000000000E+00  0.00000000000E+00 -0.98560686957E+03  0.98560686957E+03  0.25500000920E-02 0.  1.
    10030    2    1    2    0    0  0.00000000000E+00  0.00000000000E+00  0.25989316498E+03  0.22311069041E+04  0.22159182206E+04 0.  0.
        1    1    3    3  502    0  0.67887896524E+03 -0.77156475667E+03 -0.28687721625E+03  0.10669992317E+04  0.50400001928E-02 0.  1.
       -1    1    3    3    0  502 -0.67887896524E+03  0.77156475667E+03  0.54677038123E+03  0.11641076724E+04  0.50400001928E-02 0. -1.
</event>
<event>
 5   0  0.2820239E-05  0.2205636E+04  0.7818609E-02  0.8516086E-01
       -1   -1    0    0    0  501  0.00000000000E+00  0.00000000000E+00  0.83876260642E+03  0.83876260644E+03  0.50400001928E-02 0. -1.
        1   -1    0    0  501    0  0.00000000000E+00  0.00000000000E+00 -0.14500024733E+04  0.14500024733E+04  0.50400001928E-02 0.  1.
    10030    2    1    2    0    0  0.00000000000E+00  0.00000000000E+00 -0.61123986691E+03  0.22887650798E+04  0.22056362836E+04 0.  0.
        3    1    3    3  502    0 -0.77429623514E+03  0.11086469336E+03  0.50110068171E+03  0.92893893416E+03  0.10100000352E+00 0. -1.
       -3    1    3    3    0  502  0.77429623514E+03 -0.11086469336E+03 -0.11123405486E+04  0.13598261456E+04  0.10100000352E+00 0.  1.
</event>
<event>
 5   0  0.2820239E-05  0.2205862E+04  0.7818609E-02  0.8515992E-01
       -1   -1    0    0    0  501  0.00000000000E+00  0.00000000000E+00  0.12070723583E+04  0.12070723583E+04  0.50400001928E-02 0.  1.
        1   -1    0    0  501    0  0.00000000000E+00  0.00000000000E+00 -0.10077745860E+04  0.10077745860E+04  0.50400001928E-02 0. -1.
    10030    2    1    2    0    0  0.00000000000E+00  0.00000000000E+00  0.19929777231E+03  0.22148469443E+04  0.22058620502E+04 0.  0.
        3    1    3    3  502    0 -0.46523992304E+03 -0.74577263621E+03 -0.56927174503E+03  0.10472322287E+04  0.10100000352E+00 0. -1.
       -3    1    3    3    0  502  0.46523992304E+03  0.74577263621E+03  0.76856951733E+03  0.11676147156E+04  0.10100000352E+00 0.  1.
</event>
<event>
 5   0  0.6628798E-05  0.2197403E+04  0.7818609E-02  0.8519510E-01
       -2   -1    0    0    0  501  0.00000000000E+00  0.00000000000E+00  0.11521564113E+04  0.11521564113E+04  0.25500000920E-02 0.  1.
        2   -1    0    0  501    0  0.00000000000E+00  0.00000000000E+00 -0.10477268429E+04  0.10477268429E+04  0.25500000920E-02 0. -1.
    10030    2    1    2    0    0  0.00000000000E+00  0.00000000000E+00  0.10442956838E+03  0.21998832542E+04  0.21974031941E+04 0.  0.
        4    1    3    3  502    0 -0.56941535693E+03  0.21461789465E+03  0.96804170689E+03  0.11434163934E+04  0.12699999809E+01 0.  1.
       -4    1    3    3    0  502  0.56941535693E+03 -0.21461789465E+03 -0.86361213850E+03  0.10564668609E+04  0.12699999809E+01 0. -1.
</event>
<event>
 5   0  0.6293013E-05  0.2183977E+04  0.7818609E-02  0.8525127E-01
        2   -1    0    0  501    0  0.00000000000E+00  0.00000000000E+00  0.17648262906E+04  0.17648262906E+04  0.25500000920E-02 0.  1.
       -2   -1    0    0    0  501  0.00000000000E+00  0.00000000000E+00 -0.67566904965E+03  0.67566904965E+03  0.25500000920E-02 0. -1.
    10030    2    1    2    0    0  0.00000000000E+00  0.00000000000E+00  0.10891572409E+04  0.24404953402E+04  0.21839766506E+04 0.  0.
        1    1    3    3  502    0 -0.41396533173E+02 -0.10549310006E+04  0.85635736712E+03  0.13593899475E+04  0.50400001928E-02 0.  1.
       -1    1    3    3    0  502  0.41396533173E+02  0.10549310006E+04  0.23279987380E+03  0.10811053928E+04  0.50400001928E-02 0. -1.
</event>
<event>
 5   0  0.2245375E-05  0.2223471E+04  0.7818609E-02  0.8508722E-01
        4   -1    0    0  501    0  0.00000000000E+00  0.00000000000E+00  0.12503413301E+04  0.12503419751E+04  0.12699999809E+01 0. -1.
       -4   -1    0    0    0  501  0.00000000000E+00  0.00000000000E+00 -0.98849346258E+03  0.98849427841E+03  0.12699999809E+01 0.  1.
    10030    2    1    2    0    0  0.00000000000E+00  0.00000000000E+00  0.26184786755E+03  0.22388362535E+04  0.22234710397E+04 0.  0.
        5    1    3    3  502    0 -0.60826410869E+03 -0.87963124658E+03  0.43666250955E+03  0.11551764338E+04  0.46999998093E+01 0. -1.
       -5    1    3    3    0  502  0.60826410869E+03  0.87963124658E+03 -0.17481464200E+03  0.10836598198E+04  0.46999998093E+01 0.  1.
</event>
<event>
 5   0  0.2753631E-05  0.2228957E+04  0.7818609E-02  0.8506471E-01
        1   -1    0    0  501    0  0.00000000000E+00  0.00000000000E+00  0.21450597487E+04  0.21450597487E+04  0.50400001928E-02 0. -1.
       -1   -1    0    0    0  501  0.00000000000E+00  0.00000000000E+00 -0.57903414261E+03  0.57903414263E+03  0.50400001928E-02 0.  1.
    10030    2    1    2    0    0  0.00000000000E+00  0.00000000000E+00  0.15660256061E+04  0.27240938913E+04  0.22289574536E+04 0.  0.
        4    1    3    3  502    0  0.46549231788E+03 -0.88156589449E+02 -0.44983719197E+03  0.65330681494E+03  0.12699999809E+01 0.  1.
       -4    1    3    3    0  502 -0.46549231788E+03  0.88156589449E+02  0.20158627980E+04  0.20707870764E+04  0.12699999809E+01 0. -1.
</event>
<event>
 5   0  0.2910318E-05  0.2194222E+04  0.7818609E-02  0.8520837E-01
       -1   -1    0    0    0  501  0.00000000000E+00  0.00000000000E+00  0.53588206689E+03  0.53588206691E+03  0.50400001928E-02 0. -1.
        1   -1    0    0  501    0  0.00000000000E+00  0.00000000000E+00 -0.22461138987E+04  0.22461138987E+04  0.50400001928E-02 0.  1.
    10030    2    1    2    0    0  0.00000000000E+00  0.00000000000E+00 -0.17102318318E+04  0.27819959656E+04  0.21942216465E+04 0.  0.
        5    1    3    3  502    0 -0.56385040389E+03  0.28406368803E+03  0.28245060828E+03  0.69167903896E+03  0.46999998093E+01 0. -1.
       -5    1    3    3    0  502  0.56385040389E+03 -0.28406368803E+03 -0.19926824401E+04  0.20903169266E+04  0.46999998093E+01 0.  1.
</event>
<event>
 5   0  0.6414768E-05  0.2358832E+04  0.7818609E-02  0.8455079E-01
        2   -1    0    0  501    0  0.00000000000E+00  0.00000000000E+00  0.87543164263E+03  0.87543164264E+03  0.25500000920E-02 0.  1.
       -2   -1    0    0    0  501  0.00000000000E+00  0.00000000000E+00 -0.15889551525E+04  0.15889551525E+04  0.25500000920E-02 0. -1.
    10030    2    1    2    0    0  0.00000000000E+00  0.00000000000E+00 -0.71352350982E+03  0.24643867951E+04  0.23588315914E+04 0.  0.
        2    1    3    3  502    0 -0.66319554907E+03 -0.44578313534E+03 -0.12630299279E+04  0.14945887524E+04  0.25500000920E-02 0. -1.
       -2    1    3    3    0  502  0.66319554907E+03  0.44578313534E+03  0.54950641808E+03  0.96979804268E+03  0.25500000920E-02 0.  1.
</event>
<event>
 5   0  0.2753631E-05  0.2156932E+04  0.7818609E-02  0.8536571E-01
        1   -1    0    0  501    0  0.00000000000E+00  0.00000000000E+00  0.36218839185E+03  0.36218839189E+03  0.50400001928E-02 0.  1.
       -1   -1    0    0    0  501  0.00000000000E+00  0.00000000000E+00 -0.32112819539E+04  0.32112819539E+04  0.50400001928E-02 0. -1.
    10030    2    1    2    0    0  0.00000000000E+00  0.00000000000E+00 -0.28490935621E+04  0.35734703458E+04  0.21569321239E+04 0.  0.
        4    1    3    3  502    0  0.27135561283E+03 -0.30403248017E+03  0.22971853182E+03  0.46780533812E+03  0.12699999809E+01 0.  1.
       -4    1    3    3    0  502 -0.27135561283E+03  0.30403248017E+03 -0.30788120939E+04  0.31056650077E+04  0.12699999809E+01 0. -1.
</event>
<event>
 5   0  0.6445740E-05  0.2169534E+04  0.7818609E-02  0.8531217E-01
        2   -1    0    0  501    0  0.00000000000E+00  0.00000000000E+00  0.17756694875E+04  0.17756694875E+04  0.25500000920E-02 0.  1.
       -2   -1    0    0    0  501  0.00000000000E+00  0.00000000000E+00 -0.66269069237E+03  0.66269069238E+03  0.25500000920E-02 0. -1.
    10030    2    1    2    0    0  0.00000000000E+00  0.00000000000E+00  0.11129787951E+04  0.24383601798E+04  0.21695341823E+04 0.  0.
        5    1    3    3  502    0  0.16706665512E+03 -0.15591857609E+03  0.17482976664E+04  0.17631757399E+04  0.46999998093E+01 0.  1.
       -5    1    3    3    0  502 -0.16706665512E+03  0.15591857609E+03 -0.63531887131E+03  0.67518443989E+03  0.46999998093E+01 0. -1.
</event>
<event>
 5   0  0.2910318E-05  0.2202157E+04  0.7818609E-02  0.8517531E-01
        1   -1    0    0  501    0  0.00000000000E+00  0.00000000000E+00  0.14549504275E+04  0.14549504276E+04  0.50400001928E-02 0.  1.
       -1   -1    0    0    0  501  0.00000000000E+00  0.00000000000E+00 -0.83327487804E+03  0.83327487806E+03  0.50400001928E-02 0. -1.
    10030    2    1    2    0    0  0.00000000000E+00  0.00000000000E+00  0.62167554950E+03  0.22882253056E+04  0.22021567974E+04 0.  0.
        5    1    3    3  502    0 -0.41168576064E+03  0.72304226316E+03  0.10601866593E+04  0.13476991958E+04  0.46999998093E+01 0.  1.
       -5    1    3    3    0  502  0.41168576064E+03 -0.72304226316E+03 -0.43851110978E+03  0.94052610981E+03  0.46999998093E+01 0. -1.
</event>
<event>
 5   0  0.2908031E-05  0.2227051E+04  0.7818609E-02  0.8507253E-01
        1   -1    0    0  501    0  0.00000000000E+00  0.00000000000E+00  0.20252637938E+04  0.20252637938E+04  0.50400001928E-02 0.  1.
       -1   -1    0    0    0  501  0.00000000000E+00  0.00000000000E+00 -0.61223563010E+03  0.61223563012E+03  0.50400001928E-02 0. -1.
    10030    2    1    2    0    0  0.00000000000E+00  0.00000000000E+00  0.14130281637E+04  0.26374994239E+04  0.22270506550E+04 0.  0.
        1    1    3    3  502    0 -0.10920641041E+04  0.20952553789E+02  0.96297931614E+03  0.14561497795E+04  0.50400001928E-02 0.  1.
       -1    1    3    3    0  502  0.10920641041E+04 -0.20952553789E+02  0.45004884756E+03  0.11813496444E+04  0.50400001928E-02 0. -1.
</event>
<event>
 5   0  0.6414768E-05  0.2182349E+04  0.7818609E-02  0.8525811E-01
       -2   -1    0    0    0  501  0.00000000000E+00  0.00000000000E+00  0.71227646540E+03  0.71227646540E+03  0.25500000920E-02 0.  1.
        2   -1    0    0  501    0  0.00000000000E+00  0.00000000000E+00 -0.16716282618E+04  0.16716282618E+04  0.25500000920E-02 0. -1.
    10030    2    1    2    0    0  0.00000000000E+00  0.00000000000E+00 -0.95935179645E+03  0.23839047273E+04  0.21823487071E+04 0.  0.
        2    1    3    3  502    0 -0.12678373587E+03 -0.10786999679E+04 -0.59421066861E+03  0.12380444480E+04  0.25500000920E-02 0. -1.
       -2    1    3    3    0  502  0.12678373587E+03  0.10786999679E+04 -0.36514112783E+03  0.11458602793E+04  0.25500000920E-02 0.  1.
</event>
<event>
 5   0  0.2910318E-05  0.2256006E+04  0.7818609E-02  0.8495472E-01
        1   -1    0    0  501    0  0.00000000000E+00  0.00000000000E+00  0.10011375717E+04  0.10011375717E+04  0.50400001928E-02 0. -1.
       -1   -1    0    0    0  501  0.00000000000E+00  0.00000000000E+00 -0.12709453980E+04  0.12709453980E+04  0.50400001928E-02 0.  1.
    10030    2    1    2    0    0  0.00000000000E+00  0.00000000000E+00 -0.26980782623E+03  0.22720829697E+04  0.22560063737E+04 0.  0.
        5    1    3    3  502    0 -0.54016268231E+03 -0.80056196472E+03  0.45208209482E+03  0.10663374199E+04  0.46999998093E+01 0. -1.
       -5    1    3    3    0  502  0.54016268231E+03  0.80056196472E+03 -0.72188992105E+03  0.12057455498E+04  0.46999998093E+01 0.  1.
</event>
<event>
 5   0  0.6293013E-05  0.2144563E+04  0.7818609E-02  0.8541863E-01
        2   -1    0    0  501    0  0.00000000000E+00  0.00000000000E+00  0.77261769663E+03  0.77261769664E+03  0.25500000920E-02 0.  1.
       -2   -1    0    0    0  501  0.00000000000E+00  0.00000000000E+00 -0.14881720312E+04  0.14881720312E+04  0.25500000920E-02 0. -1.
    10030    2    1    2    0    0  0.00000000000E+00  0.00000000000E+00 -0.71555433453E+03  0.22607897278E+04  0.21445634026E+04 0.  0.
        1    1    3    3  502    0 -0.32940675549E+03  0.10068148035E+04 -0.18263089421E+03  0.10749599540E+04  0.50400001928E-02 0.  1.
       -1    1    3    3    0  502  0.32940675549E+03 -0.10068148035E+04 -0.53292344032E+03  0.11858297738E+04  0.50400001928E-02 0. -1.
</event>
<event>
 5   0  0.2908031E-05  0.2188146E+04  0.7818609E-02  0.8523378E-01
       -1   -1    0    0    0  501  0.00000000000E+00  0.00000000000E+00  0.11316075362E+04  0.11316075362E+04  0.50400001928E-02 0.  1.
        1   -1    0    0  501    0  0.00000000000E+00  0.00000000000E+00 -0.10577838617E+04  0.10577838617E+04  0.50400001928E-02 0. -1.
    10030    2    1    2    0    0  0.00000000000E+00  0.00000000000E+00  0.73823674463E+02  0.21893913979E+04  0.21881464207E+04 0.  0.
        1    1    3    3  502    0  0.10401568602E+04  0.24749974296E+03 -0.19519810771E+03  0.10868692276E+04  0.50400001928E-02 0. -1.
       -1    1    3    3    0  502 -0.10401568602E+04 -0.24749974296E+03  0.26902178217E+03  0.11025221703E+04  0.50400001928E-02 0.  1.
</event>
<event>
 5   0  0.2929471E-05  0.2254567E+04  0.7818609E-02  0.8496053E-01
       -1   -1    0    0    0  501  0.00000000000E+00  0.00000000000E+00  0.61960449540E+03  0.61960449542E+03  0.50400001928E-02 0. -1.
        1   -1    0    0  501    0  0.00000000000E+00  0.00000000000E+00 -0.20509343542E+04  0.20509343542E+04  0.50400001928E-02 0.  1.
    10030    2    1    2    0    0  0.00000000000E+00  0.00000000000E+00 -0.14313298588E+04  0.26705388496E+04  0.22545670499E+04 0.  0.
        2    1    3    3  502    0  0.82076296367E+03 -0.21600969842E+03  0.16314932853E+03  0.86425096803E+03  0.25500000920E-02 0. -1.
       -2    1    3    3    0  502 -0.82076296367E+03  0.21600969842E+03 -0.15944791873E+04  0.18062878816E+04  0.25500000920E-02 0.  1.
</event>
<event>
 5   0  0.6628798E-05  0.1973736E+04  0.7818609E-02  0.8618999E-01
       -2   -1    0    0    0  501  0.00000000000E+00  0.00000000000E+00  0.85273199244E+03  0.85273199244E+03  0.25500000920E-02 0. -1.
        2   -1    0    0  501    0  0.00000000000E+00  0.00000000000E+00 -0.11421040006E+04  0.11421040006E+04  0.25500000920E-02 0.  1.
    10030    2    1    2    0    0  0.00000000000E+00  0.00000000000E+00 -0.28937200812E+03  0.19948359930E+04  0.19737361728E+04 0.  0.
        4    1    3    3  502    0 -0.52139490663E+03  0.38979475449E+03  0.60493993319E+03  0.88867684507E+03  0.12699999809E+01 0. -1.
       -4    1    3    3    0  502  0.52139490663E+03 -0.38979475449E+03 -0.89431194131E+03  0.11061591479E+04  0.12699999809E+01 0.  1.
</event>
<event>
 5   0  0.6414768E-05  0.2047216E+04  0.7818609E-02  0.8584859E-01
       -2   -1    0    0    0  501  0.00000000000E+00  0.00000000000E+00  0.71071930244E+03  0.71071930245E+03  0.25500000920E-02 0. -1.
        2   -1    0    0  501    0  0.00000000000E+00  0.00000000000E+00 -0.14742428547E+04  0.14742428547E+04  0.25500000920E-02 0.  1.
    10030    2    1    2    0    0  0.00000000000E+00  0.00000000000E+00 -0.76352355229E+03  0.21849621572E+04  0.20472155269E+04 0.  0.
        2    1    3    3  502    0 -0.67583444467E+03 -0.65900663799E+03  0.40768348100E+02  0.94483014544E+03  0.25500000920E-02 0.  1.
       -2    1    3    3    0  502  0.67583444467E+03  0.65900663799E+03 -0.80429190039E+03  0.12401320117E+04  0.25500000920E-02 0. -1.
</event>
<event>
 5   0  0.6628798E-05  0.2190440E+04  0.7818609E-02  0.8522418E-01
       -2   -1    0    0    0  501  0.00000000000E+00  0.00000000000E+00  0.11040442966E+04  0.11040442966E+04  0.25500000920E-02 0. -1.
        2   -1    0    0  501    0  0.00000000000E+00  0.00000000000E+00 -0.10864661994E+04  0.10864661994E+04  0.25500000920E-02 0.  1.
    10030    2    1    2    0    0  0.00000000000E+00  0.00000000000E+00  0.17578097212E+02  0.21905104959E+04  0.21904399657E+04 0.  0.
        4    1    3    3  502    0  0.99091724310E+03 -0.42481265512E+03 -0.18388895736E+03  0.10937090729E+04  0.12699999809E+01 0. -1.
       -4    1    3    3    0  502 -0.99091724310E+03  0.42481265512E+03  0.20146705458E+03  0.10968014230E+04  0.12699999809E+01 0.  1.
</event>
<event>
 5   0  0.2929471E-05  0.2383663E+04  0.7818609E-02  0.8445645E-01
       -1   -1    0    0    0  501  0.00000000000E+00  0.00000000000E+00  0.79087178018E+03  0.79087178020E+03  0.50400001928E-02 0.  1.
        1   -1    0    0  501    0  0.00000000000E+00  0.00000000000E+00 -0.17960709138E+04  0.17960709138E+04  0.50400001928E-02 0. -1.
    10030    2    1    2    0    0  0.00000000000E+00  0.00000000000E+00 -0.10051991336E+04  0.25869426940E+04  0.23836625608E+04 0.  0.
        2    1    3    3  502    0 -0.84996542790E+03  0.74017334108E+03 -0.82042491710E+02  0.11300569782E+04  0.25500000920E-02 0.  1.
       -2    1    3    3    0  502  0.84996542790E+03 -0.74017334108E+03 -0.92315664189E+03  0.14568857158E+04  0.25500000920E-02 0. -1.
</event>
<event>
 5   0  0.6293013E-05  0.2199821E+04  0.7818609E-02  0.8518503E-01
       -2   -1    0    0    0  501  0.00000000000E+00  0.00000000000E+00  0.11751571156E+04  0.11751571156E+04  0.25500000920E-02 0.  1.
        2   -1    0    0  501    0  0.00000000000E+00  0.00000000000E+00 -0.10294815572E+04  0.10294815572E+04  0.25500000920E-02 0. -1.
    10030    2    1    2    0    0  0.00000000000E+00  0.00000000000E+00  0.14567555839E+03  0.22046386729E+04  0.21998205176E+04 0.  0.
        1    1    3    3  502    0 -0.26446237583E+03  0.76020429839E+03 -0.67843845366E+03  0.10526773765E+04  0.50400001928E-02 0. -1.
       -1    1    3    3    0  502  0.26446237583E+03 -0.76020429839E+03  0.82411401205E+03  0.11519612964E+04  0.50400001928E-02 0.  1.
</event>
<event>
 5   0  0.2753631E-05  0.2204349E+04  0.7818609E-02  0.8516620E-01
       -1   -1    0    0    0  501  0.00000000000E+00  0.00000000000E+00  0.11614989059E+04  0.11614989059E+04  0.50400001928E-02 0.  1.
        1   -1    0    0  501    0  0.00000000000E+00  0.00000000000E+00 -0.10458802328E+04  0.10458802328E+04  0.50400001928E-02 0. -1.
    10030    2    1    2    0    0  0.00000000000E+00  0.00000000000E+00  0.11561867310E+03  0.22073791387E+04  0.22043491067E+04 0.  0.
        4    1    3    3  502    0 -0.74349495855E+01 -0.40896496139E+02  0.11607130010E+04  0.11614577416E+04  0.12699999809E+01 0.  1.
       -4    1    3    3    0  502  0.74349495855E+01  0.40896496139E+02 -0.10450943279E+04  0.10459213971E+04  0.12699999809E+01 0. -1.
</event>
<event>
 5   0  0.2929471E-05  0.2217531E+04  0.7818609E-02  0.8511166E-01
        1   -1    0    0  501    0  0.00000000000E+00  0.00000000000E+00  0.20782098312E+04  0.20782098312E+04  0.50400001928E-02 0. -1.
       -1   -1    0    0    0  501  0.00000000000E+00  0.00000000000E+00 -0.59154817848E+03  0.59154817850E+03  0.50400001928E-02 0.  1.
    10030    2    1    2    0    0  0.00000000000E+00  0.00000000000E+00  0.14866616527E+04  0.26697580097E+04  0.22175312761E+04 0.  0.
        2    1    3    3  502    0  0.25127203729E+03 -0.77873780562E+03 -0.15744166169E+03  0.83328151514E+03  0.25500000920E-02 0.  1.
       -2    1    3    3    0  502 -0.25127203729E+03  0.77873780562E+03  0.16441033144E+04  0.18364764945E+04  0.25500000920E-02 0. -1.
</event>
<event>
 5   0  0.2908031E-05  0.2191221E+04  0.7818609E-02  0.8522091E-01
       -1   -1    0    0    0  501  0.00000000000E+00  0.00000000000E+00  0.59685330964E+03  0.59685330966E+03  0.50400001928E-02 0. -1.
        1   -1    0    0  501    0  0.00000000000E+00  0.00000000000E+00 -0.20111507294E+04  0.20111507294E+04  0.50400001928E-02 0.  1.
    10030    2    1    2    0    0  0.00000000000E+00  0.00000000000E+00 -0.14142974198E+04  0.26080040391E+04  0.21912206361E+04 0.  0.
        1    1    3    3  502    0 -0.44444242818E+03 -0.38461340719E+03 -0.18076262583E+04  0.19007812169E+04  0.50400001928E-02 0.  1.
       -1    1    3    3    0  502  0.44444242818E+03  0.38461340719E+03  0.39332883851E+03  0.70722282216E+03  0.50400001928E-02 0. -1.
</event>
<event>
 5   0  0.6293013E-05  0.2169689E+04  0.7818609E-02  0.8531151E-01
       -2   -1    0    0    0  501  0.00000000000E+00  0.00000000000E+00  0.65559480565E+03  0.65559480566E+03  0.25500000920E-02 0. -1.
        2   -1    0    0  501    0  0.00000000000E+00  0.00000000000E+00 -0.17951454748E+04  0.17951454748E+04  0.25500000920E-02 0.  1.
    10030    2    1    2    0    0  0.00000000000E+00  0.00000000000E+00 -0.11395506691E+04  0.24507402805E+04  0.21696894236E+04 0.  0.
        1    1    3    3  502    0  0.26385193844E+03  0.21315459274E+03  0.59415852201E+03  0.68416158554E+03  0.50400001928E-02 0. -1.
       -1    1    3    3    0  502 -0.26385193844E+03 -0.21315459274E+03 -0.17337091912E+04  0.17665786949E+04  0.50400001928E-02 0.  1.
</event>
<event>
 5   0  0.2820239E-05  0.2180009E+04  0.7818609E-02  0.8526795E-01
        1   -1    0    0  501    0  0.00000000000E+00  0.00000000000E+00  0.56496914698E+03  0.56496914701E+03  0.50400001928E-02 0. -1.
       -1   -1    0    0    0  501  0.00000000000E+00  0.00000000000E+00 -0.21029639369E+04  0.21029639369E+04  0.50400001928E-02 0.  1.
    10030    2    1    2    0    0  0.00000000000E+00  0.00000000000E+00 -0.15379947899E+04  0.26679330839E+04  0.21800089372E+04 0.  0.
        3    1    3    3  502    0 -0.23024987221E+03 -0.10505269174E+03 -0.20665086877E+04  0.20819484236E+04  0.10100000352E+00 0.  1.
       -3    1    3    3    0  502  0.23024987221E+03  0.10505269174E+03  0.52851389785E+03  0.58598466031E+03  0.10100000352E+00 0. -1.
</event>
<event>
 5   0  0.2910318E-05  0.2173245E+04  0.7818609E-02  0.8529648E-01
        1   -1    0    0  501    0  0.00000000000E+00  0.00000000000E+00  0.13738865329E+04  0.13738865329E+04  0.50400001928E-02 0. -1.
       -1   -1    0    0    0  501  0.00000000000E+00  0.00000000000E+00 -0.85942174933E+03  0.85942174934E+03  0.50400001928E-02 0.  1.
    10030    2    1    2    0    0  0.00000000000E+00  0.00000000000E+00  0.51446478355E+03  0.22333082822E+04  0.21732445490E+04 0.  0.
        5    1    3    3  502    0 -0.33249042187E+03 -0.59010039196E+03 -0.61593176764E+03  0.91551208928E+03  0.46999998093E+01 0.  1.
       -5    1    3    3    0  502  0.33249042187E+03  0.59010039196E+03  0.11303965512E+04  0.13177961930E+04  0.46999998093E+01 0. -1.
</event>
<event>
 5   0  0.2820239E-05  0.2175318E+04  0.7818609E-02  0.8528772E-01
        1   -1    0    0  501    0  0.00000000000E+00  0.00000000000E+00  0.13526916905E+04  0.13526916906E+04  0.50400001928E-02 0. -1.
       -1   -1    0    0    0  501  0.00000000000E+00  0.00000000000E+00 -0.87455389875E+03  0.87455389877E+03  0.50400001928E-02 0.  1.
    10030    2    1    2    0    0  0.00000000000E+00  0.00000000000E+00  0.47813779180E+03  0.22272455893E+04  0.21753177164E+04 0.  0.
        3    1    3    3  502    0 -0.10233455502E+04 -0.35831527535E+03  0.15113610544E+03  0.10947456711E+04  0.10100000352E+00 0. -1.
       -3    1    3    3    0  502  0.10233455502E+04  0.35831527535E+03  0.32700168636E+03  0.11324999183E+04  0.10100000352E+00 0.  1.
</event>
<event>
 5   0  0.6414768E-05  0.2167363E+04  0.7818609E-02  0.8532137E-01
       -2   -1    0    0    0  501  0.00000000000E+00  0.00000000000E+00  0.16898214549E+04  0.16898214549E+04  0.25500000920E-02 0.  1.
        2   -1    0    0  501    0  0.00000000000E+00  0.00000000000E+00 -0.69496418734E+03  0.69496418735E+03  0.25500000920E-02 0. -1.
    10030    2    1    2    0    0  0.00000000000E+00  0.00000000000E+00  0.99485726752E+03  0.23847856422E+04  0.21673628161E+04 0.  0.
        2    1    3    3  502    0  0.16426030901E+03  0.73225442998E+03 -0.36278223285E+03  0.83354000973E+03  0.25500000920E-02 0. -1.
       -2    1    3    3    0  502 -0.16426030901E+03 -0.73225442998E+03  0.13576395004E+04  0.15512456325E+04  0.25500000920E-02 0.  1.
</event>
<event>
 5   0  0.6414768E-05  0.2260067E+04  0.7818609E-02  0.8493835E-01
        2   -1    0    0  501    0  0.00000000000E+00  0.00000000000E+00  0.94280160167E+03  0.94280160167E+03  0.25500000920E-02 0.  1.
       -2   -1    0    0    0  501  0.00000000000E+00  0.00000000000E+00 -0.13544476194E+04  0.13544476194E+04  0.25500000920E-02 0. -1.
    10030    2    1    2    0    0  0.00000000000E+00  0.00000000000E+00 -0.41164601776E+03  0.22972492211E+04  0.22600667114E+04 0.  0.
        2    1    3    3  502    0 -0.14738661467E+03 -0.90233414837E+03  0.46921562411E+03  0.10276638708E+04  0.25500000920E-02 0.  1.
       -2    1    3    3    0  502  0.14738661467E+03  0.90233414837E+03 -0.88086164188E+03  0.12695853503E+04  0.25500000920E-02 0. -1.
</event>
<event>
 5   0  0.6628798E-05  0.2215762E+04  0.7818609E-02  0.8511896E-01
       -2   -1    0    0    0  501  0.00000000000E+00  0.00000000000E+00  0.85935311489E+03  0.85935311490E+03  0.25500000920E-02 0. -1.
        2   -1    0    0  501    0  0.00000000000E+00  0.00000000000E+00 -0.14282836115E+04  0.14282836115E+04  0.25500000920E-02 0.  1.
    10030    2    1    2    0    0  0.00000000000E+00  0.00000000000E+00 -0.56893049662E+03  0.22876367264E+04  0.22157616934E+04 0.  0.
        4    1    3    3  502    0  0.15883547628E+02 -0.11074386807E+04 -0.25665375375E+03  0.11369017023E+04  0.12699999809E+01 0. -1.
       -4    1    3    3    0  502 -0.15883547628E+02  0.11074386807E+04 -0.31227674286E+03  0.11507350241E+04  0.12699999809E+01 0.  1.
</event>
<event>
 5   0  0.2245375E-05  0.2191582E+04  0.7818609E-02  0.8521940E-01
        3   -1    0    0  501    0  0.00000000000E+00  0.00000000000E+00  0.12835664446E+04  0.12835664486E+04  0.10100000352E+00 0.  1.
       -3   -1    0    0    0  501  0.00000000000E+00  0.00000000000E+00 -0.93548597059E+03  0.93548597604E+03  0.10100000352E+00 0. -1.
    10030    2    1    2    0    0  0.00000000000E+00  0.00000000000E+00  0.34808047405E+03  0.22190524247E+04  0.21915824527E+04 0.  0.
        4    1    3    3  502    0  0.69748443486E+03  0.38376336403E+03  0.93647113737E+03  0.12291210927E+04  0.12699999809E+01 0.  1.
       -4    1    3    3    0  502 -0.69748443486E+03 -0.38376336403E+03 -0.58839066332E+03  0.98993133198E+03  0.12699999809E+01 0. -1.
</event>
<event>
 5   0  0.2820239E-05  0.2210428E+04  0.7818609E-02  0.8514100E-01
       -1   -1    0    0    0  501  0.00000000000E+00  0.00000000000E+00  0.11435496737E+04  0.11435496737E+04  0.50400001928E-02 0. -1.
        1   -1    0    0  501    0  0.00000000000E+00  0.00000000000E+00 -0.10681631083E+04  0.10681631083E+04  0.50400001928E-02 0.  1.
    10030    2    1    2    0    0  0.00000000000E+00  0.00000000000E+00  0.75386565435E+02  0.22117127820E+04  0.22104276274E+04 0.  0.
        3    1    3    3  502    0 -0.42911663055E+02 -0.24483481950E+02  0.11424442305E+04  0.11435119945E+04  0.10100000352E+00 0. -1.
       -3    1    3    3    0  502  0.42911663055E+02  0.24483481950E+02 -0.10670576650E+04  0.10682007875E+04  0.10100000352E+00 0.  1.
</event>
<event>
 5   0  0.2753631E-05  0.2190393E+04  0.7818609E-02  0.8522437E-01
        1   -1    0    0  501    0  0.00000000000E+00  0.00000000000E+00  0.98057023290E+03  0.98057023291E+03  0.50400001928E-02 0. -1.
       -1   -1    0    0    0  501  0.00000000000E+00  0.00000000000E+00 -0.12232226897E+04  0.12232226898E+04  0.50400001928E-02 0.  1.
    10030    2    1    2    0    0  0.00000000000E+00  0.00000000000E+00 -0.24265245685E+03  0.22037929227E+04  0.21903933508E+04 0.  0.
        4    1    3    3  502    0 -0.15650793182E+03 -0.55213256382E+02  0.96784452227E+03  0.98197141944E+03  0.12699999809E+01 0. -1.
       -4    1    3    3    0  502  0.15650793182E+03  0.55213256382E+02 -0.12104969791E+04  0.12218215032E+04  0.12699999809E+01 0.  1.
</event>
<event>
 5   0  0.6445740E-05  0.2215987E+04  0.7818609E-02  0.8511803E-01
       -2   -1    0    0    0  501  0.00000000000E+00  0.00000000000E+00  0.17367854295E+04  0.17367854295E+04  0.25500000920E-02 0.  1.
        2   -1    0    0  501    0  0.00000000000E+00  0.00000000000E+00 -0.70685158267E+03  0.70685158268E+03  0.25500000920E-02 0. -1.
    10030    2    1    2    0    0  0.00000000000E+00  0.00000000000E+00  0.10299338468E+04  0.24436370121E+04  0.22159869400E+04 0.  0.
        5    1    3    3  502    0  0.32106002033E+03  0.68961147711E+03 -0.37338789844E+03  0.84739845333E+03  0.46999998093E+01 0. -1.
       -5    1    3    3    0  502 -0.32106002033E+03 -0.68961147711E+03  0.14033217452E+04  0.15962385588E+04  0.46999998093E+01 0.  1.
</event>
<event>
 5   0  0.2820239E-05  0.2234706E+04  0.7818609E-02  0.8504120E-01
       -1   -1    0    0    0  501  0.00000000000E+00  0.00000000000E+00  0.65561003611E+03  0.65561003613E+03  0.50400001928E-02 0. -1.
        1   -1    0    0  501    0  0.00000000000E+00  0.00000000000E+00 -0.19042996923E+04  0.19042996923E+04  0.50400001928E-02 0.  1.
    10030    2    1    2    0    0  0.00000000000E+00  0.00000000000E+00 -0.12486896562E+04  0.25599097284E+04  0.22347062358E+04 0.  0.
        3    1    3    3  502    0  0.74568715254E+03  0.78381331859E+03 -0.94440623901E+03  0.14360765308E+04  0.10100000352E+00 0.  1.
       -3    1    3    3    0  502 -0.74568715254E+03 -0.78381331859E+03 -0.30428341717E+03  0.11238331976E+04  0.10100000352E+00 0. -1.
</event>
<event>
 5   0  0.2929471E-05  0.2202541E+04  0.7818609E-02  0.8517371E-01
       -1   -1    0    0    0  501  0.00000000000E+00  0.00000000000E+00  0.15654320832E+04  0.15654320832E+04  0.50400001928E-02 0. -1.
        1   -1    0    0  501    0  0.00000000000E+00  0.00000000000E+00 -0.77473611579E+03  0.77473611581E+03  0.50400001928E-02 0.  1.
    10030    2    1    2    0    0  0.00000000000E+00  0.00000000000E+00  0.79069596741E+03  0.23401681990E+04  0.22025410522E+04 0.  0.
        2    1    3    3  502    0 -0.83684268914E+03  0.54436440774E+03  0.88932779211E+03  0.13369899837E+04  0.25500000920E-02 0. -1.
       -2    1    3    3    0  502  0.83684268914E+03 -0.54436440774E+03 -0.98631824705E+02  0.10031782153E+04  0.25500000920E-02 0.  1.
</event>
<event>
 5   0  0.6306919E-05  0.2204901E+04  0.7818609E-02  0.8516391E-01
       -2   -1    0    0    0  501  0.00000000000E+00  0.00000000000E+00  0.85872450110E+03  0.85872450111E+03  0.25500000920E-02 0.  1.
        2   -1    0    0  501    0  0.00000000000E+00  0.00000000000E+00 -0.14153521320E+04  0.14153521320E+04  0.25500000920E-02 0. -1.
    10030    2    1    2    0    0  0.00000000000E+00  0.00000000000E+00 -0.55662763091E+03  0.22740766331E+04  0.22049014068E+04 0.  0.
        3    1    3    3  502    0 -0.86216032962E+03  0.15057402531E+03  0.41309460506E+03  0.96780170179E+03  0.10100000352E+00 0. -1.
       -3    1    3    3    0  502  0.86216032962E+03 -0.15057402531E+03 -0.96972223597E+03  0.13062749313E+04  0.10100000352E+00 0.  1.
</event>
<event>
 5   0  0.2820239E-05  0.2148572E+04  0.7818609E-02  0.8540144E-01
        1   -1    0    0  501    0  0.00000000000E+00  0.00000000000E+00  0.11060633680E+04  0.11060633680E+04  0.50400001928E-02 0.  1.
       -1   -1    0    0    0  501  0.00000000000E+00  0.00000000000E+00 -0.10434218969E+04  0.10434218969E+04  0.50400001928E-02 0. -1.
    10030    2    1    2    0    0  0.00000000000E+00  0.00000000000E+00  0.62641471062E+02  0.21494852649E+04  0.21485723050E+04 0.  0.
        3    1    3    3  502    0 -0.43369473055E+03  0.68481342940E+03 -0.67398250099E+03  0.10541883011E+04  0.10100000352E+00 0. -1.
       -3    1    3    3    0  502  0.43369473055E+03 -0.68481342940E+03  0.73662397205E+03  0.10952969637E+04  0.10100000352E+00 0.  1.
</event>
<event>
 5   0  0.2820239E-05  0.2194931E+04  0.7818609E-02  0.8520541E-01
        1   -1    0    0  501    0  0.00000000000E+00  0.00000000000E+00  0.58686815981E+03  0.58686815983E+03  0.50400001928E-02 0. -1.
       -1   -1    0    0    0  501  0.00000000000E+00  0.00000000000E+00 -0.20523012983E+04  0.20523012983E+04  0.50400001928E-02 0.  1.
    10030    2    1    2    0    0  0.00000000000E+00  0.00000000000E+00 -0.14654331385E+04  0.26391694581E+04  0.21949307837E+04 0.  0.
        3    1    3    3  502    0  0.45048342027E+03 -0.92584021756E+03 -0.27594194712E+03  0.10659546842E+04  0.10100000352E+00 0. -1.
       -3    1    3    3    0  502 -0.45048342027E+03  0.92584021756E+03 -0.11894911914E+04  0.15732147739E+04  0.10100000352E+00 0.  1.
</event>
<event>
 5   0  0.2820239E-05  0.2211698E+04  0.7818609E-02  0.8513575E-01
       -1   -1    0    0    0  501  0.00000000000E+00  0.00000000000E+00  0.98646966617E+03  0.98646966618E+03  0.50400001928E-02 0. -1.
        1   -1    0    0  501    0  0.00000000000E+00  0.00000000000E+00 -0.12396753537E+04  0.12396753537E+04  0.50400001928E-02 0.  1.
    10030    2    1    2    0    0  0.00000000000E+00  0.00000000000E+00 -0.25320568749E+03  0.22261450199E+04  0.22116981099E+04 0.  0.
        3    1    3    3  502    0  0.69141019365E+03  0.10834465930E+03 -0.98841736389E+03  0.12110968238E+04  0.10100000352E+00 0.  1.
       -3    1    3    3    0  502 -0.69141019365E+03 -0.10834465930E+03  0.73521167640E+03  0.10150481961E+04  0.10100000352E+00 0. -1.
</event>
<event>
 5   0  0.2245375E-05  0.2175711E+04  0.7818609E-02  0.8528606E-01
        4   -1    0    0  501    0  0.00000000000E+00  0.00000000000E+00  0.14032389244E+04  0.14032394991E+04  0.12699999809E+01 0.  1.
       -4   -1    0    0    0  501  0.00000000000E+00  0.00000000000E+00 -0.84335435734E+03  0.84335531358E+03  0.12699999809E+01 0. -1.
    10030    2    1    2    0    0  0.00000000000E+00  0.00000000000E+00  0.55988456701E+03  0.22465948126E+04  0.21757108089E+04 0.  0.
        5    1    3    3  502    0  0.14738108921E+03  0.18788436848E+03  0.13758326808E+04  0.13964094589E+04  0.46999998093E+01 0.  1.
       -5    1    3    3    0  502 -0.14738108921E+03 -0.18788436848E+03 -0.81594811377E+03  0.85018535375E+03  0.46999998093E+01 0. -1.
</event>
<event>
 5   0  0.2753631E-05  0.2199993E+04  0.7818609E-02  0.8518431E-01
        1   -1    0    0  501    0  0.00000000000E+00  0.00000000000E+00  0.15676826333E+04  0.15676826333E+04  0.50400001928E-02 0.  1.
       -1   -1    0    0    0  501  0.00000000000E+00  0.00000000000E+00 -0.77183514438E+03  0.77183514439E+03  0.50400001928E-02 0. -1.
    10030    2    1    2    0    0  0.00000000000E+00  0.00000000000E+00  0.79584748894E+03  0.23395177777E+04  0.21999932288E+04 0.  0.
        4    1    3    3  502    0  0.31639590104E+02 -0.87448281873E+03  0.11067313037E+04  0.14108781150E+04  0.12699999809E+01 0.  1.
       -4    1    3    3    0  502 -0.31639590104E+02  0.87448281873E+03 -0.31088381480E+03  0.92863966269E+03  0.12699999809E+01 0. -1.
</event>
<event>
 5   0  0.2753631E-05  0.2163695E+04  0.7818609E-02  0.8533693E-01
       -1   -1    0    0    0  501  0.00000000000E+00  0.00000000000E+00  0.11398086712E+04  0.11398086712E+04  0.50400001928E-02 0. -1.
        1   -1    0    0  501    0  0.00000000000E+00  0.00000000000E+00 -0.10268338486E+04  0.10268338486E+04  0.50400001928E-02 0.  1.
    10030    2    1    2    0    0  0.00000000000E+00  0.00000000000E+00  0.11297482264E+03  0.21666425198E+04  0.21636951029E+04 0.  0.
        4    1    3    3  502    0  0.27809238158E+03 -0.16759967532E+03  0.10898657991E+04  0.11372045097E+04  0.12699999809E+01 0. -1.
       -4    1    3    3    0  502 -0.27809238158E+03  0.16759967532E+03 -0.97689097650E+03  0.10294380101E+04  0.12699999809E+01 0.  1.
</event>
<event>
 5   0  0.6306919E-05  0.2179040E+04  0.7818609E-02  0.8527203E-01
        2   -1    0    0  501    0  0.00000000000E+00  0.00000000000E+00  0.11845964384E+04  0.11845964384E+04  0.25500000920E-02 0. -1.
       -2   -1    0    0    0  501  0.00000000000E+00  0.00000000000E+00 -0.10020741763E+04  0.10020741763E+04  0.25500000920E-02 0.  1.
    10030    2    1    2    0    0  0.00000000000E+00  0.00000000000E+00  0.18252226207E+03  0.21866706147E+04  0.21790396970E+04 0.  0.
        3    1    3    3  502    0  0.69166723688E+03  0.65388346893E+03 -0.44077128144E+03  0.10489263512E+04  0.10100000352E+00 0.  1.
       -3    1    3    3    0  502 -0.69166723688E+03 -0.65388346893E+03  0.62329354352E+03  0.11377442635E+04  0.10100000352E+00 0. -1.
</event>
<event>
 5   0  0.6628798E-05  0.2200142E+04  0.7818609E-02  0.8518369E-01
        2   -1    0    0  501    0  0.00000000000E+00  0.00000000000E+00  0.77582252588E+03  0.77582252589E+03  0.25500000920E-02 0.  1.
       -2   -1    0    0    0  501  0.00000000000E+00  0.00000000000E+00 -0.15598364112E+04  0.15598364112E+04  0.25500000920E-02 0. -1.
    10030    2    1    2    0    0  0.00000000000E+00  0.00000000000E+00 -0.78401388534E+03  0.23356589371E+04  0.22001420177E+04 0.  0.
        4    1    3    3  502    0 -0.37452151546E+03  0.39814052999E+03  0.62145311742E+03  0.82763992002E+03  0.12699999809E+01 0.  1.
       -4    1    3    3    0  502  0.37452151546E+03 -0.39814052999E+03 -0.14054670028E+04  0.15080190171E+04  0.12699999809E+01 0. -1.
</event>
<event>
 5   0  0.6628798E-05  0.2202027E+04  0.7818609E-02  0.8517585E-01
       -2   -1    0    0    0  501  0.00000000000E+00  0.00000000000E+00  0.96620158059E+03  0.96620158059E+03  0.25500000920E-02 0. -1.
        2   -1    0    0  501    0  0.00000000000E+00  0.00000000000E+00 -0.12546351805E+04  0.12546351805E+04  0.25500000920E-02 0.  1.
    10030    2    1    2    0    0  0.00000000000E+00  0.00000000000E+00 -0.28843359988E+03  0.22208367611E+04  0.22020267886E+04 0.  0.
        4    1    3    3  502    0 -0.41936121581E+02 -0.67500721230E+03 -0.10204509998E+04  0.12242202542E+04  0.12699999809E+01 0.  1.
       -4    1    3    3    0  502  0.41936121581E+02  0.67500721230E+03  0.73201739994E+03  0.99661650682E+03  0.12699999809E+01 0. -1.
</event>
<event>
 5   0  0.2910318E-05  0.2221911E+04  0.7818609E-02  0.8509363E-01
        1   -1    0    0  501    0  0.00000000000E+00  0.00000000000E+00  0.15096471171E+04  0.15096471171E+04  0.50400001928E-02 0. -1.
       -1   -1    0    0    0  501  0.00000000000E+00  0.00000000000E+00 -0.81755641615E+03  0.81755641616E+03  0.50400001928E-02 0.  1.
    10030    2    1    2    0    0  0.00000000000E+00  0.00000000000E+00  0.69209070090E+03  0.23272035332E+04  0.22219106073E+04 0.  0.
        5    1    3    3  502    0 -0.59003113674E+03 -0.55591017551E+02 -0.63815014397E+03  0.87091032822E+03  0.46999998093E+01 0.  1.
       -5    1    3    3    0  502  0.59003113674E+03  0.55591017551E+02  0.13302408449E+04  0.14562932050E+04  0.46999998093E+01 0. -1.
</event>
<event>
 5   0  0.2820239E-05  0.1878905E+04  0.7818609E-02  0.8665428E-01
       -1   -1    0    0    0  501  0.00000000000E+00  0.00000000000E+00  0.52354251194E+03  0.52354251197E+03  0.50400001928E-02 0. -1.
        1   -1    0    0  501    0  0.00000000000E+00  0.00000000000E+00 -0.16857680605E+04  0.16857680605E+04  0.50400001928E-02 0.  1.
    10030    2    1    2    0    0  0.00000000000E+00  0.00000000000E+00 -0.11622255485E+04  0.22093105724E+04  0.18789052610E+04 0.  0.
        3    1    3    3  502    0  0.81478727034E+03 -0.45869033244E+03 -0.47401280582E+03  0.10483144887E+04  0.10100000352E+00 0. -1.
       -3    1    3    3    0  502 -0.81478727034E+03  0.45869033244E+03 -0.68821274269E+03  0.11609960837E+04  0.10100000352E+00 0.  1.
</event>
<event>
 5   0  0.6628798E-05  0.2194256E+04  0.7818609E-02  0.8520823E-01
        2   -1    0    0  501    0  0.00000000000E+00  0.00000000000E+00  0.86980273885E+03  0.86980273886E+03  0.25500000920E-02 0.  1.
       -2   -1    0    0    0  501  0.00000000000E+00  0.00000000000E+00 -0.13838654853E+04  0.13838654853E+04  0.25500000920E-02 0. -1.
    10030    2    1    2    0    0  0.00000000000E+00  0.00000000000E+00 -0.51406274646E+03  0.22536682242E+04  0.21942561285E+04 0.  0.
        4    1    3    3  502    0 -0.24098007223E+03  0.18525622780E+03 -0.13397553495E+04  0.13738039433E+04  0.12699999809E+01 0. -1.
       -4    1    3    3    0  502  0.24098007223E+03 -0.18525622780E+03  0.82569260305E+03  0.87986428089E+03  0.12699999809E+01 0.  1.
</event>
<event>
 5   0  0.6445740E-05  0.2252475E+04  0.7818609E-02  0.8496899E-01
        2   -1    0    0  501    0  0.00000000000E+00  0.00000000000E+00  0.91255729991E+03  0.91255729991E+03  0.25500000920E-02 0. -1.
       -2   -1    0    0    0  501  0.00000000000E+00  0.00000000000E+00 -0.13899517981E+04  0.13899517982E+04  0.25500000920E-02 0.  1.
    10030    2    1    2    0    0  0.00000000000E+00  0.00000000000E+00 -0.47739449824E+03  0.23025090981E+04  0.22524747811E+04 0.  0.
        5    1    3    3  502    0 -0.49296007566E+02 -0.21984964447E+03 -0.13666687469E+04  0.13851243686E+04  0.46999998093E+01 0.  1.
       -5    1    3    3    0  502  0.49296007566E+02  0.21984964447E+03  0.88927424869E+03  0.91738472950E+03  0.46999998093E+01 0. -1.
</event>
<event>
 5   0  0.2910318E-05  0.1993803E+04  0.7818609E-02  0.8609523E-01
       -1   -1    0    0    0  501  0.00000000000E+00  0.00000000000E+00  0.10986965224E+04  0.10986965224E+04  0.50400001928E-02 0.  1.
        1   -1    0    0  501    0  0.00000000000E+00  0.00000000000E+00 -0.90453815567E+03  0.90453815568E+03  0.50400001928E-02 0. -1.
    10030    2    1    2    0    0  0.00000000000E+00  0.00000000000E+00  0.19415836675E+03  0.20032346781E+04  0.19938033264E+04 0.  0.
        5    1    3    3  502    0  0.17597136267E+03  0.85604464523E+03  0.57894399693E+03  0.10483208462E+04  0.46999998093E+01 0.  1.
       -5    1    3    3    0  502 -0.17597136267E+03 -0.85604464523E+03 -0.38478563018E+03  0.95491383187E+03  0.46999998093E+01 0. -1.
</event>
<event>
 5   0  0.2820239E-05  0.2193059E+04  0.7818609E-02  0.8521323E-01
        1   -1    0    0  501    0  0.00000000000E+00  0.00000000000E+00  0.16670397474E+04  0.16670397474E+04  0.50400001928E-02 0.  1.
       -1   -1    0    0    0  501  0.00000000000E+00  0.00000000000E+00 -0.72126470919E+03  0.72126470921E+03  0.50400001928E-02 0. -1.
    10030    2    1    2    0    0  0.00000000000E+00  0.00000000000E+00  0.94577503820E+03  0.23883044566E+04  0.21930589948E+04 0.  0.
        3    1    3    3  502    0 -0.22143005729E+03 -0.10445884945E+04  0.20132701730E+03  0.10866135335E+04  0.10100000352E+00 0. -1.
       -3    1    3    3    0  502  0.22143005729E+03  0.10445884945E+04  0.74444802090E+03  0.13016909231E+04  0.10100000352E+00 0.  1.
</event>
<event>
 5   0  0.6414768E-05  0.2200523E+04  0.7818609E-02  0.8518210E-01
       -2   -1    0    0    0  501  0.00000000000E+00  0.00000000000E+00  0.56017415318E+03  0.56017415319E+03  0.25500000920E-02 0. -1.
        2   -1    0    0  501    0  0.00000000000E+00  0.00000000000E+00 -0.21610699013E+04  0.21610699013E+04  0.25500000920E-02 0.  1.
    10030    2    1    2    0    0  0.00000000000E+00  0.00000000000E+00 -0.16008957481E+04  0.27212440545E+04  0.22005231214E+04 0.  0.
        2    1    3    3  502    0  0.60271131141E+03 -0.69534632136E+02 -0.19355141778E+04  0.20283764745E+04  0.25500000920E-02 0.  1.
       -2    1    3    3    0  502 -0.60271131141E+03  0.69534632136E+02  0.33461842964E+03  0.69286758001E+03  0.25500000920E-02 0. -1.
</event>
<event>
 5   0  0.6445740E-05  0.2195468E+04  0.7818609E-02  0.8520317E-01
        2   -1    0    0  501    0  0.00000000000E+00  0.00000000000E+00  0.18332700313E+04  0.18332700313E+04  0.25500000920E-02 0.  1.
       -2   -1    0    0    0  501  0.00000000000E+00  0.00000000000E+00 -0.65730611337E+03  0.65730611338E+03  0.25500000920E-02 0. -1.
    10030    2    1    2    0    0  0.00000000000E+00  0.00000000000E+00  0.11759639179E+04  0.24905761446E+04  0.21954676942E+04 0.  0.
        5    1    3    3  502    0  0.91614565979E+02  0.72452194197E+03 -0.34173653807E+03  0.80630715273E+03  0.46999998093E+01 0. -1.
       -5    1    3    3    0  502 -0.91614565979E+02 -0.72452194197E+03  0.15177004559E+04  0.16842689919E+04  0.46999998093E+01 0.  1.
</event>
<event>
 5   0  0.6293013E-05  0.2167644E+04  0.7818609E-02  0.8532017E-01
       -2   -1    0    0    0  501  0.00000000000E+00  0.00000000000E+00  0.44919223526E+03  0.44919223527E+03  0.25500000920E-02 0. -1.
        2   -1    0    0  501    0  0.00000000000E+00  0.00000000000E+00 -0.26150731292E+04  0.26150731292E+04  0.25500000920E-02 0.  1.
    10030    2    1    2    0    0  0.00000000000E+00  0.00000000000E+00 -0.21658808939E+04  0.30642653645E+04  0.21676443844E+04 0.  0.
        1    1    3    3  502    0  0.87338053702E+03 -0.63687270037E+03 -0.97100255063E+03  0.14530128534E+04  0.50400001928E-02 0.  1.
       -1    1    3    3    0  502 -0.87338053702E+03  0.63687270037E+03 -0.11948783433E+04  0.16112525110E+04  0.50400001928E-02 0. -1.
</event>
<event>
 5   0  0.6628798E-05  0.2194093E+04  0.7818609E-02  0.8520891E-01
       -2   -1    0    0    0  501  0.00000000000E+00  0.00000000000E+00  0.62112387533E+03  0.62112387534E+03  0.25500000920E-02 0. -1.
        2   -1    0    0  501    0  0.00000000000E+00  0.00000000000E+00 -0.19376345471E+04  0.19376345471E+04  0.25500000920E-02 0.  1.
    10030    2    1    2    0    0  0.00000000000E+00  0.00000000000E+00 -0.13165106718E+04  0.25587584225E+04  0.21940930508E+04 0.  0.
        4    1    3    3  502    0 -0.59304212066E+03 -0.86767600130E+03 -0.10250978437E+04  0.14681239056E+04  0.12699999809E+01 0.  1.
       -4    1    3    3    0  502  0.59304212066E+03  0.86767600130E+03 -0.29141282807E+03  0.10906345169E+04  0.12699999809E+01 0. -1.
</event>
<event>
 5   0  0.6445740E-05  0.2140238E+04  0.7818609E-02  0.8543723E-01
       -2   -1    0    0    0  501  0.00000000000E+00  0.00000000000E+00  0.10007226897E+04  0.10007226897E+04  0.25500000920E-02 0.  1.
        2   -1    0    0  501    0  0.00000000000E+00  0.00000000000E+00 -0.11443274683E+04  0.11443274683E+04  0.25500000920E-02 0. -1.
    10030    2    1    2    0    0  0.00000000000E+00  0.00000000000E+00 -0.14360477855E+03  0.21450501580E+04  0.21402378017E+04 0.  0.
        5    1    3    3  502    0 -0.48488147689E+03 -0.27101506553E+03 -0.98850271290E+03  0.11338954607E+04  0.46999998093E+01 0. -1.
       -5    1    3    3    0  502  0.48488147689E+03  0.27101506553E+03  0.84489793435E+03  0.10111546973E+04  0.46999998093E+01 0.  1.
</event>
<event>
 5   0  0.6306919E-05  0.2422592E+04  0.7818609E-02  0.8431093E-01
        2   -1    0    0  501    0  0.00000000000E+00  0.00000000000E+00  0.15363159167E+04  0.15363159167E+04  0.25500000920E-02 0. -1.
       -2   -1    0    0    0  501  0.00000000000E+00  0.00000000000E+00 -0.95503696639E+03  0.95503696639E+03  0.25500000920E-02 0.  1.
    10030    2    1    2    0    0  0.00000000000E+00  0.00000000000E+00  0.58127895027E+03  0.24913528831E+04  0.24225924069E+04 0.  0.
        3    1    3    3  502    0 -0.28849981986E+03  0.98637937787E+03 -0.36869926171E+03  0.10918404549E+04  0.10100000352E+00 0.  1.
       -3    1    3    3    0  502  0.28849981986E+03 -0.98637937787E+03  0.94997821198E+03  0.13995124282E+04  0.10100000352E+00 0. -1.
</event>
<event>
 5   0  0.2753631E-05  0.2202930E+04  0.7818609E-02  0.8517210E-01
        1   -1    0    0  501    0  0.00000000000E+00  0.00000000000E+00  0.11331297322E+04  0.11331297322E+04  0.50400001928E-02 0. -1.
       -1   -1    0    0    0  501  0.00000000000E+00  0.00000000000E+00 -0.10706852966E+04  0.10706852966E+04  0.50400001928E-02 0.  1.
    10030    2    1    2    0    0  0.00000000000E+00  0.00000000000E+00  0.62444435639E+02  0.22038150288E+04  0.22029301790E+04 0.  0.
        4    1    3    3  502    0 -0.77481453526E+03 -0.22833138735E+03 -0.71791162036E+03  0.10806810325E+04  0.12699999809E+01 0.  1.
       -4    1    3    3    0  502  0.77481453526E+03  0.22833138735E+03  0.78035605600E+03  0.11231339963E+04  0.12699999809E+01 0. -1.
</event>
<event>
 5   0  0.6445740E-05  0.2189380E+04  0.7818609E-02  0.8522862E-01
        2   -1    0    0  501    0  0.00000000000E+00  0.00000000000E+00  0.23925578379E+04  0.23925578379E+04  0.25500000920E-02 0.  1.
       -2   -1    0    0    0  501  0.00000000000E+00  0.00000000000E+00 -0.50086394585E+03  0.50086394585E+03  0.25500000920E-02 0. -1.
    10030    2    1    2    0    0  0.00000000000E+00  0.00000000000E+00  0.18916938921E+04  0.28934217838E+04  0.21893797838E+04 0.  0.
        5    1    3    3  502    0 -0.47949789161E+03  0.96936315903E+03  0.11698940676E+04  0.15931909432E+04  0.46999998093E+01 0.  1.
       -5    1    3    3    0  502  0.47949789161E+03 -0.96936315903E+03  0.72179982450E+03  0.13002308406E+04  0.46999998093E+01 0. -1.
</event>
<event>
 5   0  0.2910318E-05  0.2218091E+04  0.7818609E-02  0.8510936E-01
       -1   -1    0    0    0  501  0.00000000000E+00  0.00000000000E+00  0.15499210827E+04  0.15499210827E+04  0.50400001928E-02 0.  1.
        1   -1    0    0  501    0  0.00000000000E+00  0.00000000000E+00 -0.79357725231E+03  0.79357725233E+03  0.50400001928E-02 0. -1.
    10030    2    1    2    0    0  0.00000000000E+00  0.00000000000E+00  0.75634383041E+03  0.23434983351E+04  0.22180911741E+04 0.  0.
        5    1    3    3  502    0 -0.89818644852E+03 -0.47803077057E+02  0.10636495463E+04  0.13929811477E+04  0.46999998093E+01 0.  1.
       -5    1    3    3    0  502  0.89818644852E+03  0.47803077057E+02 -0.30730571588E+03  0.95051718737E+03  0.46999998093E+01 0. -1.
</event>
<event>
 5   0  0.2910318E-05  0.2207250E+04  0.7818609E-02  0.8515417E-01
        1   -1    0    0  501    0  0.00000000000E+00  0.00000000000E+00  0.10066467213E+04  0.10066467214E+04  0.50400001928E-02 0. -1.
       -1   -1    0    0    0  501  0.00000000000E+00  0.00000000000E+00 -0.12099458541E+04  0.12099458541E+04  0.50400001928E-02 0.  1.
    10030    2    1    2    0    0  0.00000000000E+00  0.00000000000E+00 -0.20329913279E+03  0.22165925755E+04  0.22072498971E+04 0.  0.
        5    1    3    3  502    0 -0.44701677680E+03 -0.49196793362E+03  0.78305010527E+03  0.10271543233E+04  0.46999998093E+01 0. -1.
       -5    1    3    3    0  502  0.44701677680E+03  0.49196793362E+03 -0.98634923806E+03  0.11894382522E+04  0.46999998093E+01 0.  1.
</event>
<event>
 5   0  0.2910318E-05  0.2185459E+04  0.7818609E-02  0.8524505E-01
        1   -1    0    0  501    0  0.00000000000E+00  0.00000000000E+00  0.13766866523E+04  0.13766866523E+04  0.50400001928E-02 0. -1.
       -1   -1    0    0    0  501  0.00000000000E+00  0.00000000000E+00 -0.86734162186E+03  0.86734162187E+03  0.50400001928E-02 0.  1.
    10030    2    1    2    0    0  0.00000000000E+00  0.00000000000E+00  0.50934503044E+03  0.22440282742E+04  0.21854588844E+04 0.  0.
        5    1    3    3  502    0  0.74877187131E+03 -0.10848625410E+02  0.10717743966E+04  0.13074782809E+04  0.46999998093E+01 0. -1.
       -5    1    3    3    0  502 -0.74877187131E+03  0.10848625410E+02 -0.56242936615E+03  0.93654999325E+03  0.46999998093E+01 0.  1.
</event>
<event>
 5   0  0.2908031E-05  0.2135806E+04  0.7818609E-02  0.8545633E-01
       -1   -1    0    0    0  501  0.00000000000E+00  0.00000000000E+00  0.63566980638E+03  0.63566980640E+03  0.50400001928E-02 0. -1.
        1   -1    0    0  501    0  0.00000000000E+00  0.00000000000E+00 -0.17940389878E+04  0.17940389878E+04  0.50400001928E-02 0.  1.
    10030    2    1    2    0    0  0.00000000000E+00  0.00000000000E+00 -0.11583691814E+04  0.24297087942E+04  0.21358056241E+04 0.  0.
        1    1    3    3  502    0 -0.85963797124E+03  0.19862358867E+03  0.10526169872E+03  0.88854307539E+03  0.50400001928E-02 0. -1.
       -1    1    3    3    0  502  0.85963797124E+03 -0.19862358867E+03 -0.12636308801E+04  0.15411657188E+04  0.50400001928E-02 0.  1.
</event>
<event>
 5   0  0.6306919E-05  0.2219972E+04  0.7818609E-02  0.8510161E-01
        2   -1    0    0  501    0  0.00000000000E+00  0.00000000000E+00  0.15885609551E+04  0.15885609551E+04  0.25500000920E-02 0. -1.
       -2   -1    0    0    0  501  0.00000000000E+00  0.00000000000E+00 -0.77558781078E+03  0.77558781079E+03  0.25500000920E-02 0.  1.
    10030    2    1    2    0    0  0.00000000000E+00  0.00000000000E+00  0.81297314430E+03  0.23641487659E+04  0.22199716336E+04 0.  0.
        3    1    3    3  502    0  0.96048653875E+03 -0.44269389414E+03  0.76535301981E+03  0.13054798084E+04  0.10100000352E+00 0. -1.
       -3    1    3    3    0  502 -0.96048653875E+03  0.44269389414E+03  0.47620124489E+02  0.10586689575E+04  0.10100000352E+00 0.  1.
</event>
<event>
 5   0  0.2245375E-05  0.2210881E+04  0.7818609E-02  0.8513913E-01
        4   -1    0    0  501    0  0.00000000000E+00  0.00000000000E+00  0.11089464195E+04  0.11089471468E+04  0.12699999809E+01 0.  1.
       -4   -1    0    0    0  501  0.00000000000E+00  0.00000000000E+00 -0.11019440772E+04  0.11019448090E+04  0.12699999809E+01 0. -1.
    10030    2    1    2    0    0  0.00000000000E+00  0.00000000000E+00  0.70023423774E+01  0.22108919558E+04  0.22108808668E+04 0.  0.
        1    1    3    3  502    0  0.95805295729E+03  0.45812352055E+03 -0.30351164331E+03  0.11044736062E+04  0.50400001928E-02 0. -1.
       -1    1    3    3    0  502 -0.95805295729E+03 -0.45812352055E+03  0.31051398568E+03  0.11064183496E+04  0.50400001928E-02 0.  1.
</event>
<event>
 5   0  0.2753631E-05  0.2223250E+04  0.7818609E-02  0.8508813E-01
       -1   -1    0    0    0  501  0.00000000000E+00  0.00000000000E+00  0.73769714540E+03  0.73769714541E+03  0.50400001928E-02 0. -1.
        1   -1    0    0  501    0  0.00000000000E+00  0.00000000000E+00 -0.16750921053E+04  0.16750921053E+04  0.50400001928E-02 0.  1.
    10030    2    1    2    0    0  0.00000000000E+00  0.00000000000E+00 -0.93739495990E+03  0.24127892507E+04  0.22232504712E+04 0.  0.
        4    1    3    3  502    0  0.69814899593E+02  0.67438536485E+03 -0.14247304220E+04  0.15778238586E+04  0.12699999809E+01 0.  1.
       -4    1    3    3    0  502 -0.69814899593E+02 -0.67438536485E+03  0.48733546209E+03  0.83496539212E+03  0.12699999809E+01 0. -1.
</event>
<event>
 5   0  0.6414768E-05  0.2229987E+04  0.7818609E-02  0.8506050E-01
        2   -1    0    0  501    0  0.00000000000E+00  0.00000000000E+00  0.19831542500E+04  0.19831542500E+04  0.25500000920E-02 0. -1.
       -2   -1    0    0    0  501  0.00000000000E+00  0.00000000000E+00 -0.62688517777E+03  0.62688517777E+03  0.25500000920E-02 0.  1.
    10030    2    1    2    0    0  0.00000000000E+00  0.00000000000E+00  0.13562690722E+04  0.26100394278E+04  0.22299865511E+04 0.  0.
        2    1    3    3  502    0  0.73866147674E+03 -0.37759766525E+03  0.15500912522E+04  0.17581193544E+04  0.25500000920E-02 0. -1.
       -2    1    3    3    0  502 -0.73866147674E+03  0.37759766525E+03 -0.19382217998E+03  0.85192007341E+03  0.25500000920E-02 0.  1.
</event>
<event>
 5   0  0.6414768E-05  0.2183473E+04  0.7818609E-02  0.8525338E-01
       -2   -1    0    0    0  501  0.00000000000E+00  0.00000000000E+00  0.61818323741E+03  0.61818323741E+03  0.25500000920E-02 0.  1.
        2   -1    0    0  501    0  0.00000000000E+00  0.00000000000E+00 -0.19280512697E+04  0.19280512697E+04  0.25500000920E-02 0. -1.
    10030    2    1    2    0    0  0.00000000000E+00  0.00000000000E+00 -0.13098680323E+04  0.25462345072E+04  0.21834733576E+04 0.  0.
        2    1    3    3  502    0 -0.10744941708E+04  0.12345222444E+03 -0.82833547243E+03  0.13623207514E+04  0.25500000920E-02 0. -1.
       -2    1    3    3    0  502  0.10744941708E+04 -0.12345222444E+03 -0.48153255990E+03  0.11839137558E+04  0.25500000920E-02 0.  1.
</event>
<event>
 5   0  0.2908031E-05  0.2186598E+04  0.7818609E-02  0.8524027E-01
       -1   -1    0    0    0  501  0.00000000000E+00  0.00000000000E+00  0.95404527937E+03  0.95404527939E+03  0.50400001928E-02 0. -1.
        1   -1    0    0  501    0  0.00000000000E+00  0.00000000000E+00 -0.12528778348E+04  0.12528778348E+04  0.50400001928E-02 0.  1.
    10030    2    1    2    0    0  0.00000000000E+00  0.00000000000E+00 -0.29883255538E+03  0.22069231142E+04  0.21865975248E+04 0.  0.
        1    1    3    3  502    0  0.29087294663E+03 -0.37554078530E+02  0.91359992197E+03  0.95952185872E+03  0.50400001928E-02 0. -1.
       -1    1    3    3    0  502 -0.29087294663E+03  0.37554078530E+02 -0.12124324774E+04  0.12474012554E+04  0.50400001928E-02 0.  1.
</event>
<event>
 5   0  0.6445740E-05  0.2216672E+04  0.7818609E-02  0.8511521E-01
       -2   -1    0    0    0  501  0.00000000000E+00  0.00000000000E+00  0.11759580963E+04  0.11759580963E+04  0.25500000920E-02 0. -1.
        2   -1    0    0  501    0  0.00000000000E+00  0.00000000000E+00 -0.10446026651E+04  0.10446026651E+04  0.25500000920E-02 0.  1.
    10030    2    1    2    0    0  0.00000000000E+00  0.00000000000E+00  0.13135543120E+03  0.22205607613E+04  0.22166722458E+04 0.  0.
        5    1    3    3  502    0  0.41798746308E+03  0.17710186784E+03  0.10785440047E+04  0.11701956464E+04  0.46999998093E+01 0. -1.
       -5    1    3    3    0  502 -0.41798746308E+03 -0.17710186784E+03 -0.94718857347E+03  0.10503651149E+04  0.46999998093E+01 0.  1.
</event>
<event>
 5   0  0.2820239E-05  0.2238248E+04  0.7818609E-02  0.8502675E-01
       -1   -1    0    0    0  501  0.00000000000E+00  0.00000000000E+00  0.93745938533E+03  0.93745938534E+03  0.50400001928E-02 0. -1.
        1   -1    0    0  501    0  0.00000000000E+00  0.00000000000E+00 -0.13359920089E+04  0.13359920089E+04  0.50400001928E-02 0.  1.
    10030    2    1    2    0    0  0.00000000000E+00  0.00000000000E+00 -0.39853262358E+03  0.22734513943E+04  0.22382477499E+04 0.  0.
        3    1    3    3  502    0  0.84094025705E+03 -0.49981157008E+03  0.35283230533E+03  0.10399436366E+04  0.10100000352E+00 0. -1.
       -3    1    3    3    0  502 -0.84094025705E+03  0.49981157008E+03 -0.75136492891E+03  0.12335077576E+04  0.10100000352E+00 0.  1.
</event>
<event>
 5   0  0.6628798E-05  0.2201409E+04  0.7818609E-02  0.8517842E-01
       -2   -1    0    0    0  501  0.00000000000E+00  0.00000000000E+00  0.13486455314E+04  0.13486455314E+04  0.25500000920E-02 0.  1.
        2   -1    0    0  501    0  0.00000000000E+00  0.00000000000E+00 -0.89834599349E+03  0.89834599349E+03  0.25500000920E-02 0. -1.
    10030    2    1    2    0    0  0.00000000000E+00  0.00000000000E+00  0.45029953795E+03  0.22469915249E+04  0.22014089214E+04 0.  0.
        4    1    3    3  502    0 -0.68883195350E+03  0.40694879905E+03  0.99674681652E+03  0.12781246474E+04  0.12699999809E+01 0.  1.
       -4    1    3    3    0  502  0.68883195350E+03 -0.40694879905E+03 -0.54644727856E+03  0.96886687752E+03  0.12699999809E+01 0. -1.
</event>
<event>
 5   0  0.2245375E-05  0.2216902E+04  0.7818609E-02  0.8511426E-01
        4   -1    0    0  501    0  0.00000000000E+00  0.00000000000E+00  0.95662517841E+03  0.95662602142E+03  0.12699999809E+01 0. -1.
       -4   -1    0    0    0  501  0.00000000000E+00  0.00000000000E+00 -0.12843717655E+04  0.12843723934E+04  0.12699999809E+01 0.  1.
    10030    2    1    2    0    0  0.00000000000E+00  0.00000000000E+00 -0.32774658708E+03  0.22409984148E+04  0.22169023591E+04 0.  0.
        1    1    3    3  502    0  0.18320649120E+03  0.14674174981E+03  0.93121412890E+03  0.96034239386E+03  0.50400001928E-02 0. -1.
       -1    1    3    3    0  502 -0.18320649120E+03 -0.14674174981E+03 -0.12589607160E+04  0.12806560209E+04  0.50400001928E-02 0.  1.
</event>
<event>
 5   0  0.2908031E-05  0.2205138E+04  0.7818609E-02  0.8516292E-01
        1   -1    0    0  501    0  0.00000000000E+00  0.00000000000E+00  0.13753453736E+04  0.13753453736E+04  0.50400001928E-02 0.  1.
       -1   -1    0    0    0  501  0.00000000000E+00  0.00000000000E+00 -0.88389340198E+03  0.88389340200E+03  0.50400001928E-02 0. -1.
    10030    2    1    2    0    0  0.00000000000E+00  0.00000000000E+00  0.49145197163E+03  0.22592387756E+04  0.22051382734E+04 0.  0.
        1    1    3    3  502    0  0.97917623158E+03  0.20886447945E+03  0.71884350702E+03  0.12325365921E+04  0.50400001928E-02 0.  1.
       -1    1    3    3    0  502 -0.97917623158E+03 -0.20886447945E+03 -0.22739153539E+03  0.10267021835E+04  0.50400001928E-02 0. -1.
</event>
<event>
 5   0  0.2908031E-05  0.2207787E+04  0.7818609E-02  0.8515194E-01
       -1   -1    0    0    0  501  0.00000000000E+00  0.00000000000E+00  0.12458066778E+04  0.12458066778E+04  0.50400001928E-02 0.  1.
        1   -1    0    0  501    0  0.00000000000E+00  0.00000000000E+00 -0.97814610222E+03  0.97814610223E+03  0.50400001928E-02 0. -1.
    10030    2    1    2    0    0  0.00000000000E+00  0.00000000000E+00  0.26766057554E+03  0.22239527800E+04  0.22077870785E+04 0.  0.
        1    1    3    3  502    0  0.47387240931E+03  0.46534697788E+03 -0.75437315095E+03  0.10050779676E+04  0.50400001928E-02 0. -1.
       -1    1    3    3    0  502 -0.47387240931E+03 -0.46534697788E+03  0.10220337265E+04  0.12188748124E+04  0.50400001928E-02 0.  1.
</event>
<event>
 5   0  0.2820239E-05  0.2182462E+04  0.7818609E-02  0.8525764E-01
        1   -1    0    0  501    0  0.00000000000E+00  0.00000000000E+00  0.22444332936E+04  0.22444332936E+04  0.50400001928E-02 0. -1.
       -1   -1    0    0    0  501  0.00000000000E+00  0.00000000000E+00 -0.53055022767E+03  0.53055022769E+03  0.50400001928E-02 0.  1.
    10030    2    1    2    0    0  0.00000000000E+00  0.00000000000E+00  0.17138830659E+04  0.27749835213E+04  0.21824615414E+04 0.  0.
        3    1    3    3  502    0  0.64984289742E+02 -0.10866799166E+04  0.95283926228E+03  0.14467200382E+04  0.10100000352E+00 0. -1.
       -3    1    3    3    0  502 -0.64984289742E+02  0.10866799166E+04  0.76104380361E+03  0.13282634830E+04  0.10100000352E+00 0.  1.
</event>
<event>
 5   0  0.6628798E-05  0.2185148E+04  0.7818609E-02  0.8524636E-01
       -2   -1    0    0    0  501  0.00000000000E+00  0.00000000000E+00  0.89185821847E+03  0.89185821847E+03  0.25500000920E-02 0. -1.
        2   -1    0    0  501    0  0.00000000000E+00  0.00000000000E+00 -0.13384609801E+04  0.13384609801E+04  0.25500000920E-02 0.  1.
    10030    2    1    2    0    0  0.00000000000E+00  0.00000000000E+00 -0.44660276163E+03  0.22303191986E+04  0.21851475238E+04 0.  0.
        4    1    3    3  502    0 -0.61876879837E+03 -0.16426760796E+03  0.68035791304E+03  0.93420938531E+03  0.12699999809E+01 0. -1.
       -4    1    3    3    0  502  0.61876879837E+03  0.16426760796E+03 -0.11269606747E+04  0.12961098133E+04  0.12699999809E+01 0.  1.
</event>
<event>
 5   0  0.6293013E-05  0.2198935E+04  0.7818609E-02  0.8518872E-01
       -2   -1    0    0    0  501  0.00000000000E+00  0.00000000000E+00  0.62250018330E+03  0.62250018331E+03  0.25500000920E-02 0.  1.
        2   -1    0    0  501    0  0.00000000000E+00  0.00000000000E+00 -0.19418922753E+04  0.19418922753E+04  0.25500000920E-02 0. -1.
    10030    2    1    2    0    0  0.00000000000E+00  0.00000000000E+00 -0.13193920920E+04  0.25643924587E+04  0.21989345578E+04 0.  0.
        1    1    3    3  502    0 -0.94296171806E+03 -0.42488704708E+03 -0.22471447055E+03  0.10583961441E+04  0.50400001928E-02 0.  1.
       -1    1    3    3    0  502  0.94296171806E+03  0.42488704708E+03 -0.10946776215E+04  0.15059963146E+04  0.50400001928E-02 0. -1.
</event>
<event>
 5   0  0.2245375E-05  0.2004382E+04  0.7818609E-02  0.8604575E-01
        4   -1    0    0  501    0  0.00000000000E+00  0.00000000000E+00  0.15334513422E+04  0.15334518681E+04  0.12699999809E+01 0. -1.
       -4   -1    0    0    0  501  0.00000000000E+00  0.00000000000E+00 -0.65498300351E+03  0.65498423477E+03  0.12699999809E+01 0.  1.
    10030    2    1    2    0    0  0.00000000000E+00  0.00000000000E+00  0.87846833872E+03  0.21884361029E+04  0.20043816888E+04 0.  0.
        3    1    3    3  502    0 -0.37830102570E+03  0.58829940097E+03 -0.34443428111E+03  0.77964276142E+03  0.10100000352E+00 0.  1.
       -3    1    3    3    0  502  0.37830102570E+03 -0.58829940097E+03  0.12229026198E+04  0.14087933415E+04  0.10100000352E+00 0. -1.
</event>
<event>
 5   0  0.2929471E-05  0.2213494E+04  0.7818609E-02  0.8512833E-01
       -1   -1    0    0    0  501  0.00000000000E+00  0.00000000000E+00  0.12268691714E+04  0.12268691715E+04  0.50400001928E-02 0. -1.
        1   -1    0    0  501    0  0.00000000000E+00  0.00000000000E+00 -0.99838564050E+03  0.99838564051E+03  0.50400001928E-02 0.  1.
    10030    2    1    2    0    0  0.00000000000E+00  0.00000000000E+00  0.22848353095E+03  0.22252548120E+04  0.22134936761E+04 0.  0.
        2    1    3    3  502    0  0.92357781431E+03  0.60026214684E+03  0.22241432405E+03  0.11237342905E+04  0.25500000920E-02 0.  1.
       -2    1    3    3    0  502 -0.92357781431E+03 -0.60026214684E+03  0.60692068995E+01  0.11015205215E+04  0.25500000920E-02 0. -1.
</event>
<event>
 5   0  0.2910318E-05  0.2208580E+04  0.7818609E-02  0.8514865E-01
       -1   -1    0    0    0  501  0.00000000000E+00  0.00000000000E+00  0.12349525710E+04  0.12349525710E+04  0.50400001928E-02 0.  1.
        1   -1    0    0  501    0  0.00000000000E+00  0.00000000000E+00 -0.98745187950E+03  0.98745187951E+03  0.50400001928E-02 0. -1.
    10030    2    1    2    0    0  0.00000000000E+00  0.00000000000E+00  0.24750069151E+03  0.22224044505E+04  0.22085798490E+04 0.  0.
        5    1    3    3  502    0 -0.86064983190E+03  0.55179063554E+03  0.54378758774E+03  0.11579801679E+04  0.46999998093E+01 0.  1.
       -5    1    3    3    0  502  0.86064983190E+03 -0.55179063554E+03 -0.29628689623E+03  0.10644242826E+04  0.46999998093E+01 0. -1.
</event>
<event>
 5   0  0.6628798E-05  0.2204227E+04  0.7818609E-02  0.8516671E-01
       -2   -1    0    0    0  501  0.00000000000E+00  0.00000000000E+00  0.11892165876E+04  0.11892165876E+04  0.25500000920E-02 0.  1.
        2   -1    0    0  501    0  0.00000000000E+00  0.00000000000E+00 -0.10213899996E+04  0.10213899996E+04  0.25500000920E-02 0. -1.
    10030    2    1    2    0    0  0.00000000000E+00  0.00000000000E+00  0.16782658804E+03  0.22106065872E+04  0.22042267850E+04 0.  0.
        4    1    3    3  502    0 -0.12615233444E+03 -0.54528234711E+03  0.10360848022E+04  0.11775910070E+04  0.12699999809E+01 0.  1.
       -4    1    3    3    0  502  0.12615233444E+03  0.54528234711E+03 -0.86825821414E+03  0.10330155802E+04  0.12699999809E+01 0. -1.
</event>
<event>
 5   0  0.2820239E-05  0.2199824E+04  0.7818609E-02  0.8518501E-01
       -1   -1    0    0    0  501  0.00000000000E+00  0.00000000000E+00  0.46596052746E+03  0.46596052748E+03  0.50400001928E-02 0. -1.
        1   -1    0    0  501    0  0.00000000000E+00  0.00000000000E+00 -0.25963702864E+04  0.25963702864E+04  0.50400001928E-02 0.  1.
    10030    2    1    2    0    0  0.00000000000E+00  0.00000000000E+00 -0.21304097589E+04  0.30623308139E+04  0.21998236913E+04 0.  0.
        3    1    3    3  502    0  0.68669985788E+03  0.50457919982E+03 -0.20333254849E+04  0.22046699076E+04  0.10100000352E+00 0.  1.
       -3    1    3    3    0  502 -0.68669985788E+03 -0.50457919982E+03 -0.97084274025E+02  0.85766090628E+03  0.10100000352E+00 0. -1.
</event>
<event>
 5   0  0.6628798E-05  0.2185769E+04  0.7818609E-02  0.8524375E-01
        2   -1    0    0  501    0  0.00000000000E+00  0.00000000000E+00  0.19244032722E+04  0.19244032722E+04  0.25500000920E-02 0. -1.
       -2   -1    0    0    0  501  0.00000000000E+00  0.00000000000E+00 -0.62065810728E+03  0.62065810729E+03  0.25500000920E-02 0.  1.
    10030    2    1    2    0    0  0.00000000000E+00  0.00000000000E+00  0.13037451650E+04  0.25450613795E+04  0.21857689655E+04 0.  0.
        4    1    3    3  502    0  0.14771175628E+03 -0.49527317548E+03 -0.46937002298E+03  0.69815765602E+03  0.12699999809E+01 0.  1.
       -4    1    3    3    0  502 -0.14771175628E+03  0.49527317548E+03  0.17731151879E+04  0.18469037235E+04  0.12699999809E+01 0. -1.
</event>
<event>
 5   0  0.2820239E-05  0.2198406E+04  0.7818609E-02  0.8519092E-01
       -1   -1    0    0    0  501  0.00000000000E+00  0.00000000000E+00  0.58958931526E+03  0.58958931528E+03  0.50400001928E-02 0.  1.
        1   -1    0    0  501    0  0.00000000000E+00  0.00000000000E+00 -0.20493024332E+04  0.20493024332E+04  0.50400001928E-02 0. -1.
    10030    2    1    2    0    0  0.00000000000E+00  0.00000000000E+00 -0.14597131179E+04  0.26388917485E+04  0.21984056208E+04 0.  0.
        3    1    3    3  502    0 -0.48710052136E+02 -0.10926905622E+04 -0.59890395773E+03  0.12470089393E+04  0.10100000352E+00 0. -1.
       -3    1    3    3    0  502  0.48710052136E+02  0.10926905622E+04 -0.86080916020E+03  0.13918828092E+04  0.10100000352E+00 0.  1.
</event>
<event>
 5   0  0.2908031E-05  0.2220875E+04  0.7818609E-02  0.8509789E-01
       -1   -1    0    0    0  501  0.00000000000E+00  0.00000000000E+00  0.19830505116E+04  0.19830505116E+04  0.50400001928E-02 0.  1.
        1   -1    0    0  501    0  0.00000000000E+00  0.00000000000E+00 -0.62180560024E+03  0.62180560026E+03  0.50400001928E-02 0. -1.
    10030    2    1    2    0    0  0.00000000000E+00  0.00000000000E+00  0.13612449114E+04  0.26048561119E+04  0.22208754253E+04 0.  0.
        1    1    3    3  502    0 -0.66288811170E+03  0.27337426018E+03 -0.31386463960E+03  0.78272929342E+03  0.50400001928E-02 0. -1.
       -1    1    3    3    0  502  0.66288811170E+03 -0.27337426018E+03  0.16751095510E+04  0.18221268185E+04  0.50400001928E-02 0.  1.
</event>
<event>
 5   0  0.6293013E-05  0.2189166E+04  0.7818609E-02  0.8522951E-01
       -2   -1    0    0    0  501  0.00000000000E+00  0.00000000000E+00  0.58223021558E+03  0.58223021558E+03  0.25500000920E-02 0. -1.
        2   -1    0    0  501    0  0.00000000000E+00  0.00000000000E+00 -0.20577975474E+04  0.20577975474E+04  0.25500000920E-02 0.  1.
    10030    2    1    2    0    0  0.00000000000E+00  0.00000000000E+00 -0.14755673318E+04  0.26400277630E+04  0.21891659687E+04 0.  0.
        1    1    3    3  502    0  0.18296735712E+03  0.10626280084E+04 -0.96486329491E+03  0.14469334870E+04  0.50400001928E-02 0.  1.
       -1    1    3    3    0  502 -0.18296735712E+03 -0.10626280084E+04 -0.51070403688E+03  0.11930942759E+04  0.50400001928E-02 0. -1.
</event>
<event>
 5   0  0.6293013E-05  0.2251677E+04  0.7818609E-02  0.8497222E-01
       -2   -1    0    0    0  501  0.00000000000E+00  0.00000000000E+00  0.65891213482E+03  0.65891213482E+03  0.25500000920E-02 0.  1.
        2   -1    0    0  501    0  0.00000000000E+00  0.00000000000E+00 -0.19236444537E+04  0.19236444537E+04  0.25500000920E-02 0. -1.
    10030    2    1    2    0    0  0.00000000000E+00  0.00000000000E+00 -0.12647323189E+04  0.25825565885E+04  0.22516773069E+04 0.  0.
        1    1    3    3  502    0 -0.87826996748E+02  0.86454803725E+03 -0.14533403744E+04  0.16933266471E+04  0.50400001928E-02 0. -1.
       -1    1    3    3    0  502  0.87826996748E+02 -0.86454803725E+03  0.18860805549E+03  0.88922994140E+03  0.50400001928E-02 0.  1.
</event>
<event>
 5   0  0.6628798E-05  0.2216100E+04  0.7818609E-02  0.8511757E-01
       -2   -1    0    0    0  501  0.00000000000E+00  0.00000000000E+00  0.16474405509E+04  0.16474405509E+04  0.25500000920E-02 0.  1.
        2   -1    0    0  501    0  0.00000000000E+00  0.00000000000E+00 -0.74526202439E+03  0.74526202440E+03  0.25500000920E-02 0. -1.
    10030    2    1    2    0    0  0.00000000000E+00  0.00000000000E+00  0.90217852652E+03  0.23927025753E+04  0.22161000700E+04 0.  0.
        4    1    3    3  502    0 -0.23197767271E+03 -0.95612148943E+02  0.16163641197E+04  0.16357230524E+04  0.12699999809E+01 0.  1.
       -4    1    3    3    0  502  0.23197767271E+03  0.95612148943E+02 -0.71418559322E+03  0.75697952292E+03  0.12699999809E+01 0. -1.
</event>
<event>
 5   0  0.6628798E-05  0.2209753E+04  0.7818609E-02  0.8514380E-01
       -2   -1    0    0    0  501  0.00000000000E+00  0.00000000000E+00  0.10083117332E+04  0.10083117332E+04  0.25500000920E-02 0. -1.
        2   -1    0    0  501    0  0.00000000000E+00  0.00000000000E+00 -0.12106889221E+04  0.12106889221E+04  0.25500000920E-02 0.  1.
    10030    2    1    2    0    0  0.00000000000E+00  0.00000000000E+00 -0.20237718888E+03  0.22190006554E+04  0.22097527875E+04 0.  0.
        4    1    3    3  502    0  0.68008205258E+03 -0.75319528644E+02  0.76994732694E+03  0.10300510321E+04  0.12699999809E+01 0. -1.
       -4    1    3    3    0  502 -0.68008205258E+03  0.75319528644E+02 -0.97232451582E+03  0.11889496232E+04  0.12699999809E+01 0.  1.
</event>
<event>
 5   0  0.2908031E-05  0.2180443E+04  0.7818609E-02  0.8526612E-01
       -1   -1    0    0    0  501  0.00000000000E+00  0.00000000000E+00  0.10247091219E+04  0.10247091219E+04  0.50400001928E-02 0.  1.
        1   -1    0    0  501    0  0.00000000000E+00  0.00000000000E+00 -0.11599225872E+04  0.11599225872E+04  0.50400001928E-02 0. -1.
    10030    2    1    2    0    0  0.00000000000E+00  0.00000000000E+00 -0.13521346528E+03  0.21846317091E+04  0.21804433088E+04 0.  0.
        1    1    3    3  502    0 -0.73242342586E+03 -0.45407598180E+03  0.60147404767E+03  0.10509044210E+04  0.50400001928E-02 0.  1.
       -1    1    3    3    0  502  0.73242342586E+03  0.45407598180E+03 -0.73668751295E+03  0.11337272881E+04  0.50400001928E-02 0. -1.
</event>
<event>
 5   0  0.2820239E-05  0.2230340E+04  0.7818609E-02  0.8505905E-01
        1   -1    0    0  501    0  0.00000000000E+00  0.00000000000E+00  0.95225650386E+03  0.95225650388E+03  0.50400001928E-02 0.  1.
       -1   -1    0    0    0  501  0.00000000000E+00  0.00000000000E+00 -0.13059544143E+04  0.13059544143E+04  0.50400001928E-02 0. -1.
    10030    2    1    2    0    0  0.00000000000E+00  0.00000000000E+00 -0.35369791039E+03  0.22582109181E+04  0.22303395120E+04 0.  0.
        3    1    3    3  502    0  0.58630311657E+01  0.72590564702E+03 -0.10339678615E+04  0.12633538429E+04  0.10100000352E+00 0. -1.
       -3    1    3    3    0  502 -0.58630311657E+01 -0.72590564702E+03  0.68026995114E+03  0.99485707523E+03  0.10100000352E+00 0.  1.
</event>
<event>
 5   0  0.6414768E-05  0.2217606E+04  0.7818609E-02  0.8511136E-01
       -2   -1    0    0    0  501  0.00000000000E+00  0.00000000000E+00  0.85949834100E+03  0.85949834100E+03  0.25500000920E-02 0.  1.
        2   -1    0    0  501    0  0.00000000000E+00  0.00000000000E+00 -0.14304204361E+04  0.14304204361E+04  0.25500000920E-02 0. -1.
    10030    2    1    2    0    0  0.00000000000E+00  0.00000000000E+00 -0.57092209506E+03  0.22899187771E+04  0.22176059088E+04 0.  0.
        2    1    3    3  502    0  0.97783061201E+03 -0.36018776637E+03 -0.67670394961E+03  0.12425039912E+04  0.25500000920E-02 0. -1.
       -2    1    3    3    0  502 -0.97783061201E+03  0.36018776637E+03  0.10578185454E+03  0.10474147858E+04  0.25500000920E-02 0.  1.
</event>
<event>
 5   0  0.2929471E-05  0.2220711E+04  0.7818609E-02  0.8509857E-01
       -1   -1    0    0    0  501  0.00000000000E+00  0.00000000000E+00  0.69040802241E+03  0.69040802243E+03  0.50400001928E-02 0. -1.
        1   -1    0    0  501    0  0.00000000000E+00  0.00000000000E+00 -0.17857408990E+04  0.17857408990E+04  0.50400001928E-02 0.  1.
    10030    2    1    2    0    0  0.00000000000E+00  0.00000000000E+00 -0.10953328766E+04  0.24761489214E+04  0.22207114560E+04 0.  0.
        2    1    3    3  502    0 -0.75857597501E+03  0.62207850937E+03  0.32222345662E+02  0.98155868966E+03  0.25500000920E-02 0. -1.
       -2    1    3    3    0  502  0.75857597501E+03 -0.62207850937E+03 -0.11275552223E+04  0.14945902318E+04  0.25500000920E-02 0.  1.
</event>
<event>
 5   0  0.2753631E-05  0.2166655E+04  0.7818609E-02  0.8532437E-01
       -1   -1    0    0    0  501  0.00000000000E+00  0.00000000000E+00  0.12389565853E+04  0.12389565853E+04  0.50400001928E-02 0. -1.
        1   -1    0    0  501    0  0.00000000000E+00  0.00000000000E+00 -0.94724762300E+03  0.94724762301E+03  0.50400001928E-02 0.  1.
    10030    2    1    2    0    0  0.00000000000E+00  0.00000000000E+00  0.29170896231E+03  0.21862042083E+04  0.21666551922E+04 0.  0.
        4    1    3    3  502    0  0.86709498753E+03  0.63963282454E+03  0.25917630713E+03  0.11082228290E+04  0.12699999809E+01 0. -1.
       -4    1    3    3    0  502 -0.86709498753E+03 -0.63963282454E+03  0.32532655171E+02  0.10779813793E+04  0.12699999809E+01 0.  1.
</event>
<event>
 5   0  0.2753631E-05  0.2198386E+04  0.7818609E-02  0.8519100E-01
       -1   -1    0    0    0  501  0.00000000000E+00  0.00000000000E+00  0.93712795919E+03  0.93712795920E+03  0.50400001928E-02 0. -1.
        1   -1    0    0  501    0  0.00000000000E+00  0.00000000000E+00 -0.12892848961E+04  0.12892848961E+04  0.50400001928E-02 0.  1.
    10030    2    1    2    0    0  0.00000000000E+00  0.00000000000E+00 -0.35215693695E+03  0.22264128554E+04  0.21983857019E+04 0.  0.
        4    1    3    3  502    0 -0.56801481973E+03  0.65707282924E+03  0.50618501854E+03  0.10052912137E+04  0.12699999809E+01 0. -1.
       -4    1    3    3    0  502  0.56801481973E+03 -0.65707282924E+03 -0.85834195549E+03  0.12211216417E+04  0.12699999809E+01 0.  1.
</event>
<event>
 5   0  0.6414768E-05  0.2305331E+04  0.7818609E-02  0.8475822E-01
       -2   -1    0    0    0  501  0.00000000000E+00  0.00000000000E+00  0.87303453595E+03  0.87303453595E+03  0.25500000920E-02 0. -1.
        2   -1    0    0  501    0  0.00000000000E+00  0.00000000000E+00 -0.15218617489E+04  0.15218617489E+04  0.25500000920E-02 0.  1.
    10030    2    1    2    0    0  0.00000000000E+00  0.00000000000E+00 -0.64882721295E+03  0.23948962849E+04  0.23053310962E+04 0.  0.
        2    1    3    3  502    0 -0.54573959060E+03  0.90647237814E+03  0.15064254807E+03  0.10687455499E+04  0.25500000920E-02 0. -1.
       -2    1    3    3    0  502  0.54573959060E+03 -0.90647237814E+03 -0.79946976102E+03  0.13261507350E+04  0.25500000920E-02 0.  1.
</event>
<event>
 5   0  0.2908031E-05  0.2158590E+04  0.7818609E-02  0.8535864E-01
        1   -1    0    0  501    0  0.00000000000E+00  0.00000000000E+00  0.80405290142E+03  0.80405290144E+03  0.50400001928E-02 0. -1.
       -1   -1    0    0    0  501  0.00000000000E+00  0.00000000000E+00 -0.14487568782E+04  0.14487568782E+04  0.50400001928E-02 0.  1.
    10030    2    1    2    0    0  0.00000000000E+00  0.00000000000E+00 -0.64470397680E+03  0.22528097797E+04  0.21585895130E+04 0.  0.
        1    1    3    3  502    0 -0.65346954708E+03 -0.80175161237E+03 -0.64410928639E+03  0.12184846613E+04  0.50400001928E-02 0.  1.
       -1    1    3    3    0  502  0.65346954708E+03  0.80175161237E+03 -0.59469041033E+00  0.10343251184E+04  0.50400001928E-02 0. -1.
</event>
<event>
 5   0  0.6414768E-05  0.2176516E+04  0.7818609E-02  0.8528266E-01
        2   -1    0    0  501    0  0.00000000000E+00  0.00000000000E+00  0.61244026026E+03  0.61244026026E+03  0.25500000920E-02 0. -1.
       -2   -1    0    0    0  501  0.00000000000E+00  0.00000000000E+00 -0.19337494030E+04  0.19337494030E+04  0.25500000920E-02 0.  1.
    10030    2    1    2    0    0  0.00000000000E+00  0.00000000000E+00 -0.13213091427E+04  0.25461896632E+04  0.21765164715E+04 0.  0.
        2    1    3    3  502    0  0.11740201424E+02 -0.26698711520E+03  0.57345618907E+03  0.63267049307E+03  0.25500000920E-02 0. -1.
       -2    1    3    3    0  502 -0.11740201424E+02  0.26698711520E+03 -0.18947653318E+04  0.19135191702E+04  0.25500000920E-02 0.  1.
</event>
<event>
 5   0  0.6414768E-05  0.2210904E+04  0.7818609E-02  0.8513903E-01
        2   -1    0    0  501    0  0.00000000000E+00  0.00000000000E+00  0.18710320406E+04  0.18710320406E+04  0.25500000920E-02 0. -1.
       -2   -1    0    0    0  501  0.00000000000E+00  0.00000000000E+00 -0.65312840353E+03  0.65312840353E+03  0.25500000920E-02 0.  1.
    10030    2    1    2    0    0  0.00000000000E+00  0.00000000000E+00  0.12179036371E+04  0.25241604442E+04  0.22109040410E+04 0.  0.
        2    1    3    3  502    0 -0.77014015447E+03 -0.15365811993E+02 -0.29627871147E+03  0.82530784595E+03  0.25500000920E-02 0.  1.
       -2    1    3    3    0  502  0.77014015447E+03  0.15365811993E+02  0.15141823486E+04  0.16988525982E+04  0.25500000920E-02 0. -1.
</event>
<event>
 5   0  0.6414768E-05  0.2200006E+04  0.7818609E-02  0.8518426E-01
        2   -1    0    0  501    0  0.00000000000E+00  0.00000000000E+00  0.24256081139E+04  0.24256081139E+04  0.25500000920E-02 0.  1.
       -2   -1    0    0    0  501  0.00000000000E+00  0.00000000000E+00 -0.49884669941E+03  0.49884669941E+03  0.25500000920E-02 0. -1.
    10030    2    1    2    0    0  0.00000000000E+00  0.00000000000E+00  0.19267614145E+04  0.29244548133E+04  0.22000060015E+04 0.  0.
        2    1    3    3  502    0 -0.58132268817E+03  0.65879543844E+02 -0.27488390340E+03  0.64640338987E+03  0.25500000920E-02 0. -1.
       -2    1    3    3    0  502  0.58132268817E+03 -0.65879543844E+02  0.22016453179E+04  0.22780514235E+04  0.25500000920E-02 0.  1.
</event>
<event>
 5   0  0.6293013E-05  0.2201813E+04  0.7818609E-02  0.8517674E-01
        2   -1    0    0  501    0  0.00000000000E+00  0.00000000000E+00  0.21921553485E+04  0.21921553485E+04  0.25500000920E-02 0. -1.
       -2   -1    0    0    0  501  0.00000000000E+00  0.00000000000E+00 -0.55287854880E+03  0.55287854881E+03  0.25500000920E-02 0.  1.
    10030    2    1    2    0    0  0.00000000000E+00  0.00000000000E+00  0.16392767997E+04  0.27450338973E+04  0.22018134960E+04 0.  0.
        1    1    3    3  502    0 -0.69852983165E+03 -0.38142555504E+03 -0.12865722010E+03  0.80621464887E+03  0.50400001928E-02 0.  1.
       -1    1    3    3    0  502  0.69852983165E+03  0.38142555504E+03  0.17679340198E+04  0.19388192485E+04  0.50400001928E-02 0. -1.
</event>
<event>
 5   0  0.2929471E-05  0.2170486E+04  0.7818609E-02  0.8530814E-01
       -1   -1    0    0    0  501  0.00000000000E+00  0.00000000000E+00  0.66417285077E+03  0.66417285079E+03  0.50400001928E-02 0.  1.
        1   -1    0    0  501    0  0.00000000000E+00  0.00000000000E+00 -0.17732614930E+04  0.17732614930E+04  0.50400001928E-02 0. -1.
    10030    2    1    2    0    0  0.00000000000E+00  0.00000000000E+00 -0.11090886422E+04  0.24374343438E+04  0.21704857899E+04 0.  0.
        2    1    3    3  502    0  0.46513713823E+02 -0.69036234521E+03 -0.14934262462E+04  0.16459300247E+04  0.25500000920E-02 0. -1.
       -2    1    3    3    0  502 -0.46513713823E+02  0.69036234521E+03  0.38433760401E+03  0.79150431908E+03  0.25500000920E-02 0.  1.
</event>
<event>
 5   0  0.6628798E-05  0.2183915E+04  0.7818609E-02  0.8525153E-01
        2   -1    0    0  501    0  0.00000000000E+00  0.00000000000E+00  0.22988247314E+04  0.22988247314E+04  0.25500000920E-02 0. -1.
       -2   -1    0    0    0  501  0.00000000000E+00  0.00000000000E+00 -0.51868712203E+03  0.51868712203E+03  0.25500000920E-02 0.  1.
    10030    2    1    2    0    0  0.00000000000E+00  0.00000000000E+00  0.17801376094E+04  0.28175118534E+04  0.21839146357E+04 0.  0.
        4    1    3    3  502    0  0.26053151891E+03  0.93042437506E+03  0.15463874319E+04  0.18234258670E+04  0.12699999809E+01 0. -1.
       -4    1    3    3    0  502 -0.26053151891E+03 -0.93042437506E+03  0.23375017748E+03  0.99408598643E+03  0.12699999809E+01 0.  1.
</event>
<event>
 5   0  0.6445740E-05  0.2182321E+04  0.7818609E-02  0.8525823E-01
       -2   -1    0    0    0  501  0.00000000000E+00  0.00000000000E+00  0.68000451615E+03  0.68000451616E+03  0.25500000920E-02 0. -1.
        2   -1    0    0  501    0  0.00000000000E+00  0.00000000000E+00 -0.17509171979E+04  0.17509171979E+04  0.25500000920E-02 0.  1.
    10030    2    1    2    0    0  0.00000000000E+00  0.00000000000E+00 -0.10709126818E+04  0.24309217141E+04  0.21823213347E+04 0.  0.
        5    1    3    3  502    0  0.72764956627E+03  0.57177437680E+03  0.10850795457E+03  0.93177030188E+03  0.46999998093E+01 0. -1.
       -5    1    3    3    0  502 -0.72764956627E+03 -0.57177437680E+03 -0.11794206364E+04  0.14991514122E+04  0.46999998093E+01 0.  1.
</event>
<event>
 5   0  0.2820239E-05  0.2209763E+04  0.7818609E-02  0.8514375E-01
        1   -1    0    0  501    0  0.00000000000E+00  0.00000000000E+00  0.11366843335E+04  0.11366843335E+04  0.50400001928E-02 0.  1.
       -1   -1    0    0    0  501  0.00000000000E+00  0.00000000000E+00 -0.10739687002E+04  0.10739687002E+04  0.50400001928E-02 0. -1.
    10030    2    1    2    0    0  0.00000000000E+00  0.00000000000E+00  0.62715633341E+02  0.22106530337E+04  0.22097632418E+04 0.  0.
        3    1    3    3  502    0  0.62905369295E+03 -0.31669241793E+03 -0.82031379687E+03  0.10811648217E+04  0.10100000352E+00 0. -1.
       -3    1    3    3    0  502 -0.62905369295E+03  0.31669241793E+03  0.88302943021E+03  0.11294882120E+04  0.10100000352E+00 0.  1.
</event>
<event>
 5   0  0.6445740E-05  0.2238558E+04  0.7818609E-02  0.8502549E-01
       -2   -1    0    0    0  501  0.00000000000E+00  0.00000000000E+00  0.59808288363E+03  0.59808288363E+03  0.25500000920E-02 0. -1.
        2   -1    0    0  501    0  0.00000000000E+00  0.00000000000E+00 -0.20946685141E+04  0.20946685141E+04  0.25500000920E-02 0.  1.
    10030    2    1    2    0    0  0.00000000000E+00  0.00000000000E+00 -0.14965856304E+04  0.26927513977E+04  0.22385579154E+04 0.  0.
        5    1    3    3  502    0  0.28532467764E+03  0.10799809503E+04 -0.66328400192E+03  0.12991292399E+04  0.46999998093E+01 0.  1.
       -5    1    3    3    0  502 -0.28532467764E+03 -0.10799809503E+04 -0.83330162852E+03  0.13936221578E+04  0.46999998093E+01 0. -1.
</event>
<event>
 5   0  0.2910318E-05  0.2214435E+04  0.7818609E-02  0.8512444E-01
        1   -1    0    0  501    0  0.00000000000E+00  0.00000000000E+00  0.16341845494E+04  0.16341845495E+04  0.50400001928E-02 0.  1.
       -1   -1    0    0    0  501  0.00000000000E+00  0.00000000000E+00 -0.75017896159E+03  0.75017896161E+03  0.50400001928E-02 0. -1.
    10030    2    1    2    0    0  0.00000000000E+00  0.00000000000E+00  0.88400558785E+03  0.23843635111E+04  0.22144352493E+04 0.  0.
        5    1    3    3  502    0 -0.75466141803E+02  0.79497462787E+03  0.12678176471E+04  0.14983535877E+04  0.46999998093E+01 0.  1.
       -5    1    3    3    0  502  0.75466141803E+02 -0.79497462787E+03 -0.38381205922E+03  0.88600992338E+03  0.46999998093E+01 0. -1.
</event>
<event>
 5   0  0.6445740E-05  0.2170049E+04  0.7818609E-02  0.8530999E-01
       -2   -1    0    0    0  501  0.00000000000E+00  0.00000000000E+00  0.13057290187E+04  0.13057290187E+04  0.25500000920E-02 0.  1.
        2   -1    0    0  501    0  0.00000000000E+00  0.00000000000E+00 -0.90162552923E+03  0.90162552923E+03  0.25500000920E-02 0. -1.
    10030    2    1    2    0    0  0.00000000000E+00  0.00000000000E+00  0.40410348950E+03  0.22073545480E+04  0.21700494165E+04 0.  0.
        5    1    3    3  502    0  0.49642679897E+03  0.49967568830E+03 -0.63744890493E+03  0.94998871394E+03  0.46999998093E+01 0. -1.
       -5    1    3    3    0  502 -0.49642679897E+03 -0.49967568830E+03  0.10415523944E+04  0.12573658340E+04  0.46999998093E+01 0.  1.
</event>
<event>
 5   0  0.6414768E-05  0.2210772E+04  0.7818609E-02  0.8513958E-01
        2   -1    0    0  501    0  0.00000000000E+00  0.00000000000E+00  0.92174910207E+03  0.92174910208E+03  0.25500000920E-02 0.  1.
       -2   -1    0    0    0  501  0.00000000000E+00  0.00000000000E+00 -0.13256081419E+04  0.13256081419E+04  0.25500000920E-02 0. -1.
    10030    2    1    2    0    0  0.00000000000E+00  0.00000000000E+00 -0.40385903985E+03  0.22473572440E+04  0.22107719145E+04 0.  0.
        2    1    3    3  502    0  0.75321836689E+03  0.28337744033E+01 -0.10243495440E+04  0.12714707730E+04  0.25500000920E-02 0. -1.
       -2    1    3    3    0  502 -0.75321836689E+03 -0.28337744033E+01  0.62049050410E+03  0.97588647096E+03  0.25500000920E-02 0.  1.
</event>
<event>
 5   0  0.2908031E-05  0.2215429E+04  0.7818609E-02  0.8512034E-01
       -1   -1    0    0    0  501  0.00000000000E+00  0.00000000000E+00  0.90866627161E+03  0.90866627162E+03  0.50400001928E-02 0. -1.
        1   -1    0    0  501    0  0.00000000000E+00  0.00000000000E+00 -0.13503653328E+04  0.13503653328E+04  0.50400001928E-02 0.  1.
    10030    2    1    2    0    0  0.00000000000E+00  0.00000000000E+00 -0.44169906116E+03  0.22590316044E+04  0.22154290169E+04 0.  0.
        1    1    3    3  502    0  0.63604482601E+03  0.26721266214E+03 -0.11045525789E+04  0.13023025866E+04  0.50400001928E-02 0.  1.
       -1    1    3    3    0  502 -0.63604482601E+03 -0.26721266214E+03  0.66285351774E+03  0.95672901780E+03  0.50400001928E-02 0. -1.
</event>
<event>
 5   0  0.2820239E-05  0.2154217E+04  0.7818609E-02  0.8537729E-01
        1   -1    0    0  501    0  0.00000000000E+00  0.00000000000E+00  0.10922201985E+04  0.10922201985E+04  0.50400001928E-02 0. -1.
       -1   -1    0    0    0  501  0.00000000000E+00  0.00000000000E+00 -0.10622060809E+04  0.10622060809E+04  0.50400001928E-02 0.  1.
    10030    2    1    2    0    0  0.00000000000E+00  0.00000000000E+00  0.30014117574E+02  0.21544262794E+04  0.21542172003E+04 0.  0.
        3    1    3    3  502    0  0.16825526038E+03  0.10084721387E+04  0.35391608988E+03  0.10819346080E+04  0.10100000352E+00 0. -1.
       -3    1    3    3    0  502 -0.16825526038E+03 -0.10084721387E+04 -0.32390197230E+03  0.10724916713E+04  0.10100000352E+00 0.  1.
</event>
<event>
 5   0  0.6628798E-05  0.2194657E+04  0.7818609E-02  0.8520655E-01
       -2   -1    0    0    0  501  0.00000000000E+00  0.00000000000E+00  0.10579614177E+04  0.10579614177E+04  0.25500000920E-02 0. -1.
        2   -1    0    0  501    0  0.00000000000E+00  0.00000000000E+00 -0.11381603071E+04  0.11381603071E+04  0.25500000920E-02 0.  1.
    10030    2    1    2    0    0  0.00000000000E+00  0.00000000000E+00 -0.80198889454E+02  0.21961217248E+04  0.21946568680E+04 0.  0.
        4    1    3    3  502    0  0.53480008579E+03  0.85665650761E+03 -0.46963713466E+03  0.11137468990E+04  0.12699999809E+01 0.  1.
       -4    1    3    3    0  502 -0.53480008579E+03 -0.85665650761E+03  0.38943824521E+03  0.10823748258E+04  0.12699999809E+01 0. -1.
</event>
<event>
 5   0  0.6628798E-05  0.2192719E+04  0.7818609E-02  0.8521465E-01
       -2   -1    0    0    0  501  0.00000000000E+00  0.00000000000E+00  0.14304822574E+04  0.14304822574E+04  0.25500000920E-02 0. -1.
        2   -1    0    0  501    0  0.00000000000E+00  0.00000000000E+00 -0.84027909739E+03  0.84027909740E+03  0.25500000920E-02 0.  1.
    10030    2    1    2    0    0  0.00000000000E+00  0.00000000000E+00  0.59020315997E+03  0.22707613548E+04  0.21927191704E+04 0.  0.
        4    1    3    3  502    0 -0.44283013550E+03 -0.95803475794E+03 -0.12232949947E+02  0.10555000636E+04  0.12699999809E+01 0.  1.
       -4    1    3    3    0  502  0.44283013550E+03  0.95803475794E+03  0.60243610992E+03  0.12152612911E+04  0.12699999809E+01 0. -1.
</event>
<event>
 5   0  0.6293013E-05  0.2189128E+04  0.7818609E-02  0.8522967E-01
        2   -1    0    0  501    0  0.00000000000E+00  0.00000000000E+00  0.21350112685E+04  0.21350112686E+04  0.25500000920E-02 0.  1.
       -2   -1    0    0    0  501  0.00000000000E+00  0.00000000000E+00 -0.56115420566E+03  0.56115420567E+03  0.25500000920E-02 0. -1.
    10030    2    1    2    0    0  0.00000000000E+00  0.00000000000E+00  0.15738570629E+04  0.26961654742E+04  0.21891281849E+04 0.  0.
        1    1    3    3  502    0 -0.22470444741E+03  0.69067970723E+03  0.17954559214E+04  0.19367995540E+04  0.50400001928E-02 0.  1.
       -1    1    3    3    0  502  0.22470444741E+03 -0.69067970723E+03 -0.22159885851E+03  0.75936592022E+03  0.50400001928E-02 0. -1.
</event>
<event>
 5   0  0.6445740E-05  0.2193929E+04  0.7818609E-02  0.8520959E-01
       -2   -1    0    0    0  501  0.00000000000E+00  0.00000000000E+00  0.87869835804E+03  0.87869835805E+03  0.25500000920E-02 0. -1.
        2   -1    0    0  501    0  0.00000000000E+00  0.00000000000E+00 -0.13694475648E+04  0.13694475648E+04  0.25500000920E-02 0.  1.
    10030    2    1    2    0    0  0.00000000000E+00  0.00000000000E+00 -0.49074920674E+03  0.22481459228E+04  0.21939291936E+04 0.  0.
        5    1    3    3  502    0  0.33828617233E+03 -0.35634507776E+03  0.75962194326E+03  0.90469162454E+03  0.46999998093E+01 0. -1.
       -5    1    3    3    0  502 -0.33828617233E+03  0.35634507776E+03 -0.12503711500E+04  0.13434542983E+04  0.46999998093E+01 0.  1.
</event>
<event>
 5   0  0.2820239E-05  0.2180428E+04  0.7818609E-02  0.8526619E-01
       -1   -1    0    0    0  501  0.00000000000E+00  0.00000000000E+00  0.79179081720E+03  0.79179081722E+03  0.50400001928E-02 0.  1.
        1   -1    0    0  501    0  0.00000000000E+00  0.00000000000E+00 -0.15011123172E+04  0.15011123172E+04  0.50400001928E-02 0. -1.
    10030    2    1    2    0    0  0.00000000000E+00  0.00000000000E+00 -0.70932149997E+03  0.22929031344E+04  0.21804283509E+04 0.  0.
        3    1    3    3  502    0 -0.10167816064E+04 -0.38418173603E+03 -0.44343396208E+03  0.11739140217E+04  0.10100000352E+00 0. -1.
       -3    1    3    3    0  502  0.10167816064E+04  0.38418173603E+03 -0.26588753788E+03  0.11189891127E+04  0.10100000352E+00 0.  1.
</event>
<event>
 5   0  0.2908031E-05  0.2187954E+04  0.7818609E-02  0.8523459E-01
        1   -1    0    0  501    0  0.00000000000E+00  0.00000000000E+00  0.15507716056E+04  0.15507716056E+04  0.50400001928E-02 0.  1.
       -1   -1    0    0    0  501  0.00000000000E+00  0.00000000000E+00 -0.77173526915E+03  0.77173526917E+03  0.50400001928E-02 0. -1.
    10030    2    1    2    0    0  0.00000000000E+00  0.00000000000E+00  0.77903633642E+03  0.23225068748E+04  0.21879535118E+04 0.  0.
        1    1    3    3  502    0  0.12080438221E+03  0.93441345177E+03  0.97964095848E+03  0.13591977800E+04  0.50400001928E-02 0.  1.
       -1    1    3    3    0  502 -0.12080438221E+03 -0.93441345177E+03 -0.20060462206E+03  0.96330909475E+03  0.50400001928E-02 0. -1.
</event>
<event>
 5   0  0.6414768E-05  0.2213993E+04  0.7818609E-02  0.8512626E-01
       -2   -1    0    0    0  501  0.00000000000E+00  0.00000000000E+00  0.69174570648E+03  0.69174570649E+03  0.25500000920E-02 0.  1.
        2   -1    0    0  501    0  0.00000000000E+00  0.00000000000E+00 -0.17715205036E+04  0.17715205036E+04  0.25500000920E-02 0. -1.
    10030    2    1    2    0    0  0.00000000000E+00  0.00000000000E+00 -0.10797747971E+04  0.24632662101E+04  0.22139934077E+04 0.  0.
        2    1    3    3  502    0 -0.64273525484E+03  0.84675998491E+03 -0.88340677632E+03  0.13822151107E+04  0.25500000920E-02 0. -1.
       -2    1    3    3    0  502  0.64273525484E+03 -0.84675998491E+03 -0.19636802081E+03  0.10810510994E+04  0.25500000920E-02 0.  1.
</event>
<event>
 5   0  0.2910318E-05  0.2215374E+04  0.7818609E-02  0.8512056E-01
        1   -1    0    0  501    0  0.00000000000E+00  0.00000000000E+00  0.87733157660E+03  0.87733157662E+03  0.50400001928E-02 0. -1.
       -1   -1    0    0    0  501  0.00000000000E+00  0.00000000000E+00 -0.13985257436E+04  0.13985257436E+04  0.50400001928E-02 0.  1.
    10030    2    1    2    0    0  0.00000000000E+00  0.00000000000E+00 -0.52119416696E+03  0.22758573202E+04  0.22153742759E+04 0.  0.
        5    1    3    3  502    0  0.23849024186E+02 -0.67612220916E+02  0.87493522930E+03  0.87788036420E+03  0.46999998093E+01 0. -1.
       -5    1    3    3    0  502 -0.23849024186E+02  0.67612220916E+02 -0.13961293963E+04  0.13979769560E+04  0.46999998093E+01 0.  1.
</event>
<event>
 5   0  0.2820239E-05  0.2211476E+04  0.7818609E-02  0.8513667E-01
        1   -1    0    0  501    0  0.00000000000E+00  0.00000000000E+00  0.80393794784E+03  0.80393794785E+03  0.50400001928E-02 0. -1.
       -1   -1    0    0    0  501  0.00000000000E+00  0.00000000000E+00 -0.15208342039E+04  0.15208342039E+04  0.50400001928E-02 0.  1.
    10030    2    1    2    0    0  0.00000000000E+00  0.00000000000E+00 -0.71689625608E+03  0.23247721518E+04  0.22114758230E+04 0.  0.
        3    1    3    3  502    0 -0.48185857168E+03  0.47529785667E+03 -0.12776357151E+04  0.14458384303E+04  0.10100000352E+00 0.  1.
       -3    1    3    3    0  502  0.48185857168E+03 -0.47529785667E+03  0.56073945906E+03  0.87893372151E+03  0.10100000352E+00 0. -1.
</event>
<event>
 5   0  0.2929471E-05  0.2178663E+04  0.7818609E-02  0.8527362E-01
        1   -1    0    0  501    0  0.00000000000E+00  0.00000000000E+00  0.54347085303E+03  0.54347085305E+03  0.50400001928E-02 0.  1.
       -1   -1    0    0    0  501  0.00000000000E+00  0.00000000000E+00 -0.21834536098E+04  0.21834536098E+04  0.50400001928E-02 0. -1.
    10030    2    1    2    0    0  0.00000000000E+00  0.00000000000E+00 -0.16399827567E+04  0.27269244628E+04  0.21786632561E+04 0.  0.
        2    1    3    3  502    0 -0.54058046079E+03 -0.38161683899E+03 -0.19030737674E+04  0.20148321048E+04  0.25500000920E-02 0. -1.
       -2    1    3    3    0  502  0.54058046079E+03  0.38161683899E+03  0.26309101069E+03  0.71209235799E+03  0.25500000920E-02 0.  1.
</event>
<event>
 5   0  0.6414768E-05  0.2190595E+04  0.7818609E-02  0.8522353E-01
       -2   -1    0    0    0  501  0.00000000000E+00  0.00000000000E+00  0.56970272636E+03  0.56970272637E+03  0.25500000920E-02 0.  1.
        2   -1    0    0  501    0  0.00000000000E+00  0.00000000000E+00 -0.21057931268E+04  0.21057931268E+04  0.25500000920E-02 0. -1.
    10030    2    1    2    0    0  0.00000000000E+00  0.00000000000E+00 -0.15360904005E+04  0.26754958532E+04  0.21905945179E+04 0.  0.
        2    1    3    3  502    0 -0.98428899648E+03  0.43428446973E+03 -0.51700303038E+03  0.11936163381E+04  0.25500000920E-02 0.  1.
       -2    1    3    3    0  502  0.98428899648E+03 -0.43428446973E+03 -0.10190873701E+04  0.14818795150E+04  0.25500000920E-02 0. -1.
</event>
<event>
 5   0  0.6306919E-05  0.2214788E+04  0.7818609E-02  0.8512298E-01
        2   -1    0    0  501    0  0.00000000000E+00  0.00000000000E+00  0.16011073872E+04  0.16011073872E+04  0.25500000920E-02 0. -1.
       -2   -1    0    0    0  501  0.00000000000E+00  0.00000000000E+00 -0.76592055545E+03  0.76592055546E+03  0.25500000920E-02 0.  1.
    10030    2    1    2    0    0  0.00000000000E+00  0.00000000000E+00  0.83518683172E+03  0.23670279426E+04  0.22147876280E+04 0.  0.
        3    1    3    3  502    0  0.53159246030E+03 -0.60971342990E+03  0.12258732289E+04  0.14687090229E+04  0.10100000352E+00 0. -1.
       -3    1    3    3    0  502 -0.53159246030E+03  0.60971342990E+03 -0.39068639716E+03  0.89831891974E+03  0.10100000352E+00 0.  1.
</event>
<event>
 5   0  0.2910318E-05  0.2238410E+04  0.7818609E-02  0.8502609E-01
        1   -1    0    0  501    0  0.00000000000E+00  0.00000000000E+00  0.19892919609E+04  0.19892919609E+04  0.50400001928E-02 0.  1.
       -1   -1    0    0    0  501  0.00000000000E+00  0.00000000000E+00 -0.62968139056E+03  0.62968139058E+03  0.50400001928E-02 0. -1.
    10030    2    1    2    0    0  0.00000000000E+00  0.00000000000E+00  0.13596105703E+04  0.26189733515E+04  0.22384102646E+04 0.  0.
        5    1    3    3  502    0 -0.42337269000E+03 -0.46536834695E+03 -0.40319244760E+03  0.74726057891E+03  0.46999998093E+01 0. -1.
       -5    1    3    3    0  502  0.42337269000E+03  0.46536834695E+03  0.17628030179E+04  0.18717127726E+04  0.46999998093E+01 0.  1.
</event>
<event>
 5   0  0.2908031E-05  0.2202058E+04  0.7818609E-02  0.8517572E-01
        1   -1    0    0  501    0  0.00000000000E+00  0.00000000000E+00  0.83149285119E+03  0.83149285121E+03  0.50400001928E-02 0.  1.
       -1   -1    0    0    0  501  0.00000000000E+00  0.00000000000E+00 -0.14579378901E+04  0.14579378901E+04  0.50400001928E-02 0. -1.
    10030    2    1    2    0    0  0.00000000000E+00  0.00000000000E+00 -0.62644503892E+03  0.22894307413E+04  0.22020580675E+04 0.  0.
        1    1    3    3  502    0  0.46852140741E+03 -0.89722440127E+03  0.13726037393E+03  0.10214520771E+04  0.50400001928E-02 0.  1.
       -1    1    3    3    0  502 -0.46852140741E+03  0.89722440127E+03 -0.76370541285E+03  0.12679786643E+04  0.50400001928E-02 0. -1.
</event>
<event>
 5   0  0.2820239E-05  0.2129768E+04  0.7818609E-02  0.8548242E-01
        1   -1    0    0  501    0  0.00000000000E+00  0.00000000000E+00  0.19212881070E+04  0.19212881070E+04  0.50400001928E-02 0. -1.
       -1   -1    0    0    0  501  0.00000000000E+00  0.00000000000E+00 -0.59021758747E+03  0.59021758749E+03  0.50400001928E-02 0.  1.
    10030    2    1    2    0    0  0.00000000000E+00  0.00000000000E+00  0.13310705195E+04  0.25115056945E+04  0.21297680920E+04 0.  0.
        3    1    3    3  502    0  0.25750232003E+03 -0.10083064730E+04  0.39925526795E+03  0.11146273671E+04  0.10100000352E+00 0.  1.
       -3    1    3    3    0  502 -0.25750232003E+03  0.10083064730E+04  0.93181525158E+03  0.13968783274E+04  0.10100000352E+00 0. -1.
</event>
<event>
 5   0  0.6445740E-05  0.2419476E+04  0.7818609E-02  0.8432248E-01
        2   -1    0    0  501    0  0.00000000000E+00  0.00000000000E+00  0.17010815584E+04  0.17010815584E+04  0.25500000920E-02 0.  1.
       -2   -1    0    0    0  501  0.00000000000E+00  0.00000000000E+00 -0.86031532901E+03  0.86031532902E+03  0.25500000920E-02 0. -1.
    10030    2    1    2    0    0  0.00000000000E+00  0.00000000000E+00  0.84076622942E+03  0.25613968875E+04  0.24194764232E+04 0.  0.
        5    1    3    3  502    0  0.70964409872E+03 -0.18878108633E+03 -0.59736696440E+03  0.94662686712E+03  0.46999998093E+01 0. -1.
       -5    1    3    3    0  502 -0.70964409872E+03  0.18878108633E+03  0.14381331938E+04  0.16147700203E+04  0.46999998093E+01 0.  1.
</event>
<event>
 5   0  0.2245375E-05  0.2273869E+04  0.7818609E-02  0.8488296E-01
        3   -1    0    0  501    0  0.00000000000E+00  0.00000000000E+00  0.10398013127E+04  0.10398013176E+04  0.10100000352E+00 0.  1.
       -3   -1    0    0    0  501  0.00000000000E+00  0.00000000000E+00 -0.12431417851E+04  0.12431417892E+04  0.10100000352E+00 0. -1.
    10030    2    1    2    0    0  0.00000000000E+00  0.00000000000E+00 -0.20334047241E+03  0.22829431068E+04  0.22738693633E+04 0.  0.
        1    1    3    3  502    0 -0.32526008670E+03  0.10882409376E+04 -0.15244881284E+03  0.11459943730E+04  0.50400001928E-02 0. -1.
       -1    1    3    3    0  502  0.32526008670E+03 -0.10882409376E+04 -0.50891659572E+02  0.11369487338E+04  0.50400001928E-02 0.  1.
</event>
<event>
 5   0  0.6414768E-05  0.2205359E+04  0.7818609E-02  0.8516201E-01
        2   -1    0    0  501    0  0.00000000000E+00  0.00000000000E+00  0.20084586059E+04  0.20084586059E+04  0.25500000920E-02 0.  1.
       -2   -1    0    0    0  501  0.00000000000E+00  0.00000000000E+00 -0.60539068931E+03  0.60539068932E+03  0.25500000920E-02 0. -1.
    10030    2    1    2    0    0  0.00000000000E+00  0.00000000000E+00  0.14030679166E+04  0.26138492953E+04  0.22053590546E+04 0.  0.
        2    1    3    3  502    0 -0.60933194689E+03 -0.90955237446E+03  0.54550129896E+03  0.12231690850E+04  0.25500000920E-02 0. -1.
       -2    1    3    3    0  502  0.60933194689E+03  0.90955237446E+03  0.85756661767E+03  0.13906802102E+04  0.25500000920E-02 0.  1.
</event>
<event>
 5   0  0.6414768E-05  0.2201098E+04  0.7818609E-02  0.8517971E-01
       -2   -1    0    0    0  501  0.00000000000E+00  0.00000000000E+00  0.11753536795E+04  0.11753536795E+04  0.25500000920E-02 0.  1.
        2   -1    0    0  501    0  0.00000000000E+00  0.00000000000E+00 -0.10305053338E+04  0.10305053339E+04  0.25500000920E-02 0. -1.
    10030    2    1    2    0    0  0.00000000000E+00  0.00000000000E+00  0.14484834566E+03  0.22058590134E+04  0.22010981222E+04 0.  0.
        2    1    3    3  502    0  0.66187115156E+03 -0.23479322296E+03 -0.77676153091E+03  0.10471674912E+04  0.25500000920E-02 0.  1.
       -2    1    3    3    0  502 -0.66187115156E+03  0.23479322296E+03  0.92160987657E+03  0.11586915221E+04  0.25500000920E-02 0. -1.
</event>
<event>
 5   0  0.6445740E-05  0.2188210E+04  0.7818609E-02  0.8523352E-01
       -2   -1    0    0    0  501  0.00000000000E+00  0.00000000000E+00  0.12378846320E+04  0.12378846320E+04  0.25500000920E-02 0.  1.
        2   -1    0    0  501    0  0.00000000000E+00  0.00000000000E+00 -0.96702513239E+03  0.96702513240E+03  0.25500000920E-02 0. -1.
    10030    2    1    2    0    0  0.00000000000E+00  0.00000000000E+00  0.27085949958E+03  0.22049097644E+04  0.21882098164E+04 0.  0.
        5    1    3    3  502    0  0.72514732685E+03  0.76986436229E+03 -0.14691162201E+03  0.10677709945E+04  0.46999998093E+01 0. -1.
       -5    1    3    3    0  502 -0.72514732685E+03 -0.76986436229E+03  0.41777112159E+03  0.11371387699E+04  0.46999998093E+01 0.  1.
</event>
<event>
 5   0  0.6293013E-05  0.2162011E+04  0.7818609E-02  0.8534408E-01
        2   -1    0    0  501    0  0.00000000000E+00  0.00000000000E+00  0.22325052068E+04  0.22325052068E+04  0.25500000920E-02 0. -1.
       -2   -1    0    0    0  501  0.00000000000E+00  0.00000000000E+00 -0.52343565420E+03  0.52343565421E+03  0.25500000920E-02 0.  1.
    10030    2    1    2    0    0  0.00000000000E+00  0.00000000000E+00  0.17090695526E+04  0.27559408610E+04  0.21620109375E+04 0.  0.
        1    1    3    3  502    0 -0.53354149598E+03  0.12111385379E+03 -0.33391625460E+03  0.64096424130E+03  0.50400001928E-02 0.  1.
       -1    1    3    3    0  502  0.53354149598E+03 -0.12111385379E+03  0.20429858072E+04  0.21149766197E+04  0.50400001928E-02 0. -1.
</event>
<event>
 5   0  0.6414768E-05  0.2235086E+04  0.7818609E-02  0.8503965E-01
       -2   -1    0    0    0  501  0.00000000000E+00  0.00000000000E+00  0.10361041608E+04  0.10361041608E+04  0.25500000920E-02 0. -1.
        2   -1    0    0  501    0  0.00000000000E+00  0.00000000000E+00 -0.12053830581E+04  0.12053830581E+04  0.25500000920E-02 0.  1.
    10030    2    1    2    0    0  0.00000000000E+00  0.00000000000E+00 -0.16927889731E+03  0.22414872189E+04  0.22350860402E+04 0.  0.
        2    1    3    3  502    0  0.78660772635E+03  0.78804668250E+03 -0.18048046981E+03  0.11279815996E+04  0.25500000920E-02 0.  1.
       -2    1    3    3    0  502 -0.78660772635E+03 -0.78804668250E+03  0.11201572499E+02  0.11135056193E+04  0.25500000920E-02 0. -1.
</event>
<event>
 5   0  0.6293013E-05  0.2207602E+04  0.7818609E-02  0.8515271E-01
        2   -1    0    0  501    0  0.00000000000E+00  0.00000000000E+00  0.76807912998E+03  0.76807912998E+03  0.25500000920E-02 0.  1.
       -2   -1    0    0    0  501  0.00000000000E+00  0.00000000000E+00 -0.15862641756E+04  0.15862641756E+04  0.25500000920E-02 0. -1.
    10030    2    1    2    0    0  0.00000000000E+00  0.00000000000E+00 -0.81818504562E+03  0.23543433056E+04  0.22076017829E+04 0.  0.
        1    1    3    3  502    0  0.21261739695E+03  0.85910939579E+03 -0.11125603560E+04  0.14216418878E+04  0.50400001928E-02 0.  1.
       -1    1    3    3    0  502 -0.21261739695E+03 -0.85910939579E+03  0.29437531034E+03  0.93270141780E+03  0.50400001928E-02 0. -1.
</event>
<event>
 5   0  0.2753631E-05  0.2173578E+04  0.7818609E-02  0.8529507E-01
       -1   -1    0    0    0  501  0.00000000000E+00  0.00000000000E+00  0.62197276275E+03  0.62197276277E+03  0.50400001928E-02 0.  1.
        1   -1    0    0  501    0  0.00000000000E+00  0.00000000000E+00 -0.18989742868E+04  0.18989742868E+04  0.50400001928E-02 0. -1.
    10030    2    1    2    0    0  0.00000000000E+00  0.00000000000E+00 -0.12770015240E+04  0.25209470496E+04  0.21735779568E+04 0.  0.
        4    1    3    3  502    0  0.26914171644E+03 -0.41834732677E+03 -0.17591821601E+04  0.18281617091E+04  0.12699999809E+01 0. -1.
       -4    1    3    3    0  502 -0.26914171644E+03  0.41834732677E+03  0.48218063602E+03  0.69278534049E+03  0.12699999809E+01 0.  1.
</event>
<event>
 5   0  0.2753631E-05  0.2311895E+04  0.7818609E-02  0.8473246E-01
       -1   -1    0    0    0  501  0.00000000000E+00  0.00000000000E+00  0.11179082473E+04  0.11179082473E+04  0.50400001928E-02 0.  1.
        1   -1    0    0  501    0  0.00000000000E+00  0.00000000000E+00 -0.11952810040E+04  0.11952810040E+04  0.50400001928E-02 0. -1.
    10030    2    1    2    0    0  0.00000000000E+00  0.00000000000E+00 -0.77372756682E+02  0.23131892514E+04  0.23118948871E+04 0.  0.
        4    1    3    3  502    0  0.95171930759E+03 -0.65120756778E+03 -0.11855551866E+03  0.11592661302E+04  0.12699999809E+01 0.  1.
       -4    1    3    3    0  502 -0.95171930759E+03  0.65120756778E+03  0.41182761974E+02  0.11539231212E+04  0.12699999809E+01 0. -1.
</event>
<event>
 5   0  0.2753631E-05  0.2180625E+04  0.7818609E-02  0.8526536E-01
       -1   -1    0    0    0  501  0.00000000000E+00  0.00000000000E+00  0.45995442904E+03  0.45995442907E+03  0.50400001928E-02 0.  1.
        1   -1    0    0  501    0  0.00000000000E+00  0.00000000000E+00 -0.25845641427E+04  0.25845641427E+04  0.50400001928E-02 0. -1.
    10030    2    1    2    0    0  0.00000000000E+00  0.00000000000E+00 -0.21246097136E+04  0.30445185718E+04  0.21806253457E+04 0.  0.
        4    1    3    3  502    0 -0.74949216178E+03 -0.64933631524E+03 -0.42954054186E+03  0.10806862824E+04  0.12699999809E+01 0. -1.
       -4    1    3    3    0  502  0.74949216178E+03  0.64933631524E+03 -0.16950691718E+04  0.19638322894E+04  0.12699999809E+01 0.  1.
</event>
<event>
 5   0  0.6628798E-05  0.2189136E+04  0.7818609E-02  0.8522964E-01
        2   -1    0    0  501    0  0.00000000000E+00  0.00000000000E+00  0.19790179632E+04  0.19790179632E+04  0.25500000920E-02 0. -1.
       -2   -1    0    0    0  501  0.00000000000E+00  0.00000000000E+00 -0.60539056680E+03  0.60539056681E+03  0.25500000920E-02 0.  1.
    10030    2    1    2    0    0  0.00000000000E+00  0.00000000000E+00  0.13736273964E+04  0.25844085300E+04  0.21891357258E+04 0.  0.
        4    1    3    3  502    0  0.43447187836E+03 -0.94457957071E+03  0.10907671707E+04  0.15069077650E+04  0.12699999809E+01 0. -1.
       -4    1    3    3    0  502 -0.43447187836E+03  0.94457957071E+03  0.28286022568E+03  0.10775007650E+04  0.12699999809E+01 0.  1.
</event>
<event>
 5   0  0.2910318E-05  0.2209889E+04  0.7818609E-02  0.8514324E-01
        1   -1    0    0  501    0  0.00000000000E+00  0.00000000000E+00  0.15432782280E+04  0.15432782280E+04  0.50400001928E-02 0. -1.
       -1   -1    0    0    0  501  0.00000000000E+00  0.00000000000E+00 -0.79110936274E+03  0.79110936275E+03  0.50400001928E-02 0.  1.
    10030    2    1    2    0    0  0.00000000000E+00  0.00000000000E+00  0.75216886530E+03  0.23343875908E+04  0.22098885542E+04 0.  0.
        5    1    3    3  502    0 -0.97907968989E+02  0.62741251393E+03  0.13312652796E+04  0.14749650055E+04  0.46999998093E+01 0. -1.
       -5    1    3    3    0  502  0.97907968989E+02 -0.62741251393E+03 -0.57909641426E+03  0.85942258525E+03  0.46999998093E+01 0.  1.
</event>
<event>
 5   0  0.2929471E-05  0.2170003E+04  0.7818609E-02  0.8531018E-01
        1   -1    0    0  501    0  0.00000000000E+00  0.00000000000E+00  0.17515918283E+04  0.17515918283E+04  0.50400001928E-02 0. -1.
       -1   -1    0    0    0  501  0.00000000000E+00  0.00000000000E+00 -0.67209028014E+03  0.67209028016E+03  0.50400001928E-02 0.  1.
    10030    2    1    2    0    0  0.00000000000E+00  0.00000000000E+00  0.10795015482E+04  0.24236821085E+04  0.21700026199E+04 0.  0.
        2    1    3    3  502    0 -0.98063200661E+03  0.30971546277E+03  0.15338464386E+03  0.10397546101E+04  0.25500000920E-02 0. -1.
       -2    1    3    3    0  502  0.98063200661E+03 -0.30971546277E+03  0.92611690432E+03  0.13839274984E+04  0.25500000920E-02 0.  1.
</event>
<event>
 5   0  0.2753631E-05  0.2179860E+04  0.7818609E-02  0.8526858E-01
        1   -1    0    0  501    0  0.00000000000E+00  0.00000000000E+00  0.12849968194E+04  0.12849968194E+04  0.50400001928E-02 0. -1.
       -1   -1    0    0    0  501  0.00000000000E+00  0.00000000000E+00 -0.92447489137E+03  0.92447489139E+03  0.50400001928E-02 0.  1.
    10030    2    1    2    0    0  0.00000000000E+00  0.00000000000E+00  0.36052192800E+03  0.22094717108E+04  0.21798598992E+04 0.  0.
        4    1    3    3  502    0  0.75275918778E+03  0.58742489441E+03 -0.35245571170E+03  0.10178118898E+04  0.12699999809E+01 0.  1.
       -4    1    3    3    0  502 -0.75275918778E+03 -0.58742489441E+03  0.71297763970E+03  0.11916598210E+04  0.12699999809E+01 0. -1.
</event>
<event>
 5   0  0.2753631E-05  0.2177833E+04  0.7818609E-02  0.8527711E-01
       -1   -1    0    0    0  501  0.00000000000E+00  0.00000000000E+00  0.10632376130E+04  0.10632376130E+04  0.50400001928E-02 0.  1.
        1   -1    0    0  501    0  0.00000000000E+00  0.00000000000E+00 -0.11152157451E+04  0.11152157451E+04  0.50400001928E-02 0. -1.
    10030    2    1    2    0    0  0.00000000000E+00  0.00000000000E+00 -0.51978132162E+02  0.21784533581E+04  0.21778331679E+04 0.  0.
        4    1    3    3  502    0 -0.33921124443E+03  0.18779209302E+03  0.99185049572E+03  0.10649409173E+04  0.12699999809E+01 0.  1.
       -4    1    3    3    0  502  0.33921124443E+03 -0.18779209302E+03 -0.10438286279E+04  0.11135124408E+04  0.12699999809E+01 0. -1.
</event>
<event>
 5   0  0.6306919E-05  0.2211371E+04  0.7818609E-02  0.8513710E-01
       -2   -1    0    0    0  501  0.00000000000E+00  0.00000000000E+00  0.10978845898E+04  0.10978845898E+04  0.25500000920E-02 0. -1.
        2   -1    0    0  501    0  0.00000000000E+00  0.00000000000E+00 -0.11135415410E+04  0.11135415410E+04  0.25500000920E-02 0.  1.
    10030    2    1    2    0    0  0.00000000000E+00  0.00000000000E+00 -0.15656951179E+02  0.22114261307E+04  0.22113707043E+04 0.  0.
        3    1    3    3  502    0  0.33948022207E+03  0.78573440712E+03  0.69212814240E+03  0.11007573554E+04  0.10100000352E+00 0. -1.
       -3    1    3    3    0  502 -0.33948022207E+03 -0.78573440712E+03 -0.70778509357E+03  0.11106687754E+04  0.10100000352E+00 0.  1.
</event>
<event>
 5   0  0.2929471E-05  0.2194176E+04  0.7818609E-02  0.8520856E-01
       -1   -1    0    0    0  501  0.00000000000E+00  0.00000000000E+00  0.83915859013E+03  0.83915859014E+03  0.50400001928E-02 0.  1.
        1   -1    0    0  501    0  0.00000000000E+00  0.00000000000E+00 -0.14342967775E+04  0.14342967775E+04  0.50400001928E-02 0. -1.
    10030    2    1    2    0    0  0.00000000000E+00  0.00000000000E+00 -0.59513818735E+03  0.22734553676E+04  0.21941763481E+04 0.  0.
        2    1    3    3  502    0  0.21576934994E+03 -0.20490031816E+03 -0.13916876744E+04  0.14231426969E+04  0.25500000920E-02 0. -1.
       -2    1    3    3    0  502 -0.21576934994E+03  0.20490031816E+03  0.79654948701E+03  0.85031267074E+03  0.25500000920E-02 0.  1.
</event>
<event>
 5   0  0.6306919E-05  0.2186217E+04  0.7818609E-02  0.8524187E-01
       -2   -1    0    0    0  501  0.00000000000E+00  0.00000000000E+00  0.63981942514E+03  0.63981942514E+03  0.25500000920E-02 0.  1.
        2   -1    0    0  501    0  0.00000000000E+00  0.00000000000E+00 -0.18675358630E+04  0.18675358630E+04  0.25500000920E-02 0. -1.
    10030    2    1    2    0    0  0.00000000000E+00  0.00000000000E+00 -0.12277164378E+04  0.25073552881E+04  0.21862165696E+04 0.  0.
        3    1    3    3  502    0 -0.78919976218E+03 -0.69808506805E+03 -0.28002249919E+03  0.10902163258E+04  0.10100000352E+00 0.  1.
       -3    1    3    3    0  502  0.78919976218E+03  0.69808506805E+03 -0.94769393863E+03  0.14171389623E+04  0.10100000352E+00 0. -1.
</event>
<event>
 5   0  0.2910318E-05  0.2150264E+04  0.7818609E-02  0.8539419E-01
       -1   -1    0    0    0  501  0.00000000000E+00  0.00000000000E+00  0.15520926301E+04  0.15520926301E+04  0.50400001928E-02 0. -1.
        1   -1    0    0  501    0  0.00000000000E+00  0.00000000000E+00 -0.74474245843E+03  0.74474245844E+03  0.50400001928E-02 0.  1.
    10030    2    1    2    0    0  0.00000000000E+00  0.00000000000E+00  0.80735017168E+03  0.22968350886E+04  0.21502644313E+04 0.  0.
        5    1    3    3  502    0 -0.12501157765E+03  0.88541718712E+03 -0.23391746503E+03  0.92430025438E+03  0.46999998093E+01 0.  1.
       -5    1    3    3    0  502  0.12501157765E+03 -0.88541718712E+03  0.10412676367E+04  0.13725348342E+04  0.46999998093E+01 0. -1.
</event>
<event>
 5   0  0.6306919E-05  0.2200493E+04  0.7818609E-02  0.8518223E-01
       -2   -1    0    0    0  501  0.00000000000E+00  0.00000000000E+00  0.10559447919E+04  0.10559447919E+04  0.25500000920E-02 0. -1.
        2   -1    0    0  501    0  0.00000000000E+00  0.00000000000E+00 -0.11464064864E+04  0.11464064864E+04  0.25500000920E-02 0.  1.
    10030    2    1    2    0    0  0.00000000000E+00  0.00000000000E+00 -0.90461694571E+02  0.22023512783E+04  0.22004926346E+04 0.  0.
        3    1    3    3  502    0  0.10530253146E+04  0.31868181013E+03 -0.56264642610E+02  0.11016288529E+04  0.10100000352E+00 0.  1.
       -3    1    3    3    0  502 -0.10530253146E+04 -0.31868181013E+03 -0.34197051961E+02  0.11007224254E+04  0.10100000352E+00 0. -1.
</event>
<event>
 5   0  0.2820239E-05  0.2170352E+04  0.7818609E-02  0.8530870E-01
       -1   -1    0    0    0  501  0.00000000000E+00  0.00000000000E+00  0.11447362255E+04  0.11447362255E+04  0.50400001928E-02 0. -1.
        1   -1    0    0  501    0  0.00000000000E+00  0.00000000000E+00 -0.10287148789E+04  0.10287148789E+04  0.50400001928E-02 0.  1.
    10030    2    1    2    0    0  0.00000000000E+00  0.00000000000E+00  0.11602134664E+03  0.21734511045E+04  0.21703522181E+04 0.  0.
        3    1    3    3  502    0 -0.50984016688E+02  0.39155369469E+03 -0.95422111667E+03  0.10326914425E+04  0.10100000352E+00 0.  1.
       -3    1    3    3    0  502  0.50984016688E+02 -0.39155369469E+03  0.10702424633E+04  0.11407596619E+04  0.10100000352E+00 0. -1.
</event>
<event>
 5   0  0.2910318E-05  0.2200317E+04  0.7818609E-02  0.8518296E-01
       -1   -1    0    0    0  501  0.00000000000E+00  0.00000000000E+00  0.94135674296E+03  0.94135674298E+03  0.50400001928E-02 0.  1.
        1   -1    0    0  501    0  0.00000000000E+00  0.00000000000E+00 -0.12857495307E+04  0.12857495307E+04  0.50400001928E-02 0. -1.
    10030    2    1    2    0    0  0.00000000000E+00  0.00000000000E+00 -0.34439278777E+03  0.22271062737E+04  0.22003172413E+04 0.  0.
        5    1    3    3  502    0 -0.45162882101E+03  0.77348114227E+03 -0.81878951254E+03  0.12135402858E+04  0.46999998093E+01 0. -1.
       -5    1    3    3    0  502  0.45162882101E+03 -0.77348114227E+03  0.47439672477E+03  0.10135659879E+04  0.46999998093E+01 0.  1.
</event>
<event>
 5   0  0.6445740E-05  0.2195808E+04  0.7818609E-02  0.8520175E-01
        2   -1    0    0  501    0  0.00000000000E+00  0.00000000000E+00  0.16372180707E+04  0.16372180707E+04  0.25500000920E-02 0. -1.
       -2   -1    0    0    0  501  0.00000000000E+00  0.00000000000E+00 -0.73624449251E+03  0.73624449251E+03  0.25500000920E-02 0.  1.
    10030    2    1    2    0    0  0.00000000000E+00  0.00000000000E+00  0.90097357824E+03  0.23734625633E+04  0.21958076306E+04 0.  0.
        5    1    3    3  502    0 -0.73541902788E+02  0.10600778579E+04  0.74885851288E+03  0.12999940917E+04  0.46999998093E+01 0.  1.
       -5    1    3    3    0  502  0.73541902788E+02 -0.10600778579E+04  0.15211506536E+03  0.10734684715E+04  0.46999998093E+01 0. -1.
</event>
<event>
 5   0  0.2820239E-05  0.2219831E+04  0.7818609E-02  0.8510219E-01
       -1   -1    0    0    0  501  0.00000000000E+00  0.00000000000E+00  0.19165656063E+04  0.19165656063E+04  0.50400001928E-02 0. -1.
        1   -1    0    0  501    0  0.00000000000E+00  0.00000000000E+00 -0.64277088973E+03  0.64277088975E+03  0.50400001928E-02 0.  1.
    10030    2    1    2    0    0  0.00000000000E+00  0.00000000000E+00  0.12737947165E+04  0.25593364960E+04  0.22198311467E+04 0.  0.
        3    1    3    3  502    0 -0.24332063316E+03 -0.53617516553E+03 -0.44786347876E+03  0.73977729383E+03  0.10100000352E+00 0.  1.
       -3    1    3    3    0  502  0.24332063316E+03  0.53617516553E+03  0.17216581953E+04  0.18195592022E+04  0.10100000352E+00 0. -1.
</event>
<event>
 5   0  0.2929471E-05  0.2189609E+04  0.7818609E-02  0.8522766E-01
        1   -1    0    0  501    0  0.00000000000E+00  0.00000000000E+00  0.11855210898E+04  0.11855210899E+04  0.50400001928E-02 0.  1.
       -1   -1    0    0    0  501  0.00000000000E+00  0.00000000000E+00 -0.10110295611E+04  0.10110295611E+04  0.50400001928E-02 0. -1.
    10030    2    1    2    0    0  0.00000000000E+00  0.00000000000E+00  0.17449152878E+03  0.21965506509E+04  0.21896089762E+04 0.  0.
        2    1    3    3  502    0  0.15106523692E+03 -0.58997899650E+03  0.99991073709E+03  0.11707764109E+04  0.25500000920E-02 0.  1.
       -2    1    3    3    0  502 -0.15106523692E+03  0.58997899650E+03 -0.82541920830E+03  0.10257742401E+04  0.25500000920E-02 0. -1.
</event>
<event>
 5   0  0.6414768E-05  0.2189343E+04  0.7818609E-02  0.8522877E-01
       -2   -1    0    0    0  501  0.00000000000E+00  0.00000000000E+00  0.14011433755E+04  0.14011433755E+04  0.25500000920E-02 0. -1.
        2   -1    0    0  501    0  0.00000000000E+00  0.00000000000E+00 -0.85523407187E+03  0.85523407188E+03  0.25500000920E-02 0.  1.
    10030    2    1    2    0    0  0.00000000000E+00  0.00000000000E+00  0.54590930363E+03  0.22563774474E+04  0.21893428734E+04 0.  0.
        2    1    3    3  502    0 -0.84891700173E+03  0.43449299237E+03 -0.28095975734E+03  0.99417434160E+03  0.25500000920E-02 0.  1.
       -2    1    3    3    0  502  0.84891700173E+03 -0.43449299237E+03  0.82686906097E+03  0.12622031058E+04  0.25500000920E-02 0. -1.
</event>
<event>
 5   0  0.6414768E-05  0.2162668E+04  0.7818609E-02  0.8534129E-01
        2   -1    0    0  501    0  0.00000000000E+00  0.00000000000E+00  0.14262738373E+04  0.14262738373E+04  0.25500000920E-02 0. -1.
       -2   -1    0    0    0  501  0.00000000000E+00  0.00000000000E+00 -0.81981674234E+03  0.81981674234E+03  0.25500000920E-02 0.  1.
    10030    2    1    2    0    0  0.00000000000E+00  0.00000000000E+00  0.60645709495E+03  0.22460905796E+04  0.21626679551E+04 0.  0.
        2    1    3    3  502    0  0.41818569054E+03 -0.18873397046E+03  0.13201740300E+04  0.13976262923E+04  0.25500000920E-02 0. -1.
       -2    1    3    3    0  502 -0.41818569054E+03  0.18873397046E+03 -0.71371693509E+03  0.84846428730E+03  0.25500000920E-02 0.  1.
</event>
<event>
 5   0  0.6628798E-05  0.2193998E+04  0.7818609E-02  0.8520931E-01
        2   -1    0    0  501    0  0.00000000000E+00  0.00000000000E+00  0.10311603425E+04  0.10311603425E+04  0.25500000920E-02 0.  1.
       -2   -1    0    0    0  501  0.00000000000E+00  0.00000000000E+00 -0.11670409350E+04  0.11670409350E+04  0.25500000920E-02 0. -1.
    10030    2    1    2    0    0  0.00000000000E+00  0.00000000000E+00 -0.13588059255E+03  0.21982012775E+04  0.21939975663E+04 0.  0.
        4    1    3    3  502    0 -0.81120032362E+03 -0.36892439133E+03 -0.70889529638E+03  0.11387209165E+04  0.12699999809E+01 0. -1.
       -4    1    3    3    0  502  0.81120032362E+03  0.36892439133E+03  0.57301470383E+03  0.10594803610E+04  0.12699999809E+01 0.  1.
</event>
<event>
 5   0  0.6293013E-05  0.2195040E+04  0.7818609E-02  0.8520496E-01
        2   -1    0    0  501    0  0.00000000000E+00  0.00000000000E+00  0.16939274468E+04  0.16939274468E+04  0.25500000920E-02 0.  1.
       -2   -1    0    0    0  501  0.00000000000E+00  0.00000000000E+00 -0.71109879819E+03  0.71109879819E+03  0.25500000920E-02 0. -1.
    10030    2    1    2    0    0  0.00000000000E+00  0.00000000000E+00  0.98282864858E+03  0.24050262450E+04  0.21950396549E+04 0.  0.
        1    1    3    3  502    0  0.66315552736E+02 -0.64490026069E+03  0.14617148885E+04  0.15990323681E+04  0.50400001928E-02 0.  1.
       -1    1    3    3    0  502 -0.66315552736E+02  0.64490026069E+03 -0.47888623994E+03  0.80599387690E+03  0.50400001928E-02 0. -1.
</event>
<event>
 5   0  0.2245375E-05  0.2310999E+04  0.7818609E-02  0.8473597E-01
       -4   -1    0    0    0  501  0.00000000000E+00  0.00000000000E+00  0.10722913600E+04  0.10722921121E+04  0.12699999809E+01 0. -1.
        4   -1    0    0  501    0  0.00000000000E+00  0.00000000000E+00 -0.12451627783E+04  0.12451634260E+04  0.12699999809E+01 0.  1.
    10030    2    1    2    0    0  0.00000000000E+00  0.00000000000E+00 -0.17287141829E+03  0.23174555381E+04  0.23109988412E+04 0.  0.
        3    1    3    3  502    0  0.18083878839E+01 -0.10770848880E+03 -0.12401170820E+04  0.12447870405E+04  0.10100000352E+00 0.  1.
       -3    1    3    3    0  502 -0.18083878839E+01  0.10770848880E+03  0.10672456637E+04  0.10726684976E+04  0.10100000352E+00 0. -1.
</event>
<event>
 5   0  0.6628798E-05  0.2185117E+04  0.7818609E-02  0.8524648E-01
        2   -1    0    0  501    0  0.00000000000E+00  0.00000000000E+00  0.19257585162E+04  0.19257585162E+04  0.25500000920E-02 0. -1.
       -2   -1    0    0    0  501  0.00000000000E+00  0.00000000000E+00 -0.61985140384E+03  0.61985140384E+03  0.25500000920E-02 0.  1.
    10030    2    1    2    0    0  0.00000000000E+00  0.00000000000E+00  0.13059071124E+04  0.25456099201E+04  0.21851170401E+04 0.  0.
        4    1    3    3  502    0 -0.45143216554E+03 -0.91907057389E+03  0.10968704123E+04  0.15005359156E+04  0.12699999809E+01 0. -1.
       -4    1    3    3    0  502  0.45143216554E+03  0.91907057389E+03  0.20903670012E+03  0.10450740044E+04  0.12699999809E+01 0.  1.
</event>
<event>
 5   0  0.6306919E-05  0.2204244E+04  0.7818609E-02  0.8516664E-01
        2   -1    0    0  501    0  0.00000000000E+00  0.00000000000E+00  0.13768317515E+04  0.13768317515E+04  0.25500000920E-02 0. -1.
       -2   -1    0    0    0  501  0.00000000000E+00  0.00000000000E+00 -0.88222355591E+03  0.88222355592E+03  0.25500000920E-02 0.  1.
    10030    2    1    2    0    0  0.00000000000E+00  0.00000000000E+00  0.49460819554E+03  0.22590553074E+04  0.22042444544E+04 0.  0.
        3    1    3    3  502    0 -0.59313229058E+03 -0.64219743366E+03  0.93514875993E+03  0.12801275996E+04  0.10100000352E+00 0.  1.
       -3    1    3    3    0  502  0.59313229058E+03  0.64219743366E+03 -0.44054056438E+03  0.97892770775E+03  0.10100000352E+00 0. -1.
</event>
<event>
 5   0  0.2245375E-05  0.2204592E+04  0.7818609E-02  0.8516519E-01
       -3   -1    0    0    0  501  0.00000000000E+00  0.00000000000E+00  0.10602022566E+04  0.10602022615E+04  0.10100000352E+00 0.  1.
        3   -1    0    0  501    0  0.00000000000E+00  0.00000000000E+00 -0.11460609390E+04  0.11460609435E+04  0.10100000352E+00 0. -1.
    10030    2    1    2    0    0  0.00000000000E+00  0.00000000000E+00 -0.85858682364E+02  0.22062632049E+04  0.22045919387E+04 0.  0.
        3    1    3    3  502    0 -0.85509550628E+03  0.34226693024E+03 -0.64896369629E+03  0.11267159650E+04  0.10100000352E+00 0. -1.
       -3    1    3    3    0  502  0.85509550628E+03 -0.34226693024E+03  0.56310501392E+03  0.10795472400E+04  0.10100000352E+00 0.  1.
</event>
<event>
 5   0  0.2245375E-05  0.2151879E+04  0.7818609E-02  0.8538728E-01
        3   -1    0    0  501    0  0.00000000000E+00  0.00000000000E+00  0.10056427114E+04  0.10056427165E+04  0.10100000352E+00 0. -1.
       -3   -1    0    0    0  501  0.00000000000E+00  0.00000000000E+00 -0.11511506072E+04  0.11511506117E+04  0.10100000352E+00 0.  1.
    10030    2    1    2    0    0  0.00000000000E+00  0.00000000000E+00 -0.14550789581E+03  0.21567933282E+04  0.21518793908E+04 0.  0.
        3    1    3    3  502    0 -0.23545308144E+03 -0.35357585768E+03  0.91803372829E+03  0.10115532498E+04  0.10100000352E+00 0. -1.
       -3    1    3    3    0  502  0.23545308144E+03  0.35357585768E+03 -0.10635416241E+04  0.11452400784E+04  0.10100000352E+00 0.  1.
</event>
<event>
 5   0  0.2820239E-05  0.2185891E+04  0.7818609E-02  0.8524324E-01
        1   -1    0    0  501    0  0.00000000000E+00  0.00000000000E+00  0.14602577084E+04  0.14602577084E+04  0.50400001928E-02 0.  1.
       -1   -1    0    0    0  501  0.00000000000E+00  0.00000000000E+00 -0.81802672595E+03  0.81802672597E+03  0.50400001928E-02 0. -1.
    10030    2    1    2    0    0  0.00000000000E+00  0.00000000000E+00  0.64223098249E+03  0.22782844344E+04  0.21858909692E+04 0.  0.
        3    1    3    3  502    0  0.54784528202E+03 -0.26803447801E+02  0.13064183074E+04  0.14168915562E+04  0.10100000352E+00 0.  1.
       -3    1    3    3    0  502 -0.54784528202E+03  0.26803447801E+02 -0.66418732494E+03  0.86139287822E+03  0.10100000352E+00 0. -1.
</event>
<event>
 5   0  0.6445740E-05  0.2209665E+04  0.7818609E-02  0.8514416E-01
       -2   -1    0    0    0  501  0.00000000000E+00  0.00000000000E+00  0.10408687075E+04  0.10408687075E+04  0.25500000920E-02 0. -1.
        2   -1    0    0  501    0  0.00000000000E+00  0.00000000000E+00 -0.11727269088E+04  0.11727269088E+04  0.25500000920E-02 0.  1.
    10030    2    1    2    0    0  0.00000000000E+00  0.00000000000E+00 -0.13185820132E+03  0.22135956162E+04  0.22096648992E+04 0.  0.
        5    1    3    3  502    0  0.67586429827E+02 -0.41539588026E+03 -0.10892701199E+04  0.11677556024E+04  0.46999998093E+01 0.  1.
       -5    1    3    3    0  502 -0.67586429827E+02  0.41539588026E+03  0.95741191854E+03  0.10458400139E+04  0.46999998093E+01 0. -1.
</event>
<event>
 5   0  0.2753631E-05  0.2173501E+04  0.7818609E-02  0.8529539E-01
       -1   -1    0    0    0  501  0.00000000000E+00  0.00000000000E+00  0.72285800074E+03  0.72285800076E+03  0.50400001928E-02 0.  1.
        1   -1    0    0  501    0  0.00000000000E+00  0.00000000000E+00 -0.16338301206E+04  0.16338301206E+04  0.50400001928E-02 0. -1.
    10030    2    1    2    0    0  0.00000000000E+00  0.00000000000E+00 -0.91097211986E+03  0.23566881214E+04  0.21735014834E+04 0.  0.
        4    1    3    3  502    0 -0.41335406209E+02  0.10843345829E+04 -0.39101496927E+03  0.11534229158E+04  0.12699999809E+01 0. -1.
       -4    1    3    3    0  502  0.41335406209E+02 -0.10843345829E+04 -0.51995715059E+03  0.12032652056E+04  0.12699999809E+01 0.  1.
</event>
<event>
 5   0  0.6293013E-05  0.2203078E+04  0.7818609E-02  0.8517148E-01
       -2   -1    0    0    0  501  0.00000000000E+00  0.00000000000E+00  0.85482393837E+03  0.85482393837E+03  0.25500000920E-02 0.  1.
        2   -1    0    0  501    0  0.00000000000E+00  0.00000000000E+00 -0.14194595834E+04  0.14194595834E+04  0.25500000920E-02 0. -1.
    10030    2    1    2    0    0  0.00000000000E+00  0.00000000000E+00 -0.56463564504E+03  0.22742835218E+04  0.22030778756E+04 0.  0.
        1    1    3    3  502    0 -0.45219269442E+02  0.43447199639E+03 -0.13262272905E+04  0.13963128318E+04  0.50400001928E-02 0. -1.
       -1    1    3    3    0  502  0.45219269442E+02 -0.43447199639E+03  0.76159164551E+03  0.87797069000E+03  0.50400001928E-02 0.  1.
</event>
<event>
 5   0  0.6414768E-05  0.2188755E+04  0.7818609E-02  0.8523123E-01
        2   -1    0    0  501    0  0.00000000000E+00  0.00000000000E+00  0.11384163024E+04  0.11384163024E+04  0.25500000920E-02 0.  1.
       -2   -1    0    0    0  501  0.00000000000E+00  0.00000000000E+00 -0.10520427210E+04  0.10520427210E+04  0.25500000920E-02 0. -1.
    10030    2    1    2    0    0  0.00000000000E+00  0.00000000000E+00  0.86373581445E+02  0.21904590234E+04  0.21887554313E+04 0.  0.
        2    1    3    3  502    0  0.89194565790E+03 -0.23595976763E+03  0.63221818829E+03  0.11184560368E+04  0.25500000920E-02 0. -1.
       -2    1    3    3    0  502 -0.89194565790E+03  0.23595976763E+03 -0.54584460685E+03  0.10720029867E+04  0.25500000920E-02 0.  1.
</event>
<event>
 5   0  0.2910318E-05  0.2377814E+04  0.7818609E-02  0.8447857E-01
       -1   -1    0    0    0  501  0.00000000000E+00  0.00000000000E+00  0.14941230666E+04  0.14941230666E+04  0.50400001928E-02 0.  1.
        1   -1    0    0  501    0  0.00000000000E+00  0.00000000000E+00 -0.94603961094E+03  0.94603961095E+03  0.50400001928E-02 0. -1.
    10030    2    1    2    0    0  0.00000000000E+00  0.00000000000E+00  0.54808345564E+03  0.24401626775E+04  0.23778137897E+04 0.  0.
        5    1    3    3  502    0  0.46722913991E+03 -0.78552853911E+03 -0.50623687103E+03  0.10448234370E+04  0.46999998093E+01 0. -1.
       -5    1    3    3    0  502 -0.46722913991E+03  0.78552853911E+03  0.10543203267E+04  0.13953392405E+04  0.46999998093E+01 0.  1.
</event>
<event>
 5   0  0.6628798E-05  0.2215948E+04  0.7818609E-02  0.8511819E-01
       -2   -1    0    0    0  501  0.00000000000E+00  0.00000000000E+00  0.40991770187E+03  0.40991770188E+03  0.25500000920E-02 0. -1.
        2   -1    0    0  501    0  0.00000000000E+00  0.00000000000E+00 -0.29947624366E+04  0.29947624366E+04  0.25500000920E-02 0.  1.
    10030    2    1    2    0    0  0.00000000000E+00  0.00000000000E+00 -0.25848447348E+04  0.34046801385E+04  0.22159477753E+04 0.  0.
        4    1    3    3  502    0 -0.71029053381E+03  0.80563615444E+03 -0.87434500723E+03  0.13849343163E+04  0.12699999809E+01 0. -1.
       -4    1    3    3    0  502  0.71029053381E+03 -0.80563615444E+03 -0.17104997275E+04  0.20197458222E+04  0.12699999809E+01 0.  1.
</event>
<event>
 5   0  0.6445740E-05  0.2238634E+04  0.7818609E-02  0.8502518E-01
       -2   -1    0    0    0  501  0.00000000000E+00  0.00000000000E+00  0.85358666647E+03  0.85358666647E+03  0.25500000920E-02 0. -1.
        2   -1    0    0  501    0  0.00000000000E+00  0.00000000000E+00 -0.14677719987E+04  0.14677719987E+04  0.25500000920E-02 0.  1.
    10030    2    1    2    0    0  0.00000000000E+00  0.00000000000E+00 -0.61418533222E+03  0.23213586652E+04  0.22386340545E+04 0.  0.
        5    1    3    3  502    0 -0.36185147692E+03  0.32392539067E+02  0.79073800283E+03  0.87021517284E+03  0.46999998093E+01 0. -1.
       -5    1    3    3    0  502  0.36185147692E+03 -0.32392539067E+02 -0.14049233351E+04  0.14511434923E+04  0.46999998093E+01 0.  1.
</event>
<event>
 5   0  0.2753631E-05  0.2246341E+04  0.7818609E-02  0.8499384E-01
       -1   -1    0    0    0  501  0.00000000000E+00  0.00000000000E+00  0.83375759335E+03  0.83375759337E+03  0.50400001928E-02 0. -1.
        1   -1    0    0  501    0  0.00000000000E+00  0.00000000000E+00 -0.15130437414E+04  0.15130437414E+04  0.50400001928E-02 0.  1.
    10030    2    1    2    0    0  0.00000000000E+00  0.00000000000E+00 -0.67928614804E+03  0.23468013348E+04  0.22463407653E+04 0.  0.
        4    1    3    3  502    0  0.32504697181E+02  0.10415644153E+04 -0.77742655374E+03  0.13001179354E+04  0.12699999809E+01 0.  1.
       -4    1    3    3    0  502 -0.32504697181E+02 -0.10415644153E+04  0.98140405704E+02  0.10466833994E+04  0.12699999809E+01 0. -1.
</event>
<event>
 5   0  0.6306919E-05  0.2180219E+04  0.7818609E-02  0.8526707E-01
        2   -1    0    0  501    0  0.00000000000E+00  0.00000000000E+00  0.17044103314E+04  0.17044103314E+04  0.25500000920E-02 0. -1.
       -2   -1    0    0    0  501  0.00000000000E+00  0.00000000000E+00 -0.69721403733E+03  0.69721403733E+03  0.25500000920E-02 0.  1.
    10030    2    1    2    0    0  0.00000000000E+00  0.00000000000E+00  0.10071962941E+04  0.24016243688E+04  0.21802190793E+04 0.  0.
        3    1    3    3  502    0  0.85994616977E+03 -0.52723612668E+03  0.48278047389E+02  0.10098594596E+04  0.10100000352E+00 0.  1.
       -3    1    3    3    0  502 -0.85994616977E+03  0.52723612668E+03  0.95891824673E+03  0.13917649091E+04  0.10100000352E+00 0. -1.
</event>
<event>
 5   0  0.2910318E-05  0.2216027E+04  0.7818609E-02  0.8511787E-01
       -1   -1    0    0    0  501  0.00000000000E+00  0.00000000000E+00  0.52531325344E+03  0.52531325347E+03  0.50400001928E-02 0.  1.
        1   -1    0    0  501    0  0.00000000000E+00  0.00000000000E+00 -0.23370703310E+04  0.23370703310E+04  0.50400001928E-02 0. -1.
    10030    2    1    2    0    0  0.00000000000E+00  0.00000000000E+00 -0.18117570775E+04  0.28623835844E+04  0.22160270929E+04 0.  0.
        5    1    3    3  502    0  0.96068110414E+03  0.33103652211E+03 -0.14765272340E+04  0.17923861541E+04  0.46999998093E+01 0. -1.
       -5    1    3    3    0  502 -0.96068110414E+03 -0.33103652211E+03 -0.33522984350E+03  0.10699974303E+04  0.46999998093E+01 0.  1.
</event>
<event>
 5   0  0.2820239E-05  0.2228227E+04  0.7818609E-02  0.8506771E-01
       -1   -1    0    0    0  501  0.00000000000E+00  0.00000000000E+00  0.14624800679E+04  0.14624800679E+04  0.50400001928E-02 0. -1.
        1   -1    0    0  501    0  0.00000000000E+00  0.00000000000E+00 -0.84872851741E+03  0.84872851742E+03  0.50400001928E-02 0.  1.
    10030    2    1    2    0    0  0.00000000000E+00  0.00000000000E+00  0.61375155047E+03  0.23112085853E+04  0.22282266849E+04 0.  0.
        3    1    3    3  502    0 -0.14030040821E+03  0.88668056528E+03  0.99126786470E+03  0.13373476060E+04  0.10100000352E+00 0. -1.
       -3    1    3    3    0  502  0.14030040821E+03 -0.88668056528E+03 -0.37751631423E+03  0.97386097935E+03  0.10100000352E+00 0.  1.
</event>
<event>
 5   0  0.2820239E-05  0.2186794E+04  0.7818609E-02  0.8523945E-01
       -1   -1    0    0    0  501  0.00000000000E+00  0.00000000000E+00  0.11465652035E+04  0.11465652035E+04  0.50400001928E-02 0.  1.
        1   -1    0    0  501    0  0.00000000000E+00  0.00000000000E+00 -0.10426944139E+04  0.10426944139E+04  0.50400001928E-02 0. -1.
    10030    2    1    2    0    0  0.00000000000E+00  0.00000000000E+00  0.10387078960E+03  0.21892596175E+04  0.21867941220E+04 0.  0.
        3    1    3    3  502    0 -0.67352647637E+03 -0.77749406623E+03 -0.31913352385E+03  0.10770242122E+04  0.10100000352E+00 0. -1.
       -3    1    3    3    0  502  0.67352647637E+03  0.77749406623E+03  0.42300431345E+03  0.11122354053E+04  0.10100000352E+00 0.  1.
</event>
<event>
 5   0  0.2908031E-05  0.2201213E+04  0.7818609E-02  0.8517924E-01
        1   -1    0    0  501    0  0.00000000000E+00  0.00000000000E+00  0.15888707379E+04  0.15888707379E+04  0.50400001928E-02 0.  1.
       -1   -1    0    0    0  501  0.00000000000E+00  0.00000000000E+00 -0.76238683712E+03  0.76238683713E+03  0.50400001928E-02 0. -1.
    10030    2    1    2    0    0  0.00000000000E+00  0.00000000000E+00  0.82648390082E+03  0.23512575751E+04  0.22012125172E+04 0.  0.
        1    1    3    3  502    0 -0.72285672301E+03  0.37521180728E+03 -0.37750907583E+03  0.89767413056E+03  0.50400001928E-02 0. -1.
       -1    1    3    3    0  502  0.72285672301E+03 -0.37521180728E+03  0.12039929767E+04  0.14535834445E+04  0.50400001928E-02 0.  1.
</event>
<event>
 5   0  0.6306919E-05  0.2206923E+04  0.7818609E-02  0.8515552E-01
       -2   -1    0    0    0  501  0.00000000000E+00  0.00000000000E+00  0.85264576886E+03  0.85264576886E+03  0.25500000920E-02 0. -1.
        2   -1    0    0  501    0  0.00000000000E+00  0.00000000000E+00 -0.14280572499E+04  0.14280572499E+04  0.25500000920E-02 0.  1.
    10030    2    1    2    0    0  0.00000000000E+00  0.00000000000E+00 -0.57541148101E+03  0.22807030187E+04  0.22069227189E+04 0.  0.
        3    1    3    3  502    0 -0.83298557620E+03  0.40532232688E+03 -0.90731292237E+03  0.12966757143E+04  0.10100000352E+00 0.  1.
       -3    1    3    3    0  502  0.83298557620E+03 -0.40532232688E+03  0.33190144136E+03  0.98402730440E+03  0.10100000352E+00 0. -1.
</event>
<event>
 5   0  0.2245375E-05  0.2173951E+04  0.7818609E-02  0.8529349E-01
       -3   -1    0    0    0  501  0.00000000000E+00  0.00000000000E+00  0.78887555103E+03  0.78887555749E+03  0.10100000352E+00 0.  1.
        3   -1    0    0  501    0  0.00000000000E+00  0.00000000000E+00 -0.14977213500E+04  0.14977213534E+04  0.10100000352E+00 0. -1.
    10030    2    1    2    0    0  0.00000000000E+00  0.00000000000E+00 -0.70884579897E+03  0.22865969109E+04  0.21739510266E+04 0.  0.
        4    1    3    3  502    0  0.70205361039E+03 -0.61367802415E+03  0.23312182312E+03  0.96115939703E+03  0.12699999809E+01 0. -1.
       -4    1    3    3    0  502 -0.70205361039E+03  0.61367802415E+03 -0.94196762209E+03  0.13254375139E+04  0.12699999809E+01 0.  1.
</event>
<event>
 5   0  0.6306919E-05  0.2254010E+04  0.7818609E-02  0.8496278E-01
        2   -1    0    0  501    0  0.00000000000E+00  0.00000000000E+00  0.10318557842E+04  0.10318557843E+04  0.25500000920E-02 0.  1.
       -2   -1    0    0    0  501  0.00000000000E+00  0.00000000000E+00 -0.12309278293E+04  0.12309278293E+04  0.25500000920E-02 0. -1.
    10030    2    1    2    0    0  0.00000000000E+00  0.00000000000E+00 -0.19907204507E+03  0.22627836136E+04  0.22540097610E+04 0.  0.
        3    1    3    3  502    0 -0.61524603910E+03 -0.75268227044E+03  0.47284271815E+03  0.10810358621E+04  0.10100000352E+00 0.  1.
       -3    1    3    3    0  502  0.61524603910E+03  0.75268227044E+03 -0.67191476321E+03  0.11817477515E+04  0.10100000352E+00 0. -1.
</event>
<event>
 5   0  0.6445740E-05  0.2147194E+04  0.7818609E-02  0.8540734E-01
        2   -1    0    0  501    0  0.00000000000E+00  0.00000000000E+00  0.14686386570E+04  0.14686386570E+04  0.25500000920E-02 0.  1.
       -2   -1    0    0    0  501  0.00000000000E+00  0.00000000000E+00 -0.78481549125E+03  0.78481549126E+03  0.25500000920E-02 0. -1.
    10030    2    1    2    0    0  0.00000000000E+00  0.00000000000E+00  0.68382316575E+03  0.22534541483E+04  0.21471938609E+04 0.  0.
        5    1    3    3  502    0  0.92811519621E+03  0.47982624193E+03  0.60102512641E+03  0.12053565167E+04  0.46999998093E+01 0. -1.
       -5    1    3    3    0  502 -0.92811519621E+03 -0.47982624193E+03  0.82798039333E+02  0.10480976315E+04  0.46999998093E+01 0.  1.
</event>
<event>
 5   0  0.2929471E-05  0.2205175E+04  0.7818609E-02  0.8516277E-01
        1   -1    0    0  501    0  0.00000000000E+00  0.00000000000E+00  0.72544769292E+03  0.72544769294E+03  0.50400001928E-02 0. -1.
       -1   -1    0    0    0  501  0.00000000000E+00  0.00000000000E+00 -0.16757912881E+04  0.16757912881E+04  0.50400001928E-02 0.  1.
    10030    2    1    2    0    0  0.00000000000E+00  0.00000000000E+00 -0.95034359517E+03  0.24012389810E+04  0.22051747539E+04 0.  0.
        2    1    3    3  502    0 -0.53117349532E+03  0.92239484064E+03 -0.16194868233E+03  0.10766544942E+04  0.25500000920E-02 0.  1.
       -2    1    3    3    0  502  0.53117349532E+03 -0.92239484064E+03 -0.78839491284E+03  0.13245844868E+04  0.25500000920E-02 0. -1.
</event>
<event>
 5   0  0.2753631E-05  0.2219879E+04  0.7818609E-02  0.8510199E-01
       -1   -1    0    0    0  501  0.00000000000E+00  0.00000000000E+00  0.14646877864E+04  0.14646877865E+04  0.50400001928E-02 0. -1.
        1   -1    0    0  501    0  0.00000000000E+00  0.00000000000E+00 -0.84111131049E+03  0.84111131051E+03  0.50400001928E-02 0.  1.
    10030    2    1    2    0    0  0.00000000000E+00  0.00000000000E+00  0.62357647595E+03  0.23057990970E+04  0.22198787927E+04 0.  0.
        4    1    3    3  502    0 -0.54898118163E+03 -0.66016967568E+02  0.13114440975E+04  0.14232448179E+04  0.12699999809E+01 0. -1.
       -4    1    3    3    0  502  0.54898118163E+03  0.66016967568E+02 -0.68786762158E+03  0.88255427907E+03  0.12699999809E+01 0.  1.
</event>
<event>
 5   0  0.6414768E-05  0.2194478E+04  0.7818609E-02  0.8520730E-01
        2   -1    0    0  501    0  0.00000000000E+00  0.00000000000E+00  0.11091747250E+04  0.11091747250E+04  0.25500000920E-02 0.  1.
       -2   -1    0    0    0  501  0.00000000000E+00  0.00000000000E+00 -0.10854320103E+04  0.10854320103E+04  0.25500000920E-02 0. -1.
    10030    2    1    2    0    0  0.00000000000E+00  0.00000000000E+00  0.23742714675E+02  0.21946067353E+04  0.21944782993E+04 0.  0.
        2    1    3    3  502    0 -0.92483267660E+03  0.57874145708E+03 -0.10508247392E+03  0.10960380834E+04  0.25500000920E-02 0.  1.
       -2    1    3    3    0  502  0.92483267660E+03 -0.57874145708E+03  0.12882518859E+03  0.10985686520E+04  0.25500000920E-02 0. -1.
</event>
<event>
 5   0  0.6306919E-05  0.2219321E+04  0.7818609E-02  0.8510429E-01
        2   -1    0    0  501    0  0.00000000000E+00  0.00000000000E+00  0.14376777919E+04  0.14376777919E+04  0.25500000920E-02 0.  1.
       -2   -1    0    0    0  501  0.00000000000E+00  0.00000000000E+00 -0.85648296556E+03  0.85648296557E+03  0.25500000920E-02 0. -1.
    10030    2    1    2    0    0  0.00000000000E+00  0.00000000000E+00  0.58119482638E+03  0.22941607575E+04  0.22193211023E+04 0.  0.
        3    1    3    3  502    0  0.20285504164E+03  0.31236343724E+03  0.13711337071E+04  0.14208197415E+04  0.10100000352E+00 0.  1.
       -3    1    3    3    0  502 -0.20285504164E+03 -0.31236343724E+03 -0.78993888071E+03  0.87334101604E+03  0.10100000352E+00 0. -1.
</event>
<event>
 5   0  0.2908031E-05  0.1973845E+04  0.7818609E-02  0.8618948E-01
       -1   -1    0    0    0  501  0.00000000000E+00  0.00000000000E+00  0.66658823271E+03  0.66658823273E+03  0.50400001928E-02 0.  1.
        1   -1    0    0  501    0  0.00000000000E+00  0.00000000000E+00 -0.14611952214E+04  0.14611952214E+04  0.50400001928E-02 0. -1.
    10030    2    1    2    0    0  0.00000000000E+00  0.00000000000E+00 -0.79460698867E+03  0.21277834541E+04  0.19738445129E+04 0.  0.
        1    1    3    3  502    0 -0.67249836112E+03  0.43734076425E+03  0.22241811521E+03  0.83246069444E+03  0.50400001928E-02 0.  1.
       -1    1    3    3    0  502  0.67249836112E+03 -0.43734076425E+03 -0.10170251039E+04  0.12953227597E+04  0.50400001928E-02 0. -1.
</event>
<event>
 5   0  0.6445740E-05  0.2126132E+04  0.7818609E-02  0.8549819E-01
       -2   -1    0    0    0  501  0.00000000000E+00  0.00000000000E+00  0.14718137770E+04  0.14718137770E+04  0.25500000920E-02 0. -1.
        2   -1    0    0  501    0  0.00000000000E+00  0.00000000000E+00 -0.76783423829E+03  0.76783423829E+03  0.25500000920E-02 0.  1.
    10030    2    1    2    0    0  0.00000000000E+00  0.00000000000E+00  0.70397953872E+03  0.22396480153E+04  0.21261317084E+04 0.  0.
        5    1    3    3  502    0 -0.27519766082E+03  0.19477224701E+03 -0.71001276322E+03  0.78600902963E+03  0.46999998093E+01 0.  1.
       -5    1    3    3    0  502  0.27519766082E+03 -0.19477224701E+03  0.14139923019E+04  0.14536389857E+04  0.46999998093E+01 0. -1.
</event>
<event>
 5   0  0.2753631E-05  0.2201029E+04  0.7818609E-02  0.8518000E-01
       -1   -1    0    0    0  501  0.00000000000E+00  0.00000000000E+00  0.12628621003E+04  0.12628621003E+04  0.50400001928E-02 0. -1.
        1   -1    0    0  501    0  0.00000000000E+00  0.00000000000E+00 -0.95903717851E+03  0.95903717852E+03  0.50400001928E-02 0.  1.
    10030    2    1    2    0    0  0.00000000000E+00  0.00000000000E+00  0.30382492182E+03  0.22218992789E+04  0.22010285828E+04 0.  0.
        4    1    3    3  502    0  0.62951145570E+03 -0.13952574444E+03  0.10522087687E+04  0.12340571349E+04  0.12699999809E+01 0. -1.
       -4    1    3    3    0  502 -0.62951145570E+03  0.13952574444E+03 -0.74838384691E+03  0.98784214399E+03  0.12699999809E+01 0.  1.
</event>
<event>
 5   0  0.2910318E-05  0.2122023E+04  0.7818609E-02  0.8551604E-01
       -1   -1    0    0    0  501  0.00000000000E+00  0.00000000000E+00  0.74671866457E+03  0.74671866459E+03  0.50400001928E-02 0.  1.
        1   -1    0    0  501    0  0.00000000000E+00  0.00000000000E+00 -0.15075893028E+04  0.15075893028E+04  0.50400001928E-02 0. -1.
    10030    2    1    2    0    0  0.00000000000E+00  0.00000000000E+00 -0.76087063826E+03  0.22543079674E+04  0.21220226869E+04 0.  0.
        5    1    3    3  502    0 -0.62184993000E+03  0.61067580580E+03  0.26234638440E+03  0.91020326886E+03  0.46999998093E+01 0.  1.
       -5    1    3    3    0  502  0.62184993000E+03 -0.61067580580E+03 -0.10232170227E+04  0.13441046986E+04  0.46999998093E+01 0. -1.
</event>
<event>
 5   0  0.6414768E-05  0.2206386E+04  0.7818609E-02  0.8515775E-01
        2   -1    0    0  501    0  0.00000000000E+00  0.00000000000E+00  0.14299146264E+04  0.14299146264E+04  0.25500000920E-02 0. -1.
       -2   -1    0    0    0  501  0.00000000000E+00  0.00000000000E+00 -0.85112444401E+03  0.85112444401E+03  0.25500000920E-02 0.  1.
    10030    2    1    2    0    0  0.00000000000E+00  0.00000000000E+00  0.57879018235E+03  0.22810390704E+04  0.22063864497E+04 0.  0.
        2    1    3    3  502    0  0.73552993948E+03  0.23600369440E+03 -0.52486598420E+03  0.93390916957E+03  0.25500000920E-02 0.  1.
       -2    1    3    3    0  502 -0.73552993948E+03 -0.23600369440E+03  0.11036561666E+04  0.13471299008E+04  0.25500000920E-02 0. -1.
</event>
<event>
 5   0  0.2908031E-05  0.2273183E+04  0.7818609E-02  0.8488570E-01
       -1   -1    0    0    0  501  0.00000000000E+00  0.00000000000E+00  0.12783092367E+04  0.12783092367E+04  0.50400001928E-02 0. -1.
        1   -1    0    0  501    0  0.00000000000E+00  0.00000000000E+00 -0.10105852230E+04  0.10105852230E+04  0.50400001928E-02 0.  1.
    10030    2    1    2    0    0  0.00000000000E+00  0.00000000000E+00  0.26772401374E+03  0.22888944597E+04  0.22731831647E+04 0.  0.
        1    1    3    3  502    0 -0.49645928410E+03  0.69894254421E+02  0.11609529848E+04  0.12645824846E+04  0.50400001928E-02 0. -1.
       -1    1    3    3    0  502  0.49645928410E+03 -0.69894254421E+02 -0.89322897103E+03  0.10243119751E+04  0.50400001928E-02 0.  1.
</event>
<event>
 5   0  0.2929471E-05  0.2192594E+04  0.7818609E-02  0.8521517E-01
        1   -1    0    0  501    0  0.00000000000E+00  0.00000000000E+00  0.15147647834E+04  0.15147647834E+04  0.50400001928E-02 0.  1.
       -1   -1    0    0    0  501  0.00000000000E+00  0.00000000000E+00 -0.79343448267E+03  0.79343448268E+03  0.50400001928E-02 0. -1.
    10030    2    1    2    0    0  0.00000000000E+00  0.00000000000E+00  0.72133030073E+03  0.23081992661E+04  0.21925935440E+04 0.  0.
        2    1    3    3  502    0  0.72272429113E+01 -0.82720568516E+03 -0.39667203679E+03  0.91742584625E+03  0.25500000920E-02 0. -1.
       -2    1    3    3    0  502 -0.72272429113E+01  0.82720568516E+03  0.11180023375E+04  0.13907734198E+04  0.25500000920E-02 0.  1.
</event>
<event>
 5   0  0.6445740E-05  0.2263660E+04  0.7818609E-02  0.8492389E-01
        2   -1    0    0  501    0  0.00000000000E+00  0.00000000000E+00  0.19717159860E+04  0.19717159860E+04  0.25500000920E-02 0. -1.
       -2   -1    0    0    0  501  0.00000000000E+00  0.00000000000E+00 -0.64970781429E+03  0.64970781430E+03  0.25500000920E-02 0.  1.
    10030    2    1    2    0    0  0.00000000000E+00  0.00000000000E+00  0.13220081718E+04  0.26214238003E+04  0.22636601191E+04 0.  0.
        5    1    3    3  502    0  0.71178515923E+03  0.19521537702E+03 -0.33267141445E+03  0.80959219136E+03  0.46999998093E+01 0.  1.
       -5    1    3    3    0  502 -0.71178515923E+03 -0.19521537702E+03  0.16546795862E+04  0.18118316090E+04  0.46999998093E+01 0. -1.
</event>
<event>
 5   0  0.6628798E-05  0.2173093E+04  0.7818609E-02  0.8529711E-01
       -2   -1    0    0    0  501  0.00000000000E+00  0.00000000000E+00  0.11693394348E+04  0.11693394348E+04  0.25500000920E-02 0.  1.
        2   -1    0    0  501    0  0.00000000000E+00  0.00000000000E+00 -0.10096160033E+04  0.10096160033E+04  0.25500000920E-02 0. -1.
    10030    2    1    2    0    0  0.00000000000E+00  0.00000000000E+00  0.15972343149E+03  0.21789554381E+04  0.21730934694E+04 0.  0.
        4    1    3    3  502    0  0.87465991640E+02 -0.24490984689E+02  0.11655252921E+04  0.11690598477E+04  0.12699999809E+01 0.  1.
       -4    1    3    3    0  502 -0.87465991640E+02  0.24490984689E+02 -0.10058018606E+04  0.10098955905E+04  0.12699999809E+01 0. -1.
</event>
<event>
 5   0  0.2929471E-05  0.2212470E+04  0.7818609E-02  0.8513256E-01
        1   -1    0    0  501    0  0.00000000000E+00  0.00000000000E+00  0.13377910507E+04  0.13377910507E+04  0.50400001928E-02 0.  1.
       -1   -1    0    0    0  501  0.00000000000E+00  0.00000000000E+00 -0.91475821342E+03  0.91475821343E+03  0.50400001928E-02 0. -1.
    10030    2    1    2    0    0  0.00000000000E+00  0.00000000000E+00  0.42303283732E+03  0.22525492642E+04  0.22124695266E+04 0.  0.
        2    1    3    3  502    0  0.24769318598E+03  0.34935535320E+03  0.12499712907E+04  0.13212983405E+04  0.25500000920E-02 0.  1.
       -2    1    3    3    0  502 -0.24769318598E+03 -0.34935535320E+03 -0.82693845334E+03  0.93125092365E+03  0.25500000920E-02 0. -1.
</event>
<event>
 5   0  0.2820239E-05  0.2357353E+04  0.7818609E-02  0.8455645E-01
       -1   -1    0    0    0  501  0.00000000000E+00  0.00000000000E+00  0.10677707074E+04  0.10677707074E+04  0.50400001928E-02 0.  1.
        1   -1    0    0  501    0  0.00000000000E+00  0.00000000000E+00 -0.13011014377E+04  0.13011014377E+04  0.50400001928E-02 0. -1.
    10030    2    1    2    0    0  0.00000000000E+00  0.00000000000E+00 -0.23333073028E+03  0.23688721451E+04  0.23573527547E+04 0.  0.
        3    1    3    3  502    0 -0.88579008425E+03  0.35696252968E+03 -0.81086067453E+03  0.12528133798E+04  0.10100000352E+00 0. -1.
       -3    1    3    3    0  502  0.88579008425E+03 -0.35696252968E+03  0.57752994424E+03  0.11160587653E+04  0.10100000352E+00 0.  1.
</event>
<event>
 5   0  0.2929471E-05  0.2193688E+04  0.7818609E-02  0.8521060E-01
       -1   -1    0    0    0  501  0.00000000000E+00  0.00000000000E+00  0.89938368738E+03  0.89938368740E+03  0.50400001928E-02 0. -1.
        1   -1    0    0  501    0  0.00000000000E+00  0.00000000000E+00 -0.13376570065E+04  0.13376570065E+04  0.50400001928E-02 0.  1.
    10030    2    1    2    0    0  0.00000000000E+00  0.00000000000E+00 -0.43827331913E+03  0.22370406939E+04  0.21936881191E+04 0.  0.
        2    1    3    3  502    0 -0.91489517759E+03  0.45683118894E+03 -0.62363538027E+03  0.11977683452E+04  0.25500000920E-02 0.  1.
       -2    1    3    3    0  502  0.91489517759E+03 -0.45683118894E+03  0.18536206114E+03  0.10392723488E+04  0.25500000920E-02 0. -1.
</event>
<event>
 5   0  0.6306919E-05  0.2195819E+04  0.7818609E-02  0.8520170E-01
        2   -1    0    0  501    0  0.00000000000E+00  0.00000000000E+00  0.10390010108E+04  0.10390010108E+04  0.25500000920E-02 0. -1.
       -2   -1    0    0    0  501  0.00000000000E+00  0.00000000000E+00 -0.11601576956E+04  0.11601576956E+04  0.25500000920E-02 0.  1.
    10030    2    1    2    0    0  0.00000000000E+00  0.00000000000E+00 -0.12115668475E+03  0.21991587064E+04  0.21958187707E+04 0.  0.
        3    1    3    3  502    0  0.55355509593E+03  0.59664648935E+03 -0.79858093328E+03  0.11402376045E+04  0.10100000352E+00 0.  1.
       -3    1    3    3    0  502 -0.55355509593E+03 -0.59664648935E+03  0.67742424853E+03  0.10589211020E+04  0.10100000352E+00 0. -1.
</event>
<event>
 5   0  0.2910318E-05  0.2189947E+04  0.7818609E-02  0.8522624E-01
       -1   -1    0    0    0  501  0.00000000000E+00  0.00000000000E+00  0.76969873677E+03  0.76969873679E+03  0.50400001928E-02 0.  1.
        1   -1    0    0  501    0  0.00000000000E+00  0.00000000000E+00 -0.15577093761E+04  0.15577093761E+04  0.50400001928E-02 0. -1.
    10030    2    1    2    0    0  0.00000000000E+00  0.00000000000E+00 -0.78801063929E+03  0.23274081129E+04  0.21899469757E+04 0.  0.
        5    1    3    3  502    0 -0.11821916399E+03 -0.78465462125E+02  0.75987632363E+03  0.77302439593E+03  0.46999998093E+01 0.  1.
       -5    1    3    3    0  502  0.11821916399E+03  0.78465462125E+02 -0.15478869629E+04  0.15543837169E+04  0.46999998093E+01 0. -1.
</event>
<event>
 5   0  0.2753631E-05  0.2216323E+04  0.7818609E-02  0.8511665E-01
       -1   -1    0    0    0  501  0.00000000000E+00  0.00000000000E+00  0.11368457493E+04  0.11368457493E+04  0.50400001928E-02 0. -1.
        1   -1    0    0  501    0  0.00000000000E+00  0.00000000000E+00 -0.10802008320E+04  0.10802008320E+04  0.50400001928E-02 0.  1.
    10030    2    1    2    0    0  0.00000000000E+00  0.00000000000E+00  0.56644917273E+02  0.22170465814E+04  0.22163228324E+04 0.  0.
        4    1    3    3  502    0  0.40613529556E+03  0.38480823971E+03 -0.92854458595E+03  0.10840756065E+04  0.12699999809E+01 0.  1.
       -4    1    3    3    0  502 -0.40613529556E+03 -0.38480823971E+03  0.98518950323E+03  0.11329709748E+04  0.12699999809E+01 0. -1.
</event>
<event>
 5   0  0.2820239E-05  0.2197005E+04  0.7818609E-02  0.8519676E-01
       -1   -1    0    0    0  501  0.00000000000E+00  0.00000000000E+00  0.71342253983E+03  0.71342253985E+03  0.50400001928E-02 0.  1.
        1   -1    0    0  501    0  0.00000000000E+00  0.00000000000E+00 -0.16914344520E+04  0.16914344520E+04  0.50400001928E-02 0. -1.
    10030    2    1    2    0    0  0.00000000000E+00  0.00000000000E+00 -0.97801191219E+03  0.24048569919E+04  0.21970047453E+04 0.  0.
        3    1    3    3  502    0 -0.20559026211E+03 -0.21376883124E+03  0.66876705866E+03  0.73158311766E+03  0.10100000352E+00 0.  1.
       -3    1    3    3    0  502  0.20559026211E+03  0.21376883124E+03 -0.16467789709E+04  0.16732738742E+04  0.10100000352E+00 0. -1.
</event>
<event>
 5   0  0.6293013E-05  0.2169801E+04  0.7818609E-02  0.8531104E-01
        2   -1    0    0  501    0  0.00000000000E+00  0.00000000000E+00  0.88894477163E+03  0.88894477163E+03  0.25500000920E-02 0.  1.
       -2   -1    0    0    0  501  0.00000000000E+00  0.00000000000E+00 -0.13240524517E+04  0.13240524517E+04  0.25500000920E-02 0. -1.
    10030    2    1    2    0    0  0.00000000000E+00  0.00000000000E+00 -0.43510768011E+03  0.22129972234E+04  0.21698013774E+04 0.  0.
        1    1    3    3  502    0  0.35815284729E+03 -0.33992907240E+03  0.76769196135E+03  0.91278485079E+03  0.50400001928E-02 0.  1.
       -1    1    3    3    0  502 -0.35815284729E+03  0.33992907240E+03 -0.12027996415E+04  0.13002123726E+04  0.50400001928E-02 0. -1.
</event>
<event>
 5   0  0.2908031E-05  0.2206708E+04  0.7818609E-02  0.8515641E-01
        1   -1    0    0  501    0  0.00000000000E+00  0.00000000000E+00  0.19024458415E+04  0.19024458415E+04  0.50400001928E-02 0. -1.
       -1   -1    0    0    0  501  0.00000000000E+00  0.00000000000E+00 -0.63990811983E+03  0.63990811985E+03  0.50400001928E-02 0.  1.
    10030    2    1    2    0    0  0.00000000000E+00  0.00000000000E+00  0.12625377217E+04  0.25423539614E+04  0.22067084461E+04 0.  0.
        1    1    3    3  502    0  0.42849732191E+03  0.14885551755E+03  0.17900470824E+04  0.18466284080E+04  0.50400001928E-02 0. -1.
       -1    1    3    3    0  502 -0.42849732191E+03 -0.14885551755E+03 -0.52750936070E+03  0.69572555339E+03  0.50400001928E-02 0.  1.
</event>
<event>
 5   0  0.6306919E-05  0.2202719E+04  0.7818609E-02  0.8517297E-01
       -2   -1    0    0    0  501  0.00000000000E+00  0.00000000000E+00  0.11820561682E+04  0.11820561683E+04  0.25500000920E-02 0.  1.
        2   -1    0    0  501    0  0.00000000000E+00  0.00000000000E+00 -0.10261717904E+04  0.10261717904E+04  0.25500000920E-02 0. -1.
    10030    2    1    2    0    0  0.00000000000E+00  0.00000000000E+00  0.15588437787E+03  0.22082279586E+04  0.22027189512E+04 0.  0.
        3    1    3    3  502    0  0.26444780506E+03  0.39062085861E+03  0.10756575529E+04  0.11745452218E+04  0.10100000352E+00 0.  1.
       -3    1    3    3    0  502 -0.26444780506E+03 -0.39062085861E+03 -0.91977317500E+03  0.10336827368E+04  0.10100000352E+00 0. -1.
</event>
<event>
 5   0  0.6306919E-05  0.2220470E+04  0.7818609E-02  0.8509956E-01
        2   -1    0    0  501    0  0.00000000000E+00  0.00000000000E+00  0.86100757068E+03  0.86100757068E+03  0.25500000920E-02 0.  1.
       -2   -1    0    0    0  501  0.00000000000E+00  0.00000000000E+00 -0.14316037005E+04  0.14316037005E+04  0.25500000920E-02 0. -1.
    10030    2    1    2    0    0  0.00000000000E+00  0.00000000000E+00 -0.57059612982E+03  0.22926112712E+04  0.22204698821E+04 0.  0.
        3    1    3    3  502    0  0.26519100388E+03 -0.92596519322E+03 -0.85540026284E+03  0.12881954151E+04  0.10100000352E+00 0. -1.
       -3    1    3    3    0  502 -0.26519100388E+03  0.92596519322E+03  0.28480413302E+03  0.10044158561E+04  0.10100000352E+00 0.  1.
</event>
<event>
 5   0  0.6628798E-05  0.2168871E+04  0.7818609E-02  0.8531498E-01
       -2   -1    0    0    0  501  0.00000000000E+00  0.00000000000E+00  0.15133101736E+04  0.15133101736E+04  0.25500000920E-02 0. -1.
        2   -1    0    0  501    0  0.00000000000E+00  0.00000000000E+00 -0.77710462765E+03  0.77710462766E+03  0.25500000920E-02 0.  1.
    10030    2    1    2    0    0  0.00000000000E+00  0.00000000000E+00  0.73620554596E+03  0.22904148013E+04  0.21688709865E+04 0.  0.
        4    1    3    3  502    0  0.62068214223E+03 -0.42867130452E+03 -0.45465572604E+03  0.88074902846E+03  0.12699999809E+01 0.  1.
       -4    1    3    3    0  502 -0.62068214223E+03  0.42867130452E+03  0.11908612720E+04  0.14096657728E+04  0.12699999809E+01 0. -1.
</event>
<event>
 5   0  0.2820239E-05  0.2202021E+04  0.7818609E-02  0.8517588E-01
        1   -1    0    0  501    0  0.00000000000E+00  0.00000000000E+00  0.20110124501E+04  0.20110124501E+04  0.50400001928E-02 0.  1.
       -1   -1    0    0    0  501  0.00000000000E+00  0.00000000000E+00 -0.60279280857E+03  0.60279280859E+03  0.50400001928E-02 0. -1.
    10030    2    1    2    0    0  0.00000000000E+00  0.00000000000E+00  0.14082196416E+04  0.26138052587E+04  0.22020207473E+04 0.  0.
        3    1    3    3  502    0  0.10593835742E+04  0.15958964187E+03  0.10054810300E+04  0.14692700646E+04  0.10100000352E+00 0.  1.
       -3    1    3    3    0  502 -0.10593835742E+04 -0.15958964187E+03  0.40273861160E+03  0.11445351941E+04  0.10100000352E+00 0. -1.
</event>
<event>
 5   0  0.6628798E-05  0.2053586E+04  0.7818609E-02  0.8581969E-01
        2   -1    0    0  501    0  0.00000000000E+00  0.00000000000E+00  0.13021654154E+04  0.13021654154E+04  0.25500000920E-02 0.  1.
       -2   -1    0    0    0  501  0.00000000000E+00  0.00000000000E+00 -0.80965440307E+03  0.80965440308E+03  0.25500000920E-02 0. -1.
    10030    2    1    2    0    0  0.00000000000E+00  0.00000000000E+00  0.49251101232E+03  0.21118198185E+04  0.20535860947E+04 0.  0.
        4    1    3    3  502    0  0.45649470315E+02  0.99692452097E+03 -0.21730373476E+01  0.99797229904E+03  0.12699999809E+01 0. -1.
       -4    1    3    3    0  502 -0.45649470315E+02 -0.99692452097E+03  0.49468404967E+03  0.11138475194E+04  0.12699999809E+01 0.  1.
</event>
<event>
 5   0  0.2910318E-05  0.2266435E+04  0.7818609E-02  0.8491274E-01
        1   -1    0    0  501    0  0.00000000000E+00  0.00000000000E+00  0.17798660444E+04  0.17798660444E+04  0.50400001928E-02 0. -1.
       -1   -1    0    0    0  501  0.00000000000E+00  0.00000000000E+00 -0.72150480488E+03  0.72150480490E+03  0.50400001928E-02 0.  1.
    10030    2    1    2    0    0  0.00000000000E+00  0.00000000000E+00  0.10583612395E+04  0.25013708493E+04  0.22664350007E+04 0.  0.
        5    1    3    3  502    0 -0.77659551816E+03 -0.26775500504E+03  0.13907179366E+04  0.16152126209E+04  0.46999998093E+01 0. -1.
       -5    1    3    3    0  502  0.77659551816E+03  0.26775500504E+03 -0.33235669713E+03  0.88615822835E+03  0.46999998093E+01 0.  1.
</event>
<event>
 5   0  0.6293013E-05  0.2177846E+04  0.7818609E-02  0.8527706E-01
       -2   -1    0    0    0  501  0.00000000000E+00  0.00000000000E+00  0.90655812605E+03  0.90655812605E+03  0.25500000920E-02 0.  1.
        2   -1    0    0  501    0  0.00000000000E+00  0.00000000000E+00 -0.13079730522E+04  0.13079730522E+04  0.25500000920E-02 0. -1.
    10030    2    1    2    0    0  0.00000000000E+00  0.00000000000E+00 -0.40141492611E+03  0.22145311782E+04  0.21778462747E+04 0.  0.
        1    1    3    3  502    0 -0.69744358950E+03  0.79832678187E+03 -0.45390051337E+03  0.11531603909E+04  0.50400001928E-02 0. -1.
       -1    1    3    3    0  502  0.69744358950E+03 -0.79832678187E+03  0.52485587258E+02  0.10613707873E+04  0.50400001928E-02 0.  1.
</event>
<event>
 5   0  0.2929471E-05  0.2131519E+04  0.7818609E-02  0.8547485E-01
       -1   -1    0    0    0  501  0.00000000000E+00  0.00000000000E+00  0.48785043776E+03  0.48785043778E+03  0.50400001928E-02 0.  1.
        1   -1    0    0  501    0  0.00000000000E+00  0.00000000000E+00 -0.23282605789E+04  0.23282605789E+04  0.50400001928E-02 0. -1.
    10030    2    1    2    0    0  0.00000000000E+00  0.00000000000E+00 -0.18404101412E+04  0.28161110167E+04  0.21315186536E+04 0.  0.
        2    1    3    3  502    0 -0.10224964015E+04  0.23996431029E+03 -0.68107157552E+03  0.12517748409E+04  0.25500000920E-02 0.  1.
       -2    1    3    3    0  502  0.10224964015E+04 -0.23996431029E+03 -0.11593385656E+04  0.15643361758E+04  0.25500000920E-02 0. -1.
</event>
<event>
 5   0  0.6445740E-05  0.2202791E+04  0.7818609E-02  0.8517267E-01
        2   -1    0    0  501    0  0.00000000000E+00  0.00000000000E+00  0.11794885709E+04  0.11794885709E+04  0.25500000920E-02 0. -1.
       -2   -1    0    0    0  501  0.00000000000E+00  0.00000000000E+00 -0.10284732204E+04  0.10284732204E+04  0.25500000920E-02 0.  1.
    10030    2    1    2    0    0  0.00000000000E+00  0.00000000000E+00  0.15101535053E+03  0.22079617913E+04  0.22027913282E+04 0.  0.
        5    1    3    3  502    0  0.23950887609E+03 -0.11074769518E+03  0.11473261363E+04  0.11772887949E+04  0.46999998093E+01 0. -1.
       -5    1    3    3    0  502 -0.23950887609E+03  0.11074769518E+03 -0.99631078573E+03  0.10306729964E+04  0.46999998093E+01 0.  1.
</event>
<event>
 5   0  0.2820239E-05  0.2163223E+04  0.7818609E-02  0.8533893E-01
        1   -1    0    0  501    0  0.00000000000E+00  0.00000000000E+00  0.13809173931E+04  0.13809173931E+04  0.50400001928E-02 0. -1.
       -1   -1    0    0    0  501  0.00000000000E+00  0.00000000000E+00 -0.84717831209E+03  0.84717831211E+03  0.50400001928E-02 0.  1.
    10030    2    1    2    0    0  0.00000000000E+00  0.00000000000E+00  0.53373908096E+03  0.22280957052E+04  0.21632228422E+04 0.  0.
        3    1    3    3  502    0  0.80494042516E+01  0.10801883566E+04  0.32339311085E+03  0.11275880423E+04  0.10100000352E+00 0.  1.
       -3    1    3    3    0  502 -0.80494042516E+01 -0.10801883566E+04  0.21034597011E+03  0.11005076629E+04  0.10100000352E+00 0. -1.
</event>
<event>
 5   0  0.2820239E-05  0.2175688E+04  0.7818609E-02  0.8528616E-01
       -1   -1    0    0    0  501  0.00000000000E+00  0.00000000000E+00  0.57661250007E+03  0.57661250009E+03  0.50400001928E-02 0. -1.
        1   -1    0    0  501    0  0.00000000000E+00  0.00000000000E+00 -0.20523397746E+04  0.20523397746E+04  0.50400001928E-02 0.  1.
    10030    2    1    2    0    0  0.00000000000E+00  0.00000000000E+00 -0.14757272746E+04  0.26289522747E+04  0.21756881840E+04 0.  0.
        3    1    3    3  502    0  0.58413987768E+03 -0.82619608157E+03 -0.12205695542E+04  0.15854366618E+04  0.10100000352E+00 0.  1.
       -3    1    3    3    0  502 -0.58413987768E+03  0.82619608157E+03 -0.25515772040E+03  0.10435156129E+04  0.10100000352E+00 0. -1.
</event>
<event>
 5   0  0.2245375E-05  0.2162457E+04  0.7818609E-02  0.8534219E-01
       -3   -1    0    0    0  501  0.00000000000E+00  0.00000000000E+00  0.90488486881E+03  0.90488487445E+03  0.10100000352E+00 0. -1.
        3   -1    0    0  501    0  0.00000000000E+00  0.00000000000E+00 -0.12919375271E+04  0.12919375310E+04  0.10100000352E+00 0.  1.
    10030    2    1    2    0    0  0.00000000000E+00  0.00000000000E+00 -0.38705265825E+03  0.21968224055E+04  0.21624566865E+04 0.  0.
        1    1    3    3  502    0 -0.55241280566E+03 -0.22654610581E+02  0.75042352586E+03  0.93209903306E+03  0.50400001928E-02 0. -1.
       -1    1    3    3    0  502  0.55241280566E+03  0.22654610581E+02 -0.11374761841E+04  0.12647233724E+04  0.50400001928E-02 0.  1.
</event>
<event>
 5   0  0.2908031E-05  0.2151719E+04  0.7818609E-02  0.8538797E-01
        1   -1    0    0  501    0  0.00000000000E+00  0.00000000000E+00  0.10278689560E+04  0.10278689560E+04  0.50400001928E-02 0. -1.
       -1   -1    0    0    0  501  0.00000000000E+00  0.00000000000E+00 -0.11260911043E+04  0.11260911043E+04  0.50400001928E-02 0.  1.
    10030    2    1    2    0    0  0.00000000000E+00  0.00000000000E+00 -0.98222148317E+02  0.21539600602E+04  0.21517193940E+04 0.  0.
        1    1    3    3  502    0  0.74831525695E+03  0.94458141552E+00 -0.82289561307E+03  0.11122651689E+04  0.50400001928E-02 0.  1.
       -1    1    3    3    0  502 -0.74831525695E+03 -0.94458141552E+00  0.72467346475E+03  0.10416948913E+04  0.50400001928E-02 0. -1.
</event>
<event>
 5   0  0.2929471E-05  0.2208952E+04  0.7818609E-02  0.8514711E-01
        1   -1    0    0  501    0  0.00000000000E+00  0.00000000000E+00  0.13646000565E+04  0.13646000565E+04  0.50400001928E-02 0. -1.
       -1   -1    0    0    0  501  0.00000000000E+00  0.00000000000E+00 -0.89393777329E+03  0.89393777331E+03  0.50400001928E-02 0.  1.
    10030    2    1    2    0    0  0.00000000000E+00  0.00000000000E+00  0.47066228317E+03  0.22585378298E+04  0.22089522729E+04 0.  0.
        2    1    3    3  502    0  0.98553992146E+03  0.49639806733E+03  0.18772901125E+03  0.11193489892E+04  0.25500000920E-02 0.  1.
       -2    1    3    3    0  502 -0.98553992146E+03 -0.49639806733E+03  0.28293327192E+03  0.11391888405E+04  0.25500000920E-02 0. -1.
</event>
<event>
 5   0  0.2910318E-05  0.2188540E+04  0.7818609E-02  0.8523213E-01
        1   -1    0    0  501    0  0.00000000000E+00  0.00000000000E+00  0.17954927695E+04  0.17954927695E+04  0.50400001928E-02 0.  1.
       -1   -1    0    0    0  501  0.00000000000E+00  0.00000000000E+00 -0.66690679018E+03  0.66690679020E+03  0.50400001928E-02 0. -1.
    10030    2    1    2    0    0  0.00000000000E+00  0.00000000000E+00  0.11285859794E+04  0.24623995598E+04  0.21885395311E+04 0.  0.
        5    1    3    3  502    0  0.94168818213E+03 -0.11165882905E+03  0.11786612185E+04  0.15127817703E+04  0.46999998093E+01 0.  1.
       -5    1    3    3    0  502 -0.94168818213E+03  0.11165882905E+03 -0.50075239182E+02  0.94961778945E+03  0.46999998093E+01 0. -1.
</event>
<event>
 5   0  0.6445740E-05  0.2212949E+04  0.7818609E-02  0.8513058E-01
        2   -1    0    0  501    0  0.00000000000E+00  0.00000000000E+00  0.10203686612E+04  0.10203686612E+04  0.25500000920E-02 0.  1.
       -2   -1    0    0    0  501  0.00000000000E+00  0.00000000000E+00 -0.11998469529E+04  0.11998469529E+04  0.25500000920E-02 0. -1.
    10030    2    1    2    0    0  0.00000000000E+00  0.00000000000E+00 -0.17947829173E+03  0.22202156142E+04  0.22129493704E+04 0.  0.
        5    1    3    3  502    0  0.64104536733E+03  0.30875552009E+03  0.76038898270E+03  0.10413849572E+04  0.46999998093E+01 0.  1.
       -5    1    3    3    0  502 -0.64104536733E+03 -0.30875552009E+03 -0.93986727443E+03  0.11788306569E+04  0.46999998093E+01 0. -1.
</event>
<event>
 5   0  0.2910318E-05  0.2195514E+04  0.7818609E-02  0.8520298E-01
        1   -1    0    0  501    0  0.00000000000E+00  0.00000000000E+00  0.78496521527E+03  0.78496521529E+03  0.50400001928E-02 0.  1.
       -1   -1    0    0    0  501  0.00000000000E+00  0.00000000000E+00 -0.15351891740E+04  0.15351891740E+04  0.50400001928E-02 0. -1.
    10030    2    1    2    0    0  0.00000000000E+00  0.00000000000E+00 -0.75022395877E+03  0.23201543893E+04  0.21955136989E+04 0.  0.
        5    1    3    3  502    0 -0.25257138737E+03 -0.67194672597E+03 -0.12527682897E+04  0.14438681331E+04  0.46999998093E+01 0. -1.
       -5    1    3    3    0  502  0.25257138737E+03  0.67194672597E+03  0.50254433092E+03  0.87628625619E+03  0.46999998093E+01 0.  1.
</event>
<event>
 5   0  0.6293013E-05  0.2227700E+04  0.7818609E-02  0.8506987E-01
        2   -1    0    0  501    0  0.00000000000E+00  0.00000000000E+00  0.20579477267E+04  0.20579477267E+04  0.25500000920E-02 0. -1.
       -2   -1    0    0    0  501  0.00000000000E+00  0.00000000000E+00 -0.60286339823E+03  0.60286339823E+03  0.25500000920E-02 0.  1.
    10030    2    1    2    0    0  0.00000000000E+00  0.00000000000E+00  0.14550843285E+04  0.26608111249E+04  0.22276995847E+04 0.  0.
        1    1    3    3  502    0 -0.21966611373E+03 -0.57280233152E+03 -0.38288761260E+03  0.72315879061E+03  0.50400001928E-02 0.  1.
       -1    1    3    3    0  502  0.21966611373E+03  0.57280233152E+03  0.18379719411E+04  0.19376523343E+04  0.50400001928E-02 0. -1.
</event>
<event>
 5   0  0.2908031E-05  0.2188107E+04  0.7818609E-02  0.8523395E-01
       -1   -1    0    0    0  501  0.00000000000E+00  0.00000000000E+00  0.79149697329E+03  0.79149697331E+03  0.50400001928E-02 0.  1.
        1   -1    0    0  501    0  0.00000000000E+00  0.00000000000E+00 -0.15122644622E+04  0.15122644622E+04  0.50400001928E-02 0. -1.
    10030    2    1    2    0    0  0.00000000000E+00  0.00000000000E+00 -0.72076748889E+03  0.23037614355E+04  0.21881067110E+04 0.  0.
        1    1    3    3  502    0 -0.27446157880E+03 -0.41810955311E+03  0.66408794747E+03  0.83135886273E+03  0.50400001928E-02 0.  1.
       -1    1    3    3    0  502  0.27446157880E+03  0.41810955311E+03 -0.13848554364E+04  0.14724025728E+04  0.50400001928E-02 0. -1.
</event>
<event>
 5   0  0.6628798E-05  0.2168737E+04  0.7818609E-02  0.8531554E-01
        2   -1    0    0  501    0  0.00000000000E+00  0.00000000000E+00  0.11101779674E+04  0.11101779674E+04  0.25500000920E-02 0.  1.
       -2   -1    0    0    0  501  0.00000000000E+00  0.00000000000E+00 -0.10591592603E+04  0.10591592603E+04  0.25500000920E-02 0. -1.
    10030    2    1    2    0    0  0.00000000000E+00  0.00000000000E+00  0.51018707106E+02  0.21693372277E+04  0.21687372130E+04 0.  0.
        4    1    3    3  502    0  0.92656651780E+03 -0.85092115245E+02 -0.53149970074E+03  0.10715688148E+04  0.12699999809E+01 0. -1.
       -4    1    3    3    0  502 -0.92656651780E+03  0.85092115245E+02  0.58251840785E+03  0.10977684129E+04  0.12699999809E+01 0.  1.
</event>
<event>
 5   0  0.6306919E-05  0.2203581E+04  0.7818609E-02  0.8516939E-01
       -2   -1    0    0    0  501  0.00000000000E+00  0.00000000000E+00  0.86602805880E+03  0.86602805880E+03  0.25500000920E-02 0.  1.
        2   -1    0    0  501    0  0.00000000000E+00  0.00000000000E+00 -0.14017359829E+04  0.14017359829E+04  0.25500000920E-02 0. -1.
    10030    2    1    2    0    0  0.00000000000E+00  0.00000000000E+00 -0.53570792410E+03  0.22677640417E+04  0.22035813506E+04 0.  0.
        3    1    3    3  502    0 -0.30284817278E+03  0.16443177352E+03 -0.13448474732E+04  0.13882973601E+04  0.10100000352E+00 0. -1.
       -3    1    3    3    0  502  0.30284817278E+03 -0.16443177352E+03  0.80913954907E+03  0.87946668156E+03  0.10100000352E+00 0.  1.
</event>
<event>
 5   0  0.2820239E-05  0.2202324E+04  0.7818609E-02  0.8517461E-01
        1   -1    0    0  501    0  0.00000000000E+00  0.00000000000E+00  0.17678487381E+04  0.17678487381E+04  0.50400001928E-02 0.  1.
       -1   -1    0    0    0  501  0.00000000000E+00  0.00000000000E+00 -0.68589454822E+03  0.68589454824E+03  0.50400001928E-02 0. -1.
    10030    2    1    2    0    0  0.00000000000E+00  0.00000000000E+00  0.10819541899E+04  0.24537432863E+04  0.22023240557E+04 0.  0.
        3    1    3    3  502    0 -0.37910433228E+02 -0.84289610762E+03  0.13293171681E+04  0.15744825159E+04  0.10100000352E+00 0.  1.
       -3    1    3    3    0  502  0.37910433228E+02  0.84289610762E+03 -0.24736297828E+03  0.87926077043E+03  0.10100000352E+00 0. -1.
</event>
<event>
 5   0  0.2910318E-05  0.2193640E+04  0.7818609E-02  0.8521080E-01
       -1   -1    0    0    0  501  0.00000000000E+00  0.00000000000E+00  0.11929197627E+04  0.11929197627E+04  0.50400001928E-02 0. -1.
        1   -1    0    0  501    0  0.00000000000E+00  0.00000000000E+00 -0.10084617272E+04  0.10084617272E+04  0.50400001928E-02 0.  1.
    10030    2    1    2    0    0  0.00000000000E+00  0.00000000000E+00  0.18445803550E+03  0.22013814899E+04  0.21936398285E+04 0.  0.
        5    1    3    3  502    0 -0.10019241446E+04  0.23450883385E+03 -0.28877579030E+03  0.10687656112E+04  0.46999998093E+01 0.  1.
       -5    1    3    3    0  502  0.10019241446E+04 -0.23450883385E+03  0.47323382580E+03  0.11326158787E+04  0.46999998093E+01 0. -1.
</event>
<event>
 5   0  0.2245375E-05  0.2200365E+04  0.7818609E-02  0.8518276E-01
        3   -1    0    0  501    0  0.00000000000E+00  0.00000000000E+00  0.15633093414E+04  0.15633093447E+04  0.10100000352E+00 0.  1.
       -3   -1    0    0    0  501  0.00000000000E+00  0.00000000000E+00 -0.77425589445E+03  0.77425590104E+03  0.10100000352E+00 0. -1.
    10030    2    1    2    0    0  0.00000000000E+00  0.00000000000E+00  0.78905344699E+03  0.23375652457E+04  0.22003649552E+04 0.  0.
        5    1    3    3  502    0  0.54291258964E+03  0.94520192200E+03  0.55288025921E+03  0.12222354210E+04  0.46999998093E+01 0. -1.
       -5    1    3    3    0  502 -0.54291258964E+03 -0.94520192200E+03  0.23617318778E+03  0.11153298247E+04  0.46999998093E+01 0.  1.
</event>
<event>
 5   0  0.2753631E-05  0.2186540E+04  0.7818609E-02  0.8524051E-01
        1   -1    0    0  501    0  0.00000000000E+00  0.00000000000E+00  0.86599629919E+03  0.86599629921E+03  0.50400001928E-02 0. -1.
       -1   -1    0    0    0  501  0.00000000000E+00  0.00000000000E+00 -0.13801896726E+04  0.13801896726E+04  0.50400001928E-02 0.  1.
    10030    2    1    2    0    0  0.00000000000E+00  0.00000000000E+00 -0.51419337343E+03  0.22461859718E+04  0.21865398681E+04 0.  0.
        4    1    3    3  502    0 -0.79540293472E+03 -0.21101358571E+03  0.48229070818E+03  0.95383358193E+03  0.12699999809E+01 0. -1.
       -4    1    3    3    0  502  0.79540293472E+03  0.21101358571E+03 -0.99648408161E+03  0.12923523899E+04  0.12699999809E+01 0.  1.
</event>
<event>
 5   0  0.6445740E-05  0.2227655E+04  0.7818609E-02  0.8507005E-01
        2   -1    0    0  501    0  0.00000000000E+00  0.00000000000E+00  0.17420916604E+04  0.17420916604E+04  0.25500000920E-02 0. -1.
       -2   -1    0    0    0  501  0.00000000000E+00  0.00000000000E+00 -0.71213925580E+03  0.71213925580E+03  0.25500000920E-02 0.  1.
    10030    2    1    2    0    0  0.00000000000E+00  0.00000000000E+00  0.10299524046E+04  0.24542309162E+04  0.22276551426E+04 0.  0.
        5    1    3    3  502    0  0.38923005008E+03  0.73799855833E+03  0.13278920915E+04  0.15682670056E+04  0.46999998093E+01 0. -1.
       -5    1    3    3    0  502 -0.38923005008E+03 -0.73799855833E+03 -0.29793968690E+03  0.88596391067E+03  0.46999998093E+01 0.  1.
</event>
<event>
 5   0  0.6414768E-05  0.2204339E+04  0.7818609E-02  0.8516624E-01
       -2   -1    0    0    0  501  0.00000000000E+00  0.00000000000E+00  0.81492545975E+03  0.81492545976E+03  0.25500000920E-02 0. -1.
        2   -1    0    0  501    0  0.00000000000E+00  0.00000000000E+00 -0.14906608967E+04  0.14906608967E+04  0.25500000920E-02 0.  1.
    10030    2    1    2    0    0  0.00000000000E+00  0.00000000000E+00 -0.67573543693E+03  0.23055863564E+04  0.22043389182E+04 0.  0.
        2    1    3    3  502    0 -0.64719537506E+03 -0.88967495128E+03 -0.26853468936E+03  0.11324726274E+04  0.25500000920E-02 0.  1.
       -2    1    3    3    0  502  0.64719537506E+03  0.88967495128E+03 -0.40720074757E+03  0.11731137290E+04  0.25500000920E-02 0. -1.
</event>
<event>
 5   0  0.6306919E-05  0.2217210E+04  0.7818609E-02  0.8511299E-01
       -2   -1    0    0    0  501  0.00000000000E+00  0.00000000000E+00  0.17843654528E+04  0.17843654528E+04  0.25500000920E-02 0.  1.
        2   -1    0    0  501    0  0.00000000000E+00  0.00000000000E+00 -0.68876324307E+03  0.68876324307E+03  0.25500000920E-02 0. -1.
    10030    2    1    2    0    0  0.00000000000E+00  0.00000000000E+00  0.10956022097E+04  0.24731286959E+04  0.22172102617E+04 0.  0.
        3    1    3    3  502    0  0.11045881675E+04 -0.94272559168E+02  0.54587215128E+03  0.12357098167E+04  0.10100000352E+00 0.  1.
       -3    1    3    3    0  502 -0.11045881675E+04  0.94272559168E+02  0.54973005847E+03  0.12374188792E+04  0.10100000352E+00 0. -1.
</event>
<event>
 5   0  0.6414768E-05  0.2219220E+04  0.7818609E-02  0.8510471E-01
        2   -1    0    0  501    0  0.00000000000E+00  0.00000000000E+00  0.14905279958E+04  0.14905279958E+04  0.25500000920E-02 0.  1.
       -2   -1    0    0    0  501  0.00000000000E+00  0.00000000000E+00 -0.82603930743E+03  0.82603930744E+03  0.25500000920E-02 0. -1.
    10030    2    1    2    0    0  0.00000000000E+00  0.00000000000E+00  0.66448868834E+03  0.23165673032E+04  0.22192203256E+04 0.  0.
        2    1    3    3  502    0  0.29847240765E+03  0.26015442560E+03  0.14142794891E+04  0.14686567253E+04  0.25500000920E-02 0.  1.
       -2    1    3    3    0  502 -0.29847240765E+03 -0.26015442560E+03 -0.74979080077E+03  0.84791057796E+03  0.25500000920E-02 0. -1.
</event>
<event>
 5   0  0.6306919E-05  0.2205806E+04  0.7818609E-02  0.8516015E-01
       -2   -1    0    0    0  501  0.00000000000E+00  0.00000000000E+00  0.69412598751E+03  0.69412598751E+03  0.25500000920E-02 0.  1.
        2   -1    0    0  501    0  0.00000000000E+00  0.00000000000E+00 -0.17524127606E+04  0.17524127606E+04  0.25500000920E-02 0. -1.
    10030    2    1    2    0    0  0.00000000000E+00  0.00000000000E+00 -0.10582867731E+04  0.24465387481E+04  0.22058061909E+04 0.  0.
        3    1    3    3  502    0  0.27539572471E+03  0.10537214599E+04 -0.33632112183E+03  0.11398612316E+04  0.10100000352E+00 0.  1.
       -3    1    3    3    0  502 -0.27539572471E+03 -0.10537214599E+04 -0.72196565123E+03  0.13066775164E+04  0.10100000352E+00 0. -1.
</event>
<event>
 5   0  0.6445740E-05  0.2169772E+04  0.7818609E-02  0.8531116E-01
       -2   -1    0    0    0  501  0.00000000000E+00  0.00000000000E+00  0.74255086885E+03  0.74255086885E+03  0.25500000920E-02 0.  1.
        2   -1    0    0  501    0  0.00000000000E+00  0.00000000000E+00 -0.15850469931E+04  0.15850469931E+04  0.25500000920E-02 0. -1.
    10030    2    1    2    0    0  0.00000000000E+00  0.00000000000E+00 -0.84249612424E+03  0.23275978619E+04  0.21697723585E+04 0.  0.
        5    1    3    3  502    0 -0.10470112604E+04 -0.21316329642E+03 -0.21974234605E+03  0.10908620257E+04  0.46999998093E+01 0.  1.
       -5    1    3    3    0  502  0.10470112604E+04  0.21316329642E+03 -0.62275377819E+03  0.12367358363E+04  0.46999998093E+01 0. -1.
</event>
<event>
 5   0  0.6628798E-05  0.2182120E+04  0.7818609E-02  0.8525907E-01
       -2   -1    0    0    0  501  0.00000000000E+00  0.00000000000E+00  0.12301387392E+04  0.12301387392E+04  0.25500000920E-02 0.  1.
        2   -1    0    0  501    0  0.00000000000E+00  0.00000000000E+00 -0.96770559408E+03  0.96770559408E+03  0.25500000920E-02 0. -1.
    10030    2    1    2    0    0  0.00000000000E+00  0.00000000000E+00  0.26243314514E+03  0.21978443333E+04  0.21821201978E+04 0.  0.
        4    1    3    3  502    0  0.98484067670E+03 -0.44379303300E+03 -0.23339859723E+02  0.10804673880E+04  0.12699999809E+01 0. -1.
       -4    1    3    3    0  502 -0.98484067670E+03  0.44379303300E+03  0.28577300486E+03  0.11173769453E+04  0.12699999809E+01 0.  1.
</event>
<event>
 5   0  0.6628798E-05  0.2213731E+04  0.7818609E-02  0.8512735E-01
        2   -1    0    0  501    0  0.00000000000E+00  0.00000000000E+00  0.11506377970E+04  0.11506377970E+04  0.25500000920E-02 0.  1.
       -2   -1    0    0    0  501  0.00000000000E+00  0.00000000000E+00 -0.10647583427E+04  0.10647583427E+04  0.25500000920E-02 0. -1.
    10030    2    1    2    0    0  0.00000000000E+00  0.00000000000E+00  0.85879454286E+02  0.22153961396E+04  0.22137309626E+04 0.  0.
        4    1    3    3  502    0  0.13965476371E+03 -0.73703525798E+03  0.85744699452E+03  0.11392723054E+04  0.12699999809E+01 0.  1.
       -4    1    3    3    0  502 -0.13965476371E+03  0.73703525798E+03 -0.77156754024E+03  0.10761238342E+04  0.12699999809E+01 0. -1.
</event>
<event>
 5   0  0.2908031E-05  0.2052746E+04  0.7818609E-02  0.8582349E-01
        1   -1    0    0  501    0  0.00000000000E+00  0.00000000000E+00  0.19951635583E+04  0.19951635583E+04  0.50400001928E-02 0. -1.
       -1   -1    0    0    0  501  0.00000000000E+00  0.00000000000E+00 -0.52799776096E+03  0.52799776098E+03  0.50400001928E-02 0.  1.
    10030    2    1    2    0    0  0.00000000000E+00  0.00000000000E+00  0.14671657973E+04  0.25231613193E+04  0.20527463473E+04 0.  0.
        1    1    3    3  502    0 -0.58007221913E+03 -0.13808248724E+03 -0.29325912626E+03  0.66449339188E+03  0.50400001928E-02 0.  1.
       -1    1    3    3    0  502  0.58007221913E+03  0.13808248724E+03  0.17604249236E+04  0.18586679274E+04  0.50400001928E-02 0. -1.
</event>
<event>
 5   0  0.6414768E-05  0.2174336E+04  0.7818609E-02  0.8529187E-01
        2   -1    0    0  501    0  0.00000000000E+00  0.00000000000E+00  0.13325965658E+04  0.13325965658E+04  0.25500000920E-02 0.  1.
       -2   -1    0    0    0  501  0.00000000000E+00  0.00000000000E+00 -0.88694067052E+03  0.88694067053E+03  0.25500000920E-02 0. -1.
    10030    2    1    2    0    0  0.00000000000E+00  0.00000000000E+00  0.44565589524E+03  0.22195372363E+04  0.21743358449E+04 0.  0.
        2    1    3    3  502    0 -0.86051872656E+02 -0.66576639247E+03 -0.65010106530E+03  0.93449516277E+03  0.25500000920E-02 0. -1.
       -2    1    3    3    0  502  0.86051872656E+02  0.66576639247E+03  0.10957569605E+04  0.12850420735E+04  0.25500000920E-02 0.  1.
</event>
<event>
 5   0  0.2910318E-05  0.2310717E+04  0.7818609E-02  0.8473708E-01
       -1   -1    0    0    0  501  0.00000000000E+00  0.00000000000E+00  0.67579455582E+03  0.67579455584E+03  0.50400001928E-02 0. -1.
        1   -1    0    0  501    0  0.00000000000E+00  0.00000000000E+00 -0.19752346807E+04  0.19752346807E+04  0.50400001928E-02 0.  1.
    10030    2    1    2    0    0  0.00000000000E+00  0.00000000000E+00 -0.12994401248E+04  0.26510292365E+04  0.23107166366E+04 0.  0.
        5    1    3    3  502    0  0.60222791899E+03  0.39940738384E+03 -0.16839406783E+04  0.18324527341E+04  0.46999998093E+01 0.  1.
       -5    1    3    3    0  502 -0.60222791899E+03 -0.39940738384E+03  0.38450055347E+03  0.81857650241E+03  0.46999998093E+01 0. -1.
</event>
<event>
 5   0  0.2753631E-05  0.2207183E+04  0.7818609E-02  0.8515444E-01
        1   -1    0    0  501    0  0.00000000000E+00  0.00000000000E+00  0.10192635926E+04  0.10192635926E+04  0.50400001928E-02 0. -1.
       -1   -1    0    0    0  501  0.00000000000E+00  0.00000000000E+00 -0.11948961614E+04  0.11948961614E+04  0.50400001928E-02 0.  1.
    10030    2    1    2    0    0  0.00000000000E+00  0.00000000000E+00 -0.17563256873E+03  0.22141597540E+04  0.22071829596E+04 0.  0.
        4    1    3    3  502    0 -0.10735681619E+04  0.10695790407E+03 -0.32076561476E+03  0.11255579878E+04  0.12699999809E+01 0.  1.
       -4    1    3    3    0  502  0.10735681619E+04 -0.10695790407E+03  0.14513304603E+03  0.10886017662E+04  0.12699999809E+01 0. -1.
</event>
<event>
 5   0  0.2910318E-05  0.2182609E+04  0.7818609E-02  0.8525702E-01
        1   -1    0    0  501    0  0.00000000000E+00  0.00000000000E+00  0.16138735630E+04  0.16138735630E+04  0.50400001928E-02 0.  1.
       -1   -1    0    0    0  501  0.00000000000E+00  0.00000000000E+00 -0.73794236300E+03  0.73794236302E+03  0.50400001928E-02 0. -1.
    10030    2    1    2    0    0  0.00000000000E+00  0.00000000000E+00  0.87593120003E+03  0.23518159261E+04  0.21826091457E+04 0.  0.
        5    1    3    3  502    0  0.40481025260E+03  0.11741626225E+03 -0.64668289722E+03  0.77193184855E+03  0.46999998093E+01 0. -1.
       -5    1    3    3    0  502 -0.40481025260E+03 -0.11741626225E+03  0.15226140973E+04  0.15798840775E+04  0.46999998093E+01 0.  1.
</event>
<event>
 5   0  0.6293013E-05  0.2217775E+04  0.7818609E-02  0.8511066E-01
       -2   -1    0    0    0  501  0.00000000000E+00  0.00000000000E+00  0.70975581115E+03  0.70975581116E+03  0.25500000920E-02 0.  1.
        2   -1    0    0  501    0  0.00000000000E+00  0.00000000000E+00 -0.17324706284E+04  0.17324706284E+04  0.25500000920E-02 0. -1.
    10030    2    1    2    0    0  0.00000000000E+00  0.00000000000E+00 -0.10227148172E+04  0.24422264396E+04  0.22177746469E+04 0.  0.
        1    1    3    3  502    0  0.77165326675E+03  0.55527605724E+02 -0.13861745136E+04  0.15874545226E+04  0.50400001928E-02 0. -1.
       -1    1    3    3    0  502 -0.77165326675E+03 -0.55527605724E+02  0.36345969638E+03  0.85477191695E+03  0.50400001928E-02 0.  1.
</event>
<event>
 5   0  0.6306919E-05  0.1902311E+04  0.7818609E-02  0.8653707E-01
       -2   -1    0    0    0  501  0.00000000000E+00  0.00000000000E+00  0.85597317297E+03  0.85597317297E+03  0.25500000920E-02 0. -1.
        2   -1    0    0  501    0  0.00000000000E+00  0.00000000000E+00 -0.10569224204E+04  0.10569224204E+04  0.25500000920E-02 0.  1.
    10030    2    1    2    0    0  0.00000000000E+00  0.00000000000E+00 -0.20094924746E+03  0.19128955934E+04  0.19023114759E+04 0.  0.
        3    1    3    3  502    0 -0.77232895716E+03 -0.52672000523E+03  0.75918713687E+02  0.93791771669E+03  0.10100000352E+00 0. -1.
       -3    1    3    3    0  502  0.77232895716E+03  0.52672000523E+03 -0.27686796115E+03  0.97497787672E+03  0.10100000352E+00 0.  1.
</event>
<event>
 5   0  0.6445740E-05  0.2184959E+04  0.7818609E-02  0.8524715E-01
        2   -1    0    0  501    0  0.00000000000E+00  0.00000000000E+00  0.15891209899E+04  0.15891209899E+04  0.25500000920E-02 0. -1.
       -2   -1    0    0    0  501  0.00000000000E+00  0.00000000000E+00 -0.75105137887E+03  0.75105137887E+03  0.25500000920E-02 0.  1.
    10030    2    1    2    0    0  0.00000000000E+00  0.00000000000E+00  0.83806961108E+03  0.23401723688E+04  0.21849590483E+04 0.  0.
        5    1    3    3  502    0  0.24613109959E+03 -0.45033173283E+03  0.14519668646E+04  0.15400029395E+04  0.46999998093E+01 0. -1.
       -5    1    3    3    0  502 -0.24613109959E+03  0.45033173283E+03 -0.61389725351E+03  0.80016942933E+03  0.46999998093E+01 0.  1.
</event>
<event>
 5   0  0.2910318E-05  0.2091188E+04  0.7818609E-02  0.8565135E-01
       -1   -1    0    0    0  501  0.00000000000E+00  0.00000000000E+00  0.13928820861E+04  0.13928820861E+04  0.50400001928E-02 0. -1.
        1   -1    0    0  501    0  0.00000000000E+00  0.00000000000E+00 -0.78489543321E+03  0.78489543322E+03  0.50400001928E-02 0.  1.
    10030    2    1    2    0    0  0.00000000000E+00  0.00000000000E+00  0.60798665290E+03  0.21777775193E+04  0.20911879766E+04 0.  0.
        5    1    3    3  502    0  0.77083767057E+02  0.98330073847E+03 -0.57395037258E+02  0.98799723164E+03  0.46999998093E+01 0.  1.
       -5    1    3    3    0  502 -0.77083767057E+02 -0.98330073847E+03  0.66538169016E+03  0.11897802877E+04  0.46999998093E+01 0. -1.
</event>
<event>
 5   0  0.6306919E-05  0.2229619E+04  0.7818609E-02  0.8506200E-01
        2   -1    0    0  501    0  0.00000000000E+00  0.00000000000E+00  0.28613026937E+04  0.28613026937E+04  0.25500000920E-02 0.  1.
       -2   -1    0    0    0  501  0.00000000000E+00  0.00000000000E+00 -0.43434774547E+03  0.43434774548E+03  0.25500000920E-02 0. -1.
    10030    2    1    2    0    0  0.00000000000E+00  0.00000000000E+00  0.24269549483E+04  0.32956504392E+04  0.22296191371E+04 0.  0.
        3    1    3    3  502    0  0.17858462999E+03  0.48894113424E+03  0.26706428376E+04  0.27208985793E+04  0.10100000352E+00 0.  1.
       -3    1    3    3    0  502 -0.17858462999E+03 -0.48894113424E+03 -0.24368788934E+03  0.57475185987E+03  0.10100000352E+00 0. -1.
</event>
<event>
 5   0  0.6628798E-05  0.2295706E+04  0.7818609E-02  0.8479616E-01
        2   -1    0    0  501    0  0.00000000000E+00  0.00000000000E+00  0.24738543925E+04  0.24738543925E+04  0.25500000920E-02 0.  1.
       -2   -1    0    0    0  501  0.00000000000E+00  0.00000000000E+00 -0.53259678052E+03  0.53259678053E+03  0.25500000920E-02 0. -1.
    10030    2    1    2    0    0  0.00000000000E+00  0.00000000000E+00  0.19412576119E+04  0.30064511730E+04  0.22957063270E+04 0.  0.
        4    1    3    3  502    0  0.59633012825E+03  0.56001747788E+03 -0.83850151006E+02  0.82235129849E+03  0.12699999809E+01 0. -1.
       -4    1    3    3    0  502 -0.59633012825E+03 -0.56001747788E+03  0.20251077629E+04  0.21840998745E+04  0.12699999809E+01 0.  1.
</event>
<event>
 5   0  0.6445740E-05  0.2187063E+04  0.7818609E-02  0.8523832E-01
       -2   -1    0    0    0  501  0.00000000000E+00  0.00000000000E+00  0.83682341630E+03  0.83682341630E+03  0.25500000920E-02 0.  1.
        2   -1    0    0  501    0  0.00000000000E+00  0.00000000000E+00 -0.14289885399E+04  0.14289885399E+04  0.25500000920E-02 0. -1.
    10030    2    1    2    0    0  0.00000000000E+00  0.00000000000E+00 -0.59216512356E+03  0.22658119562E+04  0.21870629363E+04 0.  0.
        5    1    3    3  502    0  0.35603155121E+03 -0.87034201379E+03  0.28216819785E+03  0.98178137500E+03  0.46999998093E+01 0.  1.
       -5    1    3    3    0  502 -0.35603155121E+03  0.87034201379E+03 -0.87433332141E+03  0.12840305812E+04  0.46999998093E+01 0. -1.
</event>
<event>
 5   0  0.2910318E-05  0.2207490E+04  0.7818609E-02  0.8515317E-01
       -1   -1    0    0    0  501  0.00000000000E+00  0.00000000000E+00  0.19611950057E+04  0.19611950058E+04  0.50400001928E-02 0. -1.
        1   -1    0    0  501    0  0.00000000000E+00  0.00000000000E+00 -0.62117899158E+03  0.62117899160E+03  0.50400001928E-02 0.  1.
    10030    2    1    2    0    0  0.00000000000E+00  0.00000000000E+00  0.13400160142E+04  0.25823739974E+04  0.22074901005E+04 0.  0.
        5    1    3    3  502    0  0.49465120980E+03  0.98476385026E+03  0.74203899465E+03  0.13285644959E+04  0.46999998093E+01 0. -1.
       -5    1    3    3    0  502 -0.49465120980E+03 -0.98476385026E+03  0.59797701951E+03  0.12538095015E+04  0.46999998093E+01 0.  1.
</event>
<event>
 5   0  0.6306919E-05  0.2202267E+04  0.7818609E-02  0.8517485E-01
       -2   -1    0    0    0  501  0.00000000000E+00  0.00000000000E+00  0.14219198809E+04  0.14219198809E+04  0.25500000920E-02 0. -1.
        2   -1    0    0  501    0  0.00000000000E+00  0.00000000000E+00 -0.85271647683E+03  0.85271647683E+03  0.25500000920E-02 0.  1.
    10030    2    1    2    0    0  0.00000000000E+00  0.00000000000E+00  0.56920340412E+03  0.22746363578E+04  0.22022665699E+04 0.  0.
        3    1    3    3  502    0 -0.32810272196E+03  0.82539832744E+03 -0.38760048637E+03  0.96910677551E+03  0.10100000352E+00 0.  1.
       -3    1    3    3    0  502  0.32810272196E+03 -0.82539832744E+03  0.95680389049E+03  0.13055295823E+04  0.10100000352E+00 0. -1.
</event>
<event>
 5   0  0.6293013E-05  0.2179869E+04  0.7818609E-02  0.8526854E-01
       -2   -1    0    0    0  501  0.00000000000E+00  0.00000000000E+00  0.71511220457E+03  0.71511220458E+03  0.25500000920E-02 0. -1.
        2   -1    0    0  501    0  0.00000000000E+00  0.00000000000E+00 -0.16612173376E+04  0.16612173376E+04  0.25500000920E-02 0.  1.
    10030    2    1    2    0    0  0.00000000000E+00  0.00000000000E+00 -0.94610513304E+03  0.23763295422E+04  0.21798686131E+04 0.  0.
        1    1    3    3  502    0  0.67050378450E+03 -0.54080847690E+03 -0.12009979813E+04  0.14779869028E+04  0.50400001928E-02 0.  1.
       -1    1    3    3    0  502 -0.67050378450E+03  0.54080847690E+03  0.25489284823E+03  0.89834263943E+03  0.50400001928E-02 0. -1.
</event>
<event>
 5   0  0.6628798E-05  0.2195063E+04  0.7818609E-02  0.8520486E-01
       -2   -1    0    0    0  501  0.00000000000E+00  0.00000000000E+00  0.46171948479E+03  0.46171948480E+03  0.25500000920E-02 0.  1.
        2   -1    0    0  501    0  0.00000000000E+00  0.00000000000E+00 -0.26088890479E+04  0.26088890479E+04  0.25500000920E-02 0. -1.
    10030    2    1    2    0    0  0.00000000000E+00  0.00000000000E+00 -0.21471695631E+04  0.30706085327E+04  0.21950625568E+04 0.  0.
        4    1    3    3  502    0 -0.39642126005E+03  0.78741326759E+03 -0.19881122470E+04  0.21748014596E+04  0.12699999809E+01 0. -1.
       -4    1    3    3    0  502  0.39642126005E+03 -0.78741326759E+03 -0.15905731612E+03  0.89580707304E+03  0.12699999809E+01 0.  1.
</event>
<event>
 5   0  0.6293013E-05  0.2197092E+04  0.7818609E-02  0.8519640E-01
       -2   -1    0    0    0  501  0.00000000000E+00  0.00000000000E+00  0.68204952092E+03  0.68204952093E+03  0.25500000920E-02 0. -1.
        2   -1    0    0  501    0  0.00000000000E+00  0.00000000000E+00 -0.17693776642E+04  0.17693776642E+04  0.25500000920E-02 0.  1.
    10030    2    1    2    0    0  0.00000000000E+00  0.00000000000E+00 -0.10873281433E+04  0.24514271851E+04  0.21970918854E+04 0.  0.
        1    1    3    3  502    0  0.73514403890E+03  0.28536278991E+03  0.30968043982E+03  0.84721346462E+03  0.50400001928E-02 0. -1.
       -1    1    3    3    0  502 -0.73514403890E+03 -0.28536278991E+03 -0.13970085831E+04  0.16042137205E+04  0.50400001928E-02 0.  1.
</event>
<event>
 5   0  0.6306919E-05  0.2214705E+04  0.7818609E-02  0.8512332E-01
        2   -1    0    0  501    0  0.00000000000E+00  0.00000000000E+00  0.31867824367E+04  0.31867824367E+04  0.25500000920E-02 0.  1.
       -2   -1    0    0    0  501  0.00000000000E+00  0.00000000000E+00 -0.38478616466E+03  0.38478616467E+03  0.25500000920E-02 0. -1.
    10030    2    1    2    0    0  0.00000000000E+00  0.00000000000E+00  0.28019962721E+04  0.35715686014E+04  0.22147052097E+04 0.  0.
        3    1    3    3  502    0  0.99134665313E+03 -0.20230372592E+03  0.21267579106E+04  0.23551633074E+04  0.10100000352E+00 0. -1.
       -3    1    3    3    0  502 -0.99134665313E+03  0.20230372592E+03  0.67523836146E+03  0.12164052940E+04  0.10100000352E+00 0.  1.
</event>
<event>
 5   0  0.6414768E-05  0.2209156E+04  0.7818609E-02  0.8514627E-01
       -2   -1    0    0    0  501  0.00000000000E+00  0.00000000000E+00  0.17814852587E+04  0.17814852587E+04  0.25500000920E-02 0. -1.
        2   -1    0    0  501    0  0.00000000000E+00  0.00000000000E+00 -0.68487393876E+03  0.68487393877E+03  0.25500000920E-02 0.  1.
    10030    2    1    2    0    0  0.00000000000E+00  0.00000000000E+00  0.10966113200E+04  0.24663591975E+04  0.22091562425E+04 0.  0.
        2    1    3    3  502    0  0.10506286738E+04  0.28391261402E+03  0.33746413767E+03  0.11394336430E+04  0.25500000920E-02 0.  1.
       -2    1    3    3    0  502 -0.10506286738E+04 -0.28391261402E+03  0.75914718229E+03  0.13269255545E+04  0.25500000920E-02 0. -1.
</event>
<event>
 5   0  0.6293013E-05  0.2234462E+04  0.7818609E-02  0.8504220E-01
        2   -1    0    0  501    0  0.00000000000E+00  0.00000000000E+00  0.12883533682E+04  0.12883533682E+04  0.25500000920E-02 0. -1.
       -2   -1    0    0    0  501  0.00000000000E+00  0.00000000000E+00 -0.96883785522E+03  0.96883785522E+03  0.25500000920E-02 0.  1.
    10030    2    1    2    0    0  0.00000000000E+00  0.00000000000E+00  0.31951551303E+03  0.22571912235E+04  0.22344623640E+04 0.  0.
        1    1    3    3  502    0 -0.19864839213E+02 -0.26462963227E+03  0.12560536222E+04  0.12837811947E+04  0.50400001928E-02 0. -1.
       -1    1    3    3    0  502  0.19864839213E+02  0.26462963227E+03 -0.93653810916E+03  0.97341002874E+03  0.50400001928E-02 0.  1.
</event>
<event>
 5   0  0.6414768E-05  0.2185651E+04  0.7818609E-02  0.8524424E-01
        2   -1    0    0  501    0  0.00000000000E+00  0.00000000000E+00  0.15190060271E+04  0.15190060271E+04  0.25500000920E-02 0. -1.
       -2   -1    0    0    0  501  0.00000000000E+00  0.00000000000E+00 -0.78621644952E+03  0.78621644952E+03  0.25500000920E-02 0.  1.
    10030    2    1    2    0    0  0.00000000000E+00  0.00000000000E+00  0.73278957754E+03  0.23052224766E+04  0.21856509560E+04 0.  0.
        2    1    3    3  502    0 -0.72395218584E+03  0.46890413312E+03 -0.34135220147E+03  0.92763094973E+03  0.25500000920E-02 0.  1.
       -2    1    3    3    0  502  0.72395218584E+03 -0.46890413312E+03  0.10741417790E+04  0.13775915269E+04  0.25500000920E-02 0. -1.
</event>
<event>
 5   0  0.2908031E-05  0.2192548E+04  0.7818609E-02  0.8521536E-01
        1   -1    0    0  501    0  0.00000000000E+00  0.00000000000E+00  0.10192535677E+04  0.10192535677E+04  0.50400001928E-02 0.  1.
       -1   -1    0    0    0  501  0.00000000000E+00  0.00000000000E+00 -0.11791148257E+04  0.11791148257E+04  0.50400001928E-02 0. -1.
    10030    2    1    2    0    0  0.00000000000E+00  0.00000000000E+00 -0.15986125801E+03  0.21983683933E+04  0.21925482825E+04 0.  0.
        1    1    3    3  502    0  0.10545471224E+03  0.10964689264E+02  0.10141010069E+04  0.10196282523E+04  0.50400001928E-02 0.  1.
       -1    1    3    3    0  502 -0.10545471224E+03 -0.10964689264E+02 -0.11739622649E+04  0.11787401410E+04  0.50400001928E-02 0. -1.
</event>
<event>
 5   0  0.2929471E-05  0.2635042E+04  0.7818609E-02  0.8356395E-01
        1   -1    0    0  501    0  0.00000000000E+00  0.00000000000E+00  0.13480039832E+04  0.13480039832E+04  0.50400001928E-02 0.  1.
       -1   -1    0    0    0  501  0.00000000000E+00  0.00000000000E+00 -0.12877274207E+04  0.12877274207E+04  0.50400001928E-02 0. -1.
    10030    2    1    2    0    0  0.00000000000E+00  0.00000000000E+00  0.60276562574E+02  0.26357314039E+04  0.26350420812E+04 0.  0.
        2    1    3    3  502    0 -0.16180033702E+03 -0.23182391989E+03 -0.12570316800E+04  0.12884294018E+04  0.25500000920E-02 0. -1.
       -2    1    3    3    0  502  0.16180033702E+03  0.23182391989E+03  0.13173082426E+04  0.13473020021E+04  0.25500000920E-02 0.  1.
</event>
<event>
 5   0  0.2753631E-05  0.2195946E+04  0.7818609E-02  0.8520117E-01
       -1   -1    0    0    0  501  0.00000000000E+00  0.00000000000E+00  0.67231400016E+03  0.67231400018E+03  0.50400001928E-02 0. -1.
        1   -1    0    0  501    0  0.00000000000E+00  0.00000000000E+00 -0.17931279502E+04  0.17931279502E+04  0.50400001928E-02 0.  1.
    10030    2    1    2    0    0  0.00000000000E+00  0.00000000000E+00 -0.11208139500E+04  0.24654419504E+04  0.21959462881E+04 0.  0.
        4    1    3    3  502    0  0.12791176443E+03  0.67657264857E+03  0.39978900054E+03  0.79620652228E+03  0.12699999809E+01 0. -1.
       -4    1    3    3    0  502 -0.12791176443E+03 -0.67657264857E+03 -0.15206029505E+04  0.16692354281E+04  0.12699999809E+01 0.  1.
</event>
<event>
 5   0  0.2910318E-05  0.2202550E+04  0.7818609E-02  0.8517368E-01
        1   -1    0    0  501    0  0.00000000000E+00  0.00000000000E+00  0.11047157817E+04  0.11047157817E+04  0.50400001928E-02 0. -1.
       -1   -1    0    0    0  501  0.00000000000E+00  0.00000000000E+00 -0.10978444970E+04  0.10978444971E+04  0.50400001928E-02 0.  1.
    10030    2    1    2    0    0  0.00000000000E+00  0.00000000000E+00  0.68712846579E+01  0.22025602788E+04  0.22025495606E+04 0.  0.
        5    1    3    3  502    0  0.31457442205E+03 -0.67886267607E+02 -0.10497638805E+04  0.10979944932E+04  0.46999998093E+01 0.  1.
       -5    1    3    3    0  502 -0.31457442205E+03  0.67886267607E+02  0.10566351652E+04  0.11045657855E+04  0.46999998093E+01 0. -1.
</event>
<event>
 5   0  0.6306919E-05  0.2351918E+04  0.7818609E-02  0.8457727E-01
        2   -1    0    0  501    0  0.00000000000E+00  0.00000000000E+00  0.20099391498E+04  0.20099391498E+04  0.25500000920E-02 0.  1.
       -2   -1    0    0    0  501  0.00000000000E+00  0.00000000000E+00 -0.68802033469E+03  0.68802033469E+03  0.25500000920E-02 0. -1.
    10030    2    1    2    0    0  0.00000000000E+00  0.00000000000E+00  0.13219188151E+04  0.26979594845E+04  0.23519175211E+04 0.  0.
        3    1    3    3  502    0 -0.27312580422E+03  0.20148327641E+02  0.19728466569E+04  0.19917649465E+04  0.10100000352E+00 0.  1.
       -3    1    3    3    0  502  0.27312580422E+03 -0.20148327641E+02 -0.65092784184E+03  0.70619453801E+03  0.10100000352E+00 0. -1.
</event>
<event>
 5   0  0.6306919E-05  0.2188226E+04  0.7818609E-02  0.8523345E-01
       -2   -1    0    0    0  501  0.00000000000E+00  0.00000000000E+00  0.86161806223E+03  0.86161806223E+03  0.25500000920E-02 0. -1.
        2   -1    0    0  501    0  0.00000000000E+00  0.00000000000E+00 -0.13893436378E+04  0.13893436378E+04  0.25500000920E-02 0.  1.
    10030    2    1    2    0    0  0.00000000000E+00  0.00000000000E+00 -0.52772557552E+03  0.22509617000E+04  0.21882262890E+04 0.  0.
        3    1    3    3  502    0  0.14695908168E+03 -0.10817281391E+04 -0.18861630361E+03  0.11078397261E+04  0.10100000352E+00 0.  1.
       -3    1    3    3    0  502 -0.14695908168E+03  0.10817281391E+04 -0.33910927192E+03  0.11431219739E+04  0.10100000352E+00 0. -1.
</event>
<event>
 5   0  0.2820239E-05  0.2229865E+04  0.7818609E-02  0.8506099E-01
       -1   -1    0    0    0  501  0.00000000000E+00  0.00000000000E+00  0.85622562637E+03  0.85622562639E+03  0.50400001928E-02 0.  1.
        1   -1    0    0  501    0  0.00000000000E+00  0.00000000000E+00 -0.14518074837E+04  0.14518074837E+04  0.50400001928E-02 0. -1.
    10030    2    1    2    0    0  0.00000000000E+00  0.00000000000E+00 -0.59558185734E+03  0.23080331101E+04  0.22298652624E+04 0.  0.
        3    1    3    3  502    0 -0.47072897514E+03  0.47247302814E+03 -0.12225638736E+04  0.13926517747E+04  0.10100000352E+00 0. -1.
       -3    1    3    3    0  502  0.47072897514E+03 -0.47247302814E+03  0.62698201624E+03  0.91538133543E+03  0.10100000352E+00 0.  1.
</event>
<event>
 5   0  0.2753631E-05  0.2199896E+04  0.7818609E-02  0.8518471E-01
        1   -1    0    0  501    0  0.00000000000E+00  0.00000000000E+00  0.13146895691E+04  0.13146895691E+04  0.50400001928E-02 0.  1.
       -1   -1    0    0    0  501  0.00000000000E+00  0.00000000000E+00 -0.92028251150E+03  0.92028251151E+03  0.50400001928E-02 0. -1.
    10030    2    1    2    0    0  0.00000000000E+00  0.00000000000E+00  0.39440705762E+03  0.22349720806E+04  0.21998961962E+04 0.  0.
        4    1    3    3  502    0  0.21249157716E+03 -0.83008240890E+03  0.89790670065E+03  0.12411396102E+04  0.12699999809E+01 0.  1.
       -4    1    3    3    0  502 -0.21249157716E+03  0.83008240890E+03 -0.50349964303E+03  0.99383247048E+03  0.12699999809E+01 0. -1.
</event>
<event>
 5   0  0.2910318E-05  0.2193111E+04  0.7818609E-02  0.8521301E-01
       -1   -1    0    0    0  501  0.00000000000E+00  0.00000000000E+00  0.71294058069E+03  0.71294058071E+03  0.50400001928E-02 0.  1.
        1   -1    0    0  501    0  0.00000000000E+00  0.00000000000E+00 -0.16865836424E+04  0.16865836424E+04  0.50400001928E-02 0. -1.
    10030    2    1    2    0    0  0.00000000000E+00  0.00000000000E+00 -0.97364306167E+03  0.23995242231E+04  0.21931109606E+04 0.  0.
        5    1    3    3  502    0  0.33020101687E+03 -0.77831439739E+03 -0.12508314073E+04  0.15097706158E+04  0.46999998093E+01 0. -1.
       -5    1    3    3    0  502 -0.33020101687E+03  0.77831439739E+03  0.27718834565E+03  0.88975360729E+03  0.46999998093E+01 0.  1.
</event>
<event>
 5   0  0.6628798E-05  0.2190909E+04  0.7818609E-02  0.8522221E-01
       -2   -1    0    0    0  501  0.00000000000E+00  0.00000000000E+00  0.91954400127E+03  0.91954400127E+03  0.25500000920E-02 0. -1.
        2   -1    0    0  501    0  0.00000000000E+00  0.00000000000E+00 -0.13050172439E+04  0.13050172439E+04  0.25500000920E-02 0.  1.
    10030    2    1    2    0    0  0.00000000000E+00  0.00000000000E+00 -0.38547324260E+03  0.22245612451E+04  0.21909091977E+04 0.  0.
        4    1    3    3  502    0 -0.50106541701E+03 -0.90948981691E+03 -0.54706795033E+03  0.11736793576E+04  0.12699999809E+01 0.  1.
       -4    1    3    3    0  502  0.50106541701E+03  0.90948981691E+03  0.16159470773E+03  0.10508818876E+04  0.12699999809E+01 0. -1.
</event>
<event>
 5   0  0.6628798E-05  0.2209692E+04  0.7818609E-02  0.8514405E-01
        2   -1    0    0  501    0  0.00000000000E+00  0.00000000000E+00  0.16243322616E+04  0.16243322616E+04  0.25500000920E-02 0. -1.
       -2   -1    0    0    0  501  0.00000000000E+00  0.00000000000E+00 -0.75149941590E+03  0.75149941590E+03  0.25500000920E-02 0.  1.
    10030    2    1    2    0    0  0.00000000000E+00  0.00000000000E+00  0.87283284570E+03  0.23758316775E+04  0.22096920562E+04 0.  0.
        4    1    3    3  502    0 -0.96242178248E+03  0.54221975310E+03  0.45858678641E+03  0.11960607851E+04  0.12699999809E+01 0. -1.
       -4    1    3    3    0  502  0.96242178248E+03 -0.54221975310E+03  0.41424605929E+03  0.11797708924E+04  0.12699999809E+01 0.  1.
</event>
<event>
 5   0  0.6306919E-05  0.2225242E+04  0.7818609E-02  0.8507995E-01
       -2   -1    0    0    0  501  0.00000000000E+00  0.00000000000E+00  0.11442619860E+04  0.11442619860E+04  0.25500000920E-02 0.  1.
        2   -1    0    0  501    0  0.00000000000E+00  0.00000000000E+00 -0.10818553306E+04  0.10818553306E+04  0.25500000920E-02 0. -1.
    10030    2    1    2    0    0  0.00000000000E+00  0.00000000000E+00  0.62406655386E+02  0.22261173166E+04  0.22252423950E+04 0.  0.
        3    1    3    3  502    0 -0.41069888230E+03 -0.27914817200E+03  0.10272496822E+04  0.11409816798E+04  0.10100000352E+00 0.  1.
       -3    1    3    3    0  502  0.41069888230E+03  0.27914817200E+03 -0.96484302677E+03  0.10851356368E+04  0.10100000352E+00 0. -1.
</event>
<event>
 5   0  0.2908031E-05  0.2198565E+04  0.7818609E-02  0.8519025E-01
        1   -1    0    0  501    0  0.00000000000E+00  0.00000000000E+00  0.80584861487E+03  0.80584861488E+03  0.50400001928E-02 0. -1.
       -1   -1    0    0    0  501  0.00000000000E+00  0.00000000000E+00 -0.14995650551E+04  0.14995650551E+04  0.50400001928E-02 0.  1.
    10030    2    1    2    0    0  0.00000000000E+00  0.00000000000E+00 -0.69371644026E+03  0.23054136700E+04  0.21985653710E+04 0.  0.
        1    1    3    3  502    0 -0.40770239908E+03 -0.96266685671E+03  0.94706579072E+01  0.10454847759E+04  0.50400001928E-02 0.  1.
       -1    1    3    3    0  502  0.40770239908E+03  0.96266685671E+03 -0.70318709817E+03  0.12599288941E+04  0.50400001928E-02 0. -1.
</event>
<event>
 5   0  0.6628798E-05  0.2207335E+04  0.7818609E-02  0.8515381E-01
        2   -1    0    0  501    0  0.00000000000E+00  0.00000000000E+00  0.80493609565E+03  0.80493609565E+03  0.25500000920E-02 0. -1.
       -2   -1    0    0    0  501  0.00000000000E+00  0.00000000000E+00 -0.15132650386E+04  0.15132650386E+04  0.25500000920E-02 0.  1.
    10030    2    1    2    0    0  0.00000000000E+00  0.00000000000E+00 -0.70832894291E+03  0.23182011342E+04  0.22073347293E+04 0.  0.
        4    1    3    3  502    0 -0.20835722560E+03 -0.87032439275E+03  0.32418970377E+03  0.95182869205E+03  0.12699999809E+01 0. -1.
       -4    1    3    3    0  502  0.20835722560E+03  0.87032439275E+03 -0.10325186467E+04  0.13663724422E+04  0.12699999809E+01 0.  1.
</event>
<event>
 5   0  0.2753631E-05  0.2173496E+04  0.7818609E-02  0.8529541E-01
       -1   -1    0    0    0  501  0.00000000000E+00  0.00000000000E+00  0.82210405726E+03  0.82210405728E+03  0.50400001928E-02 0.  1.
        1   -1    0    0  501    0  0.00000000000E+00  0.00000000000E+00 -0.14365835277E+04  0.14365835277E+04  0.50400001928E-02 0. -1.
    10030    2    1    2    0    0  0.00000000000E+00  0.00000000000E+00 -0.61447947043E+03  0.22586875850E+04  0.21734959367E+04 0.  0.
        4    1    3    3  502    0 -0.11402235738E+03 -0.15177897290E+01  0.81586886448E+03  0.82380035117E+03  0.12699999809E+01 0.  1.
       -4    1    3    3    0  502  0.11402235738E+03  0.15177897290E+01 -0.14303483349E+04  0.14348872338E+04  0.12699999809E+01 0. -1.
</event>
<event>
 5   0  0.6293013E-05  0.2175903E+04  0.7818609E-02  0.8528525E-01
        2   -1    0    0  501    0  0.00000000000E+00  0.00000000000E+00  0.11634198317E+04  0.11634198317E+04  0.25500000920E-02 0.  1.
       -2   -1    0    0    0  501  0.00000000000E+00  0.00000000000E+00 -0.10173783300E+04  0.10173783300E+04  0.25500000920E-02 0. -1.
    10030    2    1    2    0    0  0.00000000000E+00  0.00000000000E+00  0.14604150173E+03  0.21807981617E+04  0.21759026867E+04 0.  0.
        1    1    3    3  502    0 -0.90164092971E+03 -0.60148063921E+02 -0.53420038874E+03  0.10497353052E+04  0.50400001928E-02 0. -1.
       -1    1    3    3    0  502  0.90164092971E+03  0.60148063921E+02  0.68024189048E+03  0.11310628565E+04  0.50400001928E-02 0.  1.
</event>
<event>
 5   0  0.6445740E-05  0.2206543E+04  0.7818609E-02  0.8515710E-01
        2   -1    0    0  501    0  0.00000000000E+00  0.00000000000E+00  0.17191163953E+04  0.17191163953E+04  0.25500000920E-02 0. -1.
       -2   -1    0    0    0  501  0.00000000000E+00  0.00000000000E+00 -0.70804274493E+03  0.70804274493E+03  0.25500000920E-02 0.  1.
    10030    2    1    2    0    0  0.00000000000E+00  0.00000000000E+00  0.10110736504E+04  0.24271591402E+04  0.22065428991E+04 0.  0.
        5    1    3    3  502    0  0.47119333672E+03 -0.82768233985E+03 -0.10701095579E+03  0.95841256822E+03  0.46999998093E+01 0.  1.
       -5    1    3    3    0  502 -0.47119333672E+03  0.82768233985E+03  0.11180846062E+04  0.14687465720E+04  0.46999998093E+01 0. -1.
</event>
<event>
 5   0  0.2908031E-05  0.2229710E+04  0.7818609E-02  0.8506163E-01
       -1   -1    0    0    0  501  0.00000000000E+00  0.00000000000E+00  0.69382105391E+03  0.69382105393E+03  0.50400001928E-02 0.  1.
        1   -1    0    0  501    0  0.00000000000E+00  0.00000000000E+00 -0.17913868693E+04  0.17913868693E+04  0.50400001928E-02 0. -1.
    10030    2    1    2    0    0  0.00000000000E+00  0.00000000000E+00 -0.10975658154E+04  0.24852079233E+04  0.22297102284E+04 0.  0.
        1    1    3    3  502    0  0.77942210199E+03  0.41104885693E+03 -0.13100080157E+04  0.15787909859E+04  0.50400001928E-02 0. -1.
       -1    1    3    3    0  502 -0.77942210199E+03 -0.41104885693E+03  0.21244220029E+03  0.90641693737E+03  0.50400001928E-02 0.  1.
</event>
<event>
 5   0  0.2908031E-05  0.2199110E+04  0.7818609E-02  0.8518799E-01
        1   -1    0    0  501    0  0.00000000000E+00  0.00000000000E+00  0.13264153242E+04  0.13264153242E+04  0.50400001928E-02 0. -1.
       -1   -1    0    0    0  501  0.00000000000E+00  0.00000000000E+00 -0.91149482930E+03  0.91149482931E+03  0.50400001928E-02 0.  1.
    10030    2    1    2    0    0  0.00000000000E+00  0.00000000000E+00  0.41492049488E+03  0.22379101535E+04  0.21991095557E+04 0.  0.
        1    1    3    3  502    0 -0.40880791533E+03  0.84314765278E+03  0.79293613363E+03  0.12275054330E+04  0.50400001928E-02 0. -1.
       -1    1    3    3    0  502  0.40880791533E+03 -0.84314765278E+03 -0.37801563876E+03  0.10104047205E+04  0.50400001928E-02 0.  1.
</event>
<event>
 5   0  0.2753631E-05  0.2183960E+04  0.7818609E-02  0.8525134E-01
        1   -1    0    0  501    0  0.00000000000E+00  0.00000000000E+00  0.14917866332E+04  0.14917866332E+04  0.50400001928E-02 0. -1.
       -1   -1    0    0    0  501  0.00000000000E+00  0.00000000000E+00 -0.79932362266E+03  0.79932362268E+03  0.50400001928E-02 0.  1.
    10030    2    1    2    0    0  0.00000000000E+00  0.00000000000E+00  0.69246301057E+03  0.22911102559E+04  0.21839599776E+04 0.  0.
        4    1    3    3  502    0  0.10472476700E+04  0.19263261366E+03  0.92315763031E+02  0.10688118727E+04  0.12699999809E+01 0.  1.
       -4    1    3    3    0  502 -0.10472476700E+04 -0.19263261366E+03  0.60014724754E+03  0.12222983833E+04  0.12699999809E+01 0. -1.
</event>
<event>
 5   0  0.6628798E-05  0.2188351E+04  0.7818609E-02  0.8523292E-01
       -2   -1    0    0    0  501  0.00000000000E+00  0.00000000000E+00  0.71161818322E+03  0.71161818323E+03  0.25500000920E-02 0.  1.
        2   -1    0    0  501    0  0.00000000000E+00  0.00000000000E+00 -0.16823904931E+04  0.16823904931E+04  0.25500000920E-02 0. -1.
    10030    2    1    2    0    0  0.00000000000E+00  0.00000000000E+00 -0.97077230988E+03  0.23940086763E+04  0.21883506722E+04 0.  0.
        4    1    3    3  502    0 -0.48784138449E+03 -0.28895407723E+02  0.58559251655E+03  0.76272168538E+03  0.12699999809E+01 0.  1.
       -4    1    3    3    0  502  0.48784138449E+03  0.28895407723E+02 -0.15563648264E+04  0.16312869910E+04  0.12699999809E+01 0. -1.
</event>
<event>
 5   0  0.2908031E-05  0.2205397E+04  0.7818609E-02  0.8516185E-01
       -1   -1    0    0    0  501  0.00000000000E+00  0.00000000000E+00  0.95626728247E+03  0.95626728248E+03  0.50400001928E-02 0.  1.
        1   -1    0    0  501    0  0.00000000000E+00  0.00000000000E+00 -0.12715526043E+04  0.12715526043E+04  0.50400001928E-02 0. -1.
    10030    2    1    2    0    0  0.00000000000E+00  0.00000000000E+00 -0.31528532183E+03  0.22278198868E+04  0.22053971556E+04 0.  0.
        1    1    3    3  502    0 -0.83588099613E+03  0.39210529824E+03  0.45139731800E+03  0.10277174433E+04  0.50400001928E-02 0.  1.
       -1    1    3    3    0  502  0.83588099613E+03 -0.39210529824E+03 -0.76668263983E+03  0.12001024435E+04  0.50400001928E-02 0. -1.
</event>
<event>
 5   0  0.6293013E-05  0.2193941E+04  0.7818609E-02  0.8520954E-01
        2   -1    0    0  501    0  0.00000000000E+00  0.00000000000E+00  0.14564062850E+04  0.14564062850E+04  0.25500000920E-02 0. -1.
       -2   -1    0    0    0  501  0.00000000000E+00  0.00000000000E+00 -0.82624231577E+03  0.82624231577E+03  0.25500000920E-02 0.  1.
    10030    2    1    2    0    0  0.00000000000E+00  0.00000000000E+00  0.63016396926E+03  0.22826486008E+04  0.21939412040E+04 0.  0.
        1    1    3    3  502    0 -0.48799071219E+03  0.96592063790E+03  0.12836300957E+03  0.10897773516E+04  0.50400001928E-02 0. -1.
       -1    1    3    3    0  502  0.48799071219E+03 -0.96592063790E+03  0.50180095970E+03  0.11928712492E+04  0.50400001928E-02 0.  1.
</event>
<event>
 5   0  0.2245375E-05  0.2160758E+04  0.7818609E-02  0.8534941E-01
       -3   -1    0    0    0  501  0.00000000000E+00  0.00000000000E+00  0.84559513864E+03  0.84559514467E+03  0.10100000352E+00 0. -1.
        3   -1    0    0  501    0  0.00000000000E+00  0.00000000000E+00 -0.13803519003E+04  0.13803519040E+04  0.10100000352E+00 0.  1.
    10030    2    1    2    0    0  0.00000000000E+00  0.00000000000E+00 -0.53475676163E+03  0.22259470486E+04  0.21607580774E+04 0.  0.
        3    1    3    3  502    0  0.47784729460E+03 -0.15049517099E+03  0.71869995472E+03  0.87608017245E+03  0.10100000352E+00 0. -1.
       -3    1    3    3    0  502 -0.47784729460E+03  0.15049517099E+03 -0.12534567164E+04  0.13498668762E+04  0.10100000352E+00 0.  1.
</event>
<event>
 5   0  0.2910318E-05  0.2123552E+04  0.7818609E-02  0.8550939E-01
       -1   -1    0    0    0  501  0.00000000000E+00  0.00000000000E+00  0.71077797786E+03  0.71077797788E+03  0.50400001928E-02 0. -1.
        1   -1    0    0  501    0  0.00000000000E+00  0.00000000000E+00 -0.15861039335E+04  0.15861039336E+04  0.50400001928E-02 0.  1.
    10030    2    1    2    0    0  0.00000000000E+00  0.00000000000E+00 -0.87532595569E+03  0.22968819114E+04  0.21235515031E+04 0.  0.
        5    1    3    3  502    0 -0.73860907294E+03 -0.42340165803E+03 -0.11239041837E+04  0.14099627764E+04  0.46999998093E+01 0.  1.
       -5    1    3    3    0  502  0.73860907294E+03  0.42340165803E+03  0.24857822802E+03  0.88691913504E+03  0.46999998093E+01 0. -1.
</event>
<event>
 5   0  0.6306919E-05  0.2236465E+04  0.7818609E-02  0.8503402E-01
       -2   -1    0    0    0  501  0.00000000000E+00  0.00000000000E+00  0.96875932494E+03  0.96875932495E+03  0.25500000920E-02 0. -1.
        2   -1    0    0  501    0  0.00000000000E+00  0.00000000000E+00 -0.12907679990E+04  0.12907679990E+04  0.25500000920E-02 0.  1.
    10030    2    1    2    0    0  0.00000000000E+00  0.00000000000E+00 -0.32200867402E+03  0.22595273239E+04  0.22364646524E+04 0.  0.
        3    1    3    3  502    0 -0.79282935836E+02 -0.51929116617E+03 -0.11583489327E+04  0.12718967565E+04  0.10100000352E+00 0.  1.
       -3    1    3    3    0  502  0.79282935836E+02  0.51929116617E+03  0.83634025867E+03  0.98763056739E+03  0.10100000352E+00 0. -1.
</event>
<event>
 5   0  0.2908031E-05  0.2120467E+04  0.7818609E-02  0.8552281E-01
       -1   -1    0    0    0  501  0.00000000000E+00  0.00000000000E+00  0.70820894257E+03  0.70820894259E+03  0.50400001928E-02 0.  1.
        1   -1    0    0  501    0  0.00000000000E+00  0.00000000000E+00 -0.15872358442E+04  0.15872358442E+04  0.50400001928E-02 0. -1.
    10030    2    1    2    0    0  0.00000000000E+00  0.00000000000E+00 -0.87902690166E+03  0.22954447868E+04  0.21204665702E+04 0.  0.
        1    1    3    3  502    0 -0.13196485197E+03 -0.99453311517E+03 -0.81071444336E+03  0.12898716014E+04  0.50400001928E-02 0. -1.
       -1    1    3    3    0  502  0.13196485197E+03  0.99453311517E+03 -0.68312458299E+02  0.10055731855E+04  0.50400001928E-02 0.  1.
</event>
<event>
 5   0  0.2910318E-05  0.2225118E+04  0.7818609E-02  0.8508046E-01
        1   -1    0    0  501    0  0.00000000000E+00  0.00000000000E+00  0.11619647430E+04  0.11619647430E+04  0.50400001928E-02 0.  1.
       -1   -1    0    0    0  501  0.00000000000E+00  0.00000000000E+00 -0.10652534878E+04  0.10652534878E+04  0.50400001928E-02 0. -1.
    10030    2    1    2    0    0  0.00000000000E+00  0.00000000000E+00  0.96711255157E+02  0.22272182308E+04  0.22251175207E+04 0.  0.
        5    1    3    3  502    0 -0.44989489469E+03  0.85500495276E+03  0.60053396195E+03  0.11375860473E+04  0.46999998093E+01 0.  1.
       -5    1    3    3    0  502  0.44989489469E+03 -0.85500495276E+03 -0.50382270680E+03  0.10896321835E+04  0.46999998093E+01 0. -1.
</event>
<event>
 5   0  0.6445740E-05  0.2207611E+04  0.7818609E-02  0.8515267E-01
        2   -1    0    0  501    0  0.00000000000E+00  0.00000000000E+00  0.24315462479E+04  0.24315462479E+04  0.25500000920E-02 0. -1.
       -2   -1    0    0    0  501  0.00000000000E+00  0.00000000000E+00 -0.50107482850E+03  0.50107482851E+03  0.25500000920E-02 0.  1.
    10030    2    1    2    0    0  0.00000000000E+00  0.00000000000E+00  0.19304714194E+04  0.29326210764E+04  0.22076110338E+04 0.  0.
        5    1    3    3  502    0 -0.75942997159E+03  0.48309611647E+03  0.18140170988E+04  0.20250421882E+04  0.46999998093E+01 0. -1.
       -5    1    3    3    0  502  0.75942997159E+03 -0.48309611647E+03  0.11645432063E+03  0.90757888819E+03  0.46999998093E+01 0.  1.
</event>
<event>
 5   0  0.2908031E-05  0.2204407E+04  0.7818609E-02  0.8516596E-01
        1   -1    0    0  501    0  0.00000000000E+00  0.00000000000E+00  0.93279449457E+03  0.93279449459E+03  0.50400001928E-02 0. -1.
       -1   -1    0    0    0  501  0.00000000000E+00  0.00000000000E+00 -0.13023797249E+04  0.13023797249E+04  0.50400001928E-02 0.  1.
    10030    2    1    2    0    0  0.00000000000E+00  0.00000000000E+00 -0.36958523029E+03  0.22351742195E+04  0.22044070742E+04 0.  0.
        1    1    3    3  502    0 -0.78923238034E+03  0.44743329648E+03  0.44985733090E+03  0.10126479759E+04  0.50400001928E-02 0. -1.
       -1    1    3    3    0  502  0.78923238034E+03 -0.44743329648E+03 -0.81944256120E+03  0.12225262435E+04  0.50400001928E-02 0.  1.
</event>
<event>
 5   0  0.2910318E-05  0.2046231E+04  0.7818609E-02  0.8585306E-01
       -1   -1    0    0    0  501  0.00000000000E+00  0.00000000000E+00  0.62532567520E+03  0.62532567522E+03  0.50400001928E-02 0. -1.
        1   -1    0    0  501    0  0.00000000000E+00  0.00000000000E+00 -0.16739521819E+04  0.16739521819E+04  0.50400001928E-02 0.  1.
    10030    2    1    2    0    0  0.00000000000E+00  0.00000000000E+00 -0.10486265067E+04  0.22992778571E+04  0.20462309532E+04 0.  0.
        5    1    3    3  502    0  0.46342146541E+03 -0.48480732358E+02  0.49916803819E+03  0.68286210640E+03  0.46999998093E+01 0. -1.
       -5    1    3    3    0  502 -0.46342146541E+03  0.48480732358E+02 -0.15477945449E+04  0.16164157507E+04  0.46999998093E+01 0.  1.
</event>
<event>
 5   0  0.2820239E-05  0.2205279E+04  0.7818609E-02  0.8516234E-01
        1   -1    0    0  501    0  0.00000000000E+00  0.00000000000E+00  0.12538973803E+04  0.12538973803E+04  0.50400001928E-02 0.  1.
       -1   -1    0    0    0  501  0.00000000000E+00  0.00000000000E+00 -0.96962792036E+03  0.96962792037E+03  0.50400001928E-02 0. -1.
    10030    2    1    2    0    0  0.00000000000E+00  0.00000000000E+00  0.28426945993E+03  0.22235253007E+04  0.22052790383E+04 0.  0.
        3    1    3    3  502    0  0.84242697368E+03  0.44055752509E+03  0.70536176615E+03  0.11837691372E+04  0.10100000352E+00 0.  1.
       -3    1    3    3    0  502 -0.84242697368E+03 -0.44055752509E+03 -0.42109230621E+03  0.10397561635E+04  0.10100000352E+00 0. -1.
</event>
<event>
 5   0  0.6628798E-05  0.2206324E+04  0.7818609E-02  0.8515801E-01
        2   -1    0    0  501    0  0.00000000000E+00  0.00000000000E+00  0.14760309436E+04  0.14760309436E+04  0.25500000920E-02 0. -1.
       -2   -1    0    0    0  501  0.00000000000E+00  0.00000000000E+00 -0.82448574321E+03  0.82448574322E+03  0.25500000920E-02 0.  1.
    10030    2    1    2    0    0  0.00000000000E+00  0.00000000000E+00  0.65154520037E+03  0.23005166868E+04  0.22063240646E+04 0.  0.
        4    1    3    3  502    0  0.73232016773E+03 -0.46161735935E+03  0.10387647019E+04  0.13521897549E+04  0.12699999809E+01 0. -1.
       -4    1    3    3    0  502 -0.73232016773E+03  0.46161735935E+03 -0.38721950150E+03  0.94832693190E+03  0.12699999809E+01 0.  1.
</event>
<event>
 5   0  0.2929471E-05  0.2179653E+04  0.7818609E-02  0.8526945E-01
        1   -1    0    0  501    0  0.00000000000E+00  0.00000000000E+00  0.10262617944E+04  0.10262617944E+04  0.50400001928E-02 0. -1.
       -1   -1    0    0    0  501  0.00000000000E+00  0.00000000000E+00 -0.11573281510E+04  0.11573281510E+04  0.50400001928E-02 0.  1.
    10030    2    1    2    0    0  0.00000000000E+00  0.00000000000E+00 -0.13106635655E+03  0.21835899454E+04  0.21796528760E+04 0.  0.
        2    1    3    3  502    0  0.95537270724E+03 -0.51591928211E+03 -0.15957472273E+03  0.10974396601E+04  0.25500000920E-02 0. -1.
       -2    1    3    3    0  502 -0.95537270724E+03  0.51591928211E+03  0.28508366180E+02  0.10861502853E+04  0.25500000920E-02 0.  1.
</event>
<event>
 5   0  0.2245375E-05  0.2172242E+04  0.7818609E-02  0.8530071E-01
       -3   -1    0    0    0  501  0.00000000000E+00  0.00000000000E+00  0.11578922195E+04  0.11578922239E+04  0.10100000352E+00 0. -1.
        3   -1    0    0  501    0  0.00000000000E+00  0.00000000000E+00 -0.10187988099E+04  0.10187988149E+04  0.10100000352E+00 0.  1.
    10030    2    1    2    0    0  0.00000000000E+00  0.00000000000E+00  0.13909340966E+03  0.21766910388E+04  0.21722423672E+04 0.  0.
        4    1    3    3  502    0 -0.46568084073E+03 -0.74453629585E+03  0.70996799225E+03  0.11292692789E+04  0.12699999809E+01 0.  1.
       -4    1    3    3    0  502  0.46568084073E+03  0.74453629585E+03 -0.57087458259E+03  0.10474217599E+04  0.12699999809E+01 0. -1.
</event>
<event>
 5   0  0.6293013E-05  0.2201699E+04  0.7818609E-02  0.8517721E-01
        2   -1    0    0  501    0  0.00000000000E+00  0.00000000000E+00  0.19586918661E+04  0.19586918661E+04  0.25500000920E-02 0. -1.
       -2   -1    0    0    0  501  0.00000000000E+00  0.00000000000E+00 -0.61871366099E+03  0.61871366099E+03  0.25500000920E-02 0.  1.
    10030    2    1    2    0    0  0.00000000000E+00  0.00000000000E+00  0.13399782051E+04  0.25774055270E+04  0.22016988125E+04 0.  0.
        1    1    3    3  502    0 -0.80452278309E+03  0.41068033474E+03 -0.66637344958E+02  0.90573494005E+03  0.50400001928E-02 0.  1.
       -1    1    3    3    0  502  0.80452278309E+03 -0.41068033474E+03  0.14066155500E+04  0.16716705870E+04  0.50400001928E-02 0. -1.
</event>
<event>
 5   0  0.6628798E-05  0.2298482E+04  0.7818609E-02  0.8478520E-01
        2   -1    0    0  501    0  0.00000000000E+00  0.00000000000E+00  0.91180463317E+03  0.91180463318E+03  0.25500000920E-02 0.  1.
       -2   -1    0    0    0  501  0.00000000000E+00  0.00000000000E+00 -0.14485058132E+04  0.14485058132E+04  0.25500000920E-02 0. -1.
    10030    2    1    2    0    0  0.00000000000E+00  0.00000000000E+00 -0.53670118004E+03  0.23603104464E+04  0.22984815089E+04 0.  0.
        4    1    3    3  502    0  0.48438239763E+03 -0.10085114677E+04  0.14545579744E+01  0.11188053522E+04  0.12699999809E+01 0. -1.
       -4    1    3    3    0  502 -0.48438239763E+03  0.10085114677E+04 -0.53815573802E+03  0.12415050942E+04  0.12699999809E+01 0.  1.
</event>
<event>
 5   0  0.6628798E-05  0.2218508E+04  0.7818609E-02  0.8510764E-01
       -2   -1    0    0    0  501  0.00000000000E+00  0.00000000000E+00  0.89866532813E+03  0.89866532814E+03  0.25500000920E-02 0. -1.
        2   -1    0    0  501    0  0.00000000000E+00  0.00000000000E+00 -0.13691914516E+04  0.13691914516E+04  0.25500000920E-02 0.  1.
    10030    2    1    2    0    0  0.00000000000E+00  0.00000000000E+00 -0.47052612345E+03  0.22678567797E+04  0.22185084044E+04 0.  0.
        4    1    3    3  502    0 -0.22876285123E+03  0.38314604499E+03 -0.12733868612E+04  0.13493142870E+04  0.12699999809E+01 0.  1.
       -4    1    3    3    0  502  0.22876285123E+03 -0.38314604499E+03  0.80286073773E+03  0.91854249275E+03  0.12699999809E+01 0. -1.
</event>
<event>
 5   0  0.6414768E-05  0.2198707E+04  0.7818609E-02  0.8518966E-01
       -2   -1    0    0    0  501  0.00000000000E+00  0.00000000000E+00  0.62042827835E+03  0.62042827836E+03  0.25500000920E-02 0. -1.
        2   -1    0    0  501    0  0.00000000000E+00  0.00000000000E+00 -0.19479739310E+04  0.19479739310E+04  0.25500000920E-02 0.  1.
    10030    2    1    2    0    0  0.00000000000E+00  0.00000000000E+00 -0.13275456526E+04  0.25684022093E+04  0.21987069948E+04 0.  0.
        2    1    3    3  502    0  0.10969372820E+04  0.29516435430E+02 -0.74157049158E+03  0.13244128565E+04  0.25500000920E-02 0.  1.
       -2    1    3    3    0  502 -0.10969372820E+04 -0.29516435430E+02 -0.58597516106E+03  0.12439893528E+04  0.25500000920E-02 0. -1.
</event>
<event>
 5   0  0.6306919E-05  0.2212729E+04  0.7818609E-02  0.8513149E-01
       -2   -1    0    0    0  501  0.00000000000E+00  0.00000000000E+00  0.23240625533E+04  0.23240625533E+04  0.25500000920E-02 0.  1.
        2   -1    0    0  501    0  0.00000000000E+00  0.00000000000E+00 -0.52668198096E+03  0.52668198097E+03  0.25500000920E-02 0. -1.
    10030    2    1    2    0    0  0.00000000000E+00  0.00000000000E+00  0.17973805724E+04  0.28507445343E+04  0.22127285143E+04 0.  0.
        3    1    3    3  502    0 -0.81407565777E+03  0.60984028747E+03  0.33797780226E+03  0.10718457715E+04  0.10100000352E+00 0. -1.
       -3    1    3    3    0  502  0.81407565777E+03 -0.60984028747E+03  0.14594027701E+04  0.17788987628E+04  0.10100000352E+00 0.  1.
</event>
<event>
 5   0  0.2820239E-05  0.2191890E+04  0.7818609E-02  0.8521811E-01
       -1   -1    0    0    0  501  0.00000000000E+00  0.00000000000E+00  0.79034593912E+03  0.79034593913E+03  0.50400001928E-02 0. -1.
        1   -1    0    0  501    0  0.00000000000E+00  0.00000000000E+00 -0.15197088552E+04  0.15197088552E+04  0.50400001928E-02 0.  1.
    10030    2    1    2    0    0  0.00000000000E+00  0.00000000000E+00 -0.72936291612E+03  0.23100547944E+04  0.21918902549E+04 0.  0.
        3    1    3    3  502    0  0.14046517712E+03 -0.22375973693E+03  0.75628278636E+03  0.80110083572E+03  0.10100000352E+00 0. -1.
       -3    1    3    3    0  502 -0.14046517712E+03  0.22375973693E+03 -0.14856457025E+04  0.15089539587E+04  0.10100000352E+00 0.  1.
</event>
<event>
 5   0  0.2753631E-05  0.2199755E+04  0.7818609E-02  0.8518530E-01
        1   -1    0    0  501    0  0.00000000000E+00  0.00000000000E+00  0.76860626613E+03  0.76860626615E+03  0.50400001928E-02 0.  1.
       -1   -1    0    0    0  501  0.00000000000E+00  0.00000000000E+00 -0.15739278625E+04  0.15739278625E+04  0.50400001928E-02 0. -1.
    10030    2    1    2    0    0  0.00000000000E+00  0.00000000000E+00 -0.80532159640E+03  0.23425341287E+04  0.21997552751E+04 0.  0.
        4    1    3    3  502    0 -0.85621810879E+03  0.53497770050E+03 -0.86735393673E+03  0.13310203057E+04  0.12699999809E+01 0. -1.
       -4    1    3    3    0  502  0.85621810879E+03 -0.53497770050E+03  0.62032340335E+02  0.10115138229E+04  0.12699999809E+01 0.  1.
</event>
<event>
 5   0  0.6306919E-05  0.2132557E+04  0.7818609E-02  0.8547036E-01
        2   -1    0    0  501    0  0.00000000000E+00  0.00000000000E+00  0.17591892213E+04  0.17591892213E+04  0.25500000920E-02 0.  1.
       -2   -1    0    0    0  501  0.00000000000E+00  0.00000000000E+00 -0.64629172724E+03  0.64629172724E+03  0.25500000920E-02 0. -1.
    10030    2    1    2    0    0  0.00000000000E+00  0.00000000000E+00  0.11128974940E+04  0.24054809485E+04  0.21325566256E+04 0.  0.
        3    1    3    3  502    0  0.68249025447E+03  0.54506094929E+03 -0.13343341045E+03  0.88356599703E+03  0.10100000352E+00 0. -1.
       -3    1    3    3    0  502 -0.68249025447E+03 -0.54506094929E+03  0.12463309045E+04  0.15219149515E+04  0.10100000352E+00 0.  1.
</event>
<event>
 5   0  0.6414768E-05  0.2200747E+04  0.7818609E-02  0.8518117E-01
       -2   -1    0    0    0  501  0.00000000000E+00  0.00000000000E+00  0.17166296677E+04  0.17166296677E+04  0.25500000920E-02 0. -1.
        2   -1    0    0  501    0  0.00000000000E+00  0.00000000000E+00 -0.70534860273E+03  0.70534860274E+03  0.25500000920E-02 0.  1.
    10030    2    1    2    0    0  0.00000000000E+00  0.00000000000E+00  0.10112810650E+04  0.24219782704E+04  0.22007474526E+04 0.  0.
        2    1    3    3  502    0  0.48644761849E+03  0.89383352729E+03  0.44925518501E+02  0.10186206174E+04  0.25500000920E-02 0.  1.
       -2    1    3    3    0  502 -0.48644761849E+03 -0.89383352729E+03  0.96635554646E+03  0.14033576530E+04  0.25500000920E-02 0. -1.
</event>
<event>
 5   0  0.2908031E-05  0.2254434E+04  0.7818609E-02  0.8496107E-01
        1   -1    0    0  501    0  0.00000000000E+00  0.00000000000E+00  0.17919751564E+04  0.17919751564E+04  0.50400001928E-02 0.  1.
       -1   -1    0    0    0  501  0.00000000000E+00  0.00000000000E+00 -0.70905994781E+03  0.70905994783E+03  0.50400001928E-02 0. -1.
    10030    2    1    2    0    0  0.00000000000E+00  0.00000000000E+00  0.10829152085E+04  0.25010351042E+04  0.22544336858E+04 0.  0.
        1    1    3    3  502    0  0.57157251434E+03 -0.70707739787E+03  0.12806479913E+04  0.15705772389E+04  0.50400001928E-02 0.  1.
       -1    1    3    3    0  502 -0.57157251434E+03  0.70707739787E+03 -0.19773278273E+03  0.93045786531E+03  0.50400001928E-02 0. -1.
</event>
<event>
 5   0  0.6293013E-05  0.2202490E+04  0.7818609E-02  0.8517392E-01
        2   -1    0    0  501    0  0.00000000000E+00  0.00000000000E+00  0.12430021915E+04  0.12430021915E+04  0.25500000920E-02 0.  1.
       -2   -1    0    0    0  501  0.00000000000E+00  0.00000000000E+00 -0.97565443858E+03  0.97565443859E+03  0.25500000920E-02 0. -1.
    10030    2    1    2    0    0  0.00000000000E+00  0.00000000000E+00  0.26734775295E+03  0.22186566301E+04  0.22024900502E+04 0.  0.
        1    1    3    3  502    0 -0.96326881982E+03  0.53056732765E+03  0.19199614686E+03  0.11163561389E+04  0.50400001928E-02 0.  1.
       -1    1    3    3    0  502  0.96326881982E+03 -0.53056732765E+03  0.75351606085E+02  0.11023004912E+04  0.50400001928E-02 0. -1.
</event>
<event>
 5   0  0.2929471E-05  0.2236116E+04  0.7818609E-02  0.8503544E-01
       -1   -1    0    0    0  501  0.00000000000E+00  0.00000000000E+00  0.16907709282E+04  0.16907709282E+04  0.50400001928E-02 0.  1.
        1   -1    0    0  501    0  0.00000000000E+00  0.00000000000E+00 -0.73933960545E+03  0.73933960547E+03  0.50400001928E-02 0. -1.
    10030    2    1    2    0    0  0.00000000000E+00  0.00000000000E+00  0.95143132273E+03  0.24301105337E+04  0.22361161964E+04 0.  0.
        2    1    3    3  502    0 -0.95195516305E+03  0.48319135328E+03  0.11468818908E+03  0.10737066159E+04  0.25500000920E-02 0. -1.
       -2    1    3    3    0  502  0.95195516305E+03 -0.48319135328E+03  0.83674313366E+03  0.13564039177E+04  0.25500000920E-02 0.  1.
</event>
<event>
 5   0  0.6445740E-05  0.2220121E+04  0.7818609E-02  0.8510100E-01
       -2   -1    0    0    0  501  0.00000000000E+00  0.00000000000E+00  0.59180119812E+03  0.59180119812E+03  0.25500000920E-02 0. -1.
        2   -1    0    0  501    0  0.00000000000E+00  0.00000000000E+00 -0.20821766587E+04  0.20821766587E+04  0.25500000920E-02 0.  1.
    10030    2    1    2    0    0  0.00000000000E+00  0.00000000000E+00 -0.14903754605E+04  0.26739778568E+04  0.22201212952E+04 0.  0.
        5    1    3    3  502    0 -0.10288466859E+04  0.13799006384E+03 -0.27154578564E+03  0.10729985855E+04  0.46999998093E+01 0.  1.
       -5    1    3    3    0  502  0.10288466859E+04 -0.13799006384E+03 -0.12188296749E+04  0.16009792713E+04  0.46999998093E+01 0. -1.
</event>
<event>
 5   0  0.2929471E-05  0.2205764E+04  0.7818609E-02  0.8516033E-01
        1   -1    0    0  501    0  0.00000000000E+00  0.00000000000E+00  0.11815157854E+04  0.11815157854E+04  0.50400001928E-02 0. -1.
       -1   -1    0    0    0  501  0.00000000000E+00  0.00000000000E+00 -0.10294814740E+04  0.10294814741E+04  0.50400001928E-02 0.  1.
    10030    2    1    2    0    0  0.00000000000E+00  0.00000000000E+00  0.15203431135E+03  0.22109972595E+04  0.22057639152E+04 0.  0.
        2    1    3    3  502    0  0.25434410229E+02  0.10574608383E+04  0.38897302592E+03  0.11270183444E+04  0.25500000920E-02 0. -1.
       -2    1    3    3    0  502 -0.25434410229E+02 -0.10574608383E+04 -0.23693871457E+03  0.10839789150E+04  0.25500000920E-02 0.  1.
</event>
<event>
 5   0  0.2820239E-05  0.2180684E+04  0.7818609E-02  0.8526511E-01
       -1   -1    0    0    0  501  0.00000000000E+00  0.00000000000E+00  0.54148203059E+03  0.54148203062E+03  0.50400001928E-02 0. -1.
        1   -1    0    0  501    0  0.00000000000E+00  0.00000000000E+00 -0.21955400523E+04  0.21955400523E+04  0.50400001928E-02 0.  1.
    10030    2    1    2    0    0  0.00000000000E+00  0.00000000000E+00 -0.16540580217E+04  0.27370220829E+04  0.21806838247E+04 0.  0.
        3    1    3    3  502    0 -0.19588387560E+03  0.10335953890E+04 -0.11867817136E+04  0.15859195335E+04  0.10100000352E+00 0. -1.
       -3    1    3    3    0  502  0.19588387560E+03 -0.10335953890E+04 -0.46727630807E+03  0.11511025494E+04  0.10100000352E+00 0.  1.
</event>
<event>
 5   0  0.2910318E-05  0.2178863E+04  0.7818609E-02  0.8527278E-01
       -1   -1    0    0    0  501  0.00000000000E+00  0.00000000000E+00  0.12863241387E+04  0.12863241387E+04  0.50400001928E-02 0. -1.
        1   -1    0    0  501    0  0.00000000000E+00  0.00000000000E+00 -0.92267650503E+03  0.92267650505E+03  0.50400001928E-02 0.  1.
    10030    2    1    2    0    0  0.00000000000E+00  0.00000000000E+00  0.36364763370E+03  0.22090006438E+04  0.21788630620E+04 0.  0.
        5    1    3    3  502    0  0.10680272494E+04  0.12650495355E+03  0.35787261154E+03  0.11334816297E+04  0.46999998093E+01 0. -1.
       -5    1    3    3    0  502 -0.10680272494E+04 -0.12650495355E+03  0.57750221637E+01  0.10755190141E+04  0.46999998093E+01 0.  1.
</event>
<event>
 5   0  0.6293013E-05  0.2358120E+04  0.7818609E-02  0.8455351E-01
       -2   -1    0    0    0  501  0.00000000000E+00  0.00000000000E+00  0.77395373501E+03  0.77395373501E+03  0.25500000920E-02 0. -1.
        2   -1    0    0  501    0  0.00000000000E+00  0.00000000000E+00 -0.17962090931E+04  0.17962090931E+04  0.25500000920E-02 0.  1.
    10030    2    1    2    0    0  0.00000000000E+00  0.00000000000E+00 -0.10222553581E+04  0.25701628281E+04  0.23581202145E+04 0.  0.
        1    1    3    3  502    0 -0.11016965053E+04  0.15291027959E+03 -0.84711127387E+02  0.11154786948E+04  0.50400001928E-02 0. -1.
       -1    1    3    3    0  502  0.11016965053E+04 -0.15291027959E+03 -0.93754423071E+03  0.14546841334E+04  0.50400001928E-02 0.  1.
</event>
<event>
 5   0  0.2820239E-05  0.2187643E+04  0.7818609E-02  0.8523589E-01
       -1   -1    0    0    0  501  0.00000000000E+00  0.00000000000E+00  0.56969568204E+03  0.56969568206E+03  0.50400001928E-02 0. -1.
        1   -1    0    0  501    0  0.00000000000E+00  0.00000000000E+00 -0.21001476091E+04  0.21001476091E+04  0.50400001928E-02 0.  1.
    10030    2    1    2    0    0  0.00000000000E+00  0.00000000000E+00 -0.15304519270E+04  0.26698432911E+04  0.21876425892E+04 0.  0.
        3    1    3    3  502    0  0.85197298138E+03  0.15547253413E+03 -0.15806414552E+04  0.18023476607E+04  0.10100000352E+00 0.  1.
       -3    1    3    3    0  502 -0.85197298138E+03 -0.15547253413E+03  0.50189528196E+02  0.86749563043E+03  0.10100000352E+00 0. -1.
</event>
<event>
 5   0  0.6414768E-05  0.2192703E+04  0.7818609E-02  0.8521471E-01
        2   -1    0    0  501    0  0.00000000000E+00  0.00000000000E+00  0.10242525590E+04  0.10242525591E+04  0.25500000920E-02 0. -1.
       -2   -1    0    0    0  501  0.00000000000E+00  0.00000000000E+00 -0.11735258707E+04  0.11735258707E+04  0.25500000920E-02 0.  1.
    10030    2    1    2    0    0  0.00000000000E+00  0.00000000000E+00 -0.14927331162E+03  0.21977784297E+04  0.21927032413E+04 0.  0.
        2    1    3    3  502    0  0.10764995162E+04  0.18440431055E+03 -0.17041261587E+03  0.11053943268E+04  0.25500000920E-02 0.  1.
       -2    1    3    3    0  502 -0.10764995162E+04 -0.18440431055E+03  0.21139304245E+02  0.10923841029E+04  0.25500000920E-02 0. -1.
</event>
<event>
 5   0  0.2753631E-05  0.2239893E+04  0.7818609E-02  0.8502005E-01
       -1   -1    0    0    0  501  0.00000000000E+00  0.00000000000E+00  0.18165606824E+04  0.18165606824E+04  0.50400001928E-02 0. -1.
        1   -1    0    0  501    0  0.00000000000E+00  0.00000000000E+00 -0.69046944536E+03  0.69046944538E+03  0.50400001928E-02 0.  1.
    10030    2    1    2    0    0  0.00000000000E+00  0.00000000000E+00  0.11260912370E+04  0.25070301278E+04  0.22398925393E+04 0.  0.
        4    1    3    3  502    0 -0.66586064652E+03  0.88158515710E+03  0.76856156454E+03  0.13458273594E+04  0.12699999809E+01 0. -1.
       -4    1    3    3    0  502  0.66586064652E+03 -0.88158515710E+03  0.35752967249E+03  0.11612027684E+04  0.12699999809E+01 0.  1.
</event>
<event>
 5   0  0.2910318E-05  0.2241594E+04  0.7818609E-02  0.8501313E-01
        1   -1    0    0  501    0  0.00000000000E+00  0.00000000000E+00  0.94497295315E+03  0.94497295317E+03  0.50400001928E-02 0.  1.
       -1   -1    0    0    0  501  0.00000000000E+00  0.00000000000E+00 -0.13293347835E+04  0.13293347835E+04  0.50400001928E-02 0. -1.
    10030    2    1    2    0    0  0.00000000000E+00  0.00000000000E+00 -0.38436183037E+03  0.22743077367E+04  0.22415935547E+04 0.  0.
        5    1    3    3  502    0 -0.46930332724E+02 -0.69282729531E+03 -0.10847650249E+04  0.12880020832E+04  0.46999998093E+01 0. -1.
       -5    1    3    3    0  502  0.46930332724E+02  0.69282729531E+03  0.70040319448E+03  0.98630565348E+03  0.46999998093E+01 0.  1.
</event>
<event>
 5   0  0.6445740E-05  0.2187410E+04  0.7818609E-02  0.8523687E-01
       -2   -1    0    0    0  501  0.00000000000E+00  0.00000000000E+00  0.10272154564E+04  0.10272154564E+04  0.25500000920E-02 0.  1.
        2   -1    0    0  501    0  0.00000000000E+00  0.00000000000E+00 -0.11644985106E+04  0.11644985106E+04  0.25500000920E-02 0. -1.
    10030    2    1    2    0    0  0.00000000000E+00  0.00000000000E+00 -0.13728305423E+03  0.21917139670E+04  0.21874102213E+04 0.  0.
        5    1    3    3  502    0 -0.16987576234E+03 -0.26457212724E+03  0.98094638390E+03  0.10301136264E+04  0.46999998093E+01 0.  1.
       -5    1    3    3    0  502  0.16987576234E+03  0.26457212724E+03 -0.11182294381E+04  0.11616003407E+04  0.46999998093E+01 0. -1.
</event>
<event>
 5   0  0.2910318E-05  0.2191722E+04  0.7818609E-02  0.8521882E-01
       -1   -1    0    0    0  501  0.00000000000E+00  0.00000000000E+00  0.83485714415E+03  0.83485714417E+03  0.50400001928E-02 0. -1.
        1   -1    0    0  501    0  0.00000000000E+00  0.00000000000E+00 -0.14384627566E+04  0.14384627567E+04  0.50400001928E-02 0.  1.
    10030    2    1    2    0    0  0.00000000000E+00  0.00000000000E+00 -0.60360561249E+03  0.22733199008E+04  0.21917216146E+04 0.  0.
        5    1    3    3  502    0  0.73839605546E+03  0.23775846073E+03  0.50105023770E+03  0.92348863072E+03  0.46999998093E+01 0. -1.
       -5    1    3    3    0  502 -0.73839605546E+03 -0.23775846073E+03 -0.11046558502E+04  0.13498312701E+04  0.46999998093E+01 0.  1.
</event>
<event>
 5   0  0.2929471E-05  0.2195977E+04  0.7818609E-02  0.8520105E-01
        1   -1    0    0  501    0  0.00000000000E+00  0.00000000000E+00  0.10325464474E+04  0.10325464474E+04  0.50400001928E-02 0. -1.
       -1   -1    0    0    0  501  0.00000000000E+00  0.00000000000E+00 -0.11675777208E+04  0.11675777209E+04  0.50400001928E-02 0.  1.
    10030    2    1    2    0    0  0.00000000000E+00  0.00000000000E+00 -0.13503127342E+03  0.22001241683E+04  0.21959765279E+04 0.  0.
        2    1    3    3  502    0  0.10454130792E+04 -0.18303252628E+03 -0.34945221385E+03  0.11173657689E+04  0.25500000920E-02 0.  1.
       -2    1    3    3    0  502 -0.10454130792E+04  0.18303252628E+03  0.21442094042E+03  0.10827583994E+04  0.25500000920E-02 0. -1.
</event>
<event>
 5   0  0.6293013E-05  0.2197173E+04  0.7818609E-02  0.8519606E-01
        2   -1    0    0  501    0  0.00000000000E+00  0.00000000000E+00  0.12047017686E+04  0.12047017686E+04  0.25500000920E-02 0. -1.
       -2   -1    0    0    0  501  0.00000000000E+00  0.00000000000E+00 -0.10018186936E+04  0.10018186936E+04  0.25500000920E-02 0.  1.
    10030    2    1    2    0    0  0.00000000000E+00  0.00000000000E+00  0.20288307500E+03  0.22065204623E+04  0.21971734134E+04 0.  0.
        1    1    3    3  502    0  0.39981045476E+03  0.79297794090E+03  0.75090001520E+03  0.11629760304E+04  0.50400001928E-02 0. -1.
       -1    1    3    3    0  502 -0.39981045476E+03 -0.79297794090E+03 -0.54801694020E+03  0.10435444319E+04  0.50400001928E-02 0.  1.
</event>
<event>
 5   0  0.2753631E-05  0.2206227E+04  0.7818609E-02  0.8515841E-01
        1   -1    0    0  501    0  0.00000000000E+00  0.00000000000E+00  0.12190507702E+04  0.12190507702E+04  0.50400001928E-02 0. -1.
       -1   -1    0    0    0  501  0.00000000000E+00  0.00000000000E+00 -0.99820251996E+03  0.99820251997E+03  0.50400001928E-02 0.  1.
    10030    2    1    2    0    0  0.00000000000E+00  0.00000000000E+00  0.22084825021E+03  0.22172532902E+04  0.22062271422E+04 0.  0.
        4    1    3    3  502    0  0.49861901000E+03 -0.88065725620E+03 -0.33072274097E+03  0.10646864629E+04  0.12699999809E+01 0.  1.
       -4    1    3    3    0  502 -0.49861901000E+03  0.88065725620E+03  0.55157099118E+03  0.11525668272E+04  0.12699999809E+01 0. -1.
</event>
<event>
 5   0  0.6293013E-05  0.2203833E+04  0.7818609E-02  0.8516834E-01
        2   -1    0    0  501    0  0.00000000000E+00  0.00000000000E+00  0.16051523757E+04  0.16051523757E+04  0.25500000920E-02 0.  1.
       -2   -1    0    0    0  501  0.00000000000E+00  0.00000000000E+00 -0.75645160863E+03  0.75645160863E+03  0.25500000920E-02 0. -1.
    10030    2    1    2    0    0  0.00000000000E+00  0.00000000000E+00  0.84870076705E+03  0.23616039843E+04  0.22038331123E+04 0.  0.
        1    1    3    3  502    0  0.39462288043E+03 -0.10017775272E+04  0.17318972768E+03  0.10905412022E+04  0.50400001928E-02 0. -1.
       -1    1    3    3    0  502 -0.39462288043E+03  0.10017775272E+04  0.67551103938E+03  0.12710627821E+04  0.50400001928E-02 0.  1.
</event>
<event>
 5   0  0.6293013E-05  0.2188839E+04  0.7818609E-02  0.8523088E-01
       -2   -1    0    0    0  501  0.00000000000E+00  0.00000000000E+00  0.12012158613E+04  0.12012158613E+04  0.25500000920E-02 0.  1.
        2   -1    0    0  501    0  0.00000000000E+00  0.00000000000E+00 -0.99711776220E+03  0.99711776221E+03  0.25500000920E-02 0. -1.
    10030    2    1    2    0    0  0.00000000000E+00  0.00000000000E+00  0.20409809908E+03  0.21983336235E+04  0.21888386615E+04 0.  0.
        1    1    3    3  502    0 -0.50279184835E+03  0.79165302597E+03 -0.46452529303E+03  0.10465648113E+04  0.50400001928E-02 0. -1.
       -1    1    3    3    0  502  0.50279184835E+03 -0.79165302597E+03  0.66862339211E+03  0.11517688122E+04  0.50400001928E-02 0.  1.
</event>
<event>
 5   0  0.2753631E-05  0.2309723E+04  0.7818609E-02  0.8474097E-01
        1   -1    0    0  501    0  0.00000000000E+00  0.00000000000E+00  0.18240466656E+04  0.18240466656E+04  0.50400001928E-02 0.  1.
       -1   -1    0    0    0  501  0.00000000000E+00  0.00000000000E+00 -0.73117903998E+03  0.73117903999E+03  0.50400001928E-02 0. -1.
    10030    2    1    2    0    0  0.00000000000E+00  0.00000000000E+00  0.10928676256E+04  0.25552257056E+04  0.23097226585E+04 0.  0.
        4    1    3    3  502    0 -0.97566316595E+03  0.16997004447E+02 -0.13687052849E+03  0.98536423013E+03  0.12699999809E+01 0.  1.
       -4    1    3    3    0  502  0.97566316595E+03 -0.16997004447E+02  0.12297381541E+04  0.15698614754E+04  0.12699999809E+01 0. -1.
</event>
<event>
 5   0  0.2820239E-05  0.2183770E+04  0.7818609E-02  0.8525214E-01
       -1   -1    0    0    0  501  0.00000000000E+00  0.00000000000E+00  0.59744496511E+03  0.59744496513E+03  0.50400001928E-02 0. -1.
        1   -1    0    0  501    0  0.00000000000E+00  0.00000000000E+00 -0.19955197507E+04  0.19955197507E+04  0.50400001928E-02 0.  1.
    10030    2    1    2    0    0  0.00000000000E+00  0.00000000000E+00 -0.13980747856E+04  0.25929647159E+04  0.21837703431E+04 0.  0.
        3    1    3    3  502    0 -0.96211596866E+03  0.48565616041E+03 -0.90702950464E+03  0.14086275504E+04  0.10100000352E+00 0.  1.
       -3    1    3    3    0  502  0.96211596866E+03 -0.48565616041E+03 -0.49104528098E+03  0.11843371655E+04  0.10100000352E+00 0. -1.
</event>
<event>
 5   0  0.6628798E-05  0.2185455E+04  0.7818609E-02  0.8524507E-01
       -2   -1    0    0    0  501  0.00000000000E+00  0.00000000000E+00  0.46104555211E+03  0.46104555211E+03  0.25500000920E-02 0. -1.
        2   -1    0    0  501    0  0.00000000000E+00  0.00000000000E+00 -0.25898813200E+04  0.25898813200E+04  0.25500000920E-02 0.  1.
    10030    2    1    2    0    0  0.00000000000E+00  0.00000000000E+00 -0.21288357679E+04  0.30509268721E+04  0.21854548845E+04 0.  0.
        4    1    3    3  502    0 -0.53355124748E+03  0.92378094662E+03 -0.13947854902E+04  0.17559830146E+04  0.12699999809E+01 0. -1.
       -4    1    3    3    0  502  0.53355124748E+03 -0.92378094662E+03 -0.73405027770E+03  0.12949438575E+04  0.12699999809E+01 0.  1.
</event>
<event>
 5   0  0.2753631E-05  0.2206312E+04  0.7818609E-02  0.8515805E-01
        1   -1    0    0  501    0  0.00000000000E+00  0.00000000000E+00  0.73628561506E+03  0.73628561508E+03  0.50400001928E-02 0. -1.
       -1   -1    0    0    0  501  0.00000000000E+00  0.00000000000E+00 -0.16528280539E+04  0.16528280539E+04  0.50400001928E-02 0.  1.
    10030    2    1    2    0    0  0.00000000000E+00  0.00000000000E+00 -0.91654243880E+03  0.23891136689E+04  0.22063123263E+04 0.  0.
        4    1    3    3  502    0 -0.53248402380E+03 -0.29432950731E+03  0.53817953207E+03  0.81228561240E+03  0.12699999809E+01 0. -1.
       -4    1    3    3    0  502  0.53248402380E+03  0.29432950731E+03 -0.14547219709E+04  0.15768280565E+04  0.12699999809E+01 0.  1.
</event>
<event>
 5   0  0.2908031E-05  0.2242343E+04  0.7818609E-02  0.8501008E-01
        1   -1    0    0  501    0  0.00000000000E+00  0.00000000000E+00  0.99487317362E+03  0.99487317364E+03  0.50400001928E-02 0.  1.
       -1   -1    0    0    0  501  0.00000000000E+00  0.00000000000E+00 -0.12635031027E+04  0.12635031027E+04  0.50400001928E-02 0. -1.
    10030    2    1    2    0    0  0.00000000000E+00  0.00000000000E+00 -0.26862992908E+03  0.22583762763E+04  0.22423428299E+04 0.  0.
        1    1    3    3  502    0 -0.49362832072E+03 -0.62702709765E+03  0.65883968674E+03  0.10348437723E+04  0.50400001928E-02 0.  1.
       -1    1    3    3    0  502  0.49362832072E+03  0.62702709765E+03 -0.92746961581E+03  0.12235325041E+04  0.50400001928E-02 0. -1.
</event>
<event>
 5   0  0.2910318E-05  0.2195571E+04  0.7818609E-02  0.8520274E-01
       -1   -1    0    0    0  501  0.00000000000E+00  0.00000000000E+00  0.50864484864E+03  0.50864484866E+03  0.50400001928E-02 0. -1.
        1   -1    0    0  501    0  0.00000000000E+00  0.00000000000E+00 -0.23693015197E+04  0.23693015197E+04  0.50400001928E-02 0.  1.
    10030    2    1    2    0    0  0.00000000000E+00  0.00000000000E+00 -0.18606566710E+04  0.28779463683E+04  0.21955710081E+04 0.  0.
        5    1    3    3  502    0  0.14082393545E+03 -0.21357658298E+03  0.46901323335E+03  0.53426757401E+03  0.46999998093E+01 0. -1.
       -5    1    3    3    0  502 -0.14082393545E+03  0.21357658298E+03 -0.23296699044E+04  0.23436787943E+04  0.46999998093E+01 0.  1.
</event>
<event>
 5   0  0.6628798E-05  0.2208956E+04  0.7818609E-02  0.8514710E-01
        2   -1    0    0  501    0  0.00000000000E+00  0.00000000000E+00  0.54882679761E+03  0.54882679762E+03  0.25500000920E-02 0.  1.
       -2   -1    0    0    0  501  0.00000000000E+00  0.00000000000E+00 -0.22226897107E+04  0.22226897107E+04  0.25500000920E-02 0. -1.
    10030    2    1    2    0    0  0.00000000000E+00  0.00000000000E+00 -0.16738629131E+04  0.27715165083E+04  0.22089560213E+04 0.  0.
        4    1    3    3  502    0  0.22900104595E+02 -0.63016103519E+03  0.30077551228E+03  0.69863786525E+03  0.12699999809E+01 0.  1.
       -4    1    3    3    0  502 -0.22900104595E+02  0.63016103519E+03 -0.19746384254E+04  0.20728786431E+04  0.12699999809E+01 0. -1.
</event>
<event>
 5   0  0.6414768E-05  0.2177763E+04  0.7818609E-02  0.8527741E-01
        2   -1    0    0  501    0  0.00000000000E+00  0.00000000000E+00  0.10234481457E+04  0.10234481457E+04  0.25500000920E-02 0.  1.
       -2   -1    0    0    0  501  0.00000000000E+00  0.00000000000E+00 -0.11584984202E+04  0.11584984202E+04  0.25500000920E-02 0. -1.
    10030    2    1    2    0    0  0.00000000000E+00  0.00000000000E+00 -0.13505027453E+03  0.21819465659E+04  0.21777631276E+04 0.  0.
        2    1    3    3  502    0  0.71292000081E+03  0.66761189344E+03 -0.54980466060E+03  0.11208236849E+04  0.25500000920E-02 0. -1.
       -2    1    3    3    0  502 -0.71292000081E+03 -0.66761189344E+03  0.41475438606E+03  0.10611228810E+04  0.25500000920E-02 0.  1.
</event>
<event>
 5   0  0.2910318E-05  0.2213304E+04  0.7818609E-02  0.8512911E-01
        1   -1    0    0  501    0  0.00000000000E+00  0.00000000000E+00  0.99674380913E+03  0.99674380914E+03  0.50400001928E-02 0. -1.
       -1   -1    0    0    0  501  0.00000000000E+00  0.00000000000E+00 -0.12286800123E+04  0.12286800123E+04  0.50400001928E-02 0.  1.
    10030    2    1    2    0    0  0.00000000000E+00  0.00000000000E+00 -0.23193620317E+03  0.22254238214E+04  0.22133044939E+04 0.  0.
        5    1    3    3  502    0  0.66679162381E+03 -0.43441810948E+03 -0.88915662693E+03  0.11932944987E+04  0.46999998093E+01 0.  1.
       -5    1    3    3    0  502 -0.66679162381E+03  0.43441810948E+03  0.65722042377E+03  0.10321293227E+04  0.46999998093E+01 0. -1.
</event>
<event>
 5   0  0.2908031E-05  0.2240645E+04  0.7818609E-02  0.8501699E-01
       -1   -1    0    0    0  501  0.00000000000E+00  0.00000000000E+00  0.91773124159E+03  0.91773124160E+03  0.50400001928E-02 0.  1.
        1   -1    0    0  501    0  0.00000000000E+00  0.00000000000E+00 -0.13676359483E+04  0.13676359483E+04  0.50400001928E-02 0. -1.
    10030    2    1    2    0    0  0.00000000000E+00  0.00000000000E+00 -0.44990470672E+03  0.22853671899E+04  0.22406447616E+04 0.  0.
        1    1    3    3  502    0 -0.46915163941E+03  0.19876746409E+03 -0.12426198334E+04  0.13430248754E+04  0.50400001928E-02 0. -1.
       -1    1    3    3    0  502  0.46915163941E+03 -0.19876746409E+03  0.79271512671E+03  0.94234231449E+03  0.50400001928E-02 0.  1.
</event>
<event>
 5   0  0.6306919E-05  0.2177446E+04  0.7818609E-02  0.8527875E-01
       -2   -1    0    0    0  501  0.00000000000E+00  0.00000000000E+00  0.10383302436E+04  0.10383302436E+04  0.25500000920E-02 0. -1.
        2   -1    0    0  501    0  0.00000000000E+00  0.00000000000E+00 -0.11415611735E+04  0.11415611735E+04  0.25500000920E-02 0.  1.
    10030    2    1    2    0    0  0.00000000000E+00  0.00000000000E+00 -0.10323092987E+03  0.21798914171E+04  0.21774457434E+04 0.  0.
        3    1    3    3  502    0 -0.17020169949E+03  0.28891987711E+03 -0.10885752483E+04  0.11390519722E+04  0.10100000352E+00 0.  1.
       -3    1    3    3    0  502  0.17020169949E+03 -0.28891987711E+03  0.98534431845E+03  0.10408394449E+04  0.10100000352E+00 0. -1.
</event>
<event>
 5   0  0.6628798E-05  0.2201889E+04  0.7818609E-02  0.8517642E-01
        2   -1    0    0  501    0  0.00000000000E+00  0.00000000000E+00  0.19318045345E+04  0.19318045345E+04  0.25500000920E-02 0. -1.
       -2   -1    0    0    0  501  0.00000000000E+00  0.00000000000E+00 -0.62743359894E+03  0.62743359894E+03  0.25500000920E-02 0.  1.
    10030    2    1    2    0    0  0.00000000000E+00  0.00000000000E+00  0.13043709355E+04  0.25592381334E+04  0.22018892538E+04 0.  0.
        4    1    3    3  502    0  0.10591429205E+04 -0.59665513853E+02  0.99448736872E+03  0.14540806164E+04  0.12699999809E+01 0. -1.
       -4    1    3    3    0  502 -0.10591429205E+04  0.59665513853E+02  0.30988356680E+03  0.11051575170E+04  0.12699999809E+01 0.  1.
</event>
<event>
 5   0  0.6628798E-05  0.2120176E+04  0.7818609E-02  0.8552407E-01
       -2   -1    0    0    0  501  0.00000000000E+00  0.00000000000E+00  0.85298938788E+03  0.85298938788E+03  0.25500000920E-02 0.  1.
        2   -1    0    0  501    0  0.00000000000E+00  0.00000000000E+00 -0.13174682547E+04  0.13174682547E+04  0.25500000920E-02 0. -1.
    10030    2    1    2    0    0  0.00000000000E+00  0.00000000000E+00 -0.46447886679E+03  0.21704576425E+04  0.21201758796E+04 0.  0.
        4    1    3    3  502    0  0.64556127898E+03  0.77740259449E+03  0.95798274631E+02  0.10150286110E+04  0.12699999809E+01 0.  1.
       -4    1    3    3    0  502 -0.64556127898E+03 -0.77740259449E+03 -0.56027714142E+03  0.11554290315E+04  0.12699999809E+01 0. -1.
</event>
<event>
 5   0  0.2820239E-05  0.2091689E+04  0.7818609E-02  0.8564913E-01
        1   -1    0    0  501    0  0.00000000000E+00  0.00000000000E+00  0.15483056058E+04  0.15483056058E+04  0.50400001928E-02 0.  1.
       -1   -1    0    0    0  501  0.00000000000E+00  0.00000000000E+00 -0.70644376456E+03  0.70644376458E+03  0.50400001928E-02 0. -1.
    10030    2    1    2    0    0  0.00000000000E+00  0.00000000000E+00  0.84186184123E+03  0.22547493704E+04  0.20916891173E+04 0.  0.
        3    1    3    3  502    0  0.63555673588E+03  0.24841239858E+03  0.12752748382E+04  0.14463633732E+04  0.10100000352E+00 0.  1.
       -3    1    3    3    0  502 -0.63555673588E+03 -0.24841239858E+03 -0.43341299694E+03  0.80838599716E+03  0.10100000352E+00 0. -1.
</event>
<event>
 5   0  0.2820239E-05  0.2171596E+04  0.7818609E-02  0.8530344E-01
        1   -1    0    0  501    0  0.00000000000E+00  0.00000000000E+00  0.15836903098E+04  0.15836903098E+04  0.50400001928E-02 0.  1.
       -1   -1    0    0    0  501  0.00000000000E+00  0.00000000000E+00 -0.74443666337E+03  0.74443666338E+03  0.50400001928E-02 0. -1.
    10030    2    1    2    0    0  0.00000000000E+00  0.00000000000E+00  0.83925364642E+03  0.23281269732E+04  0.21715958464E+04 0.  0.
        3    1    3    3  502    0  0.53863118239E+03  0.87693689122E+03  0.79072064491E+03  0.12978370507E+04  0.10100000352E+00 0.  1.
       -3    1    3    3    0  502 -0.53863118239E+03 -0.87693689122E+03  0.48533001513E+02  0.10302899224E+04  0.10100000352E+00 0. -1.
</event>
<event>
 5   0  0.2908031E-05  0.2209947E+04  0.7818609E-02  0.8514299E-01
       -1   -1    0    0    0  501  0.00000000000E+00  0.00000000000E+00  0.11268378006E+04  0.11268378006E+04  0.50400001928E-02 0. -1.
        1   -1    0    0  501    0  0.00000000000E+00  0.00000000000E+00 -0.10835337416E+04  0.10835337416E+04  0.50400001928E-02 0.  1.
    10030    2    1    2    0    0  0.00000000000E+00  0.00000000000E+00  0.43304059042E+02  0.22103715422E+04  0.22099473100E+04 0.  0.
        1    1    3    3  502    0 -0.25320372099E+03 -0.13964542633E+03  0.10883246666E+04  0.11260832781E+04  0.50400001928E-02 0. -1.
       -1    1    3    3    0  502  0.25320372099E+03  0.13964542633E+03 -0.10450206075E+04  0.10842882641E+04  0.50400001928E-02 0.  1.
</event>
<event>
 5   0  0.2929471E-05  0.2194712E+04  0.7818609E-02  0.8520632E-01
       -1   -1    0    0    0  501  0.00000000000E+00  0.00000000000E+00  0.22129304480E+04  0.22129304480E+04  0.50400001928E-02 0. -1.
        1   -1    0    0  501    0  0.00000000000E+00  0.00000000000E+00 -0.54416109823E+03  0.54416109826E+03  0.50400001928E-02 0.  1.
    10030    2    1    2    0    0  0.00000000000E+00  0.00000000000E+00  0.16687693498E+04  0.27570915463E+04  0.21947124303E+04 0.  0.
        2    1    3    3  502    0 -0.26142584927E+03  0.60638867830E+03  0.19354009589E+04  0.20449517294E+04  0.25500000920E-02 0. -1.
       -2    1    3    3    0  502  0.26142584927E+03 -0.60638867830E+03 -0.26663160910E+03  0.71213981690E+03  0.25500000920E-02 0.  1.
</event>
<event>
 5   0  0.6306919E-05  0.2200066E+04  0.7818609E-02  0.8518401E-01
       -2   -1    0    0    0  501  0.00000000000E+00  0.00000000000E+00  0.56362592316E+03  0.56362592316E+03  0.25500000920E-02 0.  1.
        2   -1    0    0  501    0  0.00000000000E+00  0.00000000000E+00 -0.21469431004E+04  0.21469431005E+04  0.25500000920E-02 0. -1.
    10030    2    1    2    0    0  0.00000000000E+00  0.00000000000E+00 -0.15833171773E+04  0.27105690236E+04  0.22000661690E+04 0.  0.
        3    1    3    3  502    0  0.10282843323E+04  0.35018144148E+03 -0.57798912081E+03  0.12304743573E+04  0.10100000352E+00 0.  1.
       -3    1    3    3    0  502 -0.10282843323E+04 -0.35018144148E+03 -0.10053280565E+04  0.14800946663E+04  0.10100000352E+00 0. -1.
</event>
<event>
 5   0  0.6306919E-05  0.2244692E+04  0.7818609E-02  0.8500053E-01
        2   -1    0    0  501    0  0.00000000000E+00  0.00000000000E+00  0.12390478888E+04  0.12390478888E+04  0.25500000920E-02 0.  1.
       -2   -1    0    0    0  501  0.00000000000E+00  0.00000000000E+00 -0.10166360729E+04  0.10166360729E+04  0.25500000920E-02 0. -1.
    10030    2    1    2    0    0  0.00000000000E+00  0.00000000000E+00  0.22241181587E+03  0.22556839617E+04  0.22446922104E+04 0.  0.
        3    1    3    3  502    0  0.72444764803E+03  0.62622111263E+03 -0.47705236656E+03  0.10698393558E+04  0.10100000352E+00 0. -1.
       -3    1    3    3    0  502 -0.72444764803E+03 -0.62622111263E+03  0.69946418243E+03  0.11858446059E+04  0.10100000352E+00 0.  1.
</event>
<event>
 5   0  0.2820239E-05  0.2194983E+04  0.7818609E-02  0.8520519E-01
       -1   -1    0    0    0  501  0.00000000000E+00  0.00000000000E+00  0.10510310607E+04  0.10510310607E+04  0.50400001928E-02 0. -1.
        1   -1    0    0  501    0  0.00000000000E+00  0.00000000000E+00 -0.11460053201E+04  0.11460053201E+04  0.50400001928E-02 0.  1.
    10030    2    1    2    0    0  0.00000000000E+00  0.00000000000E+00 -0.94974259330E+02  0.21970363808E+04  0.21949826306E+04 0.  0.
        3    1    3    3  502    0  0.88212513006E+03  0.14882715562E+03 -0.68384366109E+03  0.11260268338E+04  0.10100000352E+00 0.  1.
       -3    1    3    3    0  502 -0.88212513006E+03 -0.14882715562E+03  0.58886940176E+03  0.10710095470E+04  0.10100000352E+00 0. -1.
</event>
<event>
 5   0  0.6414768E-05  0.2238022E+04  0.7818609E-02  0.8502767E-01
       -2   -1    0    0    0  501  0.00000000000E+00  0.00000000000E+00  0.83876511790E+03  0.83876511790E+03  0.25500000920E-02 0.  1.
        2   -1    0    0  501    0  0.00000000000E+00  0.00000000000E+00 -0.14928915154E+04  0.14928915154E+04  0.25500000920E-02 0. -1.
    10030    2    1    2    0    0  0.00000000000E+00  0.00000000000E+00 -0.65412639746E+03  0.23316566333E+04  0.22380217406E+04 0.  0.
        2    1    3    3  502    0 -0.58039359151E+03 -0.52937339499E+03 -0.11573320736E+04  0.13987531737E+04  0.25500000920E-02 0. -1.
       -2    1    3    3    0  502  0.58039359151E+03  0.52937339499E+03  0.50320567611E+03  0.93290345956E+03  0.25500000920E-02 0.  1.
</event>
<event>
 5   0  0.6293013E-05  0.2213527E+04  0.7818609E-02  0.8512819E-01
       -2   -1    0    0    0  501  0.00000000000E+00  0.00000000000E+00  0.72116613462E+03  0.72116613462E+03  0.25500000920E-02 0. -1.
        2   -1    0    0  501    0  0.00000000000E+00  0.00000000000E+00 -0.16985347890E+04  0.16985347890E+04  0.25500000920E-02 0.  1.
    10030    2    1    2    0    0  0.00000000000E+00  0.00000000000E+00 -0.97736865438E+03  0.24197009236E+04  0.22135272922E+04 0.  0.
        1    1    3    3  502    0 -0.51392827444E+03  0.81320628410E+03  0.10955440023E+03  0.96820911915E+03  0.50400001928E-02 0. -1.
       -1    1    3    3    0  502  0.51392827444E+03 -0.81320628410E+03 -0.10869230546E+04  0.14514918045E+04  0.50400001928E-02 0.  1.
</event>
<event>
 5   0  0.6628798E-05  0.1842091E+04  0.7818609E-02  0.8684231E-01
       -2   -1    0    0    0  501  0.00000000000E+00  0.00000000000E+00  0.11665659774E+04  0.11665659774E+04  0.25500000920E-02 0. -1.
        2   -1    0    0  501    0  0.00000000000E+00  0.00000000000E+00 -0.72719854813E+03  0.72719854813E+03  0.25500000920E-02 0.  1.
    10030    2    1    2    0    0  0.00000000000E+00  0.00000000000E+00  0.43936742928E+03  0.18937645255E+04  0.18420912953E+04 0.  0.
        4    1    3    3  502    0  0.55736578254E+03  0.42737267740E+03  0.83223280720E+03  0.10889981998E+04  0.12699999809E+01 0. -1.
       -4    1    3    3    0  502 -0.55736578254E+03 -0.42737267740E+03 -0.39286537793E+03  0.80476632571E+03  0.12699999809E+01 0.  1.
</event>
<event>
 5   0  0.2910318E-05  0.2215707E+04  0.7818609E-02  0.8511919E-01
       -1   -1    0    0    0  501  0.00000000000E+00  0.00000000000E+00  0.66264320637E+03  0.66264320639E+03  0.50400001928E-02 0.  1.
        1   -1    0    0  501    0  0.00000000000E+00  0.00000000000E+00 -0.18521876488E+04  0.18521876488E+04  0.50400001928E-02 0. -1.
    10030    2    1    2    0    0  0.00000000000E+00  0.00000000000E+00 -0.11895444424E+04  0.25148308552E+04  0.22157071670E+04 0.  0.
        5    1    3    3  502    0  0.39960596806E+03  0.14319964501E+03  0.56666562362E+03  0.70804172690E+03  0.46999998093E+01 0.  1.
       -5    1    3    3    0  502 -0.39960596806E+03 -0.14319964501E+03 -0.17562100660E+04  0.18067891283E+04  0.46999998093E+01 0. -1.
</event>
<event>
 5   0  0.6293013E-05  0.2215661E+04  0.7818609E-02  0.8511938E-01
        2   -1    0    0  501    0  0.00000000000E+00  0.00000000000E+00  0.97147041737E+03  0.97147041737E+03  0.25500000920E-02 0. -1.
       -2   -1    0    0    0  501  0.00000000000E+00  0.00000000000E+00 -0.12633304817E+04  0.12633304817E+04  0.25500000920E-02 0.  1.
    10030    2    1    2    0    0  0.00000000000E+00  0.00000000000E+00 -0.29186006431E+03  0.22348008990E+04  0.22156607956E+04 0.  0.
        1    1    3    3  502    0  0.29223294673E+03 -0.76934574358E+03  0.60209308982E+03  0.10197102810E+04  0.50400001928E-02 0. -1.
       -1    1    3    3    0  502 -0.29223294673E+03  0.76934574358E+03 -0.89395315412E+03  0.12150906181E+04  0.50400001928E-02 0.  1.
</event>
<event>
 5   0  0.6306919E-05  0.2211326E+04  0.7818609E-02  0.8513729E-01
       -2   -1    0    0    0  501  0.00000000000E+00  0.00000000000E+00  0.44247984293E+03  0.44247984294E+03  0.25500000920E-02 0. -1.
        2   -1    0    0  501    0  0.00000000000E+00  0.00000000000E+00 -0.27628175258E+04  0.27628175258E+04  0.25500000920E-02 0.  1.
    10030    2    1    2    0    0  0.00000000000E+00  0.00000000000E+00 -0.23203376829E+04  0.32052973687E+04  0.22113263575E+04 0.  0.
        3    1    3    3  502    0 -0.82854735800E+03 -0.32292663241E+03 -0.21125612502E+04  0.22920923586E+04  0.10100000352E+00 0.  1.
       -3    1    3    3    0  502  0.82854735800E+03  0.32292663241E+03 -0.20777643267E+03  0.91320501013E+03  0.10100000352E+00 0. -1.
</event>
<event>
 5   0  0.2753631E-05  0.2171407E+04  0.7818609E-02  0.8530424E-01
       -1   -1    0    0    0  501  0.00000000000E+00  0.00000000000E+00  0.95695890556E+03  0.95695890558E+03  0.50400001928E-02 0. -1.
        1   -1    0    0  501    0  0.00000000000E+00  0.00000000000E+00 -0.12317683803E+04  0.12317683803E+04  0.50400001928E-02 0.  1.
    10030    2    1    2    0    0  0.00000000000E+00  0.00000000000E+00 -0.27480947473E+03  0.21887272859E+04  0.21714066603E+04 0.  0.
        4    1    3    3  502    0  0.10592735297E+04  0.23746130944E+03 -0.15491639925E+03  0.10965623502E+04  0.12699999809E+01 0. -1.
       -4    1    3    3    0  502 -0.10592735297E+04 -0.23746130944E+03 -0.11989307548E+03  0.10921649357E+04  0.12699999809E+01 0.  1.
</event>
<event>
 5   0  0.6445740E-05  0.2168222E+04  0.7818609E-02  0.8531773E-01
       -2   -1    0    0    0  501  0.00000000000E+00  0.00000000000E+00  0.85184503798E+03  0.85184503798E+03  0.25500000920E-02 0. -1.
        2   -1    0    0  501    0  0.00000000000E+00  0.00000000000E+00 -0.13797065559E+04  0.13797065559E+04  0.25500000920E-02 0.  1.
    10030    2    1    2    0    0  0.00000000000E+00  0.00000000000E+00 -0.52786151796E+03  0.22315515939E+04  0.21682215602E+04 0.  0.
        5    1    3    3  502    0 -0.19205587756E+03  0.10391523072E+04 -0.51297176510E+03  0.11746851065E+04  0.46999998093E+01 0.  1.
       -5    1    3    3    0  502  0.19205587756E+03 -0.10391523072E+04 -0.14889752863E+02  0.10568664875E+04  0.46999998093E+01 0. -1.
</event>
<event>
 5   0  0.6414768E-05  0.2193558E+04  0.7818609E-02  0.8521114E-01
        2   -1    0    0  501    0  0.00000000000E+00  0.00000000000E+00  0.13213206765E+04  0.13213206765E+04  0.25500000920E-02 0.  1.
       -2   -1    0    0    0  501  0.00000000000E+00  0.00000000000E+00 -0.91039501227E+03  0.91039501227E+03  0.25500000920E-02 0. -1.
    10030    2    1    2    0    0  0.00000000000E+00  0.00000000000E+00  0.41092566425E+03  0.22317156888E+04  0.21935576159E+04 0.  0.
        2    1    3    3  502    0  0.47423141473E+03  0.23788853206E+03  0.11820763473E+04  0.12956816273E+04  0.25500000920E-02 0.  1.
       -2    1    3    3    0  502 -0.47423141473E+03 -0.23788853206E+03 -0.77115068304E+03  0.93603406154E+03  0.25500000920E-02 0. -1.
</event>
<event>
 5   0  0.6414768E-05  0.2193451E+04  0.7818609E-02  0.8521159E-01
       -2   -1    0    0    0  501  0.00000000000E+00  0.00000000000E+00  0.11563127562E+04  0.11563127562E+04  0.25500000920E-02 0.  1.
        2   -1    0    0  501    0  0.00000000000E+00  0.00000000000E+00 -0.10402089027E+04  0.10402089027E+04  0.25500000920E-02 0. -1.
    10030    2    1    2    0    0  0.00000000000E+00  0.00000000000E+00  0.11610385343E+03  0.21965216589E+04  0.21934510009E+04 0.  0.
        2    1    3    3  502    0 -0.48861251235E+03  0.58549093668E+02 -0.92344089196E+03  0.10463810322E+04  0.25500000920E-02 0. -1.
       -2    1    3    3    0  502  0.48861251235E+03 -0.58549093668E+02  0.10395447454E+04  0.11501406267E+04  0.25500000920E-02 0.  1.
</event>
<event>
 5   0  0.2820239E-05  0.2170387E+04  0.7818609E-02  0.8530856E-01
        1   -1    0    0  501    0  0.00000000000E+00  0.00000000000E+00  0.91442694801E+03  0.91442694802E+03  0.50400001928E-02 0.  1.
       -1   -1    0    0    0  501  0.00000000000E+00  0.00000000000E+00 -0.12878503781E+04  0.12878503781E+04  0.50400001928E-02 0. -1.
    10030    2    1    2    0    0  0.00000000000E+00  0.00000000000E+00 -0.37342343007E+03  0.22022773261E+04  0.21703871459E+04 0.  0.
        3    1    3    3  502    0 -0.90055923323E+03 -0.57729375628E+03 -0.13528601777E+01  0.10697087707E+04  0.10100000352E+00 0.  1.
       -3    1    3    3    0  502  0.90055923323E+03  0.57729375628E+03 -0.37207056990E+03  0.11325685554E+04  0.10100000352E+00 0. -1.
</event>
<event>
 5   0  0.2929471E-05  0.2204259E+04  0.7818609E-02  0.8516658E-01
        1   -1    0    0  501    0  0.00000000000E+00  0.00000000000E+00  0.15153989016E+04  0.15153989016E+04  0.50400001928E-02 0.  1.
       -1   -1    0    0    0  501  0.00000000000E+00  0.00000000000E+00 -0.80156392027E+03  0.80156392028E+03  0.50400001928E-02 0. -1.
    10030    2    1    2    0    0  0.00000000000E+00  0.00000000000E+00  0.71383498136E+03  0.23169628219E+04  0.22042586821E+04 0.  0.
        2    1    3    3  502    0  0.71423582982E+03 -0.59017424057E+02 -0.52319501131E+03  0.88732682638E+03  0.25500000920E-02 0. -1.
       -2    1    3    3    0  502 -0.71423582982E+03  0.59017424057E+02  0.12370299927E+04  0.14296359955E+04  0.25500000920E-02 0.  1.
</event>
<event>
 5   0  0.6293013E-05  0.2189675E+04  0.7818609E-02  0.8522738E-01
       -2   -1    0    0    0  501  0.00000000000E+00  0.00000000000E+00  0.61349568851E+03  0.61349568852E+03  0.25500000920E-02 0. -1.
        2   -1    0    0  501    0  0.00000000000E+00  0.00000000000E+00 -0.19538343431E+04  0.19538343431E+04  0.25500000920E-02 0.  1.
    10030    2    1    2    0    0  0.00000000000E+00  0.00000000000E+00 -0.13403386546E+04  0.25673300316E+04  0.21896748120E+04 0.  0.
        1    1    3    3  502    0 -0.63556165485E+03  0.86766588563E+03 -0.43020992948E+03  0.11583882292E+04  0.50400001928E-02 0. -1.
       -1    1    3    3    0  502  0.63556165485E+03 -0.86766588563E+03 -0.91012872514E+03  0.14089418024E+04  0.50400001928E-02 0.  1.
</event>
<event>
 5   0  0.2929471E-05  0.2190543E+04  0.7818609E-02  0.8522374E-01
       -1   -1    0    0    0  501  0.00000000000E+00  0.00000000000E+00  0.82970490042E+03  0.82970490044E+03  0.50400001928E-02 0.  1.
        1   -1    0    0  501    0  0.00000000000E+00  0.00000000000E+00 -0.14458395181E+04  0.14458395181E+04  0.50400001928E-02 0. -1.
    10030    2    1    2    0    0  0.00000000000E+00  0.00000000000E+00 -0.61613461763E+03  0.22755444185E+04  0.21905434334E+04 0.  0.
        2    1    3    3  502    0 -0.50783388274E+03 -0.90312477113E+03 -0.67693845187E+03  0.12376490909E+04  0.25500000920E-02 0.  1.
       -2    1    3    3    0  502  0.50783388274E+03  0.90312477113E+03  0.60803834242E+02  0.10378953276E+04  0.25500000920E-02 0. -1.
</event>
<event>
 5   0  0.2910318E-05  0.2176256E+04  0.7818609E-02  0.8528376E-01
       -1   -1    0    0    0  501  0.00000000000E+00  0.00000000000E+00  0.82508529515E+03  0.82508529517E+03  0.50400001928E-02 0. -1.
        1   -1    0    0  501    0  0.00000000000E+00  0.00000000000E+00 -0.14350309970E+04  0.14350309970E+04  0.50400001928E-02 0.  1.
    10030    2    1    2    0    0  0.00000000000E+00  0.00000000000E+00 -0.60994570181E+03  0.22601162921E+04  0.21762563946E+04 0.  0.
        5    1    3    3  502    0  0.71724740054E+03 -0.67762332206E+03 -0.78132349092E+03  0.12586126043E+04  0.46999998093E+01 0.  1.
       -5    1    3    3    0  502 -0.71724740054E+03  0.67762332206E+03  0.17137778911E+03  0.10015036879E+04  0.46999998093E+01 0. -1.
</event>
<event>
 5   0  0.6445740E-05  0.2193965E+04  0.7818609E-02  0.8520944E-01
        2   -1    0    0  501    0  0.00000000000E+00  0.00000000000E+00  0.25380401511E+04  0.25380401511E+04  0.25500000920E-02 0. -1.
       -2   -1    0    0    0  501  0.00000000000E+00  0.00000000000E+00 -0.47413397406E+03  0.47413397406E+03  0.25500000920E-02 0.  1.
    10030    2    1    2    0    0  0.00000000000E+00  0.00000000000E+00  0.20639061770E+04  0.30121741251E+04  0.21939654174E+04 0.  0.
        5    1    3    3  502    0  0.20168857796E+03 -0.11241797739E+03  0.25042839866E+04  0.25149108254E+04  0.46999998093E+01 0. -1.
       -5    1    3    3    0  502 -0.20168857796E+03  0.11241797739E+03 -0.44037780958E+03  0.49726329976E+03  0.46999998093E+01 0.  1.
</event>
<event>
 5   0  0.2929471E-05  0.2215423E+04  0.7818609E-02  0.8512036E-01
       -1   -1    0    0    0  501  0.00000000000E+00  0.00000000000E+00  0.94598148064E+03  0.94598148065E+03  0.50400001928E-02 0.  1.
        1   -1    0    0  501    0  0.00000000000E+00  0.00000000000E+00 -0.12970921919E+04  0.12970921919E+04  0.50400001928E-02 0. -1.
    10030    2    1    2    0    0  0.00000000000E+00  0.00000000000E+00 -0.35111071124E+03  0.22430736725E+04  0.22154233837E+04 0.  0.
        2    1    3    3  502    0 -0.92551903183E+03 -0.60376750661E+03 -0.25335521357E+03  0.11337149309E+04  0.25500000920E-02 0.  1.
       -2    1    3    3    0  502  0.92551903183E+03  0.60376750661E+03 -0.97755497676E+02  0.11093587416E+04  0.25500000920E-02 0. -1.
</event>
<event>
 5   0  0.2820239E-05  0.2200988E+04  0.7818609E-02  0.8518017E-01
       -1   -1    0    0    0  501  0.00000000000E+00  0.00000000000E+00  0.14115602160E+04  0.14115602160E+04  0.50400001928E-02 0.  1.
        1   -1    0    0  501    0  0.00000000000E+00  0.00000000000E+00 -0.85797746595E+03  0.85797746596E+03  0.50400001928E-02 0. -1.
    10030    2    1    2    0    0  0.00000000000E+00  0.00000000000E+00  0.55358275003E+03  0.22695376820E+04  0.22009878302E+04 0.  0.
        3    1    3    3  502    0 -0.87550784225E+02  0.80114988041E+03 -0.49593510626E+03  0.94628637870E+03  0.10100000352E+00 0. -1.
       -3    1    3    3    0  502  0.87550784225E+02 -0.80114988041E+03  0.10495178563E+04  0.13232513033E+04  0.10100000352E+00 0.  1.
</event>
<event>
 5   0  0.2910318E-05  0.2199590E+04  0.7818609E-02  0.8518599E-01
        1   -1    0    0  501    0  0.00000000000E+00  0.00000000000E+00  0.14516112157E+04  0.14516112157E+04  0.50400001928E-02 0. -1.
       -1   -1    0    0    0  501  0.00000000000E+00  0.00000000000E+00 -0.83324558044E+03  0.83324558045E+03  0.50400001928E-02 0.  1.
    10030    2    1    2    0    0  0.00000000000E+00  0.00000000000E+00  0.61836563523E+03  0.22848567961E+04  0.21995896254E+04 0.  0.
        5    1    3    3  502    0  0.80298202135E+03 -0.68359382633E+03 -0.15081450864E+02  0.10546706529E+04  0.46999998093E+01 0.  1.
       -5    1    3    3    0  502 -0.80298202135E+03  0.68359382633E+03  0.63344708610E+03  0.12301861432E+04  0.46999998093E+01 0. -1.
</event>
<event>
 5   0  0.6414768E-05  0.2236424E+04  0.7818609E-02  0.8503419E-01
        2   -1    0    0  501    0  0.00000000000E+00  0.00000000000E+00  0.97246767056E+03  0.97246767056E+03  0.25500000920E-02 0. -1.
       -2   -1    0    0    0  501  0.00000000000E+00  0.00000000000E+00 -0.12857991618E+04  0.12857991618E+04  0.25500000920E-02 0.  1.
    10030    2    1    2    0    0  0.00000000000E+00  0.00000000000E+00 -0.31333149120E+03  0.22582668323E+04  0.22364240346E+04 0.  0.
        2    1    3    3  502    0  0.49173263166E+03  0.73022674481E+03 -0.85286760596E+03  0.12257304896E+04  0.25500000920E-02 0.  1.
       -2    1    3    3    0  502 -0.49173263166E+03 -0.73022674481E+03  0.53953611476E+03  0.10325363427E+04  0.25500000920E-02 0. -1.
</event>
<event>
 5   0  0.6293013E-05  0.2167492E+04  0.7818609E-02  0.8532082E-01
        2   -1    0    0  501    0  0.00000000000E+00  0.00000000000E+00  0.13730674051E+04  0.13730674051E+04  0.25500000920E-02 0. -1.
       -2   -1    0    0    0  501  0.00000000000E+00  0.00000000000E+00 -0.85538788567E+03  0.85538788568E+03  0.25500000920E-02 0.  1.
    10030    2    1    2    0    0  0.00000000000E+00  0.00000000000E+00  0.51767951947E+03  0.22284552908E+04  0.21674918450E+04 0.  0.
        1    1    3    3  502    0 -0.82566279574E+03  0.48804435826E+03  0.77760957033E+03  0.12347400503E+04  0.50400001928E-02 0. -1.
       -1    1    3    3    0  502  0.82566279574E+03 -0.48804435826E+03 -0.25993005086E+03  0.99371524053E+03  0.50400001928E-02 0.  1.
</event>
<event>
 5   0  0.2820239E-05  0.2212573E+04  0.7818609E-02  0.8513213E-01
        1   -1    0    0  501    0  0.00000000000E+00  0.00000000000E+00  0.16691425873E+04  0.16691425873E+04  0.50400001928E-02 0. -1.
       -1   -1    0    0    0  501  0.00000000000E+00  0.00000000000E+00 -0.73323258985E+03  0.73323258987E+03  0.50400001928E-02 0.  1.
    10030    2    1    2    0    0  0.00000000000E+00  0.00000000000E+00  0.93590999746E+03  0.24023751772E+04  0.22125729296E+04 0.  0.
        3    1    3    3  502    0  0.40938553326E+03 -0.49397677054E+03  0.14465225605E+04  0.15824149560E+04  0.10100000352E+00 0. -1.
       -3    1    3    3    0  502 -0.40938553326E+03  0.49397677054E+03 -0.51061256302E+03  0.81996022122E+03  0.10100000352E+00 0.  1.
</event>
<event>
 5   0  0.6293013E-05  0.2210312E+04  0.7818609E-02  0.8514148E-01
       -2   -1    0    0    0  501  0.00000000000E+00  0.00000000000E+00  0.62694717219E+03  0.62694717220E+03  0.25500000920E-02 0.  1.
        2   -1    0    0  501    0  0.00000000000E+00  0.00000000000E+00 -0.19481231333E+04  0.19481231333E+04  0.25500000920E-02 0. -1.
    10030    2    1    2    0    0  0.00000000000E+00  0.00000000000E+00 -0.13211759611E+04  0.25750703055E+04  0.22103124571E+04 0.  0.
        1    1    3    3  502    0  0.50898001871E+03  0.16468482981E+03  0.46605160591E+03  0.70949690063E+03  0.50400001928E-02 0.  1.
       -1    1    3    3    0  502 -0.50898001871E+03 -0.16468482981E+03 -0.17872275670E+04  0.18655734048E+04  0.50400001928E-02 0. -1.
</event>
<event>
 5   0  0.6293013E-05  0.2169422E+04  0.7818609E-02  0.8531264E-01
       -2   -1    0    0    0  501  0.00000000000E+00  0.00000000000E+00  0.14453422887E+04  0.14453422887E+04  0.25500000920E-02 0. -1.
        2   -1    0    0  501    0  0.00000000000E+00  0.00000000000E+00 -0.81406211765E+03  0.81406211766E+03  0.25500000920E-02 0.  1.
    10030    2    1    2    0    0  0.00000000000E+00  0.00000000000E+00  0.63128017106E+03  0.22594044064E+04  0.21694224156E+04 0.  0.
        1    1    3    3  502    0 -0.34084135120E+03 -0.99846075911E+03  0.53192555219E+02  0.10563740635E+04  0.50400001928E-02 0.  1.
       -1    1    3    3    0  502  0.34084135120E+03  0.99846075911E+03  0.57808761584E+03  0.12030303428E+04  0.50400001928E-02 0. -1.
</event>
<event>
 5   0  0.6445740E-05  0.2112819E+04  0.7818609E-02  0.8555618E-01
        2   -1    0    0  501    0  0.00000000000E+00  0.00000000000E+00  0.20992838967E+04  0.20992838967E+04  0.25500000920E-02 0. -1.
       -2   -1    0    0    0  501  0.00000000000E+00  0.00000000000E+00 -0.53161010659E+03  0.53161010659E+03  0.25500000920E-02 0.  1.
    10030    2    1    2    0    0  0.00000000000E+00  0.00000000000E+00  0.15676737902E+04  0.26308940033E+04  0.21128185309E+04 0.  0.
        5    1    3    3  502    0 -0.50180814794E+03 -0.59646725678E+03 -0.10401656964E+03  0.78640075185E+03  0.46999998093E+01 0.  1.
       -5    1    3    3    0  502  0.50180814794E+03  0.59646725678E+03  0.16716903598E+04  0.18444932515E+04  0.46999998093E+01 0. -1.
</event>
<event>
 5   0  0.6306919E-05  0.2184183E+04  0.7818609E-02  0.8525040E-01
        2   -1    0    0  501    0  0.00000000000E+00  0.00000000000E+00  0.21392906242E+04  0.21392906242E+04  0.25500000920E-02 0.  1.
       -2   -1    0    0    0  501  0.00000000000E+00  0.00000000000E+00 -0.55750452615E+03  0.55750452616E+03  0.25500000920E-02 0. -1.
    10030    2    1    2    0    0  0.00000000000E+00  0.00000000000E+00  0.15817860981E+04  0.26967951504E+04  0.21841833309E+04 0.  0.
        3    1    3    3  502    0  0.10606123163E+04 -0.22571924108E+03  0.63077985565E+03  0.12544843155E+04  0.10100000352E+00 0.  1.
       -3    1    3    3    0  502 -0.10606123163E+04  0.22571924108E+03  0.95100624243E+03  0.14423108349E+04  0.10100000352E+00 0. -1.
</event>
<event>
 5   0  0.2908031E-05  0.2320251E+04  0.7818609E-02  0.8469979E-01
       -1   -1    0    0    0  501  0.00000000000E+00  0.00000000000E+00  0.10771176589E+04  0.10771176589E+04  0.50400001928E-02 0. -1.
        1   -1    0    0  501    0  0.00000000000E+00  0.00000000000E+00 -0.12495298315E+04  0.12495298315E+04  0.50400001928E-02 0.  1.
    10030    2    1    2    0    0  0.00000000000E+00  0.00000000000E+00 -0.17241217258E+03  0.23266474904E+04  0.23202505441E+04 0.  0.
        1    1    3    3  502    0  0.21379663638E+03 -0.24267079531E+03  0.10309986707E+04  0.10805352265E+04  0.50400001928E-02 0. -1.
       -1    1    3    3    0  502 -0.21379663638E+03  0.24267079531E+03 -0.12034108433E+04  0.12461122639E+04  0.50400001928E-02 0.  1.
</event>
<event>
 5   0  0.2908031E-05  0.1941426E+04  0.7818609E-02  0.8634506E-01
        1   -1    0    0  501    0  0.00000000000E+00  0.00000000000E+00  0.15937423892E+04  0.15937423892E+04  0.50400001928E-02 0.  1.
       -1   -1    0    0    0  501  0.00000000000E+00  0.00000000000E+00 -0.59123962169E+03  0.59123962171E+03  0.50400001928E-02 0. -1.
    10030    2    1    2    0    0  0.00000000000E+00  0.00000000000E+00  0.10025027675E+04  0.21849820109E+04  0.19414259165E+04 0.  0.
        1    1    3    3  502    0  0.22522750781E+03 -0.10539019864E+03 -0.55478571559E+03  0.60796522474E+03  0.50400001928E-02 0. -1.
       -1    1    3    3    0  502 -0.22522750781E+03  0.10539019864E+03  0.15572884831E+04  0.15770167862E+04  0.50400001928E-02 0.  1.
</event>
<event>
 5   0  0.2908031E-05  0.2197612E+04  0.7818609E-02  0.8519423E-01
        1   -1    0    0  501    0  0.00000000000E+00  0.00000000000E+00  0.11006001344E+04  0.11006001344E+04  0.50400001928E-02 0. -1.
       -1   -1    0    0    0  501  0.00000000000E+00  0.00000000000E+00 -0.10970148714E+04  0.10970148714E+04  0.50400001928E-02 0.  1.
    10030    2    1    2    0    0  0.00000000000E+00  0.00000000000E+00  0.35852629249E+01  0.21976150058E+04  0.21976120813E+04 0.  0.
        1    1    3    3  502    0 -0.80185590764E+03  0.50325976103E+03  0.55958493987E+03  0.10997175040E+04  0.50400001928E-02 0. -1.
       -1    1    3    3    0  502  0.80185590764E+03 -0.50325976103E+03 -0.55599967694E+03  0.10978975018E+04  0.50400001928E-02 0.  1.
</event>
<event>
 5   0  0.6445740E-05  0.2174709E+04  0.7818609E-02  0.8529029E-01
        2   -1    0    0  501    0  0.00000000000E+00  0.00000000000E+00  0.12144748678E+04  0.12144748679E+04  0.25500000920E-02 0.  1.
       -2   -1    0    0    0  501  0.00000000000E+00  0.00000000000E+00 -0.97353986112E+03  0.97353986112E+03  0.25500000920E-02 0. -1.
    10030    2    1    2    0    0  0.00000000000E+00  0.00000000000E+00  0.24093500673E+03  0.21880147290E+04  0.21747088947E+04 0.  0.
        5    1    3    3  502    0  0.80433249527E+03 -0.18297934123E+03  0.83324075306E+03  0.11724949658E+04  0.46999998093E+01 0.  1.
       -5    1    3    3    0  502 -0.80433249527E+03  0.18297934123E+03 -0.59230574633E+03  0.10155197632E+04  0.46999998093E+01 0. -1.
</event>
<event>
 5   0  0.6293013E-05  0.2202803E+04  0.7818609E-02  0.8517262E-01
       -2   -1    0    0    0  501  0.00000000000E+00  0.00000000000E+00  0.15685479013E+04  0.15685479013E+04  0.25500000920E-02 0.  1.
        2   -1    0    0  501    0  0.00000000000E+00  0.00000000000E+00 -0.77338139945E+03  0.77338139946E+03  0.25500000920E-02 0. -1.
    10030    2    1    2    0    0  0.00000000000E+00  0.00000000000E+00  0.79516650188E+03  0.23419293008E+04  0.22028034602E+04 0.  0.
        1    1    3    3  502    0 -0.66314231961E+03 -0.35211565431E+03 -0.45912900207E+03  0.88008102504E+03  0.50400001928E-02 0. -1.
       -1    1    3    3    0  502  0.66314231961E+03  0.35211565431E+03  0.12542955039E+04  0.14618482757E+04  0.50400001928E-02 0.  1.
</event>
<event>
 5   0  0.2910318E-05  0.2231405E+04  0.7818609E-02  0.8505469E-01
        1   -1    0    0  501    0  0.00000000000E+00  0.00000000000E+00  0.10498746759E+04  0.10498746759E+04  0.50400001928E-02 0.  1.
       -1   -1    0    0    0  501  0.00000000000E+00  0.00000000000E+00 -0.11856573124E+04  0.11856573125E+04  0.50400001928E-02 0. -1.
    10030    2    1    2    0    0  0.00000000000E+00  0.00000000000E+00 -0.13578263657E+03  0.22355319884E+04  0.22314045681E+04 0.  0.
        5    1    3    3  502    0  0.23110135028E+03  0.40679079471E+03 -0.10826235810E+04  0.11793992084E+04  0.46999998093E+01 0. -1.
       -5    1    3    3    0  502 -0.23110135028E+03 -0.40679079471E+03  0.94684094442E+03  0.10561327799E+04  0.46999998093E+01 0.  1.
</event>
<event>
 5   0  0.2820239E-05  0.2214072E+04  0.7818609E-02  0.8512594E-01
       -1   -1    0    0    0  501  0.00000000000E+00  0.00000000000E+00  0.56375983515E+03  0.56375983517E+03  0.50400001928E-02 0.  1.
        1   -1    0    0  501    0  0.00000000000E+00  0.00000000000E+00 -0.21738481982E+04  0.21738481982E+04  0.50400001928E-02 0. -1.
    10030    2    1    2    0    0  0.00000000000E+00  0.00000000000E+00 -0.16100883631E+04  0.27376080334E+04  0.22140716356E+04 0.  0.
        3    1    3    3  502    0 -0.65406294812E+03 -0.58322414304E+03  0.31353657514E+02  0.87688756586E+03  0.10100000352E+00 0.  1.
       -3    1    3    3    0  502  0.65406294812E+03  0.58322414304E+03 -0.16414420206E+04  0.18607204675E+04  0.10100000352E+00 0. -1.
</event>
<event>
 5   0  0.6293013E-05  0.2166982E+04  0.7818609E-02  0.8532298E-01
        2   -1    0    0  501    0  0.00000000000E+00  0.00000000000E+00  0.18499265039E+04  0.18499265039E+04  0.25500000920E-02 0. -1.
       -2   -1    0    0    0  501  0.00000000000E+00  0.00000000000E+00 -0.63459439807E+03  0.63459439808E+03  0.25500000920E-02 0.  1.
    10030    2    1    2    0    0  0.00000000000E+00  0.00000000000E+00  0.12153321059E+04  0.24845209020E+04  0.21669822300E+04 0.  0.
        1    1    3    3  502    0  0.42185331897E+03  0.96990746125E+03  0.87721710696E+03  0.13741144635E+04  0.50400001928E-02 0. -1.
       -1    1    3    3    0  502 -0.42185331897E+03 -0.96990746125E+03  0.33811499889E+03  0.11104064385E+04  0.50400001928E-02 0.  1.
</event>
<event>
 5   0  0.2908031E-05  0.2207256E+04  0.7818609E-02  0.8515414E-01
       -1   -1    0    0    0  501  0.00000000000E+00  0.00000000000E+00  0.14343347166E+04  0.14343347166E+04  0.50400001928E-02 0. -1.
        1   -1    0    0  501    0  0.00000000000E+00  0.00000000000E+00 -0.84917025047E+03  0.84917025049E+03  0.50400001928E-02 0.  1.
    10030    2    1    2    0    0  0.00000000000E+00  0.00000000000E+00  0.58516446609E+03  0.22835049671E+04  0.22072556450E+04 0.  0.
        1    1    3    3  502    0  0.35555034760E+03 -0.11980973604E+03  0.13663301252E+04  0.14169080541E+04  0.50400001928E-02 0. -1.
       -1    1    3    3    0  502 -0.35555034760E+03  0.11980973604E+03 -0.78116565915E+03  0.86659691298E+03  0.50400001928E-02 0.  1.
</event>
<event>
 5   0  0.2929471E-05  0.2229438E+04  0.7818609E-02  0.8506274E-01
       -1   -1    0    0    0  501  0.00000000000E+00  0.00000000000E+00  0.85522731990E+03  0.85522731992E+03  0.50400001928E-02 0. -1.
        1   -1    0    0  501    0  0.00000000000E+00  0.00000000000E+00 -0.14529447109E+04  0.14529447109E+04  0.50400001928E-02 0.  1.
    10030    2    1    2    0    0  0.00000000000E+00  0.00000000000E+00 -0.59771739102E+03  0.23081720309E+04  0.22294376072E+04 0.  0.
        2    1    3    3  502    0  0.10472692669E+04  0.12547384227E+03  0.74546595059E+02  0.10573900876E+04  0.25500000920E-02 0. -1.
       -2    1    3    3    0  502 -0.10472692669E+04 -0.12547384227E+03 -0.67226398608E+03  0.12507819432E+04  0.25500000920E-02 0.  1.
</event>
<event>
 5   0  0.2753631E-05  0.2228528E+04  0.7818609E-02  0.8506647E-01
       -1   -1    0    0    0  501  0.00000000000E+00  0.00000000000E+00  0.69506501247E+03  0.69506501249E+03  0.50400001928E-02 0.  1.
        1   -1    0    0  501    0  0.00000000000E+00  0.00000000000E+00 -0.17862846733E+04  0.17862846733E+04  0.50400001928E-02 0. -1.
    10030    2    1    2    0    0  0.00000000000E+00  0.00000000000E+00 -0.10912196609E+04  0.24813496858E+04  0.22285277461E+04 0.  0.
        4    1    3    3  502    0 -0.49774759757E+03  0.28088365730E+03 -0.16106471483E+04  0.17090448060E+04  0.12699999809E+01 0. -1.
       -4    1    3    3    0  502  0.49774759757E+03 -0.28088365730E+03  0.51942748741E+03  0.77230487982E+03  0.12699999809E+01 0.  1.
</event>
<event>
 5   0  0.2753631E-05  0.2200871E+04  0.7818609E-02  0.8518066E-01
       -1   -1    0    0    0  501  0.00000000000E+00  0.00000000000E+00  0.10244979396E+04  0.10244979396E+04  0.50400001928E-02 0. -1.
        1   -1    0    0  501    0  0.00000000000E+00  0.00000000000E+00 -0.11820014628E+04  0.11820014628E+04  0.50400001928E-02 0.  1.
    10030    2    1    2    0    0  0.00000000000E+00  0.00000000000E+00 -0.15750352325E+03  0.22064994024E+04  0.22008707942E+04 0.  0.
        4    1    3    3  502    0 -0.37916474808E+03  0.25998464001E+02 -0.11141148412E+04  0.11771556051E+04  0.12699999809E+01 0.  1.
       -4    1    3    3    0  502  0.37916474808E+03 -0.25998464001E+02  0.95661131799E+03  0.10293437972E+04  0.12699999809E+01 0. -1.
</event>
<event>
 5   0  0.2908031E-05  0.2250971E+04  0.7818609E-02  0.8497508E-01
       -1   -1    0    0    0  501  0.00000000000E+00  0.00000000000E+00  0.95794059284E+03  0.95794059286E+03  0.50400001928E-02 0.  1.
        1   -1    0    0  501    0  0.00000000000E+00  0.00000000000E+00 -0.13223336592E+04  0.13223336592E+04  0.50400001928E-02 0. -1.
    10030    2    1    2    0    0  0.00000000000E+00  0.00000000000E+00 -0.36439306638E+03  0.22802742521E+04  0.22509705369E+04 0.  0.
        1    1    3    3  502    0  0.46438238995E+03  0.41212038540E+03  0.76875887692E+03  0.98817226587E+03  0.50400001928E-02 0.  1.
       -1    1    3    3    0  502 -0.46438238995E+03 -0.41212038540E+03 -0.11331519433E+04  0.12921019862E+04  0.50400001928E-02 0. -1.
</event>
<event>
 5   0  0.2820239E-05  0.2191876E+04  0.7818609E-02  0.8521817E-01
       -1   -1    0    0    0  501  0.00000000000E+00  0.00000000000E+00  0.75256459951E+03  0.75256459953E+03  0.50400001928E-02 0.  1.
        1   -1    0    0  501    0  0.00000000000E+00  0.00000000000E+00 -0.15959832807E+04  0.15959832808E+04  0.50400001928E-02 0. -1.
    10030    2    1    2    0    0  0.00000000000E+00  0.00000000000E+00 -0.84341868124E+03  0.23485478803E+04  0.21918763820E+04 0.  0.
        3    1    3    3  502    0 -0.45581403905E+03  0.91011591078E+03  0.13531271268E+02  0.10179688182E+04  0.10100000352E+00 0.  1.
       -3    1    3    3    0  502  0.45581403905E+03 -0.91011591078E+03 -0.85694995250E+03  0.13305790621E+04  0.10100000352E+00 0. -1.
</event>
<event>
 5   0  0.2753631E-05  0.2199200E+04  0.7818609E-02  0.8518761E-01
       -1   -1    0    0    0  501  0.00000000000E+00  0.00000000000E+00  0.17567607320E+04  0.17567607320E+04  0.50400001928E-02 0.  1.
        1   -1    0    0  501    0  0.00000000000E+00  0.00000000000E+00 -0.68826690760E+03  0.68826690761E+03  0.50400001928E-02 0. -1.
    10030    2    1    2    0    0  0.00000000000E+00  0.00000000000E+00  0.10684938244E+04  0.24450276396E+04  0.21992001059E+04 0.  0.
        4    1    3    3  502    0  0.10341611165E+04  0.28355231241E+03  0.80481766715E+03  0.13407550928E+04  0.12699999809E+01 0. -1.
       -4    1    3    3    0  502 -0.10341611165E+04 -0.28355231241E+03  0.26367615722E+03  0.11042725467E+04  0.12699999809E+01 0.  1.
</event>
<event>
 5   0  0.6306919E-05  0.2203951E+04  0.7818609E-02  0.8516785E-01
       -2   -1    0    0    0  501  0.00000000000E+00  0.00000000000E+00  0.12661890117E+04  0.12661890117E+04  0.25500000920E-02 0. -1.
        2   -1    0    0  501    0  0.00000000000E+00  0.00000000000E+00 -0.95905910477E+03  0.95905910478E+03  0.25500000920E-02 0.  1.
    10030    2    1    2    0    0  0.00000000000E+00  0.00000000000E+00  0.30712990690E+03  0.22252481164E+04  0.22039510884E+04 0.  0.
        3    1    3    3  502    0 -0.58289540506E+03  0.77416769991E+03 -0.37614497091E+03  0.10395132179E+04  0.10100000352E+00 0.  1.
       -3    1    3    3    0  502  0.58289540506E+03 -0.77416769991E+03  0.68327487781E+03  0.11857348986E+04  0.10100000352E+00 0. -1.
</event>
<event>
 5   0  0.2929471E-05  0.2199561E+04  0.7818609E-02  0.8518611E-01
        1   -1    0    0  501    0  0.00000000000E+00  0.00000000000E+00  0.14540054862E+04  0.14540054862E+04  0.50400001928E-02 0.  1.
       -1   -1    0    0    0  501  0.00000000000E+00  0.00000000000E+00 -0.83185195039E+03  0.83185195041E+03  0.50400001928E-02 0. -1.
    10030    2    1    2    0    0  0.00000000000E+00  0.00000000000E+00  0.62215353579E+03  0.22858574366E+04  0.21995611377E+04 0.  0.
        2    1    3    3  502    0  0.88136438471E+03  0.30090418557E+03  0.91898016549E+03  0.13083849021E+04  0.25500000920E-02 0.  1.
       -2    1    3    3    0  502 -0.88136438471E+03 -0.30090418557E+03 -0.29682662970E+03  0.97747253447E+03  0.25500000920E-02 0. -1.
</event>
<event>
 5   0  0.2820239E-05  0.2187721E+04  0.7818609E-02  0.8523556E-01
        1   -1    0    0  501    0  0.00000000000E+00  0.00000000000E+00  0.17030827792E+04  0.17030827792E+04  0.50400001928E-02 0. -1.
       -1   -1    0    0    0  501  0.00000000000E+00  0.00000000000E+00 -0.70256741664E+03  0.70256741665E+03  0.50400001928E-02 0.  1.
    10030    2    1    2    0    0  0.00000000000E+00  0.00000000000E+00  0.10005153626E+04  0.24056501959E+04  0.21877207030E+04 0.  0.
        3    1    3    3  502    0 -0.55542953671E+03  0.90163461894E+03  0.19894815633E+03  0.10775097844E+04  0.10100000352E+00 0.  1.
       -3    1    3    3    0  502  0.55542953671E+03 -0.90163461894E+03  0.80156720624E+03  0.13281404115E+04  0.10100000352E+00 0. -1.
</event>
<event>
 5   0  0.2929471E-05  0.2173141E+04  0.7818609E-02  0.8529691E-01
       -1   -1    0    0    0  501  0.00000000000E+00  0.00000000000E+00  0.47521093021E+03  0.47521093024E+03  0.50400001928E-02 0.  1.
        1   -1    0    0  501    0  0.00000000000E+00  0.00000000000E+00 -0.24844443053E+04  0.24844443053E+04  0.50400001928E-02 0. -1.
    10030    2    1    2    0    0  0.00000000000E+00  0.00000000000E+00 -0.20092333751E+04  0.29596552355E+04  0.21731406668E+04 0.  0.
        2    1    3    3  502    0 -0.72682150084E+03 -0.36516492439E+03 -0.19857892704E+04  0.21459203020E+04  0.25500000920E-02 0. -1.
       -2    1    3    3    0  502  0.72682150084E+03  0.36516492439E+03 -0.23444104741E+02  0.81373493359E+03  0.25500000920E-02 0.  1.
</event>
<event>
 5   0  0.6293013E-05  0.2176930E+04  0.7818609E-02  0.8528092E-01
        2   -1    0    0  501    0  0.00000000000E+00  0.00000000000E+00  0.13569381303E+04  0.13569381303E+04  0.25500000920E-02 0. -1.
       -2   -1    0    0    0  501  0.00000000000E+00  0.00000000000E+00 -0.87310972980E+03  0.87310972980E+03  0.25500000920E-02 0.  1.
    10030    2    1    2    0    0  0.00000000000E+00  0.00000000000E+00  0.48382840048E+03  0.22300478601E+04  0.21769298420E+04 0.  0.
        1    1    3    3  502    0 -0.14894061348E+03  0.36666792915E+03  0.12806214838E+04  0.13403805659E+04  0.50400001928E-02 0. -1.
       -1    1    3    3    0  502  0.14894061348E+03 -0.36666792915E+03 -0.79679308335E+03  0.88966729416E+03  0.50400001928E-02 0.  1.
</event>
<event>
 5   0  0.2908031E-05  0.2172930E+04  0.7818609E-02  0.8529780E-01
       -1   -1    0    0    0  501  0.00000000000E+00  0.00000000000E+00  0.12788543437E+04  0.12788543437E+04  0.50400001928E-02 0. -1.
        1   -1    0    0  501    0  0.00000000000E+00  0.00000000000E+00 -0.92301875025E+03  0.92301875027E+03  0.50400001928E-02 0.  1.
    10030    2    1    2    0    0  0.00000000000E+00  0.00000000000E+00  0.35583559340E+03  0.22018730939E+04  0.21729303146E+04 0.  0.
        1    1    3    3  502    0 -0.80510605777E+02 -0.34294538662E+03 -0.86354271258E+03  0.93263042644E+03  0.50400001928E-02 0.  1.
       -1    1    3    3    0  502  0.80510605777E+02  0.34294538662E+03  0.12193783060E+04  0.12692426675E+04  0.50400001928E-02 0. -1.
</event>
<event>
 5   0  0.6414768E-05  0.2189672E+04  0.7818609E-02  0.8522739E-01
       -2   -1    0    0    0  501  0.00000000000E+00  0.00000000000E+00  0.63491944531E+03  0.63491944532E+03  0.25500000920E-02 0.  1.
        2   -1    0    0  501    0  0.00000000000E+00  0.00000000000E+00 -0.18879014458E+04  0.18879014458E+04  0.25500000920E-02 0. -1.
    10030    2    1    2    0    0  0.00000000000E+00  0.00000000000E+00 -0.12529820004E+04  0.25228208911E+04  0.21896715176E+04 0.  0.
        2    1    3    3  502    0 -0.46961440971E+03  0.28167544784E+03  0.46579342391E+03  0.71891742606E+03  0.25500000920E-02 0.  1.
       -2    1    3    3    0  502  0.46961440971E+03 -0.28167544784E+03 -0.17187754244E+04  0.18039034650E+04  0.25500000920E-02 0. -1.
</event>
<event>
 5   0  0.2910318E-05  0.2207289E+04  0.7818609E-02  0.8515400E-01
        1   -1    0    0  501    0  0.00000000000E+00  0.00000000000E+00  0.17793673908E+04  0.17793673908E+04  0.50400001928E-02 0. -1.
       -1   -1    0    0    0  501  0.00000000000E+00  0.00000000000E+00 -0.68453036343E+03  0.68453036345E+03  0.50400001928E-02 0.  1.
    10030    2    1    2    0    0  0.00000000000E+00  0.00000000000E+00  0.10948370273E+04  0.24638977542E+04  0.22072888408E+04 0.  0.
        5    1    3    3  502    0 -0.10522123946E+04  0.11376880028E+03  0.19812754253E+03  0.10767408585E+04  0.46999998093E+01 0.  1.
       -5    1    3    3    0  502  0.10522123946E+04 -0.11376880028E+03  0.89670948480E+03  0.13871568957E+04  0.46999998093E+01 0. -1.
</event>
<event>
 5   0  0.2908031E-05  0.2200140E+04  0.7818609E-02  0.8518370E-01
       -1   -1    0    0    0  501  0.00000000000E+00  0.00000000000E+00  0.39793827324E+03  0.39793827327E+03  0.50400001928E-02 0.  1.
        1   -1    0    0  501    0  0.00000000000E+00  0.00000000000E+00 -0.30410596792E+04  0.30410596792E+04  0.50400001928E-02 0. -1.
    10030    2    1    2    0    0  0.00000000000E+00  0.00000000000E+00 -0.26431214059E+04  0.34389979525E+04  0.22001400297E+04 0.  0.
        1    1    3    3  502    0  0.27515898302E+03  0.72039961937E+03 -0.25478236722E+04  0.26619717395E+04  0.50400001928E-02 0. -1.
       -1    1    3    3    0  502 -0.27515898302E+03 -0.72039961937E+03 -0.95297733791E+02  0.77702621295E+03  0.50400001928E-02 0.  1.
</event>
<event>
 5   0  0.2820239E-05  0.2200956E+04  0.7818609E-02  0.8518030E-01
        1   -1    0    0  501    0  0.00000000000E+00  0.00000000000E+00  0.15501301354E+04  0.15501301354E+04  0.50400001928E-02 0. -1.
       -1   -1    0    0    0  501  0.00000000000E+00  0.00000000000E+00 -0.78125801074E+03  0.78125801076E+03  0.50400001928E-02 0.  1.
    10030    2    1    2    0    0  0.00000000000E+00  0.00000000000E+00  0.76887212462E+03  0.23313881461E+04  0.22009557796E+04 0.  0.
        3    1    3    3  502    0 -0.69607146551E+03 -0.46410032572E+02 -0.51710840356E+03  0.86837232075E+03  0.10100000352E+00 0.  1.
       -3    1    3    3    0  502  0.69607146551E+03  0.46410032572E+02  0.12859805282E+04  0.14630158254E+04  0.10100000352E+00 0. -1.
</event>
<event>
 5   0  0.6306919E-05  0.2141284E+04  0.7818609E-02  0.8543272E-01
        2   -1    0    0  501    0  0.00000000000E+00  0.00000000000E+00  0.17652020535E+04  0.17652020535E+04  0.25500000920E-02 0. -1.
       -2   -1    0    0    0  501  0.00000000000E+00  0.00000000000E+00 -0.64937309750E+03  0.64937309750E+03  0.25500000920E-02 0.  1.
    10030    2    1    2    0    0  0.00000000000E+00  0.00000000000E+00  0.11158289560E+04  0.24145751510E+04  0.21412844045E+04 0.  0.
        3    1    3    3  502    0  0.62018253926E+03  0.20858061861E+03  0.15135046512E+04  0.16488870780E+04  0.10100000352E+00 0. -1.
       -3    1    3    3    0  502 -0.62018253926E+03 -0.20858061861E+03 -0.39767569519E+03  0.76568807305E+03  0.10100000352E+00 0.  1.
</event>
<event>
 5   0  0.6628798E-05  0.2224529E+04  0.7818609E-02  0.8508287E-01
        2   -1    0    0  501    0  0.00000000000E+00  0.00000000000E+00  0.19756967272E+04  0.19756967272E+04  0.25500000920E-02 0. -1.
       -2   -1    0    0    0  501  0.00000000000E+00  0.00000000000E+00 -0.62617546501E+03  0.62617546501E+03  0.25500000920E-02 0.  1.
    10030    2    1    2    0    0  0.00000000000E+00  0.00000000000E+00  0.13495212622E+04  0.26018721922E+04  0.22245294486E+04 0.  0.
        4    1    3    3  502    0  0.91967193438E+03  0.48820256287E+03  0.21726855852E+03  0.10636472388E+04  0.12699999809E+01 0.  1.
       -4    1    3    3    0  502 -0.91967193438E+03 -0.48820256287E+03  0.11322527037E+04  0.15382249534E+04  0.12699999809E+01 0. -1.
</event>
<event>
 5   0  0.2908031E-05  0.2230944E+04  0.7818609E-02  0.8505658E-01
       -1   -1    0    0    0  501  0.00000000000E+00  0.00000000000E+00  0.11063808995E+04  0.11063808995E+04  0.50400001928E-02 0.  1.
        1   -1    0    0  501    0  0.00000000000E+00  0.00000000000E+00 -0.11246376917E+04  0.11246376917E+04  0.50400001928E-02 0. -1.
    10030    2    1    2    0    0  0.00000000000E+00  0.00000000000E+00 -0.18256792217E+02  0.22310185912E+04  0.22309438908E+04 0.  0.
        1    1    3    3  502    0  0.46645312569E+03 -0.86332829529E+03  0.52132635176E+03  0.11111684971E+04  0.50400001928E-02 0.  1.
       -1    1    3    3    0  502 -0.46645312569E+03  0.86332829529E+03 -0.53958314397E+03  0.11198500941E+04  0.50400001928E-02 0. -1.
</event>
<event>
 5   0  0.2910318E-05  0.2191464E+04  0.7818609E-02  0.8521989E-01
       -1   -1    0    0    0  501  0.00000000000E+00  0.00000000000E+00  0.82203207019E+03  0.82203207020E+03  0.50400001928E-02 0.  1.
        1   -1    0    0  501    0  0.00000000000E+00  0.00000000000E+00 -0.14605623159E+04  0.14605623160E+04  0.50400001928E-02 0. -1.
    10030    2    1    2    0    0  0.00000000000E+00  0.00000000000E+00 -0.63853024576E+03  0.22825943862E+04  0.21914644092E+04 0.  0.
        5    1    3    3  502    0 -0.54170067295E+03  0.89971593496E+03 -0.64479737094E+03  0.12323611980E+04  0.46999998093E+01 0. -1.
       -5    1    3    3    0  502  0.54170067295E+03 -0.89971593496E+03  0.62671251871E+01  0.10502331882E+04  0.46999998093E+01 0.  1.
</event>
<event>
 5   0  0.6306919E-05  0.2295442E+04  0.7818609E-02  0.8479721E-01
       -2   -1    0    0    0  501  0.00000000000E+00  0.00000000000E+00  0.40202242652E+03  0.40202242653E+03  0.25500000920E-02 0.  1.
        2   -1    0    0  501    0  0.00000000000E+00  0.00000000000E+00 -0.32765910834E+04  0.32765910834E+04  0.25500000920E-02 0. -1.
    10030    2    1    2    0    0  0.00000000000E+00  0.00000000000E+00 -0.28745686569E+04  0.36786135099E+04  0.22954416552E+04 0.  0.
        3    1    3    3  502    0 -0.66858080656E+03 -0.89369354991E+03 -0.18660277450E+04  0.21743385227E+04  0.10100000352E+00 0. -1.
       -3    1    3    3    0  502  0.66858080656E+03  0.89369354991E+03 -0.10085409119E+04  0.15042749872E+04  0.10100000352E+00 0.  1.
</event>
<event>
 5   0  0.2753631E-05  0.2207364E+04  0.7818609E-02  0.8515369E-01
        1   -1    0    0  501    0  0.00000000000E+00  0.00000000000E+00  0.12900903462E+04  0.12900903462E+04  0.50400001928E-02 0. -1.
       -1   -1    0    0    0  501  0.00000000000E+00  0.00000000000E+00 -0.94420846504E+03  0.94420846505E+03  0.50400001928E-02 0.  1.
    10030    2    1    2    0    0  0.00000000000E+00  0.00000000000E+00  0.34588188114E+03  0.22342988112E+04  0.22073642432E+04 0.  0.
        4    1    3    3  502    0 -0.77403519540E+03  0.42947362667E+03 -0.49429495051E+03  0.10138575791E+04  0.12699999809E+01 0.  1.
       -4    1    3    3    0  502  0.77403519540E+03 -0.42947362667E+03  0.84017683166E+03  0.12204412321E+04  0.12699999809E+01 0. -1.
</event>
<event>
 5   0  0.6306919E-05  0.2190914E+04  0.7818609E-02  0.8522219E-01
       -2   -1    0    0    0  501  0.00000000000E+00  0.00000000000E+00  0.12710497836E+04  0.12710497836E+04  0.25500000920E-02 0.  1.
        2   -1    0    0  501    0  0.00000000000E+00  0.00000000000E+00 -0.94412206015E+03  0.94412206015E+03  0.25500000920E-02 0. -1.
    10030    2    1    2    0    0  0.00000000000E+00  0.00000000000E+00  0.32692772349E+03  0.22151718438E+04  0.21909140926E+04 0.  0.
        3    1    3    3  502    0 -0.47000077094E+03  0.13382197924E+03 -0.82780808134E+03  0.96128834204E+03  0.10100000352E+00 0. -1.
       -3    1    3    3    0  502  0.47000077094E+03 -0.13382197924E+03  0.11547358048E+04  0.12538835018E+04  0.10100000352E+00 0.  1.
</event>
<event>
 5   0  0.2910318E-05  0.2197890E+04  0.7818609E-02  0.8519307E-01
        1   -1    0    0  501    0  0.00000000000E+00  0.00000000000E+00  0.75600088562E+03  0.75600088564E+03  0.50400001928E-02 0.  1.
       -1   -1    0    0    0  501  0.00000000000E+00  0.00000000000E+00 -0.15974586330E+04  0.15974586331E+04  0.50400001928E-02 0. -1.
    10030    2    1    2    0    0  0.00000000000E+00  0.00000000000E+00 -0.84145774742E+03  0.23534595187E+04  0.21978900258E+04 0.  0.
        5    1    3    3  502    0 -0.36649000981E+02 -0.89667992278E+03 -0.10998777788E+04  0.14195531873E+04  0.46999998093E+01 0. -1.
       -5    1    3    3    0  502  0.36649000981E+02  0.89667992278E+03  0.25842003141E+03  0.93390633140E+03  0.46999998093E+01 0.  1.
</event>
<event>
 5   0  0.2929471E-05  0.2199714E+04  0.7818609E-02  0.8518547E-01
       -1   -1    0    0    0  501  0.00000000000E+00  0.00000000000E+00  0.81691404448E+03  0.81691404449E+03  0.50400001928E-02 0.  1.
        1   -1    0    0  501    0  0.00000000000E+00  0.00000000000E+00 -0.14807984807E+04  0.14807984807E+04  0.50400001928E-02 0. -1.
    10030    2    1    2    0    0  0.00000000000E+00  0.00000000000E+00 -0.66388443622E+03  0.22977125252E+04  0.21997136868E+04 0.  0.
        2    1    3    3  502    0  0.10429834933E+04 -0.14668051469E+03 -0.66284450441E+03  0.12444647756E+04  0.25500000920E-02 0. -1.
       -2    1    3    3    0  502 -0.10429834933E+04  0.14668051469E+03 -0.10399318130E+01  0.10532477496E+04  0.25500000920E-02 0.  1.
</event>
<event>
 5   0  0.6445740E-05  0.2206946E+04  0.7818609E-02  0.8515543E-01
       -2   -1    0    0    0  501  0.00000000000E+00  0.00000000000E+00  0.68255909390E+03  0.68255909391E+03  0.25500000920E-02 0.  1.
        2   -1    0    0  501    0  0.00000000000E+00  0.00000000000E+00 -0.17839514170E+04  0.17839514170E+04  0.25500000920E-02 0. -1.
    10030    2    1    2    0    0  0.00000000000E+00  0.00000000000E+00 -0.11013923231E+04  0.24665105109E+04  0.22069456384E+04 0.  0.
        5    1    3    3  502    0 -0.20110077910E+03  0.92164545148E+03 -0.11905314538E+04  0.15189664559E+04  0.46999998093E+01 0. -1.
       -5    1    3    3    0  502  0.20110077910E+03 -0.92164545148E+03  0.89139130710E+02  0.94754405502E+03  0.46999998093E+01 0.  1.
</event>
<event>
 5   0  0.2908031E-05  0.2200613E+04  0.7818609E-02  0.8518173E-01
       -1   -1    0    0    0  501  0.00000000000E+00  0.00000000000E+00  0.81441659128E+03  0.81441659130E+03  0.50400001928E-02 0.  1.
        1   -1    0    0  501    0  0.00000000000E+00  0.00000000000E+00 -0.14865536669E+04  0.14865536669E+04  0.50400001928E-02 0. -1.
    10030    2    1    2    0    0  0.00000000000E+00  0.00000000000E+00 -0.67213707562E+03  0.23009702582E+04  0.22006126149E+04 0.  0.
        1    1    3    3  502    0  0.67365826800E+03 -0.53444320498E+03 -0.10538353890E+04  0.13601522079E+04  0.50400001928E-02 0. -1.
       -1    1    3    3    0  502 -0.67365826800E+03  0.53444320498E+03  0.38169831338E+03  0.94081805035E+03  0.50400001928E-02 0.  1.
</event>
<event>
 5   0  0.2908031E-05  0.2225085E+04  0.7818609E-02  0.8508059E-01
       -1   -1    0    0    0  501  0.00000000000E+00  0.00000000000E+00  0.17052239642E+04  0.17052239642E+04  0.50400001928E-02 0.  1.
        1   -1    0    0  501    0  0.00000000000E+00  0.00000000000E+00 -0.72585790342E+03  0.72585790343E+03  0.50400001928E-02 0. -1.
    10030    2    1    2    0    0  0.00000000000E+00  0.00000000000E+00  0.97936606075E+03  0.24310818676E+04  0.22250845301E+04 0.  0.
        1    1    3    3  502    0  0.10561873372E+03  0.60170558325E+03  0.15055736808E+04  0.16247944590E+04  0.50400001928E-02 0.  1.
       -1    1    3    3    0  502 -0.10561873372E+03 -0.60170558325E+03 -0.52620762003E+03  0.80628740858E+03  0.50400001928E-02 0. -1.
</event>
<event>
 5   0  0.6306919E-05  0.2161235E+04  0.7818609E-02  0.8534738E-01
        2   -1    0    0  501    0  0.00000000000E+00  0.00000000000E+00  0.25057958127E+04  0.25057958127E+04  0.25500000920E-02 0. -1.
       -2   -1    0    0    0  501  0.00000000000E+00  0.00000000000E+00 -0.46601343599E+03  0.46601343600E+03  0.25500000920E-02 0.  1.
    10030    2    1    2    0    0  0.00000000000E+00  0.00000000000E+00  0.20397823767E+04  0.29718092487E+04  0.21612353103E+04 0.  0.
        3    1    3    3  502    0 -0.73659619410E+03  0.10250570035E+03  0.20979288316E+04  0.22258451798E+04  0.10100000352E+00 0. -1.
       -3    1    3    3    0  502  0.73659619410E+03 -0.10250570035E+03 -0.58146454833E+02  0.74596406896E+03  0.10100000352E+00 0.  1.
</event>
<event>
 5   0  0.2753631E-05  0.2190999E+04  0.7818609E-02  0.8522184E-01
       -1   -1    0    0    0  501  0.00000000000E+00  0.00000000000E+00  0.91566960606E+03  0.91566960607E+03  0.50400001928E-02 0. -1.
        1   -1    0    0  501    0  0.00000000000E+00  0.00000000000E+00 -0.13106460691E+04  0.13106460691E+04  0.50400001928E-02 0.  1.
    10030    2    1    2    0    0  0.00000000000E+00  0.00000000000E+00 -0.39497646305E+03  0.22263156752E+04  0.21909986488E+04 0.  0.
        4    1    3    3  502    0  0.60501898733E+03 -0.62766459644E+03 -0.87158686227E+03  0.12327514316E+04  0.12699999809E+01 0.  1.
       -4    1    3    3    0  502 -0.60501898733E+03  0.62766459644E+03  0.47661039922E+03  0.99356424362E+03  0.12699999809E+01 0. -1.
</event>
<event>
 5   0  0.2908031E-05  0.2201427E+04  0.7818609E-02  0.8517835E-01
        1   -1    0    0  501    0  0.00000000000E+00  0.00000000000E+00  0.13485160695E+04  0.13485160695E+04  0.50400001928E-02 0.  1.
       -1   -1    0    0    0  501  0.00000000000E+00  0.00000000000E+00 -0.89844669833E+03  0.89844669834E+03  0.50400001928E-02 0. -1.
    10030    2    1    2    0    0  0.00000000000E+00  0.00000000000E+00  0.45006937113E+03  0.22469627678E+04  0.22014266377E+04 0.  0.
        1    1    3    3  502    0  0.40895730674E+03  0.18606802796E+03 -0.80058974596E+03  0.91804756474E+03  0.50400001928E-02 0. -1.
       -1    1    3    3    0  502 -0.40895730674E+03 -0.18606802796E+03  0.12506591171E+04  0.13289152031E+04  0.50400001928E-02 0.  1.
</event>
<event>
 5   0  0.6445740E-05  0.2190770E+04  0.7818609E-02  0.8522280E-01
        2   -1    0    0  501    0  0.00000000000E+00  0.00000000000E+00  0.12811622168E+04  0.12811622168E+04  0.25500000920E-02 0. -1.
       -2   -1    0    0    0  501  0.00000000000E+00  0.00000000000E+00 -0.93654667833E+03  0.93654667833E+03  0.25500000920E-02 0.  1.
    10030    2    1    2    0    0  0.00000000000E+00  0.00000000000E+00  0.34461553847E+03  0.22177088951E+04  0.21907699273E+04 0.  0.
        5    1    3    3  502    0 -0.77155419891E+03 -0.64033426492E+03  0.61877793001E+03  0.11782326041E+04  0.46999998093E+01 0. -1.
       -5    1    3    3    0  502  0.77155419891E+03  0.64033426492E+03 -0.27416239154E+03  0.10394762910E+04  0.46999998093E+01 0.  1.
</event>
<event>
 5   0  0.2910318E-05  0.2175465E+04  0.7818609E-02  0.8528710E-01
       -1   -1    0    0    0  501  0.00000000000E+00  0.00000000000E+00  0.87518659067E+03  0.87518659069E+03  0.50400001928E-02 0.  1.
        1   -1    0    0  501    0  0.00000000000E+00  0.00000000000E+00 -0.13518969441E+04  0.13518969441E+04  0.50400001928E-02 0. -1.
    10030    2    1    2    0    0  0.00000000000E+00  0.00000000000E+00 -0.47671035344E+03  0.22270835348E+04  0.21754650790E+04 0.  0.
        5    1    3    3  502    0 -0.25607841743E+02 -0.39127591932E+01 -0.13515707094E+04  0.13518271131E+04  0.46999998093E+01 0. -1.
       -5    1    3    3    0  502  0.25607841743E+02  0.39127591932E+01  0.87486035597E+03  0.87525642168E+03  0.46999998093E+01 0.  1.
</event>
<event>
 5   0  0.6306919E-05  0.2248368E+04  0.7818609E-02  0.8498562E-01
       -2   -1    0    0    0  501  0.00000000000E+00  0.00000000000E+00  0.58482033076E+03  0.58482033076E+03  0.25500000920E-02 0. -1.
        2   -1    0    0  501    0  0.00000000000E+00  0.00000000000E+00 -0.21609888411E+04  0.21609888411E+04  0.25500000920E-02 0.  1.
    10030    2    1    2    0    0  0.00000000000E+00  0.00000000000E+00 -0.15761685103E+04  0.27458091719E+04  0.22483684830E+04 0.  0.
        3    1    3    3  502    0 -0.43052394735E+03 -0.49111692504E+03  0.32936742691E+03  0.73145718632E+03  0.10100000352E+00 0. -1.
       -3    1    3    3    0  502  0.43052394735E+03  0.49111692504E+03 -0.19055359373E+04  0.20143519855E+04  0.10100000352E+00 0.  1.
</event>
<event>
 5   0  0.2929471E-05  0.2253555E+04  0.7818609E-02  0.8496462E-01
       -1   -1    0    0    0  501  0.00000000000E+00  0.00000000000E+00  0.13965646708E+04  0.13965646708E+04  0.50400001928E-02 0. -1.
        1   -1    0    0  501    0  0.00000000000E+00  0.00000000000E+00 -0.90910740512E+03  0.90910740513E+03  0.50400001928E-02 0.  1.
    10030    2    1    2    0    0  0.00000000000E+00  0.00000000000E+00  0.48745726569E+03  0.23056720760E+04  0.22535547777E+04 0.  0.
        2    1    3    3  502    0 -0.14548902197E+03  0.44373263995E+03 -0.80544356696E+03  0.93102365750E+03  0.25500000920E-02 0.  1.
       -2    1    3    3    0  502  0.14548902197E+03 -0.44373263995E+03  0.12929008326E+04  0.13746484184E+04  0.25500000920E-02 0. -1.
</event>
<event>
 5   0  0.2753631E-05  0.2162947E+04  0.7818609E-02  0.8534010E-01
       -1   -1    0    0    0  501  0.00000000000E+00  0.00000000000E+00  0.68795292506E+03  0.68795292508E+03  0.50400001928E-02 0.  1.
        1   -1    0    0  501    0  0.00000000000E+00  0.00000000000E+00 -0.17000949615E+04  0.17000949615E+04  0.50400001928E-02 0. -1.
    10030    2    1    2    0    0  0.00000000000E+00  0.00000000000E+00 -0.10121420364E+04  0.23880478865E+04  0.21629473425E+04 0.  0.
        4    1    3    3  502    0 -0.10784443471E+04  0.27612456652E+02 -0.59000244524E+03  0.12295971518E+04  0.12699999809E+01 0. -1.
       -4    1    3    3    0  502  0.10784443471E+04 -0.27612456652E+02 -0.42213959116E+03  0.11584507347E+04  0.12699999809E+01 0.  1.
</event>
<event>
 5   0  0.2908031E-05  0.2111549E+04  0.7818609E-02  0.8556173E-01
        1   -1    0    0  501    0  0.00000000000E+00  0.00000000000E+00  0.18459529832E+04  0.18459529832E+04  0.50400001928E-02 0.  1.
       -1   -1    0    0    0  501  0.00000000000E+00  0.00000000000E+00 -0.60383969264E+03  0.60383969266E+03  0.50400001928E-02 0. -1.
    10030    2    1    2    0    0  0.00000000000E+00  0.00000000000E+00  0.12421132906E+04  0.24497926759E+04  0.21115488932E+04 0.  0.
        1    1    3    3  502    0  0.65251559551E+03 -0.12364064498E+03  0.15732561745E+04  0.17076880869E+04  0.50400001928E-02 0.  1.
       -1    1    3    3    0  502 -0.65251559551E+03  0.12364064498E+03 -0.33114288389E+03  0.74210458903E+03  0.50400001928E-02 0. -1.
</event>
<event>
 5   0  0.2753631E-05  0.2224048E+04  0.7818609E-02  0.8508485E-01
        1   -1    0    0  501    0  0.00000000000E+00  0.00000000000E+00  0.14539843182E+04  0.14539843182E+04  0.50400001928E-02 0. -1.
       -1   -1    0    0    0  501  0.00000000000E+00  0.00000000000E+00 -0.85048853116E+03  0.85048853118E+03  0.50400001928E-02 0.  1.
    10030    2    1    2    0    0  0.00000000000E+00  0.00000000000E+00  0.60349578703E+03  0.23044728494E+04  0.22240476498E+04 0.  0.
        4    1    3    3  502    0  0.68293352696E+03  0.70108495510E+03  0.84873629355E+03  0.12954818507E+04  0.12699999809E+01 0. -1.
       -4    1    3    3    0  502 -0.68293352696E+03 -0.70108495510E+03 -0.24524050653E+03  0.10089909987E+04  0.12699999809E+01 0.  1.
</event>
<event>
 5   0  0.6414768E-05  0.2148897E+04  0.7818609E-02  0.8540005E-01
        2   -1    0    0  501    0  0.00000000000E+00  0.00000000000E+00  0.12917949969E+04  0.12917949969E+04  0.25500000920E-02 0.  1.
       -2   -1    0    0    0  501  0.00000000000E+00  0.00000000000E+00 -0.89367086733E+03  0.89367086733E+03  0.25500000920E-02 0. -1.
    10030    2    1    2    0    0  0.00000000000E+00  0.00000000000E+00  0.39812412958E+03  0.21854658642E+04  0.21488969778E+04 0.  0.
        2    1    3    3  502    0  0.84668733099E+03  0.39724778071E+03  0.73698100095E+03  0.11907250864E+04  0.25500000920E-02 0.  1.
       -2    1    3    3    0  502 -0.84668733099E+03 -0.39724778071E+03 -0.33885687137E+03  0.99474077780E+03  0.25500000920E-02 0. -1.
</event>
<event>
 5   0  0.6293013E-05  0.2122371E+04  0.7818609E-02  0.8551452E-01
       -2   -1    0    0    0  501  0.00000000000E+00  0.00000000000E+00  0.14795906077E+04  0.14795906077E+04  0.25500000920E-02 0.  1.
        2   -1    0    0  501    0  0.00000000000E+00  0.00000000000E+00 -0.76109868317E+03  0.76109868318E+03  0.25500000920E-02 0. -1.
    10030    2    1    2    0    0  0.00000000000E+00  0.00000000000E+00  0.71849192452E+03  0.22406892909E+04  0.21223708094E+04 0.  0.
        1    1    3    3  502    0  0.17791199695E+03  0.67554831240E+03  0.12025874679E+04  0.13907677085E+04  0.50400001928E-02 0.  1.
       -1    1    3    3    0  502 -0.17791199695E+03 -0.67554831240E+03 -0.48409554337E+03  0.84992158237E+03  0.50400001928E-02 0. -1.
</event>
<event>
 5   0  0.6306919E-05  0.2192481E+04  0.7818609E-02  0.8521564E-01
        2   -1    0    0  501    0  0.00000000000E+00  0.00000000000E+00  0.98519697147E+03  0.98519697147E+03  0.25500000920E-02 0.  1.
       -2   -1    0    0    0  501  0.00000000000E+00  0.00000000000E+00 -0.12197995170E+04  0.12197995170E+04  0.25500000920E-02 0. -1.
    10030    2    1    2    0    0  0.00000000000E+00  0.00000000000E+00 -0.23460254554E+03  0.22049964885E+04  0.21924805951E+04 0.  0.
        3    1    3    3  502    0 -0.92577070688E+03  0.33160415013E+03 -0.60455649681E+03  0.11543401934E+04  0.10100000352E+00 0. -1.
       -3    1    3    3    0  502  0.92577070688E+03 -0.33160415013E+03  0.36995395127E+03  0.10506562951E+04  0.10100000352E+00 0.  1.
</event>
<event>
 5   0  0.6293013E-05  0.2188504E+04  0.7818609E-02  0.8523228E-01
        2   -1    0    0  501    0  0.00000000000E+00  0.00000000000E+00  0.18957778158E+04  0.18957778158E+04  0.25500000920E-02 0. -1.
       -2   -1    0    0    0  501  0.00000000000E+00  0.00000000000E+00 -0.63160752002E+03  0.63160752003E+03  0.25500000920E-02 0.  1.
    10030    2    1    2    0    0  0.00000000000E+00  0.00000000000E+00  0.12641702958E+04  0.25273853358E+04  0.21885040779E+04 0.  0.
        1    1    3    3  502    0  0.61273866603E+03  0.57640630009E+02  0.16769601141E+04  0.17863276126E+04  0.50400001928E-02 0. -1.
       -1    1    3    3    0  502 -0.61273866603E+03 -0.57640630009E+02 -0.41278981833E+03  0.74105772327E+03  0.50400001928E-02 0.  1.
</event>
<event>
 5   0  0.6628798E-05  0.2191139E+04  0.7818609E-02  0.8522125E-01
        2   -1    0    0  501    0  0.00000000000E+00  0.00000000000E+00  0.17307353839E+04  0.17307353839E+04  0.25500000920E-02 0.  1.
       -2   -1    0    0    0  501  0.00000000000E+00  0.00000000000E+00 -0.69350439160E+03  0.69350439161E+03  0.25500000920E-02 0. -1.
    10030    2    1    2    0    0  0.00000000000E+00  0.00000000000E+00  0.10372309923E+04  0.24242397755E+04  0.21911390549E+04 0.  0.
        4    1    3    3  502    0  0.55418117198E+03  0.58804753911E+03  0.13371554803E+04  0.15623389744E+04  0.12699999809E+01 0.  1.
       -4    1    3    3    0  502 -0.55418117198E+03 -0.58804753911E+03 -0.29992448794E+03  0.86190080113E+03  0.12699999809E+01 0. -1.
</event>
<event>
 5   0  0.2820239E-05  0.2180152E+04  0.7818609E-02  0.8526735E-01
        1   -1    0    0  501    0  0.00000000000E+00  0.00000000000E+00  0.55010769106E+03  0.55010769109E+03  0.50400001928E-02 0.  1.
       -1   -1    0    0    0  501  0.00000000000E+00  0.00000000000E+00 -0.21600592061E+04  0.21600592061E+04  0.50400001928E-02 0. -1.
    10030    2    1    2    0    0  0.00000000000E+00  0.00000000000E+00 -0.16099515151E+04  0.27101668972E+04  0.21801515383E+04 0.  0.
        3    1    3    3  502    0 -0.31324432051E+03 -0.69126822396E+03  0.16774557012E+03  0.77724664572E+03  0.10100000352E+00 0.  1.
       -3    1    3    3    0  502  0.31324432051E+03  0.69126822396E+03 -0.17776970852E+04  0.19329202515E+04  0.10100000352E+00 0. -1.
</event>
<event>
 5   0  0.2908031E-05  0.2092153E+04  0.7818609E-02  0.8564708E-01
        1   -1    0    0  501    0  0.00000000000E+00  0.00000000000E+00  0.17647579275E+04  0.17647579275E+04  0.50400001928E-02 0. -1.
       -1   -1    0    0    0  501  0.00000000000E+00  0.00000000000E+00 -0.62007123897E+03  0.62007123899E+03  0.50400001928E-02 0.  1.
    10030    2    1    2    0    0  0.00000000000E+00  0.00000000000E+00  0.11446866885E+04  0.23848291665E+04  0.20921526088E+04 0.  0.
        1    1    3    3  502    0  0.65556709003E+03  0.59968823124E+03 -0.57060534686E+02  0.89030898505E+03  0.50400001928E-02 0.  1.
       -1    1    3    3    0  502 -0.65556709003E+03 -0.59968823124E+03  0.12017472232E+04  0.14945201814E+04  0.50400001928E-02 0. -1.
</event>
<event>
 5   0  0.2910318E-05  0.2233967E+04  0.7818609E-02  0.8504422E-01
        1   -1    0    0  501    0  0.00000000000E+00  0.00000000000E+00  0.97691102433E+03  0.97691102434E+03  0.50400001928E-02 0. -1.
       -1   -1    0    0    0  501  0.00000000000E+00  0.00000000000E+00 -0.12771400891E+04  0.12771400891E+04  0.50400001928E-02 0.  1.
    10030    2    1    2    0    0  0.00000000000E+00  0.00000000000E+00 -0.30022906473E+03  0.22540511134E+04  0.22339670836E+04 0.  0.
        5    1    3    3  502    0  0.41424267781E+03  0.10334092179E+04 -0.24091544560E+03  0.11391198136E+04  0.46999998093E+01 0.  1.
       -5    1    3    3    0  502 -0.41424267781E+03 -0.10334092179E+04 -0.59313619133E+02  0.11149312998E+04  0.46999998093E+01 0. -1.
</event>
<event>
 5   0  0.2908031E-05  0.2199766E+04  0.7818609E-02  0.8518525E-01
       -1   -1    0    0    0  501  0.00000000000E+00  0.00000000000E+00  0.82820117427E+03  0.82820117429E+03  0.50400001928E-02 0.  1.
        1   -1    0    0  501    0  0.00000000000E+00  0.00000000000E+00 -0.14606871536E+04  0.14606871536E+04  0.50400001928E-02 0. -1.
    10030    2    1    2    0    0  0.00000000000E+00  0.00000000000E+00 -0.63248597930E+03  0.22888883279E+04  0.21997661838E+04 0.  0.
        1    1    3    3  502    0 -0.44564762421E+03 -0.10013451162E+04 -0.22060070424E+03  0.11180154370E+04  0.50400001928E-02 0. -1.
       -1    1    3    3    0  502  0.44564762421E+03  0.10013451162E+04 -0.41188527505E+03  0.11708728908E+04  0.50400001928E-02 0.  1.
</event>
<event>
 5   0  0.2753631E-05  0.2207812E+04  0.7818609E-02  0.8515184E-01
       -1   -1    0    0    0  501  0.00000000000E+00  0.00000000000E+00  0.18142333996E+04  0.18142333996E+04  0.50400001928E-02 0. -1.
        1   -1    0    0  501    0  0.00000000000E+00  0.00000000000E+00 -0.67169317025E+03  0.67169317027E+03  0.50400001928E-02 0.  1.
    10030    2    1    2    0    0  0.00000000000E+00  0.00000000000E+00  0.11425402293E+04  0.24859265698E+04  0.22078117526E+04 0.  0.
        4    1    3    3  502    0 -0.96672709361E+03  0.23906735472E+03  0.34935360314E+02  0.99646202432E+03  0.12699999809E+01 0.  1.
       -4    1    3    3    0  502  0.96672709361E+03 -0.23906735472E+03  0.11076048690E+04  0.14894645455E+04  0.12699999809E+01 0. -1.
</event>
<event>
 5   0  0.2820239E-05  0.2187546E+04  0.7818609E-02  0.8523630E-01
        1   -1    0    0  501    0  0.00000000000E+00  0.00000000000E+00  0.13992631947E+04  0.13992631947E+04  0.50400001928E-02 0.  1.
       -1   -1    0    0    0  501  0.00000000000E+00  0.00000000000E+00 -0.85497781435E+03  0.85497781436E+03  0.50400001928E-02 0. -1.
    10030    2    1    2    0    0  0.00000000000E+00  0.00000000000E+00  0.54428538031E+03  0.22542410090E+04  0.21875456456E+04 0.  0.
        3    1    3    3  502    0  0.71109824235E+03  0.50063269892E+03 -0.41144124947E+03  0.96206949929E+03  0.10100000352E+00 0. -1.
       -3    1    3    3    0  502 -0.71109824235E+03 -0.50063269892E+03  0.95572662978E+03  0.12921715097E+04  0.10100000352E+00 0.  1.
</event>
<event>
 5   0  0.6628798E-05  0.2170366E+04  0.7818609E-02  0.8530865E-01
       -2   -1    0    0    0  501  0.00000000000E+00  0.00000000000E+00  0.95200038969E+03  0.95200038969E+03  0.25500000920E-02 0. -1.
        2   -1    0    0  501    0  0.00000000000E+00  0.00000000000E+00 -0.12369978274E+04  0.12369978274E+04  0.25500000920E-02 0.  1.
    10030    2    1    2    0    0  0.00000000000E+00  0.00000000000E+00 -0.28499743770E+03  0.21889982171E+04  0.21703662490E+04 0.  0.
        4    1    3    3  502    0  0.98154669230E+03  0.54445499109E+02 -0.60603373979E+03  0.11548492231E+04  0.12699999809E+01 0. -1.
       -4    1    3    3    0  502 -0.98154669230E+03 -0.54445499109E+02  0.32103630208E+03  0.10341489939E+04  0.12699999809E+01 0.  1.
</event>
<event>
 5   0  0.2929471E-05  0.2189362E+04  0.7818609E-02  0.8522869E-01
        1   -1    0    0  501    0  0.00000000000E+00  0.00000000000E+00  0.12904762590E+04  0.12904762590E+04  0.50400001928E-02 0. -1.
       -1   -1    0    0    0  501  0.00000000000E+00  0.00000000000E+00 -0.92859202906E+03  0.92859202908E+03  0.50400001928E-02 0.  1.
    10030    2    1    2    0    0  0.00000000000E+00  0.00000000000E+00  0.36188422997E+03  0.22190682881E+04  0.21893615214E+04 0.  0.
        2    1    3    3  502    0 -0.43414375396E+01 -0.20014780252E+03  0.12717642983E+04  0.12874247245E+04  0.25500000920E-02 0. -1.
       -2    1    3    3    0  502  0.43414375396E+01  0.20014780252E+03 -0.90988006829E+03  0.93164356361E+03  0.25500000920E-02 0.  1.
</event>
<event>
 5   0  0.2820239E-05  0.2003650E+04  0.7818609E-02  0.8604916E-01
       -1   -1    0    0    0  501  0.00000000000E+00  0.00000000000E+00  0.52315367106E+03  0.52315367109E+03  0.50400001928E-02 0. -1.
        1   -1    0    0  501    0  0.00000000000E+00  0.00000000000E+00 -0.19184669114E+04  0.19184669114E+04  0.50400001928E-02 0.  1.
    10030    2    1    2    0    0  0.00000000000E+00  0.00000000000E+00 -0.13953132403E+04  0.24416205825E+04  0.20036496775E+04 0.  0.
        3    1    3    3  502    0 -0.97472916263E+03  0.23049679723E+03 -0.72284581926E+03  0.12352051662E+04  0.10100000352E+00 0.  1.
       -3    1    3    3    0  502  0.97472916263E+03 -0.23049679723E+03 -0.67246742108E+03  0.12064154163E+04  0.10100000352E+00 0. -1.
</event>
<event>
 5   0  0.6445740E-05  0.2229912E+04  0.7818609E-02  0.8506080E-01
       -2   -1    0    0    0  501  0.00000000000E+00  0.00000000000E+00  0.80424372133E+03  0.80424372133E+03  0.25500000920E-02 0.  1.
        2   -1    0    0  501    0  0.00000000000E+00  0.00000000000E+00 -0.15457092851E+04  0.15457092851E+04  0.25500000920E-02 0. -1.
    10030    2    1    2    0    0  0.00000000000E+00  0.00000000000E+00 -0.74146556374E+03  0.23499530064E+04  0.22299120947E+04 0.  0.
        5    1    3    3  502    0  0.36479201847E+02  0.11085219176E+04 -0.49067222891E+03  0.12128202258E+04  0.46999998093E+01 0. -1.
       -5    1    3    3    0  502 -0.36479201847E+02 -0.11085219176E+04 -0.25079333483E+03  0.11371327806E+04  0.46999998093E+01 0.  1.
</event>
<event>
 5   0  0.2929471E-05  0.2211044E+04  0.7818609E-02  0.8513845E-01
        1   -1    0    0  501    0  0.00000000000E+00  0.00000000000E+00  0.77472966940E+03  0.77472966942E+03  0.50400001928E-02 0. -1.
       -1   -1    0    0    0  501  0.00000000000E+00  0.00000000000E+00 -0.15775552919E+04  0.15775552920E+04  0.50400001928E-02 0.  1.
    10030    2    1    2    0    0  0.00000000000E+00  0.00000000000E+00 -0.80282562254E+03  0.23522849614E+04  0.22110439976E+04 0.  0.
        2    1    3    3  502    0 -0.63409158650E+03 -0.90455200335E+03 -0.44769369624E+03  0.11919379650E+04  0.25500000920E-02 0. -1.
       -2    1    3    3    0  502  0.63409158650E+03  0.90455200335E+03 -0.35513192631E+03  0.11603469963E+04  0.25500000920E-02 0.  1.
</event>
<event>
 5   0  0.2910318E-05  0.2223826E+04  0.7818609E-02  0.8508576E-01
       -1   -1    0    0    0  501  0.00000000000E+00  0.00000000000E+00  0.76467134771E+03  0.76467134773E+03  0.50400001928E-02 0.  1.
        1   -1    0    0  501    0  0.00000000000E+00  0.00000000000E+00 -0.16168383856E+04  0.16168383856E+04  0.50400001928E-02 0. -1.
    10030    2    1    2    0    0  0.00000000000E+00  0.00000000000E+00 -0.85216703789E+03  0.23815097333E+04  0.22238255214E+04 0.  0.
        5    1    3    3  502    0  0.55223343084E+03  0.42001020921E+03 -0.13565761108E+04  0.15237096746E+04  0.46999998093E+01 0. -1.
       -5    1    3    3    0  502 -0.55223343084E+03 -0.42001020921E+03  0.50440907292E+03  0.85780005877E+03  0.46999998093E+01 0.  1.
</event>
<event>
 5   0  0.2910318E-05  0.2168031E+04  0.7818609E-02  0.8531853E-01
       -1   -1    0    0    0  501  0.00000000000E+00  0.00000000000E+00  0.13453836845E+04  0.13453836845E+04  0.50400001928E-02 0.  1.
        1   -1    0    0  501    0  0.00000000000E+00  0.00000000000E+00 -0.87342353626E+03  0.87342353627E+03  0.50400001928E-02 0. -1.
    10030    2    1    2    0    0  0.00000000000E+00  0.00000000000E+00  0.47196014826E+03  0.22188072208E+04  0.21680311579E+04 0.  0.
        5    1    3    3  502    0  0.23758888325E+03 -0.98209510170E+03 -0.16578042408E+03  0.10239455577E+04  0.46999998093E+01 0. -1.
       -5    1    3    3    0  502 -0.23758888325E+03  0.98209510170E+03  0.63774057233E+03  0.11948616630E+04  0.46999998093E+01 0.  1.
</event>
<event>
 5   0  0.6414768E-05  0.2188200E+04  0.7818609E-02  0.8523356E-01
       -2   -1    0    0    0  501  0.00000000000E+00  0.00000000000E+00  0.12269660487E+04  0.12269660487E+04  0.25500000920E-02 0.  1.
        2   -1    0    0  501    0  0.00000000000E+00  0.00000000000E+00 -0.97562154511E+03  0.97562154512E+03  0.25500000920E-02 0. -1.
    10030    2    1    2    0    0  0.00000000000E+00  0.00000000000E+00  0.25134450362E+03  0.22025875938E+04  0.21881997279E+04 0.  0.
        2    1    3    3  502    0 -0.17073525931E+03 -0.65504133063E+03 -0.73952866873E+03  0.10025628786E+04  0.25500000920E-02 0. -1.
       -2    1    3    3    0  502  0.17073525931E+03  0.65504133063E+03  0.99087317235E+03  0.12000247153E+04  0.25500000920E-02 0.  1.
</event>
<event>
 5   0  0.6414768E-05  0.2204237E+04  0.7818609E-02  0.8516667E-01
        2   -1    0    0  501    0  0.00000000000E+00  0.00000000000E+00  0.22192104506E+04  0.22192104506E+04  0.25500000920E-02 0.  1.
       -2   -1    0    0    0  501  0.00000000000E+00  0.00000000000E+00 -0.54734123446E+03  0.54734123447E+03  0.25500000920E-02 0. -1.
    10030    2    1    2    0    0  0.00000000000E+00  0.00000000000E+00  0.16718692162E+04  0.27665516851E+04  0.22042371810E+04 0.  0.
        2    1    3    3  502    0  0.83956570799E+03 -0.24363628204E+03 -0.64241462593E+01  0.87422564914E+03  0.25500000920E-02 0. -1.
       -2    1    3    3    0  502 -0.83956570799E+03  0.24363628204E+03  0.16782933624E+04  0.18923260359E+04  0.25500000920E-02 0.  1.
</event>
<event>
 5   0  0.6445740E-05  0.2172240E+04  0.7818609E-02  0.8530072E-01
       -2   -1    0    0    0  501  0.00000000000E+00  0.00000000000E+00  0.81648744959E+03  0.81648744960E+03  0.25500000920E-02 0.  1.
        2   -1    0    0  501    0  0.00000000000E+00  0.00000000000E+00 -0.14447949224E+04  0.14447949224E+04  0.25500000920E-02 0. -1.
    10030    2    1    2    0    0  0.00000000000E+00  0.00000000000E+00 -0.62830747281E+03  0.22612823720E+04  0.21722402458E+04 0.  0.
        5    1    3    3  502    0  0.17087904895E+03 -0.89790157801E+03 -0.92489516750E+03  0.13003384383E+04  0.46999998093E+01 0. -1.
       -5    1    3    3    0  502 -0.17087904895E+03  0.89790157801E+03  0.29658769469E+03  0.96094393374E+03  0.46999998093E+01 0.  1.
</event>
<event>
 5   0  0.6628798E-05  0.2199935E+04  0.7818609E-02  0.8518455E-01
        2   -1    0    0  501    0  0.00000000000E+00  0.00000000000E+00  0.10094287592E+04  0.10094287592E+04  0.25500000920E-02 0. -1.
       -2   -1    0    0    0  501  0.00000000000E+00  0.00000000000E+00 -0.11986273768E+04  0.11986273768E+04  0.25500000920E-02 0.  1.
    10030    2    1    2    0    0  0.00000000000E+00  0.00000000000E+00 -0.18919861763E+03  0.22080561360E+04  0.21999354043E+04 0.  0.
        4    1    3    3  502    0 -0.10142995477E+04 -0.35106999622E+03  0.14685807918E+03  0.10833386465E+04  0.12699999809E+01 0. -1.
       -4    1    3    3    0  502  0.10142995477E+04  0.35106999622E+03 -0.33605669681E+03  0.11247174895E+04  0.12699999809E+01 0.  1.
</event>
<event>
 5   0  0.2908031E-05  0.2191697E+04  0.7818609E-02  0.8521892E-01
       -1   -1    0    0    0  501  0.00000000000E+00  0.00000000000E+00  0.80089981025E+03  0.80089981027E+03  0.50400001928E-02 0.  1.
        1   -1    0    0  501    0  0.00000000000E+00  0.00000000000E+00 -0.14994177728E+04  0.14994177728E+04  0.50400001928E-02 0. -1.
    10030    2    1    2    0    0  0.00000000000E+00  0.00000000000E+00 -0.69851796259E+03  0.23003175831E+04  0.21916965208E+04 0.  0.
        1    1    3    3  502    0  0.98809844728E+03  0.44940018974E+02 -0.84436367359E+03  0.13005030412E+04  0.50400001928E-02 0. -1.
       -1    1    3    3    0  502 -0.98809844728E+03 -0.44940018974E+02  0.14584571101E+03  0.99981454193E+03  0.50400001928E-02 0.  1.
</event>
<event>
 5   0  0.6628798E-05  0.2210793E+04  0.7818609E-02  0.8513949E-01
        2   -1    0    0  501    0  0.00000000000E+00  0.00000000000E+00  0.10213372815E+04  0.10213372815E+04  0.25500000920E-02 0.  1.
       -2   -1    0    0    0  501  0.00000000000E+00  0.00000000000E+00 -0.11963737470E+04  0.11963737470E+04  0.25500000920E-02 0. -1.
    10030    2    1    2    0    0  0.00000000000E+00  0.00000000000E+00 -0.17503646551E+03  0.22177110286E+04  0.22107927180E+04 0.  0.
        4    1    3    3  502    0 -0.87117196583E+03 -0.46454837006E+03 -0.58621953532E+03  0.11482163292E+04  0.12699999809E+01 0. -1.
       -4    1    3    3    0  502  0.87117196583E+03  0.46454837006E+03  0.41118306981E+03  0.10694946994E+04  0.12699999809E+01 0.  1.
</event>
<event>
 5   0  0.2753631E-05  0.2201731E+04  0.7818609E-02  0.8517708E-01
       -1   -1    0    0    0  501  0.00000000000E+00  0.00000000000E+00  0.15765668375E+04  0.15765668375E+04  0.50400001928E-02 0.  1.
        1   -1    0    0  501    0  0.00000000000E+00  0.00000000000E+00 -0.76869853545E+03  0.76869853547E+03  0.50400001928E-02 0. -1.
    10030    2    1    2    0    0  0.00000000000E+00  0.00000000000E+00  0.80786830208E+03  0.23452653730E+04  0.22017307911E+04 0.  0.
        4    1    3    3  502    0  0.61729669247E+03  0.34270292036E+03  0.13036287043E+04  0.14825484510E+04  0.12699999809E+01 0.  1.
       -4    1    3    3    0  502 -0.61729669247E+03 -0.34270292036E+03 -0.49576040221E+03  0.86271692197E+03  0.12699999809E+01 0. -1.
</event>
<event>
 5   0  0.6293013E-05  0.2204408E+04  0.7818609E-02  0.8516596E-01
       -2   -1    0    0    0  501  0.00000000000E+00  0.00000000000E+00  0.11019781022E+04  0.11019781022E+04  0.25500000920E-02 0. -1.
        2   -1    0    0  501    0  0.00000000000E+00  0.00000000000E+00 -0.11024298246E+04  0.11024298246E+04  0.25500000920E-02 0.  1.
    10030    2    1    2    0    0  0.00000000000E+00  0.00000000000E+00 -0.45172240698E+00  0.22044079268E+04  0.22044078805E+04 0.  0.
        1    1    3    3  502    0 -0.74196353075E+03 -0.32706958487E+03  0.74634573952E+03  0.11020509776E+04  0.50400001928E-02 0. -1.
       -1    1    3    3    0  502  0.74196353075E+03  0.32706958487E+03 -0.74679746193E+03  0.11023569492E+04  0.50400001928E-02 0.  1.
</event>
<event>
 5   0  0.2820239E-05  0.2244733E+04  0.7818609E-02  0.8500037E-01
        1   -1    0    0  501    0  0.00000000000E+00  0.00000000000E+00  0.10375470534E+04  0.10375470534E+04  0.50400001928E-02 0.  1.
       -1   -1    0    0    0  501  0.00000000000E+00  0.00000000000E+00 -0.12141194805E+04  0.12141194805E+04  0.50400001928E-02 0. -1.
    10030    2    1    2    0    0  0.00000000000E+00  0.00000000000E+00 -0.17657242701E+03  0.22516665339E+04  0.22447325805E+04 0.  0.
        3    1    3    3  502    0 -0.74259485986E+03  0.23026241561E+03  0.72368205685E+03  0.10621598917E+04  0.10100000352E+00 0.  1.
       -3    1    3    3    0  502  0.74259485986E+03 -0.23026241561E+03 -0.90025448387E+03  0.11895066422E+04  0.10100000352E+00 0. -1.
</event>
<event>
 5   0  0.6306919E-05  0.2217762E+04  0.7818609E-02  0.8511071E-01
       -2   -1    0    0    0  501  0.00000000000E+00  0.00000000000E+00  0.80709305182E+03  0.80709305183E+03  0.25500000920E-02 0.  1.
        2   -1    0    0  501    0  0.00000000000E+00  0.00000000000E+00 -0.15235139038E+04  0.15235139038E+04  0.25500000920E-02 0. -1.
    10030    2    1    2    0    0  0.00000000000E+00  0.00000000000E+00 -0.71642085199E+03  0.23306069556E+04  0.22177623733E+04 0.  0.
        3    1    3    3  502    0 -0.69497583620E+03  0.86258664087E+03 -0.30493215021E+03  0.11489259125E+04  0.10100000352E+00 0. -1.
       -3    1    3    3    0  502  0.69497583620E+03 -0.86258664087E+03 -0.41148870179E+03  0.11816810432E+04  0.10100000352E+00 0.  1.
</event>
<event>
 5   0  0.2910318E-05  0.2196774E+04  0.7818609E-02  0.8519772E-01
       -1   -1    0    0    0  501  0.00000000000E+00  0.00000000000E+00  0.12233531763E+04  0.12233531763E+04  0.50400001928E-02 0. -1.
        1   -1    0    0  501    0  0.00000000000E+00  0.00000000000E+00 -0.98618632250E+03  0.98618632251E+03  0.50400001928E-02 0.  1.
    10030    2    1    2    0    0  0.00000000000E+00  0.00000000000E+00  0.23716685384E+03  0.22095394989E+04  0.21967741533E+04 0.  0.
        5    1    3    3  502    0 -0.10175267712E+04  0.28807100857E+03 -0.17993483101E+03  0.10727274908E+04  0.46999998093E+01 0.  1.
       -5    1    3    3    0  502  0.10175267712E+04 -0.28807100857E+03  0.41710168485E+03  0.11368120080E+04  0.46999998093E+01 0. -1.
</event>
<event>
 5   0  0.6293013E-05  0.2158688E+04  0.7818609E-02  0.8535822E-01
        2   -1    0    0  501    0  0.00000000000E+00  0.00000000000E+00  0.15861544107E+04  0.15861544107E+04  0.25500000920E-02 0. -1.
       -2   -1    0    0    0  501  0.00000000000E+00  0.00000000000E+00 -0.73447064611E+03  0.73447064611E+03  0.25500000920E-02 0.  1.
    10030    2    1    2    0    0  0.00000000000E+00  0.00000000000E+00  0.85168376464E+03  0.23206250569E+04  0.21586883563E+04 0.  0.
        1    1    3    3  502    0 -0.31609574576E+03 -0.88165469211E+03 -0.15082426715E+03  0.94867248099E+03  0.50400001928E-02 0.  1.
       -1    1    3    3    0  502  0.31609574576E+03  0.88165469211E+03  0.10025080318E+04  0.13719525759E+04  0.50400001928E-02 0. -1.
</event>
<event>
 5   0  0.6306919E-05  0.2220120E+04  0.7818609E-02  0.8510100E-01
       -2   -1    0    0    0  501  0.00000000000E+00  0.00000000000E+00  0.83704013871E+03  0.83704013871E+03  0.25500000920E-02 0.  1.
        2   -1    0    0  501    0  0.00000000000E+00  0.00000000000E+00 -0.14721315701E+04  0.14721315701E+04  0.25500000920E-02 0. -1.
    10030    2    1    2    0    0  0.00000000000E+00  0.00000000000E+00 -0.63509143142E+03  0.23091717088E+04  0.22201200091E+04 0.  0.
        3    1    3    3  502    0 -0.95248851870E+03 -0.53553857989E+03 -0.52082627740E+03  0.12104941017E+04  0.10100000352E+00 0. -1.
       -3    1    3    3    0  502  0.95248851870E+03  0.53553857989E+03 -0.11426515402E+03  0.10986776071E+04  0.10100000352E+00 0.  1.
</event>
<event>
 5   0  0.2910318E-05  0.2203781E+04  0.7818609E-02  0.8516856E-01
        1   -1    0    0  501    0  0.00000000000E+00  0.00000000000E+00  0.13722859427E+04  0.13722859427E+04  0.50400001928E-02 0.  1.
       -1   -1    0    0    0  501  0.00000000000E+00  0.00000000000E+00 -0.88477383489E+03  0.88477383491E+03  0.50400001928E-02 0. -1.
    10030    2    1    2    0    0  0.00000000000E+00  0.00000000000E+00  0.48751210780E+03  0.22570597776E+04  0.22037810201E+04 0.  0.
        5    1    3    3  502    0 -0.10579064808E+03  0.21589801568E+03  0.13450844387E+04  0.13664105722E+04  0.46999998093E+01 0.  1.
       -5    1    3    3    0  502  0.10579064808E+03 -0.21589801568E+03 -0.85757233093E+03  0.89064920545E+03  0.46999998093E+01 0. -1.
</event>
<event>
 5   0  0.2753631E-05  0.2239902E+04  0.7818609E-02  0.8502001E-01
       -1   -1    0    0    0  501  0.00000000000E+00  0.00000000000E+00  0.11847499878E+04  0.11847499878E+04  0.50400001928E-02 0. -1.
        1   -1    0    0  501    0  0.00000000000E+00  0.00000000000E+00 -0.10586964326E+04  0.10586964326E+04  0.50400001928E-02 0.  1.
    10030    2    1    2    0    0  0.00000000000E+00  0.00000000000E+00  0.12605355515E+03  0.22434464204E+04  0.22399023064E+04 0.  0.
        4    1    3    3  502    0  0.46021901039E+03 -0.60805500121E+03  0.88454195711E+03  0.11678820612E+04  0.12699999809E+01 0. -1.
       -4    1    3    3    0  502 -0.46021901039E+03  0.60805500121E+03 -0.75848840196E+03  0.10755643592E+04  0.12699999809E+01 0.  1.
</event>
<event>
 5   0  0.2929471E-05  0.2282209E+04  0.7818609E-02  0.8484969E-01
       -1   -1    0    0    0  501  0.00000000000E+00  0.00000000000E+00  0.10547942362E+04  0.10547942362E+04  0.50400001928E-02 0. -1.
        1   -1    0    0  501    0  0.00000000000E+00  0.00000000000E+00 -0.12344772138E+04  0.12344772138E+04  0.50400001928E-02 0.  1.
    10030    2    1    2    0    0  0.00000000000E+00  0.00000000000E+00 -0.17968297762E+03  0.22892714501E+04  0.22822089737E+04 0.  0.
        2    1    3    3  502    0 -0.17849862381E+03 -0.93985135808E+03  0.53412616779E+03  0.10956610320E+04  0.25500000920E-02 0. -1.
       -2    1    3    3    0  502  0.17849862381E+03  0.93985135808E+03 -0.71380914541E+03  0.11936104180E+04  0.25500000920E-02 0.  1.
</event>
<event>
 5   0  0.6628798E-05  0.2192864E+04  0.7818609E-02  0.8521404E-01
       -2   -1    0    0    0  501  0.00000000000E+00  0.00000000000E+00  0.85122648579E+03  0.85122648579E+03  0.25500000920E-02 0.  1.
        2   -1    0    0  501    0  0.00000000000E+00  0.00000000000E+00 -0.14122723284E+04  0.14122723284E+04  0.25500000920E-02 0. -1.
    10030    2    1    2    0    0  0.00000000000E+00  0.00000000000E+00 -0.56104584256E+03  0.22634988141E+04  0.21928644382E+04 0.  0.
        4    1    3    3  502    0  0.69734965096E+03  0.30193304284E+02 -0.11533083443E+04  0.13480837961E+04  0.12699999809E+01 0. -1.
       -4    1    3    3    0  502 -0.69734965096E+03 -0.30193304284E+02  0.59226250179E+03  0.91541501803E+03  0.12699999809E+01 0.  1.
</event>
<event>
 5   0  0.6293013E-05  0.2198023E+04  0.7818609E-02  0.8519252E-01
       -2   -1    0    0    0  501  0.00000000000E+00  0.00000000000E+00  0.12993100497E+04  0.12993100497E+04  0.25500000920E-02 0. -1.
        2   -1    0    0  501    0  0.00000000000E+00  0.00000000000E+00 -0.92959034081E+03  0.92959034082E+03  0.25500000920E-02 0.  1.
    10030    2    1    2    0    0  0.00000000000E+00  0.00000000000E+00  0.36971970888E+03  0.22289003905E+04  0.21980228133E+04 0.  0.
        1    1    3    3  502    0 -0.87318439425E+03 -0.66183582465E+03  0.27178704610E+03  0.11288692766E+04  0.50400001928E-02 0. -1.
       -1    1    3    3    0  502  0.87318439425E+03  0.66183582465E+03  0.97932662773E+02  0.11000311139E+04  0.50400001928E-02 0.  1.
</event>
<event>
 5   0  0.2908031E-05  0.2173991E+04  0.7818609E-02  0.8529332E-01
        1   -1    0    0  501    0  0.00000000000E+00  0.00000000000E+00  0.68002895321E+03  0.68002895323E+03  0.50400001928E-02 0.  1.
       -1   -1    0    0    0  501  0.00000000000E+00  0.00000000000E+00 -0.17375133905E+04  0.17375133905E+04  0.50400001928E-02 0. -1.
    10030    2    1    2    0    0  0.00000000000E+00  0.00000000000E+00 -0.10574844373E+04  0.24175423437E+04  0.21739911795E+04 0.  0.
        1    1    3    3  502    0 -0.81702927971E+02 -0.29121656772E+03  0.63229165588E+03  0.70091026236E+03  0.50400001928E-02 0.  1.
       -1    1    3    3    0  502  0.81702927971E+02  0.29121656772E+03 -0.16897760932E+04  0.17166320814E+04  0.50400001928E-02 0. -1.
</event>
<event>
 5   0  0.6445740E-05  0.2085933E+04  0.7818609E-02  0.8567465E-01
       -2   -1    0    0    0  501  0.00000000000E+00  0.00000000000E+00  0.12141488887E+04  0.12141488887E+04  0.25500000920E-02 0. -1.
        2   -1    0    0  501    0  0.00000000000E+00  0.00000000000E+00 -0.89591934088E+03  0.89591934088E+03  0.25500000920E-02 0.  1.
    10030    2    1    2    0    0  0.00000000000E+00  0.00000000000E+00  0.31822954785E+03  0.21100682296E+04  0.20859333375E+04 0.  0.
        5    1    3    3  502    0  0.19160237302E+03 -0.24925509248E+03  0.11650642599E+04  0.12067461996E+04  0.46999998093E+01 0. -1.
       -5    1    3    3    0  502 -0.19160237302E+03  0.24925509248E+03 -0.84683471204E+03  0.90332203006E+03  0.46999998093E+01 0.  1.
</event>
<event>
 5   0  0.2753631E-05  0.2274898E+04  0.7818609E-02  0.8487885E-01
       -1   -1    0    0    0  501  0.00000000000E+00  0.00000000000E+00  0.15078384575E+04  0.15078384575E+04  0.50400001928E-02 0. -1.
        1   -1    0    0  501    0  0.00000000000E+00  0.00000000000E+00 -0.85804294777E+03  0.85804294778E+03  0.50400001928E-02 0.  1.
    10030    2    1    2    0    0  0.00000000000E+00  0.00000000000E+00  0.64979550974E+03  0.23658814053E+04  0.22748979361E+04 0.  0.
        4    1    3    3  502    0  0.29435474854E+03 -0.19798581933E+03  0.14488356953E+04  0.14916331947E+04  0.12699999809E+01 0. -1.
       -4    1    3    3    0  502 -0.29435474854E+03  0.19798581933E+03 -0.79904018558E+03  0.87424821059E+03  0.12699999809E+01 0.  1.
</event>
<event>
 5   0  0.2820239E-05  0.2217922E+04  0.7818609E-02  0.8511006E-01
       -1   -1    0    0    0  501  0.00000000000E+00  0.00000000000E+00  0.10120391611E+04  0.10120391611E+04  0.50400001928E-02 0. -1.
        1   -1    0    0  501    0  0.00000000000E+00  0.00000000000E+00 -0.12151644587E+04  0.12151644587E+04  0.50400001928E-02 0.  1.
    10030    2    1    2    0    0  0.00000000000E+00  0.00000000000E+00 -0.20312529760E+03  0.22272036198E+04  0.22179215670E+04 0.  0.
        3    1    3    3  502    0 -0.63792368697E+03 -0.66133296491E+03  0.52191098827E+03  0.10567398028E+04  0.10100000352E+00 0. -1.
       -3    1    3    3    0  502  0.63792368697E+03  0.66133296491E+03 -0.72503628588E+03  0.11704638170E+04  0.10100000352E+00 0.  1.
</event>
<event>
 5   0  0.2929471E-05  0.2448234E+04  0.7818609E-02  0.8421663E-01
       -1   -1    0    0    0  501  0.00000000000E+00  0.00000000000E+00  0.85661293968E+03  0.85661293970E+03  0.50400001928E-02 0. -1.
        1   -1    0    0  501    0  0.00000000000E+00  0.00000000000E+00 -0.17492876322E+04  0.17492876322E+04  0.50400001928E-02 0.  1.
    10030    2    1    2    0    0  0.00000000000E+00  0.00000000000E+00 -0.89267469250E+03  0.26059005719E+04  0.24482339929E+04 0.  0.
        2    1    3    3  502    0  0.11181397194E+04  0.36953678765E+03 -0.90648408395E+02  0.11811058393E+04  0.25500000920E-02 0. -1.
       -2    1    3    3    0  502 -0.11181397194E+04 -0.36953678765E+03 -0.80202628411E+03  0.14247947326E+04  0.25500000920E-02 0.  1.
</event>
<event>
 5   0  0.6628798E-05  0.2202746E+04  0.7818609E-02  0.8517286E-01
       -2   -1    0    0    0  501  0.00000000000E+00  0.00000000000E+00  0.83490880138E+03  0.83490880138E+03  0.25500000920E-02 0.  1.
        2   -1    0    0  501    0  0.00000000000E+00  0.00000000000E+00 -0.14528803118E+04  0.14528803118E+04  0.25500000920E-02 0. -1.
    10030    2    1    2    0    0  0.00000000000E+00  0.00000000000E+00 -0.61797151039E+03  0.22877891132E+04  0.22027460677E+04 0.  0.
        4    1    3    3  502    0 -0.10180224599E+03 -0.74185980371E+03  0.52984755902E+03  0.91731113279E+03  0.12699999809E+01 0.  1.
       -4    1    3    3    0  502  0.10180224599E+03  0.74185980371E+03 -0.11478190694E+04  0.13704779804E+04  0.12699999809E+01 0. -1.
</event>
<event>
 5   0  0.2908031E-05  0.2198755E+04  0.7818609E-02  0.8518946E-01
       -1   -1    0    0    0  501  0.00000000000E+00  0.00000000000E+00  0.60772707459E+03  0.60772707461E+03  0.50400001928E-02 0.  1.
        1   -1    0    0  501    0  0.00000000000E+00  0.00000000000E+00 -0.19887727533E+04  0.19887727533E+04  0.50400001928E-02 0. -1.
    10030    2    1    2    0    0  0.00000000000E+00  0.00000000000E+00 -0.13810456787E+04  0.25964998279E+04  0.21987551455E+04 0.  0.
        1    1    3    3  502    0  0.39347214406E+03 -0.86895664759E+03 -0.13359500348E+04  0.16415445407E+04  0.50400001928E-02 0. -1.
       -1    1    3    3    0  502 -0.39347214406E+03  0.86895664759E+03 -0.45095643938E+02  0.95495528726E+03  0.50400001928E-02 0.  1.
</event>
<event>
 5   0  0.2820239E-05  0.2171478E+04  0.7818609E-02  0.8530394E-01
       -1   -1    0    0    0  501  0.00000000000E+00  0.00000000000E+00  0.12075627973E+04  0.12075627973E+04  0.50400001928E-02 0. -1.
        1   -1    0    0  501    0  0.00000000000E+00  0.00000000000E+00 -0.97620488012E+03  0.97620488013E+03  0.50400001928E-02 0.  1.
    10030    2    1    2    0    0  0.00000000000E+00  0.00000000000E+00  0.23135791722E+03  0.21837676775E+04  0.21714775576E+04 0.  0.
        3    1    3    3  502    0 -0.43618676640E+03 -0.62159464635E+03 -0.66472204084E+03  0.10092047371E+04  0.10100000352E+00 0.  1.
       -3    1    3    3    0  502  0.43618676640E+03  0.62159464635E+03  0.89607995806E+03  0.11745629404E+04  0.10100000352E+00 0. -1.
</event>
<event>
 5   0  0.6414768E-05  0.2203877E+04  0.7818609E-02  0.8516816E-01
       -2   -1    0    0    0  501  0.00000000000E+00  0.00000000000E+00  0.87259495992E+03  0.87259495993E+03  0.25500000920E-02 0.  1.
        2   -1    0    0  501    0  0.00000000000E+00  0.00000000000E+00 -0.13915602580E+04  0.13915602580E+04  0.25500000920E-02 0. -1.
    10030    2    1    2    0    0  0.00000000000E+00  0.00000000000E+00 -0.51896529812E+03  0.22641552180E+04  0.22038770089E+04 0.  0.
        2    1    3    3  502    0  0.71918449799E+03  0.29024897510E+03  0.54474201957E+03  0.94774188342E+03  0.25500000920E-02 0.  1.
       -2    1    3    3    0  502 -0.71918449799E+03 -0.29024897510E+03 -0.10637073177E+04  0.13164133346E+04  0.25500000920E-02 0. -1.
</event>
<event>
 5   0  0.6628798E-05  0.2165080E+04  0.7818609E-02  0.8533105E-01
        2   -1    0    0  501    0  0.00000000000E+00  0.00000000000E+00  0.22736845798E+04  0.22736845798E+04  0.25500000920E-02 0.  1.
       -2   -1    0    0    0  501  0.00000000000E+00  0.00000000000E+00 -0.51541578156E+03  0.51541578157E+03  0.25500000920E-02 0. -1.
    10030    2    1    2    0    0  0.00000000000E+00  0.00000000000E+00  0.17582687982E+04  0.27891003614E+04  0.21650800583E+04 0.  0.
        4    1    3    3  502    0  0.42681582972E+03  0.61708688112E+03 -0.12610959961E+03  0.76083718059E+03  0.12699999809E+01 0. -1.
       -4    1    3    3    0  502 -0.42681582972E+03 -0.61708688112E+03  0.18843783979E+04  0.20282631808E+04  0.12699999809E+01 0.  1.
</event>
<event>
 5   0  0.2910318E-05  0.2209362E+04  0.7818609E-02  0.8514541E-01
        1   -1    0    0  501    0  0.00000000000E+00  0.00000000000E+00  0.26129180318E+04  0.26129180318E+04  0.50400001928E-02 0. -1.
       -1   -1    0    0    0  501  0.00000000000E+00  0.00000000000E+00 -0.46703349123E+03  0.46703349125E+03  0.50400001928E-02 0.  1.
    10030    2    1    2    0    0  0.00000000000E+00  0.00000000000E+00  0.21458845405E+04  0.30799515230E+04  0.22093621077E+04 0.  0.
        5    1    3    3  502    0  0.66965106784E+03 -0.44252909510E+03  0.14905201914E+02  0.80281305901E+03  0.46999998093E+01 0.  1.
       -5    1    3    3    0  502 -0.66965106784E+03  0.44252909510E+03  0.21309793386E+04  0.22771384640E+04  0.46999998093E+01 0. -1.
</event>
<event>
 5   0  0.6628798E-05  0.2124833E+04  0.7818609E-02  0.8550383E-01
       -2   -1    0    0    0  501  0.00000000000E+00  0.00000000000E+00  0.15607101982E+04  0.15607101982E+04  0.25500000920E-02 0.  1.
        2   -1    0    0  501    0  0.00000000000E+00  0.00000000000E+00 -0.72321458329E+03  0.72321458329E+03  0.25500000920E-02 0. -1.
    10030    2    1    2    0    0  0.00000000000E+00  0.00000000000E+00  0.83749561489E+03  0.22839247815E+04  0.21248325822E+04 0.  0.
        4    1    3    3  502    0  0.85316855942E+03 -0.12846037041E+03 -0.24761101483E+03  0.89761432983E+03  0.12699999809E+01 0. -1.
       -4    1    3    3    0  502 -0.85316855942E+03  0.12846037041E+03  0.10851066297E+04  0.13863104516E+04  0.12699999809E+01 0.  1.
</event>
<event>
 5   0  0.2929471E-05  0.2187640E+04  0.7818609E-02  0.8523590E-01
        1   -1    0    0  501    0  0.00000000000E+00  0.00000000000E+00  0.25729026351E+04  0.25729026351E+04  0.50400001928E-02 0.  1.
       -1   -1    0    0    0  501  0.00000000000E+00  0.00000000000E+00 -0.46501636960E+03  0.46501636963E+03  0.50400001928E-02 0. -1.
    10030    2    1    2    0    0  0.00000000000E+00  0.00000000000E+00  0.21078862655E+04  0.30379190047E+04  0.21876396803E+04 0.  0.
        2    1    3    3  502    0 -0.18367014900E+03  0.53119768136E+03 -0.24914560685E+03  0.61480015756E+03  0.25500000920E-02 0. -1.
       -2    1    3    3    0  502  0.18367014900E+03 -0.53119768136E+03  0.23570318723E+04  0.24231188472E+04  0.25500000920E-02 0.  1.
</event>
<event>
 5   0  0.6445740E-05  0.2179140E+04  0.7818609E-02  0.8527161E-01
        2   -1    0    0  501    0  0.00000000000E+00  0.00000000000E+00  0.15047045941E+04  0.15047045941E+04  0.25500000920E-02 0.  1.
       -2   -1    0    0    0  501  0.00000000000E+00  0.00000000000E+00 -0.78896712929E+03  0.78896712929E+03  0.25500000920E-02 0. -1.
    10030    2    1    2    0    0  0.00000000000E+00  0.00000000000E+00  0.71573746478E+03  0.22936717234E+04  0.21791397055E+04 0.  0.
        5    1    3    3  502    0 -0.10578166529E+04  0.26046189310E+03  0.33892545570E+03  0.11409246353E+04  0.46999998093E+01 0.  1.
       -5    1    3    3    0  502  0.10578166529E+04 -0.26046189310E+03  0.37681200907E+03  0.11527470881E+04  0.46999998093E+01 0. -1.
</event>
<event>
 5   0  0.2753631E-05  0.2195699E+04  0.7818609E-02  0.8520220E-01
       -1   -1    0    0    0  501  0.00000000000E+00  0.00000000000E+00  0.61370486388E+03  0.61370486390E+03  0.50400001928E-02 0.  1.
        1   -1    0    0  501    0  0.00000000000E+00  0.00000000000E+00 -0.19639310582E+04  0.19639310582E+04  0.50400001928E-02 0. -1.
    10030    2    1    2    0    0  0.00000000000E+00  0.00000000000E+00 -0.13502261943E+04  0.25776359221E+04  0.21956994719E+04 0.  0.
        4    1    3    3  502    0 -0.10620789263E+04  0.21406629968E+03 -0.46696851781E+03  0.11797869451E+04  0.12699999809E+01 0. -1.
       -4    1    3    3    0  502  0.10620789263E+04 -0.21406629968E+03 -0.88325767647E+03  0.13978489769E+04  0.12699999809E+01 0.  1.
</event>
<event>
 5   0  0.6306919E-05  0.2194025E+04  0.7818609E-02  0.8520919E-01
        2   -1    0    0  501    0  0.00000000000E+00  0.00000000000E+00  0.24559209133E+04  0.24559209133E+04  0.25500000920E-02 0. -1.
       -2   -1    0    0    0  501  0.00000000000E+00  0.00000000000E+00 -0.49001433037E+03  0.49001433038E+03  0.25500000920E-02 0.  1.
    10030    2    1    2    0    0  0.00000000000E+00  0.00000000000E+00  0.19659065829E+04  0.29459352437E+04  0.21940250152E+04 0.  0.
        3    1    3    3  502    0  0.65692865947E+02  0.52784570132E+03 -0.30527688807E+03  0.61329489288E+03  0.10100000352E+00 0.  1.
       -3    1    3    3    0  502 -0.65692865947E+02 -0.52784570132E+03  0.22711834710E+04  0.23326403508E+04  0.10100000352E+00 0. -1.
</event>
<event>
 5   0  0.2929471E-05  0.2195805E+04  0.7818609E-02  0.8520176E-01
       -1   -1    0    0    0  501  0.00000000000E+00  0.00000000000E+00  0.11086306755E+04  0.11086306755E+04  0.50400001928E-02 0.  1.
        1   -1    0    0  501    0  0.00000000000E+00  0.00000000000E+00 -0.10872777923E+04  0.10872777923E+04  0.50400001928E-02 0. -1.
    10030    2    1    2    0    0  0.00000000000E+00  0.00000000000E+00  0.21352883163E+02  0.21959084678E+04  0.21958046483E+04 0.  0.
        2    1    3    3  502    0  0.11267373531E+03  0.52755498849E+02 -0.10802055515E+04  0.10873465624E+04  0.25500000920E-02 0. -1.
       -2    1    3    3    0  502 -0.11267373531E+03 -0.52755498849E+02  0.11015584346E+04  0.11085619054E+04  0.25500000920E-02 0.  1.
</event>
<event>
 5   0  0.6414768E-05  0.2183759E+04  0.7818609E-02  0.8525219E-01
        2   -1    0    0  501    0  0.00000000000E+00  0.00000000000E+00  0.95765454992E+03  0.95765454993E+03  0.25500000920E-02 0. -1.
       -2   -1    0    0    0  501  0.00000000000E+00  0.00000000000E+00 -0.12449173326E+04  0.12449173326E+04  0.25500000920E-02 0.  1.
    10030    2    1    2    0    0  0.00000000000E+00  0.00000000000E+00 -0.28726278271E+03  0.22025718826E+04  0.21837589133E+04 0.  0.
        2    1    3    3  502    0 -0.94555694484E+03 -0.34655994970E+02 -0.69323101099E+03  0.11729655615E+04  0.25500000920E-02 0.  1.
       -2    1    3    3    0  502  0.94555694484E+03  0.34655994970E+02  0.40596822828E+03  0.10296063210E+04  0.25500000920E-02 0. -1.
</event>
<event>
 5   0  0.2245375E-05  0.1980136E+04  0.7818609E-02  0.8615964E-01
        3   -1    0    0  501    0  0.00000000000E+00  0.00000000000E+00  0.15635143963E+04  0.15635143996E+04  0.10100000352E+00 0. -1.
       -3   -1    0    0    0  501  0.00000000000E+00  0.00000000000E+00 -0.62694319817E+03  0.62694320630E+03  0.10100000352E+00 0.  1.
    10030    2    1    2    0    0  0.00000000000E+00  0.00000000000E+00  0.93657119813E+03  0.21904576059E+04  0.19801360847E+04 0.  0.
        4    1    3    3  502    0  0.74673497600E+03  0.11779968439E+03  0.11755228022E+04  0.13976213226E+04  0.12699999809E+01 0. -1.
       -4    1    3    3    0  502 -0.74673497600E+03 -0.11779968439E+03 -0.23895160408E+03  0.79283628324E+03  0.12699999809E+01 0.  1.
</event>
<event>
 5   0  0.6628798E-05  0.2214563E+04  0.7818609E-02  0.8512391E-01
        2   -1    0    0  501    0  0.00000000000E+00  0.00000000000E+00  0.12481271551E+04  0.12481271551E+04  0.25500000920E-02 0. -1.
       -2   -1    0    0    0  501  0.00000000000E+00  0.00000000000E+00 -0.98232992695E+03  0.98232992696E+03  0.25500000920E-02 0.  1.
    10030    2    1    2    0    0  0.00000000000E+00  0.00000000000E+00  0.26579722817E+03  0.22304570821E+04  0.22145633042E+04 0.  0.
        4    1    3    3  502    0  0.93755893073E+03  0.36603672341E+03  0.59780805393E+03  0.11706304770E+04  0.12699999809E+01 0. -1.
       -4    1    3    3    0  502 -0.93755893073E+03 -0.36603672341E+03 -0.33201082576E+03  0.10598266051E+04  0.12699999809E+01 0.  1.
</event>
<event>
 5   0  0.6445740E-05  0.2193686E+04  0.7818609E-02  0.8521061E-01
       -2   -1    0    0    0  501  0.00000000000E+00  0.00000000000E+00  0.96918385709E+03  0.96918385710E+03  0.25500000920E-02 0. -1.
        2   -1    0    0  501    0  0.00000000000E+00  0.00000000000E+00 -0.12413176665E+04  0.12413176665E+04  0.25500000920E-02 0.  1.
    10030    2    1    2    0    0  0.00000000000E+00  0.00000000000E+00 -0.27213380943E+03  0.22105015236E+04  0.21936864351E+04 0.  0.
        5    1    3    3  502    0 -0.95580371967E+03  0.26465562487E+03 -0.60810143995E+03  0.11633627128E+04  0.46999998093E+01 0.  1.
       -5    1    3    3    0  502  0.95580371967E+03 -0.26465562487E+03  0.33596763053E+03  0.10471388108E+04  0.46999998093E+01 0. -1.
</event>
<event>
 5   0  0.2753631E-05  0.2239645E+04  0.7818609E-02  0.8502106E-01
        1   -1    0    0  501    0  0.00000000000E+00  0.00000000000E+00  0.89288627870E+03  0.89288627871E+03  0.50400001928E-02 0. -1.
       -1   -1    0    0    0  501  0.00000000000E+00  0.00000000000E+00 -0.14044370584E+04  0.14044370584E+04  0.50400001928E-02 0.  1.
    10030    2    1    2    0    0  0.00000000000E+00  0.00000000000E+00 -0.51155077972E+03  0.22973233371E+04  0.22396451315E+04 0.  0.
        4    1    3    3  502    0  0.10948693384E+04  0.20796560330E+03 -0.14335168092E+03  0.11236279978E+04  0.12699999809E+01 0.  1.
       -4    1    3    3    0  502 -0.10948693384E+04 -0.20796560330E+03 -0.36819909881E+03  0.11736953393E+04  0.12699999809E+01 0. -1.
</event>
<event>
 5   0  0.2929471E-05  0.2220458E+04  0.7818609E-02  0.8509961E-01
        1   -1    0    0  501    0  0.00000000000E+00  0.00000000000E+00  0.12228425816E+04  0.12228425816E+04  0.50400001928E-02 0.  1.
       -1   -1    0    0    0  501  0.00000000000E+00  0.00000000000E+00 -0.10079859992E+04  0.10079859992E+04  0.50400001928E-02 0. -1.
    10030    2    1    2    0    0  0.00000000000E+00  0.00000000000E+00  0.21485658235E+03  0.22308285808E+04  0.22204577920E+04 0.  0.
        2    1    3    3  502    0 -0.74212389545E+03  0.18507429227E+03 -0.70107114944E+03  0.10375457226E+04  0.25500000920E-02 0. -1.
       -2    1    3    3    0  502  0.74212389545E+03 -0.18507429227E+03  0.91592773179E+03  0.11932828582E+04  0.25500000920E-02 0.  1.
</event>
<event>
 5   0  0.6445740E-05  0.2219494E+04  0.7818609E-02  0.8510358E-01
        2   -1    0    0  501    0  0.00000000000E+00  0.00000000000E+00  0.12217532707E+04  0.12217532707E+04  0.25500000920E-02 0.  1.
       -2   -1    0    0    0  501  0.00000000000E+00  0.00000000000E+00 -0.10080094761E+04  0.10080094761E+04  0.25500000920E-02 0. -1.
    10030    2    1    2    0    0  0.00000000000E+00  0.00000000000E+00  0.21374379460E+03  0.22297627467E+04  0.22194944237E+04 0.  0.
        5    1    3    3  502    0  0.33265472608E+03  0.37022658143E+03  0.11033225041E+04  0.12104005644E+04  0.46999998093E+01 0.  1.
       -5    1    3    3    0  502 -0.33265472608E+03 -0.37022658143E+03 -0.88957870946E+03  0.10193621823E+04  0.46999998093E+01 0. -1.
</event>
<event>
 5   0  0.2820239E-05  0.2215233E+04  0.7818609E-02  0.8512115E-01
        1   -1    0    0  501    0  0.00000000000E+00  0.00000000000E+00  0.12426869152E+04  0.12426869152E+04  0.50400001928E-02 0.  1.
       -1   -1    0    0    0  501  0.00000000000E+00  0.00000000000E+00 -0.98722696432E+03  0.98722696433E+03  0.50400001928E-02 0. -1.
    10030    2    1    2    0    0  0.00000000000E+00  0.00000000000E+00  0.25545995091E+03  0.22299138796E+04  0.22152327471E+04 0.  0.
        3    1    3    3  502    0  0.85616105674E+03 -0.47264341097E+03  0.65118633534E+03  0.11749243391E+04  0.10100000352E+00 0.  1.
       -3    1    3    3    0  502 -0.85616105674E+03  0.47264341097E+03 -0.39572638443E+03  0.10549895405E+04  0.10100000352E+00 0. -1.
</event>
<event>
 5   0  0.6293013E-05  0.2193490E+04  0.7818609E-02  0.8521143E-01
        2   -1    0    0  501    0  0.00000000000E+00  0.00000000000E+00  0.23127373813E+04  0.23127373813E+04  0.25500000920E-02 0.  1.
       -2   -1    0    0    0  501  0.00000000000E+00  0.00000000000E+00 -0.52009771398E+03  0.52009771399E+03  0.25500000920E-02 0. -1.
    10030    2    1    2    0    0  0.00000000000E+00  0.00000000000E+00  0.17926396673E+04  0.28328350953E+04  0.21934898450E+04 0.  0.
        1    1    3    3  502    0  0.26282032347E+03  0.18781831056E+03 -0.45726517410E+03  0.55985862473E+03  0.50400001928E-02 0. -1.
       -1    1    3    3    0  502 -0.26282032347E+03 -0.18781831056E+03  0.22499048414E+04  0.22729764705E+04  0.50400001928E-02 0.  1.
</event>
<event>
 5   0  0.2908031E-05  0.2088992E+04  0.7818609E-02  0.8566108E-01
       -1   -1    0    0    0  501  0.00000000000E+00  0.00000000000E+00  0.10390990489E+04  0.10390990489E+04  0.50400001928E-02 0. -1.
        1   -1    0    0  501    0  0.00000000000E+00  0.00000000000E+00 -0.10499212375E+04  0.10499212375E+04  0.50400001928E-02 0.  1.
    10030    2    1    2    0    0  0.00000000000E+00  0.00000000000E+00 -0.10822188546E+02  0.20890202864E+04  0.20889922540E+04 0.  0.
        1    1    3    3  502    0 -0.46587378226E+03 -0.86083883925E+03 -0.36995716497E+03  0.10463986774E+04  0.50400001928E-02 0. -1.
       -1    1    3    3    0  502  0.46587378226E+03  0.86083883925E+03  0.35913497642E+03  0.10426216090E+04  0.50400001928E-02 0.  1.
</event>
<event>
 5   0  0.6293013E-05  0.2181642E+04  0.7818609E-02  0.8526108E-01
       -2   -1    0    0    0  501  0.00000000000E+00  0.00000000000E+00  0.94399195682E+03  0.94399195683E+03  0.25500000920E-02 0.  1.
        2   -1    0    0  501    0  0.00000000000E+00  0.00000000000E+00 -0.12604880376E+04  0.12604880376E+04  0.25500000920E-02 0. -1.
    10030    2    1    2    0    0  0.00000000000E+00  0.00000000000E+00 -0.31649608081E+03  0.22044799945E+04  0.21816421056E+04 0.  0.
        1    1    3    3  502    0 -0.74901116497E+03  0.14072191920E+03 -0.94684722837E+03  0.12154587849E+04  0.50400001928E-02 0. -1.
       -1    1    3    3    0  502  0.74901116497E+03 -0.14072191920E+03  0.63035114756E+03  0.98902120961E+03  0.50400001928E-02 0.  1.
</event>
<event>
 5   0  0.6293013E-05  0.1971620E+04  0.7818609E-02  0.8620006E-01
       -2   -1    0    0    0  501  0.00000000000E+00  0.00000000000E+00  0.96603013269E+03  0.96603013269E+03  0.25500000920E-02 0.  1.
        2   -1    0    0  501    0  0.00000000000E+00  0.00000000000E+00 -0.10059944695E+04  0.10059944695E+04  0.25500000920E-02 0. -1.
    10030    2    1    2    0    0  0.00000000000E+00  0.00000000000E+00 -0.39964336822E+02  0.19720246022E+04  0.19716196092E+04 0.  0.
        1    1    3    3  502    0 -0.68483038279E+03 -0.10114053751E+03  0.68201590914E+03  0.97178586215E+03  0.50400001928E-02 0.  1.
       -1    1    3    3    0  502  0.68483038279E+03  0.10114053751E+03 -0.72198024596E+03  0.10002387401E+04  0.50400001928E-02 0. -1.
</event>
<event>
 5   0  0.6445740E-05  0.2166249E+04  0.7818609E-02  0.8532609E-01
        2   -1    0    0  501    0  0.00000000000E+00  0.00000000000E+00  0.94319213592E+03  0.94319213592E+03  0.25500000920E-02 0.  1.
       -2   -1    0    0    0  501  0.00000000000E+00  0.00000000000E+00 -0.12438171914E+04  0.12438171914E+04  0.25500000920E-02 0. -1.
    10030    2    1    2    0    0  0.00000000000E+00  0.00000000000E+00 -0.30062505549E+03  0.21870093273E+04  0.21662489178E+04 0.  0.
        5    1    3    3  502    0  0.46306019066E+03  0.58258983905E+03  0.64418602785E+03  0.98429334510E+03  0.46999998093E+01 0.  1.
       -5    1    3    3    0  502 -0.46306019066E+03 -0.58258983905E+03 -0.94481108334E+03  0.12027159822E+04  0.46999998093E+01 0. -1.
</event>
<event>
 5   0  0.6306919E-05  0.2189818E+04  0.7818609E-02  0.8522678E-01
        2   -1    0    0  501    0  0.00000000000E+00  0.00000000000E+00  0.96000043818E+03  0.96000043819E+03  0.25500000920E-02 0. -1.
       -2   -1    0    0    0  501  0.00000000000E+00  0.00000000000E+00 -0.12487760234E+04  0.12487760234E+04  0.25500000920E-02 0.  1.
    10030    2    1    2    0    0  0.00000000000E+00  0.00000000000E+00 -0.28877558517E+03  0.22087764615E+04  0.21898178277E+04 0.  0.
        3    1    3    3  502    0 -0.51715234535E+03  0.80848472032E+03  0.38717710241E+03  0.10348914002E+04  0.10100000352E+00 0. -1.
       -3    1    3    3    0  502  0.51715234535E+03 -0.80848472032E+03 -0.67595268758E+03  0.11738850614E+04  0.10100000352E+00 0.  1.
</event>
<event>
 5   0  0.2929471E-05  0.2282914E+04  0.7818609E-02  0.8484688E-01
       -1   -1    0    0    0  501  0.00000000000E+00  0.00000000000E+00  0.60137671530E+03  0.60137671532E+03  0.50400001928E-02 0. -1.
        1   -1    0    0  501    0  0.00000000000E+00  0.00000000000E+00 -0.21665690071E+04  0.21665690071E+04  0.50400001928E-02 0.  1.
    10030    2    1    2    0    0  0.00000000000E+00  0.00000000000E+00 -0.15651922918E+04  0.27679457225E+04  0.22829140615E+04 0.  0.
        2    1    3    3  502    0  0.43688958202E+03  0.10260631983E+03  0.48992470602E+03  0.66439956451E+03  0.25500000920E-02 0. -1.
       -2    1    3    3    0  502 -0.43688958202E+03 -0.10260631983E+03 -0.20551169978E+04  0.21035461579E+04  0.25500000920E-02 0.  1.
</event>
<event>
 5   0  0.2820239E-05  0.2576885E+04  0.7818609E-02  0.8376096E-01
       -1   -1    0    0    0  501  0.00000000000E+00  0.00000000000E+00  0.10867145133E+04  0.10867145133E+04  0.50400001928E-02 0.  1.
        1   -1    0    0  501    0  0.00000000000E+00  0.00000000000E+00 -0.15276170266E+04  0.15276170266E+04  0.50400001928E-02 0. -1.
    10030    2    1    2    0    0  0.00000000000E+00  0.00000000000E+00 -0.44090251330E+03  0.26143315399E+04  0.25768846257E+04 0.  0.
        3    1    3    3  502    0  0.78940425560E+03 -0.83322045934E+03  0.37343403708E+03  0.12070080376E+04  0.10100000352E+00 0. -1.
       -3    1    3    3    0  502 -0.78940425560E+03  0.83322045934E+03 -0.81433655038E+03  0.14073235023E+04  0.10100000352E+00 0.  1.
</event>
<event>
 5   0  0.2245375E-05  0.2205170E+04  0.7818609E-02  0.8516280E-01
        3   -1    0    0  501    0  0.00000000000E+00  0.00000000000E+00  0.16460673748E+04  0.16460673779E+04  0.10100000352E+00 0. -1.
       -3   -1    0    0    0  501  0.00000000000E+00  0.00000000000E+00 -0.73854401633E+03  0.73854402324E+03  0.10100000352E+00 0.  1.
    10030    2    1    2    0    0  0.00000000000E+00  0.00000000000E+00  0.90752335846E+03  0.23846114011E+04  0.22051695826E+04 0.  0.
        3    1    3    3  502    0 -0.31859239617E+03 -0.39851765903E+02 -0.68687128430E+03  0.75820937051E+03  0.10100000352E+00 0.  1.
       -3    1    3    3    0  502  0.31859239617E+03  0.39851765903E+02  0.15943946428E+04  0.16264020306E+04  0.10100000352E+00 0. -1.
</event>
<event>
 5   0  0.2929471E-05  0.2192629E+04  0.7818609E-02  0.8521502E-01
        1   -1    0    0  501    0  0.00000000000E+00  0.00000000000E+00  0.20691584696E+04  0.20691584696E+04  0.50400001928E-02 0. -1.
       -1   -1    0    0    0  501  0.00000000000E+00  0.00000000000E+00 -0.58086698990E+03  0.58086698993E+03  0.50400001928E-02 0.  1.
    10030    2    1    2    0    0  0.00000000000E+00  0.00000000000E+00  0.14882914797E+04  0.26500254595E+04  0.21926293366E+04 0.  0.
        2    1    3    3  502    0 -0.28239102440E+03  0.10837232690E+02  0.20243807946E+04  0.20440106991E+04  0.25500000920E-02 0. -1.
       -2    1    3    3    0  502  0.28239102440E+03 -0.10837232690E+02 -0.53608931494E+03  0.60601476044E+03  0.25500000920E-02 0.  1.
</event>
<event>
 5   0  0.2908031E-05  0.2200388E+04  0.7818609E-02  0.8518267E-01
       -1   -1    0    0    0  501  0.00000000000E+00  0.00000000000E+00  0.21026499735E+04  0.21026499735E+04  0.50400001928E-02 0.  1.
        1   -1    0    0  501    0  0.00000000000E+00  0.00000000000E+00 -0.57566719656E+03  0.57566719658E+03  0.50400001928E-02 0. -1.
    10030    2    1    2    0    0  0.00000000000E+00  0.00000000000E+00  0.15269827770E+04  0.26783171701E+04  0.22003877982E+04 0.  0.
        1    1    3    3  502    0  0.19370075610E+03  0.30145048962E+03  0.20296359048E+04  0.20610226313E+04  0.50400001928E-02 0.  1.
       -1    1    3    3    0  502 -0.19370075610E+03 -0.30145048962E+03 -0.50265312788E+03  0.61729453877E+03  0.50400001928E-02 0. -1.
</event>
<event>
 5   0  0.6293013E-05  0.2180136E+04  0.7818609E-02  0.8526742E-01
        2   -1    0    0  501    0  0.00000000000E+00  0.00000000000E+00  0.18603579246E+04  0.18603579246E+04  0.25500000920E-02 0.  1.
       -2   -1    0    0    0  501  0.00000000000E+00  0.00000000000E+00 -0.63872030369E+03  0.63872030369E+03  0.25500000920E-02 0. -1.
    10030    2    1    2    0    0  0.00000000000E+00  0.00000000000E+00  0.12216376209E+04  0.24990782283E+04  0.21801361229E+04 0.  0.
        1    1    3    3  502    0 -0.64559293163E+03 -0.76853770207E+03  0.10982406631E+04  0.14878081150E+04  0.50400001928E-02 0. -1.
       -1    1    3    3    0  502  0.64559293163E+03  0.76853770207E+03  0.12339695783E+03  0.10112701133E+04  0.50400001928E-02 0.  1.
</event>
<event>
 5   0  0.2820239E-05  0.2217834E+04  0.7818609E-02  0.8511042E-01
       -1   -1    0    0    0  501  0.00000000000E+00  0.00000000000E+00  0.48863364355E+03  0.48863364357E+03  0.50400001928E-02 0. -1.
        1   -1    0    0  501    0  0.00000000000E+00  0.00000000000E+00 -0.25166037881E+04  0.25166037881E+04  0.50400001928E-02 0.  1.
    10030    2    1    2    0    0  0.00000000000E+00  0.00000000000E+00 -0.20279701446E+04  0.30052374317E+04  0.22178343296E+04 0.  0.
        3    1    3    3  502    0 -0.57109931177E+03  0.36787237641E+03  0.17367032280E+03  0.70117465759E+03  0.10100000352E+00 0. -1.
       -3    1    3    3    0  502  0.57109931177E+03 -0.36787237641E+03 -0.22016404674E+04  0.23040627741E+04  0.10100000352E+00 0.  1.
</event>
<event>
 5   0  0.6414768E-05  0.2176966E+04  0.7818609E-02  0.8528077E-01
        2   -1    0    0  501    0  0.00000000000E+00  0.00000000000E+00  0.10591969731E+04  0.10591969731E+04  0.25500000920E-02 0.  1.
       -2   -1    0    0    0  501  0.00000000000E+00  0.00000000000E+00 -0.11185787528E+04  0.11185787528E+04  0.25500000920E-02 0. -1.
    10030    2    1    2    0    0  0.00000000000E+00  0.00000000000E+00 -0.59381779690E+02  0.21777757259E+04  0.21769659889E+04 0.  0.
        2    1    3    3  502    0 -0.66179121985E+03  0.81964186417E+03 -0.30368110850E+03  0.10963588007E+04  0.25500000920E-02 0. -1.
       -2    1    3    3    0  502  0.66179121985E+03 -0.81964186417E+03  0.24429932881E+03  0.10814169253E+04  0.25500000920E-02 0.  1.
</event>
<event>
 5   0  0.2910318E-05  0.1975118E+04  0.7818609E-02  0.8618343E-01
       -1   -1    0    0    0  501  0.00000000000E+00  0.00000000000E+00  0.13682677473E+04  0.13682677474E+04  0.50400001928E-02 0.  1.
        1   -1    0    0  501    0  0.00000000000E+00  0.00000000000E+00 -0.71277904947E+03  0.71277904949E+03  0.50400001928E-02 0. -1.
    10030    2    1    2    0    0  0.00000000000E+00  0.00000000000E+00  0.65548869788E+03  0.20810467968E+04  0.19751178035E+04 0.  0.
        5    1    3    3  502    0 -0.57265949962E+03 -0.79176932220E+03  0.17720794386E+03  0.99310739975E+03  0.46999998093E+01 0. -1.
       -5    1    3    3    0  502  0.57265949962E+03  0.79176932220E+03  0.47828075402E+03  0.10879393971E+04  0.46999998093E+01 0.  1.
</event>
<event>
 5   0  0.6628798E-05  0.2208723E+04  0.7818609E-02  0.8514806E-01
        2   -1    0    0  501    0  0.00000000000E+00  0.00000000000E+00  0.96924567214E+03  0.96924567214E+03  0.25500000920E-02 0. -1.
       -2   -1    0    0    0  501  0.00000000000E+00  0.00000000000E+00 -0.12583128663E+04  0.12583128663E+04  0.25500000920E-02 0.  1.
    10030    2    1    2    0    0  0.00000000000E+00  0.00000000000E+00 -0.28906719420E+03  0.22275585385E+04  0.22087229794E+04 0.  0.
        4    1    3    3  502    0 -0.87767292112E+03  0.64180428943E+02  0.52837728838E+03  0.10264565532E+04  0.12699999809E+01 0. -1.
       -4    1    3    3    0  502  0.87767292112E+03 -0.64180428943E+02 -0.81744448258E+03  0.12011019852E+04  0.12699999809E+01 0.  1.
</event>
<event>
 5   0  0.6293013E-05  0.2139587E+04  0.7818609E-02  0.8544003E-01
       -2   -1    0    0    0  501  0.00000000000E+00  0.00000000000E+00  0.10945880191E+04  0.10945880192E+04  0.25500000920E-02 0.  1.
        2   -1    0    0  501    0  0.00000000000E+00  0.00000000000E+00 -0.10455609610E+04  0.10455609610E+04  0.25500000920E-02 0. -1.
    10030    2    1    2    0    0  0.00000000000E+00  0.00000000000E+00  0.49027058128E+02  0.21401489802E+04  0.21395873445E+04 0.  0.
        1    1    3    3  502    0  0.10584140824E+02  0.21757092904E+03 -0.10231435557E+04  0.10460745044E+04  0.50400001928E-02 0. -1.
       -1    1    3    3    0  502 -0.10584140824E+02 -0.21757092904E+03  0.10721706139E+04  0.10940744757E+04  0.50400001928E-02 0.  1.
</event>
<event>
 5   0  0.6293013E-05  0.2200128E+04  0.7818609E-02  0.8518375E-01
       -2   -1    0    0    0  501  0.00000000000E+00  0.00000000000E+00  0.11236655334E+04  0.11236655334E+04  0.25500000920E-02 0. -1.
        2   -1    0    0  501    0  0.00000000000E+00  0.00000000000E+00 -0.10769577372E+04  0.10769577372E+04  0.25500000920E-02 0.  1.
    10030    2    1    2    0    0  0.00000000000E+00  0.00000000000E+00  0.46707796126E+02  0.22006232706E+04  0.22001275329E+04 0.  0.
        1    1    3    3  502    0 -0.63218814317E+03  0.82120786908E+03  0.39234904091E+03  0.11081434846E+04  0.50400001928E-02 0. -1.
       -1    1    3    3    0  502  0.63218814317E+03 -0.82120786908E+03 -0.34564124479E+03  0.10924797860E+04  0.50400001928E-02 0.  1.
</event>
<event>
 5   0  0.2753631E-05  0.2195891E+04  0.7818609E-02  0.8520140E-01
       -1   -1    0    0    0  501  0.00000000000E+00  0.00000000000E+00  0.71357296784E+03  0.71357296786E+03  0.50400001928E-02 0. -1.
        1   -1    0    0  501    0  0.00000000000E+00  0.00000000000E+00 -0.16893641669E+04  0.16893641669E+04  0.50400001928E-02 0.  1.
    10030    2    1    2    0    0  0.00000000000E+00  0.00000000000E+00 -0.97579119904E+03  0.24029371347E+04  0.21958912563E+04 0.  0.
        4    1    3    3  502    0 -0.13419700421E+03  0.32394777108E+03 -0.16264451867E+04  0.16638138576E+04  0.12699999809E+01 0.  1.
       -4    1    3    3    0  502  0.13419700421E+03 -0.32394777108E+03  0.65065398767E+03  0.73912327720E+03  0.12699999809E+01 0. -1.
</event>
<event>
 5   0  0.6628798E-05  0.2258955E+04  0.7818609E-02  0.8494283E-01
        2   -1    0    0  501    0  0.00000000000E+00  0.00000000000E+00  0.18154112581E+04  0.18154112581E+04  0.25500000920E-02 0.  1.
       -2   -1    0    0    0  501  0.00000000000E+00  0.00000000000E+00 -0.70271624514E+03  0.70271624514E+03  0.25500000920E-02 0. -1.
    10030    2    1    2    0    0  0.00000000000E+00  0.00000000000E+00  0.11126950129E+04  0.25181275032E+04  0.22589546101E+04 0.  0.
        4    1    3    3  502    0  0.86363541251E+03  0.31435888017E+03  0.12882004591E+04  0.15824505259E+04  0.12699999809E+01 0. -1.
       -4    1    3    3    0  502 -0.86363541251E+03 -0.31435888017E+03 -0.17550544617E+03  0.93567697728E+03  0.12699999809E+01 0.  1.
</event>
<event>
 5   0  0.6628798E-05  0.2244643E+04  0.7818609E-02  0.8500073E-01
        2   -1    0    0  501    0  0.00000000000E+00  0.00000000000E+00  0.30765013317E+04  0.30765013317E+04  0.25500000920E-02 0. -1.
       -2   -1    0    0    0  501  0.00000000000E+00  0.00000000000E+00 -0.40942782018E+03  0.40942782019E+03  0.25500000920E-02 0.  1.
    10030    2    1    2    0    0  0.00000000000E+00  0.00000000000E+00  0.26670735115E+04  0.34859291519E+04  0.22446427190E+04 0.  0.
        4    1    3    3  502    0  0.76090688627E+03 -0.74894446251E+03  0.79622017595E+03  0.13318653382E+04  0.12699999809E+01 0. -1.
       -4    1    3    3    0  502 -0.76090688627E+03  0.74894446251E+03  0.18708533355E+04  0.21540638137E+04  0.12699999809E+01 0.  1.
</event>
<event>
 5   0  0.2929471E-05  0.2178403E+04  0.7818609E-02  0.8527471E-01
       -1   -1    0    0    0  501  0.00000000000E+00  0.00000000000E+00  0.62396621429E+03  0.62396621431E+03  0.50400001928E-02 0. -1.
        1   -1    0    0  501    0  0.00000000000E+00  0.00000000000E+00 -0.19013214821E+04  0.19013214821E+04  0.50400001928E-02 0.  1.
    10030    2    1    2    0    0  0.00000000000E+00  0.00000000000E+00 -0.12773552678E+04  0.25252876964E+04  0.21784034221E+04 0.  0.
        2    1    3    3  502    0  0.49151135259E+03 -0.35135001858E+03  0.41190792693E+03  0.73123073345E+03  0.25500000920E-02 0. -1.
       -2    1    3    3    0  502 -0.49151135259E+03  0.35135001858E+03 -0.16892631948E+04  0.17940569630E+04  0.25500000920E-02 0.  1.
</event>
<event>
 5   0  0.6293013E-05  0.2204205E+04  0.7818609E-02  0.8516680E-01
        2   -1    0    0  501    0  0.00000000000E+00  0.00000000000E+00  0.26331280488E+04  0.26331280488E+04  0.25500000920E-02 0.  1.
       -2   -1    0    0    0  501  0.00000000000E+00  0.00000000000E+00 -0.46128803563E+03  0.46128803564E+03  0.25500000920E-02 0. -1.
    10030    2    1    2    0    0  0.00000000000E+00  0.00000000000E+00  0.21718400132E+04  0.30944160845E+04  0.22042054943E+04 0.  0.
        1    1    3    3  502    0 -0.38452521936E+02 -0.77978380578E+03 -0.61143166372E+01  0.78075525300E+03  0.50400001928E-02 0. -1.
       -1    1    3    3    0  502  0.38452521936E+02  0.77978380578E+03  0.21779543298E+04  0.23136608315E+04  0.50400001928E-02 0.  1.
</event>
<event>
 5   0  0.2910318E-05  0.2136561E+04  0.7818609E-02  0.8545307E-01
       -1   -1    0    0    0  501  0.00000000000E+00  0.00000000000E+00  0.27176690314E+04  0.27176690314E+04  0.50400001928E-02 0. -1.
        1   -1    0    0  501    0  0.00000000000E+00  0.00000000000E+00 -0.41992734449E+03  0.41992734452E+03  0.50400001928E-02 0.  1.
    10030    2    1    2    0    0  0.00000000000E+00  0.00000000000E+00  0.22977416869E+04  0.31375963759E+04  0.21365612929E+04 0.  0.
        5    1    3    3  502    0  0.78166523920E+03  0.55087046786E+03  0.18481463385E+04  0.20808954316E+04  0.46999998093E+01 0.  1.
       -5    1    3    3    0  502 -0.78166523920E+03 -0.55087046786E+03  0.44959534840E+03  0.10567009444E+04  0.46999998093E+01 0. -1.
</event>
<event>
 5   0  0.2910318E-05  0.2174044E+04  0.7818609E-02  0.8529310E-01
       -1   -1    0    0    0  501  0.00000000000E+00  0.00000000000E+00  0.94965377329E+03  0.94965377330E+03  0.50400001928E-02 0.  1.
        1   -1    0    0  501    0  0.00000000000E+00  0.00000000000E+00 -0.12442605221E+04  0.12442605221E+04  0.50400001928E-02 0. -1.
    10030    2    1    2    0    0  0.00000000000E+00  0.00000000000E+00 -0.29460674884E+03  0.21939142954E+04  0.21740438816E+04 0.  0.
        5    1    3    3  502    0 -0.93351711099E+03  0.31323212422E+03 -0.61197479603E+03  0.11593549073E+04  0.46999998093E+01 0.  1.
       -5    1    3    3    0  502  0.93351711099E+03 -0.31323212422E+03  0.31736804719E+03  0.10345593881E+04  0.46999998093E+01 0. -1.
</event>
<event>
 5   0  0.2910318E-05  0.2195951E+04  0.7818609E-02  0.8520115E-01
        1   -1    0    0  501    0  0.00000000000E+00  0.00000000000E+00  0.88089473636E+03  0.88089473637E+03  0.50400001928E-02 0.  1.
       -1   -1    0    0    0  501  0.00000000000E+00  0.00000000000E+00 -0.13685522837E+04  0.13685522837E+04  0.50400001928E-02 0. -1.
    10030    2    1    2    0    0  0.00000000000E+00  0.00000000000E+00 -0.48765754737E+03  0.22494470201E+04  0.21959512774E+04 0.  0.
        5    1    3    3  502    0  0.37770044034E+03  0.65379786229E+03  0.57272204235E+03  0.94770348483E+03  0.46999998093E+01 0. -1.
       -5    1    3    3    0  502 -0.37770044034E+03 -0.65379786229E+03 -0.10603795897E+04  0.13017435353E+04  0.46999998093E+01 0.  1.
</event>
<event>
 5   0  0.2929471E-05  0.2204882E+04  0.7818609E-02  0.8516399E-01
        1   -1    0    0  501    0  0.00000000000E+00  0.00000000000E+00  0.22483088316E+04  0.22483088316E+04  0.50400001928E-02 0. -1.
       -1   -1    0    0    0  501  0.00000000000E+00  0.00000000000E+00 -0.54057359363E+03  0.54057359365E+03  0.50400001928E-02 0.  1.
    10030    2    1    2    0    0  0.00000000000E+00  0.00000000000E+00  0.17077352380E+04  0.27888824253E+04  0.22048822052E+04 0.  0.
        2    1    3    3  502    0  0.30551811631E+03  0.70116536988E+03  0.18581449725E+04  0.20093971569E+04  0.25500000920E-02 0. -1.
       -2    1    3    3    0  502 -0.30551811631E+03 -0.70116536988E+03 -0.15040973455E+03  0.77948526834E+03  0.25500000920E-02 0.  1.
</event>
<event>
 5   0  0.6306919E-05  0.2208303E+04  0.7818609E-02  0.8514980E-01
        2   -1    0    0  501    0  0.00000000000E+00  0.00000000000E+00  0.13747534412E+04  0.13747534412E+04  0.25500000920E-02 0. -1.
       -2   -1    0    0    0  501  0.00000000000E+00  0.00000000000E+00 -0.88681372091E+03  0.88681372091E+03  0.25500000920E-02 0.  1.
    10030    2    1    2    0    0  0.00000000000E+00  0.00000000000E+00  0.48793972031E+03  0.22615671621E+04  0.22083027098E+04 0.  0.
        3    1    3    3  502    0  0.32523574574E+03  0.40207799411E+03 -0.75511437346E+03  0.91522823976E+03  0.10100000352E+00 0.  1.
       -3    1    3    3    0  502 -0.32523574574E+03 -0.40207799411E+03  0.12430540938E+04  0.13463389224E+04  0.10100000352E+00 0. -1.
</event>
<event>
 5   0  0.6445740E-05  0.2188618E+04  0.7818609E-02  0.8523181E-01
        2   -1    0    0  501    0  0.00000000000E+00  0.00000000000E+00  0.17883680778E+04  0.17883680778E+04  0.25500000920E-02 0. -1.
       -2   -1    0    0    0  501  0.00000000000E+00  0.00000000000E+00 -0.66961160711E+03  0.66961160712E+03  0.25500000920E-02 0.  1.
    10030    2    1    2    0    0  0.00000000000E+00  0.00000000000E+00  0.11187564707E+04  0.24579796849E+04  0.21886178494E+04 0.  0.
        5    1    3    3  502    0  0.32586415380E+03  0.96418648137E+03  0.10109139041E+04  0.14345075912E+04  0.46999998093E+01 0. -1.
       -5    1    3    3    0  502 -0.32586415380E+03 -0.96418648137E+03  0.10784256663E+03  0.10234720938E+04  0.46999998093E+01 0.  1.
</event>
<event>
 5   0  0.6414768E-05  0.2205105E+04  0.7818609E-02  0.8516306E-01
        2   -1    0    0  501    0  0.00000000000E+00  0.00000000000E+00  0.16781181661E+04  0.16781181661E+04  0.25500000920E-02 0.  1.
       -2   -1    0    0    0  501  0.00000000000E+00  0.00000000000E+00 -0.72439594943E+03  0.72439594943E+03  0.25500000920E-02 0. -1.
    10030    2    1    2    0    0  0.00000000000E+00  0.00000000000E+00  0.95372221663E+03  0.24025141155E+04  0.22051049881E+04 0.  0.
        2    1    3    3  502    0  0.10281521110E+04 -0.39473921236E+03  0.53353931084E+03  0.12237565139E+04  0.25500000920E-02 0.  1.
       -2    1    3    3    0  502 -0.10281521110E+04  0.39473921236E+03  0.42018290578E+03  0.11787576016E+04  0.25500000920E-02 0. -1.
</event>
<event>
 5   0  0.2753631E-05  0.2139292E+04  0.7818609E-02  0.8544130E-01
        1   -1    0    0  501    0  0.00000000000E+00  0.00000000000E+00  0.15425194305E+04  0.15425194305E+04  0.50400001928E-02 0.  1.
       -1   -1    0    0    0  501  0.00000000000E+00  0.00000000000E+00 -0.74173599779E+03  0.74173599781E+03  0.50400001928E-02 0. -1.
    10030    2    1    2    0    0  0.00000000000E+00  0.00000000000E+00  0.80078343267E+03  0.22842554283E+04  0.21392916481E+04 0.  0.
        4    1    3    3  502    0  0.67665379521E+03 -0.55054179496E+03  0.10613565058E+04  0.13738398276E+04  0.12699999809E+01 0. -1.
       -4    1    3    3    0  502 -0.67665379521E+03  0.55054179496E+03 -0.26057307315E+03  0.91041560066E+03  0.12699999809E+01 0.  1.
</event>
<event>
 5   0  0.6293013E-05  0.2157646E+04  0.7818609E-02  0.8536266E-01
        2   -1    0    0  501    0  0.00000000000E+00  0.00000000000E+00  0.72091085051E+03  0.72091085052E+03  0.25500000920E-02 0. -1.
       -2   -1    0    0    0  501  0.00000000000E+00  0.00000000000E+00 -0.16144286068E+04  0.16144286068E+04  0.25500000920E-02 0.  1.
    10030    2    1    2    0    0  0.00000000000E+00  0.00000000000E+00 -0.89351775630E+03  0.23353394573E+04  0.21576460322E+04 0.  0.
        1    1    3    3  502    0 -0.50901337790E+03 -0.41628055374E+02 -0.14752991213E+04  0.15611966600E+04  0.50400001928E-02 0.  1.
       -1    1    3    3    0  502  0.50901337790E+03  0.41628055374E+02  0.58178136503E+03  0.77414279729E+03  0.50400001928E-02 0. -1.
</event>
<event>
 5   0  0.2245375E-05  0.2111638E+04  0.7818609E-02  0.8556134E-01
       -3   -1    0    0    0  501  0.00000000000E+00  0.00000000000E+00  0.15866761158E+04  0.15866761190E+04  0.10100000352E+00 0.  1.
        3   -1    0    0  501    0  0.00000000000E+00  0.00000000000E+00 -0.70257162682E+03  0.70257163408E+03  0.10100000352E+00 0. -1.
    10030    2    1    2    0    0  0.00000000000E+00  0.00000000000E+00  0.88410448897E+03  0.22892477531E+04  0.21116378780E+04 0.  0.
        5    1    3    3  502    0 -0.82781666749E+03 -0.21876259427E+03 -0.22763826007E+03  0.88599027933E+03  0.46999998093E+01 0. -1.
       -5    1    3    3    0  502  0.82781666749E+03  0.21876259427E+03  0.11117427490E+04  0.14032574738E+04  0.46999998093E+01 0.  1.
</event>
<event>
 5   0  0.2929471E-05  0.2207908E+04  0.7818609E-02  0.8515144E-01
       -1   -1    0    0    0  501  0.00000000000E+00  0.00000000000E+00  0.12937775568E+04  0.12937775568E+04  0.50400001928E-02 0. -1.
        1   -1    0    0  501    0  0.00000000000E+00  0.00000000000E+00 -0.94198149460E+03  0.94198149461E+03  0.50400001928E-02 0.  1.
    10030    2    1    2    0    0  0.00000000000E+00  0.00000000000E+00  0.35179606216E+03  0.22357590514E+04  0.22079080747E+04 0.  0.
        2    1    3    3  502    0  0.10750603177E+04 -0.24989664634E+03  0.19879959795E+03  0.11214830808E+04  0.25500000920E-02 0. -1.
       -2    1    3    3    0  502 -0.10750603177E+04  0.24989664634E+03  0.15299646421E+03  0.11142759705E+04  0.25500000920E-02 0.  1.
</event>
<event>
 5   0  0.2908031E-05  0.2197896E+04  0.7818609E-02  0.8519304E-01
        1   -1    0    0  501    0  0.00000000000E+00  0.00000000000E+00  0.11545036534E+04  0.11545036534E+04  0.50400001928E-02 0.  1.
       -1   -1    0    0    0  501  0.00000000000E+00  0.00000000000E+00 -0.10460661280E+04  0.10460661280E+04  0.50400001928E-02 0. -1.
    10030    2    1    2    0    0  0.00000000000E+00  0.00000000000E+00  0.10843752538E+03  0.22005697815E+04  0.21978964184E+04 0.  0.
        1    1    3    3  502    0  0.81735513091E+03  0.48294884246E+03 -0.49996887525E+03  0.10729761743E+04  0.50400001928E-02 0. -1.
       -1    1    3    3    0  502 -0.81735513091E+03 -0.48294884246E+03  0.60840640063E+03  0.11275936071E+04  0.50400001928E-02 0.  1.
</event>
<event>
 5   0  0.2820239E-05  0.2199273E+04  0.7818609E-02  0.8518731E-01
        1   -1    0    0  501    0  0.00000000000E+00  0.00000000000E+00  0.13240078616E+04  0.13240078616E+04  0.50400001928E-02 0. -1.
       -1   -1    0    0    0  501  0.00000000000E+00  0.00000000000E+00 -0.91328760667E+03  0.91328760668E+03  0.50400001928E-02 0.  1.
    10030    2    1    2    0    0  0.00000000000E+00  0.00000000000E+00  0.41072025495E+03  0.22372954683E+04  0.21992725808E+04 0.  0.
        3    1    3    3  502    0  0.77481704849E+03  0.25732083632E+03 -0.54401967180E+03  0.98107741027E+03  0.10100000352E+00 0.  1.
       -3    1    3    3    0  502 -0.77481704849E+03 -0.25732083632E+03  0.95473992675E+03  0.12562180580E+04  0.10100000352E+00 0. -1.
</event>
<event>
 5   0  0.2929471E-05  0.2146170E+04  0.7818609E-02  0.8541173E-01
       -1   -1    0    0    0  501  0.00000000000E+00  0.00000000000E+00  0.10648170353E+04  0.10648170353E+04  0.50400001928E-02 0. -1.
        1   -1    0    0  501    0  0.00000000000E+00  0.00000000000E+00 -0.10814174305E+04  0.10814174306E+04  0.50400001928E-02 0.  1.
    10030    2    1    2    0    0  0.00000000000E+00  0.00000000000E+00 -0.16600395287E+02  0.21462344658E+04  0.21461702657E+04 0.  0.
        2    1    3    3  502    0 -0.86655273324E+03  0.38492098666E+03  0.49414283354E+03  0.10692310066E+04  0.25500000920E-02 0. -1.
       -2    1    3    3    0  502  0.86655273324E+03 -0.38492098666E+03 -0.51074322883E+03  0.10770034593E+04  0.25500000920E-02 0.  1.
</event>
<event>
 5   0  0.2820239E-05  0.2202949E+04  0.7818609E-02  0.8517202E-01
       -1   -1    0    0    0  501  0.00000000000E+00  0.00000000000E+00  0.12624133744E+04  0.12624133744E+04  0.50400001928E-02 0. -1.
        1   -1    0    0  501    0  0.00000000000E+00  0.00000000000E+00 -0.96105283911E+03  0.96105283913E+03  0.50400001928E-02 0.  1.
    10030    2    1    2    0    0  0.00000000000E+00  0.00000000000E+00  0.30136053525E+03  0.22234662135E+04  0.22029488942E+04 0.  0.
        3    1    3    3  502    0 -0.88096209420E+02 -0.25702814657E+03 -0.92669828174E+03  0.96570913106E+03  0.10100000352E+00 0.  1.
       -3    1    3    3    0  502  0.88096209420E+02  0.25702814657E+03  0.12280588170E+04  0.12577570824E+04  0.10100000352E+00 0. -1.
</event>
<event>
 5   0  0.2753631E-05  0.2189490E+04  0.7818609E-02  0.8522816E-01
       -1   -1    0    0    0  501  0.00000000000E+00  0.00000000000E+00  0.11932235761E+04  0.11932235761E+04  0.50400001928E-02 0. -1.
        1   -1    0    0  501    0  0.00000000000E+00  0.00000000000E+00 -0.10043936945E+04  0.10043936946E+04  0.50400001928E-02 0.  1.
    10030    2    1    2    0    0  0.00000000000E+00  0.00000000000E+00  0.18882988158E+03  0.21976172707E+04  0.21894896538E+04 0.  0.
        4    1    3    3  502    0  0.70161712307E+03 -0.72508733451E+03  0.52078162775E+03  0.11354441187E+04  0.12699999809E+01 0. -1.
       -4    1    3    3    0  502 -0.70161712307E+03  0.72508733451E+03 -0.33195174618E+03  0.10621731520E+04  0.12699999809E+01 0.  1.
</event>
<event>
 5   0  0.2929471E-05  0.2228292E+04  0.7818609E-02  0.8506744E-01
        1   -1    0    0  501    0  0.00000000000E+00  0.00000000000E+00  0.22882518226E+04  0.22882518226E+04  0.50400001928E-02 0. -1.
       -1   -1    0    0    0  501  0.00000000000E+00  0.00000000000E+00 -0.54247584394E+03  0.54247584397E+03  0.50400001928E-02 0.  1.
    10030    2    1    2    0    0  0.00000000000E+00  0.00000000000E+00  0.17457759787E+04  0.28307276666E+04  0.22282920264E+04 0.  0.
        2    1    3    3  502    0 -0.21546739528E+03  0.88926991181E+03  0.65341984997E+02  0.91733131936E+03  0.25500000920E-02 0.  1.
       -2    1    3    3    0  502  0.21546739528E+03 -0.88926991181E+03  0.16804339937E+04  0.19133963472E+04  0.25500000920E-02 0. -1.
</event>
<event>
 5   0  0.6414768E-05  0.2220831E+04  0.7818609E-02  0.8509808E-01
        2   -1    0    0  501    0  0.00000000000E+00  0.00000000000E+00  0.10807283195E+04  0.10807283195E+04  0.25500000920E-02 0.  1.
       -2   -1    0    0    0  501  0.00000000000E+00  0.00000000000E+00 -0.11409179783E+04  0.11409179783E+04  0.25500000920E-02 0. -1.
    10030    2    1    2    0    0  0.00000000000E+00  0.00000000000E+00 -0.60189658744E+02  0.22216462978E+04  0.22208308080E+04 0.  0.
        2    1    3    3  502    0  0.26973987950E+03  0.11866745510E+03  0.10408966330E+04  0.10818074542E+04  0.25500000920E-02 0.  1.
       -2    1    3    3    0  502 -0.26973987950E+03 -0.11866745510E+03 -0.11010862917E+04  0.11398388436E+04  0.25500000920E-02 0. -1.
</event>
<event>
 5   0  0.2929471E-05  0.2199396E+04  0.7818609E-02  0.8518679E-01
        1   -1    0    0  501    0  0.00000000000E+00  0.00000000000E+00  0.87153021084E+03  0.87153021086E+03  0.50400001928E-02 0.  1.
       -1   -1    0    0    0  501  0.00000000000E+00  0.00000000000E+00 -0.13876006615E+04  0.13876006616E+04  0.50400001928E-02 0. -1.
    10030    2    1    2    0    0  0.00000000000E+00  0.00000000000E+00 -0.51607045071E+03  0.22591308724E+04  0.21993961873E+04 0.  0.
        2    1    3    3  502    0 -0.10340407950E+04 -0.28346347844E+03 -0.69708885948E+01  0.10722128999E+04  0.25500000920E-02 0.  1.
       -2    1    3    3    0  502  0.10340407950E+04  0.28346347844E+03 -0.50909956211E+03  0.11869179725E+04  0.25500000920E-02 0. -1.
</event>
<event>
 5   0  0.2910318E-05  0.2227136E+04  0.7818609E-02  0.8507218E-01
        1   -1    0    0  501    0  0.00000000000E+00  0.00000000000E+00  0.12610444411E+04  0.12610444411E+04  0.50400001928E-02 0. -1.
       -1   -1    0    0    0  501  0.00000000000E+00  0.00000000000E+00 -0.98333872941E+03  0.98333872942E+03  0.50400001928E-02 0.  1.
    10030    2    1    2    0    0  0.00000000000E+00  0.00000000000E+00  0.27770571167E+03  0.22443831705E+04  0.22271361327E+04 0.  0.
        5    1    3    3  502    0 -0.44927441341E+03 -0.34086691358E+03 -0.82877770408E+03  0.10024631285E+04  0.46999998093E+01 0.  1.
       -5    1    3    3    0  502  0.44927441341E+03  0.34086691358E+03  0.11064834158E+04  0.12419200420E+04  0.46999998093E+01 0. -1.
</event>
<event>
 5   0  0.2245375E-05  0.2264250E+04  0.7818609E-02  0.8492152E-01
        3   -1    0    0  501    0  0.00000000000E+00  0.00000000000E+00  0.10256341782E+04  0.10256341832E+04  0.10100000352E+00 0.  1.
       -3   -1    0    0    0  501  0.00000000000E+00  0.00000000000E+00 -0.12496729471E+04  0.12496729512E+04  0.10100000352E+00 0. -1.
    10030    2    1    2    0    0  0.00000000000E+00  0.00000000000E+00 -0.22403876887E+03  0.22753071344E+04  0.22642502480E+04 0.  0.
        1    1    3    3  502    0  0.36051358561E+03  0.28043638933E+03 -0.11529798151E+04  0.12401520342E+04  0.50400001928E-02 0. -1.
       -1    1    3    3    0  502 -0.36051358561E+03 -0.28043638933E+03  0.92894104626E+03  0.10351551001E+04  0.50400001928E-02 0.  1.
</event>
<event>
 5   0  0.6306919E-05  0.2195050E+04  0.7818609E-02  0.8520491E-01
        2   -1    0    0  501    0  0.00000000000E+00  0.00000000000E+00  0.13935682480E+04  0.13935682480E+04  0.25500000920E-02 0.  1.
       -2   -1    0    0    0  501  0.00000000000E+00  0.00000000000E+00 -0.86437206357E+03  0.86437206357E+03  0.25500000920E-02 0. -1.
    10030    2    1    2    0    0  0.00000000000E+00  0.00000000000E+00  0.52919618446E+03  0.22579403116E+04  0.21950503067E+04 0.  0.
        3    1    3    3  502    0 -0.41854832671E+03  0.62813742718E+03 -0.55498691608E+03  0.93688303242E+03  0.10100000352E+00 0. -1.
       -3    1    3    3    0  502  0.41854832671E+03 -0.62813742718E+03  0.10841831005E+04  0.13210572792E+04  0.10100000352E+00 0.  1.
</event>
<event>
 5   0  0.6306919E-05  0.2131041E+04  0.7818609E-02  0.8547691E-01
        2   -1    0    0  501    0  0.00000000000E+00  0.00000000000E+00  0.80472593965E+03  0.80472593966E+03  0.25500000920E-02 0. -1.
       -2   -1    0    0    0  501  0.00000000000E+00  0.00000000000E+00 -0.14108335403E+04  0.14108335403E+04  0.25500000920E-02 0.  1.
    10030    2    1    2    0    0  0.00000000000E+00  0.00000000000E+00 -0.60610760064E+03  0.22155594799E+04  0.21310413852E+04 0.  0.
        3    1    3    3  502    0 -0.34982715018E+03  0.70259598699E+03  0.44616147033E+03  0.90281793499E+03  0.10100000352E+00 0. -1.
       -3    1    3    3    0  502  0.34982715018E+03 -0.70259598699E+03 -0.10522690710E+04  0.13127415450E+04  0.10100000352E+00 0.  1.
</event>
<event>
 5   0  0.6628798E-05  0.2199915E+04  0.7818609E-02  0.8518464E-01
       -2   -1    0    0    0  501  0.00000000000E+00  0.00000000000E+00  0.11488640735E+04  0.11488640735E+04  0.25500000920E-02 0.  1.
        2   -1    0    0  501    0  0.00000000000E+00  0.00000000000E+00 -0.10531324559E+04  0.10531324559E+04  0.25500000920E-02 0. -1.
    10030    2    1    2    0    0  0.00000000000E+00  0.00000000000E+00  0.95731617550E+02  0.22019965294E+04  0.21999145831E+04 0.  0.
        4    1    3    3  502    0 -0.45986547607E+03  0.56398303020E+03 -0.77774890860E+03  0.10651047330E+04  0.12699999809E+01 0. -1.
       -4    1    3    3    0  502  0.45986547607E+03 -0.56398303020E+03  0.87348052615E+03  0.11368917965E+04  0.12699999809E+01 0.  1.
</event>
<event>
 5   0  0.6306919E-05  0.2211816E+04  0.7818609E-02  0.8513526E-01
        2   -1    0    0  501    0  0.00000000000E+00  0.00000000000E+00  0.13381373380E+04  0.13381373380E+04  0.25500000920E-02 0. -1.
       -2   -1    0    0    0  501  0.00000000000E+00  0.00000000000E+00 -0.91398114802E+03  0.91398114802E+03  0.25500000920E-02 0.  1.
    10030    2    1    2    0    0  0.00000000000E+00  0.00000000000E+00  0.42415618995E+03  0.22521184860E+04  0.22118158155E+04 0.  0.
        3    1    3    3  502    0 -0.61920865257E+03 -0.69432264549E+03  0.82091071441E+03  0.12407246684E+04  0.10100000352E+00 0. -1.
       -3    1    3    3    0  502  0.61920865257E+03  0.69432264549E+03 -0.39675452446E+03  0.10113938176E+04  0.10100000352E+00 0.  1.
</event>
<event>
 5   0  0.6293013E-05  0.2167901E+04  0.7818609E-02  0.8531908E-01
        2   -1    0    0  501    0  0.00000000000E+00  0.00000000000E+00  0.17301000039E+04  0.17301000039E+04  0.25500000920E-02 0.  1.
       -2   -1    0    0    0  501  0.00000000000E+00  0.00000000000E+00 -0.67912197254E+03  0.67912197254E+03  0.25500000920E-02 0. -1.
    10030    2    1    2    0    0  0.00000000000E+00  0.00000000000E+00  0.10509780314E+04  0.24092219765E+04  0.21679012222E+04 0.  0.
        1    1    3    3  502    0  0.27521205966E+03  0.66247438132E+03  0.14285549620E+04  0.15985566187E+04  0.50400001928E-02 0.  1.
       -1    1    3    3    0  502 -0.27521205966E+03 -0.66247438132E+03 -0.37757693063E+03  0.81066535775E+03  0.50400001928E-02 0. -1.
</event>
<event>
 5   0  0.6306919E-05  0.2428206E+04  0.7818609E-02  0.8429019E-01
       -2   -1    0    0    0  501  0.00000000000E+00  0.00000000000E+00  0.92390099699E+03  0.92390099700E+03  0.25500000920E-02 0. -1.
        2   -1    0    0  501    0  0.00000000000E+00  0.00000000000E+00 -0.15954583999E+04  0.15954583999E+04  0.25500000920E-02 0.  1.
    10030    2    1    2    0    0  0.00000000000E+00  0.00000000000E+00 -0.67155740288E+03  0.25193593969E+04  0.24282055978E+04 0.  0.
        3    1    3    3  502    0 -0.66075277951E+03  0.39241909063E+03 -0.13109878697E+04  0.15196302784E+04  0.10100000352E+00 0.  1.
       -3    1    3    3    0  502  0.66075277951E+03 -0.39241909063E+03  0.63943046679E+03  0.99972911850E+03  0.10100000352E+00 0. -1.
</event>
<event>
 5   0  0.6445740E-05  0.2189951E+04  0.7818609E-02  0.8522622E-01
        2   -1    0    0  501    0  0.00000000000E+00  0.00000000000E+00  0.10863762901E+04  0.10863762901E+04  0.25500000920E-02 0.  1.
       -2   -1    0    0    0  501  0.00000000000E+00  0.00000000000E+00 -0.11036426603E+04  0.11036426603E+04  0.25500000920E-02 0. -1.
    10030    2    1    2    0    0  0.00000000000E+00  0.00000000000E+00 -0.17266370212E+02  0.21900189504E+04  0.21899508843E+04 0.  0.
        5    1    3    3  502    0  0.10043085833E+04  0.41444455602E+03  0.12756615971E+03  0.10939356634E+04  0.46999998093E+01 0. -1.
       -5    1    3    3    0  502 -0.10043085833E+04 -0.41444455602E+03 -0.14483252992E+03  0.10960832871E+04  0.46999998093E+01 0.  1.
</event>
<event>
 5   0  0.2820239E-05  0.2203183E+04  0.7818609E-02  0.8517105E-01
       -1   -1    0    0    0  501  0.00000000000E+00  0.00000000000E+00  0.82031158920E+03  0.82031158921E+03  0.50400001928E-02 0. -1.
        1   -1    0    0  501    0  0.00000000000E+00  0.00000000000E+00 -0.14793202620E+04  0.14793202620E+04  0.50400001928E-02 0.  1.
    10030    2    1    2    0    0  0.00000000000E+00  0.00000000000E+00 -0.65900867284E+03  0.22996318513E+04  0.22031827479E+04 0.  0.
        3    1    3    3  502    0 -0.10068188053E+04  0.97287131587E+02 -0.78490068151E+03  0.12803194846E+04  0.10100000352E+00 0.  1.
       -3    1    3    3    0  502  0.10068188053E+04 -0.97287131587E+02  0.12589200867E+03  0.10193123666E+04  0.10100000352E+00 0. -1.
</event>
<event>
 5   0  0.2908031E-05  0.2206826E+04  0.7818609E-02  0.8515592E-01
       -1   -1    0    0    0  501  0.00000000000E+00  0.00000000000E+00  0.15799658635E+04  0.15799658635E+04  0.50400001928E-02 0. -1.
        1   -1    0    0  501    0  0.00000000000E+00  0.00000000000E+00 -0.77059923938E+03  0.77059923940E+03  0.50400001928E-02 0.  1.
    10030    2    1    2    0    0  0.00000000000E+00  0.00000000000E+00  0.80936662412E+03  0.23505651029E+04  0.22068262212E+04 0.  0.
        1    1    3    3  502    0 -0.42010399578E+02 -0.51533156809E+03  0.14429505410E+04  0.15327875791E+04  0.50400001928E-02 0. -1.
       -1    1    3    3    0  502  0.42010399578E+02  0.51533156809E+03 -0.63358391688E+03  0.81777752384E+03  0.50400001928E-02 0.  1.
</event>
<event>
 5   0  0.2820239E-05  0.2193415E+04  0.7818609E-02  0.8521174E-01
       -1   -1    0    0    0  501  0.00000000000E+00  0.00000000000E+00  0.10991786223E+04  0.10991786223E+04  0.50400001928E-02 0.  1.
        1   -1    0    0  501    0  0.00000000000E+00  0.00000000000E+00 -0.10942424085E+04  0.10942424085E+04  0.50400001928E-02 0. -1.
    10030    2    1    2    0    0  0.00000000000E+00  0.00000000000E+00  0.49362138081E+01  0.21934210308E+04  0.21934154764E+04 0.  0.
        3    1    3    3  502    0 -0.54109408024E+03 -0.27174163148E+03  0.91687817334E+03  0.10987683618E+04  0.10100000352E+00 0.  1.
       -3    1    3    3    0  502  0.54109408024E+03  0.27174163148E+03 -0.91194195954E+03  0.10946526690E+04  0.10100000352E+00 0. -1.
</event>
<event>
 5   0  0.2908031E-05  0.2204803E+04  0.7818609E-02  0.8516432E-01
        1   -1    0    0  501    0  0.00000000000E+00  0.00000000000E+00  0.13692321875E+04  0.13692321875E+04  0.50400001928E-02 0. -1.
       -1   -1    0    0    0  501  0.00000000000E+00  0.00000000000E+00 -0.88756964099E+03  0.88756964101E+03  0.50400001928E-02 0.  1.
    10030    2    1    2    0    0  0.00000000000E+00  0.00000000000E+00  0.48166254652E+03  0.22568018285E+04  0.22048028675E+04 0.  0.
        1    1    3    3  502    0  0.98128051218E+03  0.45823638148E+03  0.45159248749E+03  0.11733830575E+04  0.50400001928E-02 0. -1.
       -1    1    3    3    0  502 -0.98128051218E+03 -0.45823638148E+03  0.30070059030E+02  0.10834187710E+04  0.50400001928E-02 0.  1.
</event>
<event>
 5   0  0.2753631E-05  0.2207597E+04  0.7818609E-02  0.8515273E-01
        1   -1    0    0  501    0  0.00000000000E+00  0.00000000000E+00  0.18034192580E+04  0.18034192580E+04  0.50400001928E-02 0. -1.
       -1   -1    0    0    0  501  0.00000000000E+00  0.00000000000E+00 -0.67558963317E+03  0.67558963319E+03  0.50400001928E-02 0.  1.
    10030    2    1    2    0    0  0.00000000000E+00  0.00000000000E+00  0.11278296249E+04  0.24790088912E+04  0.22075972051E+04 0.  0.
        4    1    3    3  502    0 -0.50842866339E+03 -0.51953787787E+03 -0.36883934538E+03  0.81514623713E+03  0.12699999809E+01 0.  1.
       -4    1    3    3    0  502  0.50842866339E+03  0.51953787787E+03  0.14966689702E+04  0.16638626541E+04  0.12699999809E+01 0. -1.
</event>
<event>
 5   0  0.6628798E-05  0.2188887E+04  0.7818609E-02  0.8523068E-01
        2   -1    0    0  501    0  0.00000000000E+00  0.00000000000E+00  0.11571419285E+04  0.11571419285E+04  0.25500000920E-02 0. -1.
       -2   -1    0    0    0  501  0.00000000000E+00  0.00000000000E+00 -0.10351421975E+04  0.10351421975E+04  0.25500000920E-02 0.  1.
    10030    2    1    2    0    0  0.00000000000E+00  0.00000000000E+00  0.12199973103E+03  0.21922841260E+04  0.21888868758E+04 0.  0.
        4    1    3    3  502    0 -0.28080836461E+03 -0.37147261863E+03  0.10529711005E+04  0.11513448638E+04  0.12699999809E+01 0. -1.
       -4    1    3    3    0  502  0.28080836461E+03  0.37147261863E+03 -0.93097136945E+03  0.10409392622E+04  0.12699999809E+01 0.  1.
</event>
<event>
 5   0  0.6445740E-05  0.2189344E+04  0.7818609E-02  0.8522877E-01
        2   -1    0    0  501    0  0.00000000000E+00  0.00000000000E+00  0.11820900374E+04  0.11820900374E+04  0.25500000920E-02 0.  1.
       -2   -1    0    0    0  501  0.00000000000E+00  0.00000000000E+00 -0.10137185857E+04  0.10137185857E+04  0.25500000920E-02 0. -1.
    10030    2    1    2    0    0  0.00000000000E+00  0.00000000000E+00  0.16837145172E+03  0.21958086231E+04  0.21893438659E+04 0.  0.
        5    1    3    3  502    0  0.19486570741E+03 -0.27393287913E+03  0.11290260944E+04  0.11780211704E+04  0.46999998093E+01 0.  1.
       -5    1    3    3    0  502 -0.19486570741E+03  0.27393287913E+03 -0.96065464268E+03  0.10177874526E+04  0.46999998093E+01 0. -1.
</event>
<event>
 5   0  0.2908031E-05  0.2176299E+04  0.7818609E-02  0.8528358E-01
       -1   -1    0    0    0  501  0.00000000000E+00  0.00000000000E+00  0.79039351268E+03  0.79039351270E+03  0.50400001928E-02 0.  1.
        1   -1    0    0  501    0  0.00000000000E+00  0.00000000000E+00 -0.14980756250E+04  0.14980756251E+04  0.50400001928E-02 0. -1.
    10030    2    1    2    0    0  0.00000000000E+00  0.00000000000E+00 -0.70768211236E+03  0.22884691377E+04  0.21762989276E+04 0.  0.
        1    1    3    3  502    0 -0.95117635630E+03 -0.52269125950E+03 -0.27153386841E+03  0.11187820410E+04  0.50400001928E-02 0.  1.
       -1    1    3    3    0  502  0.95117635630E+03  0.52269125950E+03 -0.43614824395E+03  0.11696870967E+04  0.50400001928E-02 0. -1.
</event>
<event>
 5   0  0.6306919E-05  0.2198755E+04  0.7818609E-02  0.8518947E-01
       -2   -1    0    0    0  501  0.00000000000E+00  0.00000000000E+00  0.72565579292E+03  0.72565579292E+03  0.25500000920E-02 0. -1.
        2   -1    0    0  501    0  0.00000000000E+00  0.00000000000E+00 -0.16655699775E+04  0.16655699775E+04  0.25500000920E-02 0.  1.
    10030    2    1    2    0    0  0.00000000000E+00  0.00000000000E+00 -0.93991418457E+03  0.23912257704E+04  0.21987546500E+04 0.  0.
        3    1    3    3  502    0  0.17807096395E+03  0.10555864990E+04 -0.19772874330E+03  0.10886086492E+04  0.10100000352E+00 0. -1.
       -3    1    3    3    0  502 -0.17807096395E+03 -0.10555864990E+04 -0.74218544128E+03  0.13026171212E+04  0.10100000352E+00 0.  1.
</event>
<event>
 5   0  0.6293013E-05  0.2215612E+04  0.7818609E-02  0.8511958E-01
       -2   -1    0    0    0  501  0.00000000000E+00  0.00000000000E+00  0.90915113182E+03  0.90915113183E+03  0.25500000920E-02 0.  1.
        2   -1    0    0  501    0  0.00000000000E+00  0.00000000000E+00 -0.13498678380E+04  0.13498678380E+04  0.25500000920E-02 0. -1.
    10030    2    1    2    0    0  0.00000000000E+00  0.00000000000E+00 -0.44071670616E+03  0.22590189698E+04  0.22156117645E+04 0.  0.
        1    1    3    3  502    0  0.27138242087E+03 -0.19477279559E+03 -0.12972946337E+04  0.13396112223E+04  0.50400001928E-02 0. -1.
       -1    1    3    3    0  502 -0.27138242087E+03  0.19477279559E+03  0.85657792753E+03  0.91940774753E+03  0.50400001928E-02 0.  1.
</event>
<event>
 5   0  0.6414768E-05  0.2186851E+04  0.7818609E-02  0.8523921E-01
        2   -1    0    0  501    0  0.00000000000E+00  0.00000000000E+00  0.25638661950E+04  0.25638661950E+04  0.25500000920E-02 0. -1.
       -2   -1    0    0    0  501  0.00000000000E+00  0.00000000000E+00 -0.46631894075E+03  0.46631894076E+03  0.25500000920E-02 0.  1.
    10030    2    1    2    0    0  0.00000000000E+00  0.00000000000E+00  0.20975472542E+04  0.30301851357E+04  0.21868510404E+04 0.  0.
        2    1    3    3  502    0 -0.10371823351E+04 -0.21357085958E+03  0.14262670959E+04  0.17764001624E+04  0.25500000920E-02 0. -1.
       -2    1    3    3    0  502  0.10371823351E+04  0.21357085958E+03  0.67128015832E+03  0.12537849733E+04  0.25500000920E-02 0.  1.
</event>
<event>
 5   0  0.2929471E-05  0.2239270E+04  0.7818609E-02  0.8502259E-01
        1   -1    0    0  501    0  0.00000000000E+00  0.00000000000E+00  0.10571955801E+04  0.10571955801E+04  0.50400001928E-02 0. -1.
       -1   -1    0    0    0  501  0.00000000000E+00  0.00000000000E+00 -0.11857623739E+04  0.11857623739E+04  0.50400001928E-02 0.  1.
    10030    2    1    2    0    0  0.00000000000E+00  0.00000000000E+00 -0.12856679383E+03  0.22429579540E+04  0.22392701854E+04 0.  0.
        2    1    3    3  502    0  0.10343727418E+04  0.29281084950E+03 -0.37771657524E+03  0.11394450288E+04  0.25500000920E-02 0.  1.
       -2    1    3    3    0  502 -0.10343727418E+04 -0.29281084950E+03  0.24914978141E+03  0.11035129252E+04  0.25500000920E-02 0. -1.
</event>
<event>
 5   0  0.2753631E-05  0.2177187E+04  0.7818609E-02  0.8527984E-01
        1   -1    0    0  501    0  0.00000000000E+00  0.00000000000E+00  0.12891414051E+04  0.12891414051E+04  0.50400001928E-02 0. -1.
       -1   -1    0    0    0  501  0.00000000000E+00  0.00000000000E+00 -0.91924392635E+03  0.91924392636E+03  0.50400001928E-02 0.  1.
    10030    2    1    2    0    0  0.00000000000E+00  0.00000000000E+00  0.36989747877E+03  0.22083853315E+04  0.21771866313E+04 0.  0.
        4    1    3    3  502    0 -0.47191238297E+03 -0.97796016540E+03  0.10686239297E+03  0.10911134525E+04  0.12699999809E+01 0. -1.
       -4    1    3    3    0  502  0.47191238297E+03  0.97796016540E+03  0.26303508579E+03  0.11172718790E+04  0.12699999809E+01 0.  1.
</event>
<event>
 5   0  0.6445740E-05  0.2218234E+04  0.7818609E-02  0.8510877E-01
       -2   -1    0    0    0  501  0.00000000000E+00  0.00000000000E+00  0.77131667206E+03  0.77131667206E+03  0.25500000920E-02 0. -1.
        2   -1    0    0  501    0  0.00000000000E+00  0.00000000000E+00 -0.15948585746E+04  0.15948585746E+04  0.25500000920E-02 0.  1.
    10030    2    1    2    0    0  0.00000000000E+00  0.00000000000E+00 -0.82354190256E+03  0.23661752467E+04  0.22182344404E+04 0.  0.
        5    1    3    3  502    0 -0.13149655568E+03 -0.10016688905E+04 -0.89999369796E+03  0.13530124378E+04  0.46999998093E+01 0.  1.
       -5    1    3    3    0  502  0.13149655568E+03  0.10016688905E+04  0.76451795406E+02  0.10131628089E+04  0.46999998093E+01 0. -1.
</event>
<event>
 5   0  0.2245375E-05  0.2125669E+04  0.7818609E-02  0.8550020E-01
       -4   -1    0    0    0  501  0.00000000000E+00  0.00000000000E+00  0.10262872170E+04  0.10262880028E+04  0.12699999809E+01 0. -1.
        4   -1    0    0  501    0  0.00000000000E+00  0.00000000000E+00 -0.11006814601E+04  0.11006821928E+04  0.12699999809E+01 0.  1.
    10030    2    1    2    0    0  0.00000000000E+00  0.00000000000E+00 -0.74394243060E+02  0.21269701956E+04  0.21256687676E+04 0.  0.
        5    1    3    3  502    0 -0.84631826751E+03 -0.14994236507E+03 -0.66276587193E+03  0.10853653826E+04  0.46999998093E+01 0.  1.
       -5    1    3    3    0  502  0.84631826751E+03  0.14994236507E+03  0.58837162887E+03  0.10416048130E+04  0.46999998093E+01 0. -1.
</event>
<event>
 5   0  0.2910318E-05  0.2178814E+04  0.7818609E-02  0.8527298E-01
        1   -1    0    0  501    0  0.00000000000E+00  0.00000000000E+00  0.65954669652E+03  0.65954669654E+03  0.50400001928E-02 0.  1.
       -1   -1    0    0    0  501  0.00000000000E+00  0.00000000000E+00 -0.17994287700E+04  0.17994287700E+04  0.50400001928E-02 0. -1.
    10030    2    1    2    0    0  0.00000000000E+00  0.00000000000E+00 -0.11398820735E+04  0.24589754665E+04  0.21788137147E+04 0.  0.
        5    1    3    3  502    0 -0.75321367454E+03  0.11793077155E+03  0.30828825462E+03  0.82237597504E+03  0.46999998093E+01 0.  1.
       -5    1    3    3    0  502  0.75321367454E+03 -0.11793077155E+03 -0.14481703281E+04  0.16365994915E+04  0.46999998093E+01 0. -1.
</event>
<event>
 5   0  0.2753631E-05  0.2208156E+04  0.7818609E-02  0.8515041E-01
       -1   -1    0    0    0  501  0.00000000000E+00  0.00000000000E+00  0.77147699406E+03  0.77147699408E+03  0.50400001928E-02 0. -1.
        1   -1    0    0  501    0  0.00000000000E+00  0.00000000000E+00 -0.15800707898E+04  0.15800707898E+04  0.50400001928E-02 0.  1.
    10030    2    1    2    0    0  0.00000000000E+00  0.00000000000E+00 -0.80859379577E+03  0.23515477839E+04  0.22081560302E+04 0.  0.
        4    1    3    3  502    0 -0.84859393029E+03 -0.78817623788E+02 -0.11517757747E+04  0.14327989826E+04  0.12699999809E+01 0.  1.
       -4    1    3    3    0  502  0.84859393029E+03  0.78817623788E+02  0.34318197897E+03  0.91874880133E+03  0.12699999809E+01 0. -1.
</event>
<event>
 5   0  0.2820239E-05  0.2058826E+04  0.7818609E-02  0.8579601E-01
       -1   -1    0    0    0  501  0.00000000000E+00  0.00000000000E+00  0.76180638197E+03  0.76180638198E+03  0.50400001928E-02 0.  1.
        1   -1    0    0  501    0  0.00000000000E+00  0.00000000000E+00 -0.13910241358E+04  0.13910241358E+04  0.50400001928E-02 0. -1.
    10030    2    1    2    0    0  0.00000000000E+00  0.00000000000E+00 -0.62921775380E+03  0.21528305178E+04  0.20588259413E+04 0.  0.
        3    1    3    3  502    0  0.30099881197E+03  0.41881852587E+03 -0.12461744350E+04  0.13486882424E+04  0.10100000352E+00 0. -1.
       -3    1    3    3    0  502 -0.30099881197E+03 -0.41881852587E+03  0.61695668120E+03  0.80414227541E+03  0.10100000352E+00 0.  1.
</event>
<event>
 5   0  0.2910318E-05  0.2181961E+04  0.7818609E-02  0.8525974E-01
       -1   -1    0    0    0  501  0.00000000000E+00  0.00000000000E+00  0.73527677936E+03  0.73527677938E+03  0.50400001928E-02 0.  1.
        1   -1    0    0  501    0  0.00000000000E+00  0.00000000000E+00 -0.16187624926E+04  0.16187624926E+04  0.50400001928E-02 0. -1.
    10030    2    1    2    0    0  0.00000000000E+00  0.00000000000E+00 -0.88348571323E+03  0.23540392720E+04  0.21819610190E+04 0.  0.
        5    1    3    3  502    0 -0.99887481141E+03  0.35745070164E+03 -0.16733258723E+03  0.10740317396E+04  0.46999998093E+01 0. -1.
       -5    1    3    3    0  502  0.99887481141E+03 -0.35745070164E+03 -0.71615312600E+03  0.12800075323E+04  0.46999998093E+01 0.  1.
</event>
<event>
 5   0  0.2908031E-05  0.2204185E+04  0.7818609E-02  0.8516688E-01
       -1   -1    0    0    0  501  0.00000000000E+00  0.00000000000E+00  0.91402560607E+03  0.91402560609E+03  0.50400001928E-02 0. -1.
        1   -1    0    0  501    0  0.00000000000E+00  0.00000000000E+00 -0.13288554277E+04  0.13288554277E+04  0.50400001928E-02 0.  1.
    10030    2    1    2    0    0  0.00000000000E+00  0.00000000000E+00 -0.41482982162E+03  0.22428810338E+04  0.22041850083E+04 0.  0.
        1    1    3    3  502    0  0.15047389878E+03 -0.63141625522E+03  0.69888340876E+03  0.95381701633E+03  0.50400001928E-02 0. -1.
       -1    1    3    3    0  502 -0.15047389878E+03  0.63141625522E+03 -0.11137132304E+04  0.12890640175E+04  0.50400001928E-02 0.  1.
</event>
<event>
 5   0  0.2245375E-05  0.2187561E+04  0.7818609E-02  0.8523623E-01
       -3   -1    0    0    0  501  0.00000000000E+00  0.00000000000E+00  0.10600361213E+04  0.10600361261E+04  0.10100000352E+00 0. -1.
        3   -1    0    0  501    0  0.00000000000E+00  0.00000000000E+00 -0.11285994036E+04  0.11285994081E+04  0.10100000352E+00 0.  1.
    10030    2    1    2    0    0  0.00000000000E+00  0.00000000000E+00 -0.68563282267E+02  0.21886355342E+04  0.21875613312E+04 0.  0.
        3    1    3    3  502    0 -0.71460448173E+03 -0.61393638328E+03 -0.59023308912E+03  0.11117340319E+04  0.10100000352E+00 0.  1.
       -3    1    3    3    0  502  0.71460448173E+03  0.61393638328E+03  0.52166980686E+03  0.10769015023E+04  0.10100000352E+00 0. -1.
</event>
<event>
 5   0  0.6293013E-05  0.2174622E+04  0.7818609E-02  0.8529066E-01
        2   -1    0    0  501    0  0.00000000000E+00  0.00000000000E+00  0.95838354416E+03  0.95838354416E+03  0.25500000920E-02 0. -1.
       -2   -1    0    0    0  501  0.00000000000E+00  0.00000000000E+00 -0.12335820400E+04  0.12335820400E+04  0.25500000920E-02 0.  1.
    10030    2    1    2    0    0  0.00000000000E+00  0.00000000000E+00 -0.27519849587E+03  0.21919655842E+04  0.21746215556E+04 0.  0.
        1    1    3    3  502    0 -0.73630702300E+03 -0.31688692912E+03 -0.87808712137E+03  0.11889501044E+04  0.50400001928E-02 0.  1.
       -1    1    3    3    0  502  0.73630702300E+03  0.31688692912E+03  0.60288862550E+03  0.10030154798E+04  0.50400001928E-02 0. -1.
</event>
<event>
 5   0  0.2908031E-05  0.2199042E+04  0.7818609E-02  0.8518827E-01
       -1   -1    0    0    0  501  0.00000000000E+00  0.00000000000E+00  0.47283339017E+03  0.47283339020E+03  0.50400001928E-02 0.  1.
        1   -1    0    0  501    0  0.00000000000E+00  0.00000000000E+00 -0.25568125093E+04  0.25568125093E+04  0.50400001928E-02 0. -1.
    10030    2    1    2    0    0  0.00000000000E+00  0.00000000000E+00 -0.20839791192E+04  0.30296458995E+04  0.21990419067E+04 0.  0.
        1    1    3    3  502    0 -0.15005519654E+03 -0.54949885904E+03  0.25370478545E+03  0.62356369063E+03  0.50400001928E-02 0.  1.
       -1    1    3    3    0  502  0.15005519654E+03  0.54949885904E+03 -0.23376839046E+04  0.24060822089E+04  0.50400001928E-02 0. -1.
</event>
<event>
 5   0  0.6628798E-05  0.2213714E+04  0.7818609E-02  0.8512742E-01
        2   -1    0    0  501    0  0.00000000000E+00  0.00000000000E+00  0.19918306184E+04  0.19918306184E+04  0.25500000920E-02 0.  1.
       -2   -1    0    0    0  501  0.00000000000E+00  0.00000000000E+00 -0.61507867379E+03  0.61507867380E+03  0.25500000920E-02 0. -1.
    10030    2    1    2    0    0  0.00000000000E+00  0.00000000000E+00  0.13767519446E+04  0.26069092922E+04  0.22137141054E+04 0.  0.
        4    1    3    3  502    0  0.63734095666E+03  0.15999010993E+03 -0.36051775587E+03  0.74951650783E+03  0.12699999809E+01 0. -1.
       -4    1    3    3    0  502 -0.63734095666E+03 -0.15999010993E+03  0.17372697004E+04  0.18573927843E+04  0.12699999809E+01 0.  1.
</event>
<event>
 5   0  0.6445740E-05  0.1923967E+04  0.7818609E-02  0.8643017E-01
       -2   -1    0    0    0  501  0.00000000000E+00  0.00000000000E+00  0.74453397771E+03  0.74453397772E+03  0.25500000920E-02 0.  1.
        2   -1    0    0  501    0  0.00000000000E+00  0.00000000000E+00 -0.12429419015E+04  0.12429419015E+04  0.25500000920E-02 0. -1.
    10030    2    1    2    0    0  0.00000000000E+00  0.00000000000E+00 -0.49840792378E+03  0.19874758792E+04  0.19239672326E+04 0.  0.
        5    1    3    3  502    0  0.54574090349E+03  0.29087250598E+02 -0.10669866613E+04  0.11988168447E+04  0.46999998093E+01 0. -1.
       -5    1    3    3    0  502 -0.54574090349E+03 -0.29087250598E+02  0.56857873751E+03  0.78865903446E+03  0.46999998093E+01 0.  1.
</event>
<event>
 5   0  0.2929471E-05  0.2171820E+04  0.7818609E-02  0.8530250E-01
       -1   -1    0    0    0  501  0.00000000000E+00  0.00000000000E+00  0.55697192265E+03  0.55697192267E+03  0.50400001928E-02 0. -1.
        1   -1    0    0  501    0  0.00000000000E+00  0.00000000000E+00 -0.21171637231E+04  0.21171637232E+04  0.50400001928E-02 0.  1.
    10030    2    1    2    0    0  0.00000000000E+00  0.00000000000E+00 -0.15601918005E+04  0.26741356458E+04  0.21718202039E+04 0.  0.
        2    1    3    3  502    0 -0.77086243652E+03 -0.33621391679E+02  0.16072515569E+03  0.78815726203E+03  0.25500000920E-02 0. -1.
       -2    1    3    3    0  502  0.77086243652E+03  0.33621391679E+02 -0.17209169562E+04  0.18859783838E+04  0.25500000920E-02 0.  1.
</event>
<event>
 5   0  0.2908031E-05  0.2143417E+04  0.7818609E-02  0.8542355E-01
        1   -1    0    0  501    0  0.00000000000E+00  0.00000000000E+00  0.57369485035E+03  0.57369485037E+03  0.50400001928E-02 0. -1.
       -1   -1    0    0    0  501  0.00000000000E+00  0.00000000000E+00 -0.20020385913E+04  0.20020385913E+04  0.50400001928E-02 0.  1.
    10030    2    1    2    0    0  0.00000000000E+00  0.00000000000E+00 -0.14283437409E+04  0.25757334417E+04  0.21434171130E+04 0.  0.
        1    1    3    3  502    0  0.45382496032E+03 -0.66681079149E+02 -0.18781148351E+04  0.19333180791E+04  0.50400001928E-02 0.  1.
       -1    1    3    3    0  502 -0.45382496032E+03  0.66681079149E+02  0.44977109417E+03  0.64241536260E+03  0.50400001928E-02 0. -1.
</event>
<event>
 5   0  0.6414768E-05  0.2186916E+04  0.7818609E-02  0.8523894E-01
       -2   -1    0    0    0  501  0.00000000000E+00  0.00000000000E+00  0.96983950206E+03  0.96983950206E+03  0.25500000920E-02 0.  1.
        2   -1    0    0  501    0  0.00000000000E+00  0.00000000000E+00 -0.12328329412E+04  0.12328329412E+04  0.25500000920E-02 0. -1.
    10030    2    1    2    0    0  0.00000000000E+00  0.00000000000E+00 -0.26299343917E+03  0.22026724433E+04  0.21869157147E+04 0.  0.
        2    1    3    3  502    0 -0.91222671920E+03  0.37744801513E+03  0.34202407818E+03  0.10447990531E+04  0.25500000920E-02 0.  1.
       -2    1    3    3    0  502  0.91222671920E+03 -0.37744801513E+03 -0.60501751735E+03  0.11578733902E+04  0.25500000920E-02 0. -1.
</event>
<event>
 5   0  0.2820239E-05  0.2156736E+04  0.7818609E-02  0.8536654E-01
       -1   -1    0    0    0  501  0.00000000000E+00  0.00000000000E+00  0.74581447285E+03  0.74581447287E+03  0.50400001928E-02 0. -1.
        1   -1    0    0  501    0  0.00000000000E+00  0.00000000000E+00 -0.15592051311E+04  0.15592051311E+04  0.50400001928E-02 0.  1.
    10030    2    1    2    0    0  0.00000000000E+00  0.00000000000E+00 -0.81339065820E+03  0.23050196039E+04  0.21567361943E+04 0.  0.
        3    1    3    3  502    0  0.68974038327E+03 -0.81583525218E+03 -0.24980758511E+03  0.10971475720E+04  0.10100000352E+00 0.  1.
       -3    1    3    3    0  502 -0.68974038327E+03  0.81583525218E+03 -0.56358307309E+03  0.12078720319E+04  0.10100000352E+00 0. -1.
</event>
<event>
 5   0  0.2820239E-05  0.2222923E+04  0.7818609E-02  0.8508947E-01
        1   -1    0    0  501    0  0.00000000000E+00  0.00000000000E+00  0.85133925992E+03  0.85133925994E+03  0.50400001928E-02 0.  1.
       -1   -1    0    0    0  501  0.00000000000E+00  0.00000000000E+00 -0.14510621092E+04  0.14510621092E+04  0.50400001928E-02 0. -1.
    10030    2    1    2    0    0  0.00000000000E+00  0.00000000000E+00 -0.59972284932E+03  0.23024013692E+04  0.22229225288E+04 0.  0.
        3    1    3    3  502    0  0.29886226007E+03 -0.10358836612E+04 -0.57965412852E+03  0.12240802788E+04  0.10100000352E+00 0. -1.
       -3    1    3    3    0  502 -0.29886226007E+03  0.10358836612E+04 -0.20068720794E+02  0.10783210903E+04  0.10100000352E+00 0.  1.
</event>
<event>
 5   0  0.6414768E-05  0.2215037E+04  0.7818609E-02  0.8512195E-01
        2   -1    0    0  501    0  0.00000000000E+00  0.00000000000E+00  0.13783659006E+04  0.13783659006E+04  0.25500000920E-02 0.  1.
       -2   -1    0    0    0  501  0.00000000000E+00  0.00000000000E+00 -0.88989246791E+03  0.88989246791E+03  0.25500000920E-02 0. -1.
    10030    2    1    2    0    0  0.00000000000E+00  0.00000000000E+00  0.48847343273E+03  0.22682583686E+04  0.22150371853E+04 0.  0.
        2    1    3    3  502    0  0.37792857247E+03 -0.24703503860E+03 -0.79136880798E+03  0.91110971152E+03  0.25500000920E-02 0. -1.
       -2    1    3    3    0  502 -0.37792857247E+03  0.24703503860E+03  0.12798422407E+04  0.13571486570E+04  0.25500000920E-02 0.  1.
</event>
<event>
 5   0  0.2910318E-05  0.2193193E+04  0.7818609E-02  0.8521267E-01
        1   -1    0    0  501    0  0.00000000000E+00  0.00000000000E+00  0.19450138140E+04  0.19450138140E+04  0.50400001928E-02 0. -1.
       -1   -1    0    0    0  501  0.00000000000E+00  0.00000000000E+00 -0.61825967476E+03  0.61825967478E+03  0.50400001928E-02 0.  1.
    10030    2    1    2    0    0  0.00000000000E+00  0.00000000000E+00  0.13267541393E+04  0.25632734888E+04  0.21931927486E+04 0.  0.
        5    1    3    3  502    0 -0.80027892513E+03 -0.17203975331E+03 -0.18944928362E+03  0.84021256583E+03  0.46999998093E+01 0.  1.
       -5    1    3    3    0  502  0.80027892513E+03  0.17203975331E+03  0.15162034229E+04  0.17230609230E+04  0.46999998093E+01 0. -1.
</event>
<event>
 5   0  0.6306919E-05  0.2144484E+04  0.7818609E-02  0.8541897E-01
       -2   -1    0    0    0  501  0.00000000000E+00  0.00000000000E+00  0.70339472127E+03  0.70339472128E+03  0.25500000920E-02 0. -1.
        2   -1    0    0  501    0  0.00000000000E+00  0.00000000000E+00 -0.16345054659E+04  0.16345054659E+04  0.25500000920E-02 0.  1.
    10030    2    1    2    0    0  0.00000000000E+00  0.00000000000E+00 -0.93111074462E+03  0.23379001872E+04  0.21444836363E+04 0.  0.
        3    1    3    3  502    0  0.31084720348E+03 -0.24825910014E+03  0.61996333112E+03  0.73662277106E+03  0.10100000352E+00 0. -1.
       -3    1    3    3    0  502 -0.31084720348E+03  0.24825910014E+03 -0.15510740757E+04  0.16012774161E+04  0.10100000352E+00 0.  1.
</event>
<event>
 5   0  0.6306919E-05  0.2200821E+04  0.7818609E-02  0.8518086E-01
        2   -1    0    0  501    0  0.00000000000E+00  0.00000000000E+00  0.27730180252E+04  0.27730180252E+04  0.25500000920E-02 0. -1.
       -2   -1    0    0    0  501  0.00000000000E+00  0.00000000000E+00 -0.43667350465E+03  0.43667350466E+03  0.25500000920E-02 0.  1.
    10030    2    1    2    0    0  0.00000000000E+00  0.00000000000E+00  0.23363445205E+04  0.32096915298E+04  0.22008212099E+04 0.  0.
        3    1    3    3  502    0  0.35131285518E+03  0.81628802368E+03  0.21146280974E+04  0.22937739341E+04  0.10100000352E+00 0.  1.
       -3    1    3    3    0  502 -0.35131285518E+03 -0.81628802368E+03  0.22171642308E+03  0.91591759579E+03  0.10100000352E+00 0. -1.
</event>
<event>
 5   0  0.6414768E-05  0.2208267E+04  0.7818609E-02  0.8514995E-01
       -2   -1    0    0    0  501  0.00000000000E+00  0.00000000000E+00  0.24895101371E+04  0.24895101371E+04  0.25500000920E-02 0. -1.
        2   -1    0    0  501    0  0.00000000000E+00  0.00000000000E+00 -0.48969891861E+03  0.48969891862E+03  0.25500000920E-02 0.  1.
    10030    2    1    2    0    0  0.00000000000E+00  0.00000000000E+00  0.19998112185E+04  0.29792090557E+04  0.22082666705E+04 0.  0.
        2    1    3    3  502    0 -0.57687910923E+03  0.85254978149E+03  0.46113700130E+03  0.11279530002E+04  0.25500000920E-02 0.  1.
       -2    1    3    3    0  502  0.57687910923E+03 -0.85254978149E+03  0.15386742172E+04  0.18512560555E+04  0.25500000920E-02 0. -1.
</event>
<event>
 5   0  0.2753631E-05  0.2194995E+04  0.7818609E-02  0.8520514E-01
        1   -1    0    0  501    0  0.00000000000E+00  0.00000000000E+00  0.10590249048E+04  0.10590249048E+04  0.50400001928E-02 0. -1.
       -1   -1    0    0    0  501  0.00000000000E+00  0.00000000000E+00 -0.11373675369E+04  0.11373675369E+04  0.50400001928E-02 0.  1.
    10030    2    1    2    0    0  0.00000000000E+00  0.00000000000E+00 -0.78342632102E+02  0.21963924417E+04  0.21949948041E+04 0.  0.
        4    1    3    3  502    0  0.86150762912E+03  0.13676408049E+03 -0.70562778046E+03  0.11219679078E+04  0.12699999809E+01 0.  1.
       -4    1    3    3    0  502 -0.86150762912E+03 -0.13676408049E+03  0.62728514835E+03  0.10744245339E+04  0.12699999809E+01 0. -1.
</event>
<event>
 5   0  0.6293013E-05  0.2089846E+04  0.7818609E-02  0.8565730E-01
       -2   -1    0    0    0  501  0.00000000000E+00  0.00000000000E+00  0.76994062635E+03  0.76994062636E+03  0.25500000920E-02 0. -1.
        2   -1    0    0  501    0  0.00000000000E+00  0.00000000000E+00 -0.14181146571E+04  0.14181146571E+04  0.25500000920E-02 0.  1.
    10030    2    1    2    0    0  0.00000000000E+00  0.00000000000E+00 -0.64817403072E+03  0.21880552834E+04  0.20898460109E+04 0.  0.
        1    1    3    3  502    0 -0.30783649448E+03 -0.15525439083E+03  0.70867372976E+03  0.78808989873E+03  0.50400001928E-02 0. -1.
       -1    1    3    3    0  502  0.30783649448E+03  0.15525439083E+03 -0.13568477605E+04  0.13999653847E+04  0.50400001928E-02 0.  1.
</event>
<event>
 5   0  0.6414768E-05  0.2052018E+04  0.7818609E-02  0.8582679E-01
        2   -1    0    0  501    0  0.00000000000E+00  0.00000000000E+00  0.17417663122E+04  0.17417663122E+04  0.25500000920E-02 0.  1.
       -2   -1    0    0    0  501  0.00000000000E+00  0.00000000000E+00 -0.60438333857E+03  0.60438333857E+03  0.25500000920E-02 0. -1.
    10030    2    1    2    0    0  0.00000000000E+00  0.00000000000E+00  0.11373829737E+04  0.23461496508E+04  0.20520180689E+04 0.  0.
        2    1    3    3  502    0 -0.34773548438E+03 -0.37738912229E+03  0.15844954263E+04  0.16655234230E+04  0.25500000920E-02 0.  1.
       -2    1    3    3    0  502  0.34773548438E+03  0.37738912229E+03 -0.44711245259E+03  0.68062622781E+03  0.25500000920E-02 0. -1.
</event>
<event>
 5   0  0.6293013E-05  0.2167475E+04  0.7818609E-02  0.8532089E-01
       -2   -1    0    0    0  501  0.00000000000E+00  0.00000000000E+00  0.54938456206E+03  0.54938456206E+03  0.25500000920E-02 0. -1.
        2   -1    0    0  501    0  0.00000000000E+00  0.00000000000E+00 -0.21378221862E+04  0.21378221862E+04  0.25500000920E-02 0.  1.
    10030    2    1    2    0    0  0.00000000000E+00  0.00000000000E+00 -0.15884376242E+04  0.26872067483E+04  0.21674745724E+04 0.  0.
        1    1    3    3  502    0 -0.76925425209E+03 -0.75046186232E+03 -0.62090832419E+03  0.12411576283E+04  0.50400001928E-02 0. -1.
       -1    1    3    3    0  502  0.76925425209E+03  0.75046186232E+03 -0.96752929997E+03  0.14460491200E+04  0.50400001928E-02 0.  1.
</event>
<event>
 5   0  0.6306919E-05  0.1817803E+04  0.7818609E-02  0.8696889E-01
       -2   -1    0    0    0  501  0.00000000000E+00  0.00000000000E+00  0.47203486634E+03  0.47203486635E+03  0.25500000920E-02 0.  1.
        2   -1    0    0  501    0  0.00000000000E+00  0.00000000000E+00 -0.17500861524E+04  0.17500861524E+04  0.25500000920E-02 0. -1.
    10030    2    1    2    0    0  0.00000000000E+00  0.00000000000E+00 -0.12780512861E+04  0.22221210188E+04  0.18178027209E+04 0.  0.
        3    1    3    3  502    0  0.45239868360E+03 -0.65940072158E+03 -0.11671170704E+04  0.14147919093E+04  0.10100000352E+00 0. -1.
       -3    1    3    3    0  502 -0.45239868360E+03  0.65940072158E+03 -0.11093421571E+03  0.80732910945E+03  0.10100000352E+00 0.  1.
</event>
<event>
 5   0  0.2929471E-05  0.2197859E+04  0.7818609E-02  0.8519320E-01
       -1   -1    0    0    0  501  0.00000000000E+00  0.00000000000E+00  0.72957103811E+03  0.72957103813E+03  0.50400001928E-02 0.  1.
        1   -1    0    0  501    0  0.00000000000E+00  0.00000000000E+00 -0.16552815915E+04  0.16552815915E+04  0.50400001928E-02 0. -1.
    10030    2    1    2    0    0  0.00000000000E+00  0.00000000000E+00 -0.92571055339E+03  0.23848526296E+04  0.21978585115E+04 0.  0.
        2    1    3    3  502    0 -0.55400876578E+02  0.22087149402E+03 -0.16294007289E+04  0.16452356091E+04  0.25500000920E-02 0. -1.
       -2    1    3    3    0  502  0.55400876578E+02 -0.22087149402E+03  0.70369017551E+03  0.73961702057E+03  0.25500000920E-02 0.  1.
</event>
<event>
 5   0  0.6293013E-05  0.2200471E+04  0.7818609E-02  0.8518232E-01
        2   -1    0    0  501    0  0.00000000000E+00  0.00000000000E+00  0.17829248172E+04  0.17829248172E+04  0.25500000920E-02 0.  1.
       -2   -1    0    0    0  501  0.00000000000E+00  0.00000000000E+00 -0.67895049403E+03  0.67895049403E+03  0.25500000920E-02 0. -1.
    10030    2    1    2    0    0  0.00000000000E+00  0.00000000000E+00  0.11039743232E+04  0.24618753112E+04  0.22004705728E+04 0.  0.
        1    1    3    3  502    0 -0.57461395667E+03 -0.59479185620E+03 -0.25985960133E+03  0.86688267017E+03  0.50400001928E-02 0. -1.
       -1    1    3    3    0  502  0.57461395667E+03  0.59479185620E+03  0.13638339245E+04  0.15949926411E+04  0.50400001928E-02 0.  1.
</event>
<event>
 5   0  0.6628798E-05  0.2221292E+04  0.7818609E-02  0.8509618E-01
        2   -1    0    0  501    0  0.00000000000E+00  0.00000000000E+00  0.26545952622E+04  0.26545952622E+04  0.25500000920E-02 0. -1.
       -2   -1    0    0    0  501  0.00000000000E+00  0.00000000000E+00 -0.46467879134E+03  0.46467879134E+03  0.25500000920E-02 0.  1.
    10030    2    1    2    0    0  0.00000000000E+00  0.00000000000E+00  0.21899164709E+04  0.31192740535E+04  0.22212916224E+04 0.  0.
        4    1    3    3  502    0 -0.67206166841E+03 -0.40917077768E+03 -0.57936137629E+01  0.78684356153E+03  0.12699999809E+01 0.  1.
       -4    1    3    3    0  502  0.67206166841E+03  0.40917077768E+03  0.21957100846E+04  0.23324304920E+04  0.12699999809E+01 0. -1.
</event>
<event>
 5   0  0.2908031E-05  0.2193422E+04  0.7818609E-02  0.8521171E-01
        1   -1    0    0  501    0  0.00000000000E+00  0.00000000000E+00  0.18641218928E+04  0.18641218928E+04  0.50400001928E-02 0.  1.
       -1   -1    0    0    0  501  0.00000000000E+00  0.00000000000E+00 -0.64522324334E+03  0.64522324336E+03  0.50400001928E-02 0. -1.
    10030    2    1    2    0    0  0.00000000000E+00  0.00000000000E+00  0.12188986494E+04  0.25093451361E+04  0.21934217776E+04 0.  0.
        1    1    3    3  502    0 -0.42943813217E+03 -0.41183779891E+02  0.17629728313E+04  0.18149893710E+04  0.50400001928E-02 0.  1.
       -1    1    3    3    0  502  0.42943813217E+03  0.41183779891E+02 -0.54407418188E+03  0.69435576508E+03  0.50400001928E-02 0. -1.
</event>
<event>
 5   0  0.2929471E-05  0.2214822E+04  0.7818609E-02  0.8512284E-01
        1   -1    0    0  501    0  0.00000000000E+00  0.00000000000E+00  0.11164069313E+04  0.11164069313E+04  0.50400001928E-02 0. -1.
       -1   -1    0    0    0  501  0.00000000000E+00  0.00000000000E+00 -0.10984875921E+04  0.10984875921E+04  0.50400001928E-02 0.  1.
    10030    2    1    2    0    0  0.00000000000E+00  0.00000000000E+00  0.17919339167E+02  0.22148945235E+04  0.22148220351E+04 0.  0.
        2    1    3    3  502    0  0.14900665891E+03  0.54473114447E+03  0.96157898302E+03  0.11151543143E+04  0.25500000920E-02 0. -1.
       -2    1    3    3    0  502 -0.14900665891E+03 -0.54473114447E+03 -0.94365964385E+03  0.10997402091E+04  0.25500000920E-02 0.  1.
</event>
<event>
 5   0  0.2910318E-05  0.2201905E+04  0.7818609E-02  0.8517636E-01
       -1   -1    0    0    0  501  0.00000000000E+00  0.00000000000E+00  0.97778048187E+03  0.97778048188E+03  0.50400001928E-02 0.  1.
        1   -1    0    0  501    0  0.00000000000E+00  0.00000000000E+00 -0.12396403004E+04  0.12396403004E+04  0.50400001928E-02 0. -1.
    10030    2    1    2    0    0  0.00000000000E+00  0.00000000000E+00 -0.26185981853E+03  0.22174207823E+04  0.22019047121E+04 0.  0.
        5    1    3    3  502    0 -0.13752240022E+03  0.62588397655E+03 -0.10324649622E+04  0.12151745351E+04  0.46999998093E+01 0. -1.
       -5    1    3    3    0  502  0.13752240022E+03 -0.62588397655E+03  0.77060514362E+03  0.10022462472E+04  0.46999998093E+01 0.  1.
</event>
<event>
 5   0  0.2245375E-05  0.2179474E+04  0.7818609E-02  0.8527021E-01
        3   -1    0    0  501    0  0.00000000000E+00  0.00000000000E+00  0.14325145980E+04  0.14325146015E+04  0.10100000352E+00 0. -1.
       -3   -1    0    0    0  501  0.00000000000E+00  0.00000000000E+00 -0.82898016801E+03  0.82898017416E+03  0.10100000352E+00 0.  1.
    10030    2    1    2    0    0  0.00000000000E+00  0.00000000000E+00  0.60353442996E+03  0.22614947757E+04  0.21794735172E+04 0.  0.
        1    1    3    3  502    0 -0.41043259098E+03 -0.11768238334E+02 -0.74564290050E+03  0.85122073416E+03  0.50400001928E-02 0.  1.
       -1    1    3    3    0  502  0.41043259098E+03  0.11768238334E+02  0.13491773305E+04  0.14102740415E+04  0.50400001928E-02 0. -1.
</event>
<event>
 5   0  0.2820239E-05  0.2207408E+04  0.7818609E-02  0.8515351E-01
       -1   -1    0    0    0  501  0.00000000000E+00  0.00000000000E+00  0.76832921632E+03  0.76832921633E+03  0.50400001928E-02 0.  1.
        1   -1    0    0  501    0  0.00000000000E+00  0.00000000000E+00 -0.15854695803E+04  0.15854695803E+04  0.50400001928E-02 0. -1.
    10030    2    1    2    0    0  0.00000000000E+00  0.00000000000E+00 -0.81714036395E+03  0.23537987966E+04  0.22074080729E+04 0.  0.
        3    1    3    3  502    0  0.23812688620E+03 -0.25986383964E+02  0.74027685315E+03  0.77806782198E+03  0.10100000352E+00 0.  1.
       -3    1    3    3    0  502 -0.23812688620E+03  0.25986383964E+02 -0.15574172171E+04  0.15757309746E+04  0.10100000352E+00 0. -1.
</event>
<event>
 5   0  0.6628798E-05  0.2182731E+04  0.7818609E-02  0.8525650E-01
       -2   -1    0    0    0  501  0.00000000000E+00  0.00000000000E+00  0.71041623259E+03  0.71041623260E+03  0.25500000920E-02 0.  1.
        2   -1    0    0  501    0  0.00000000000E+00  0.00000000000E+00 -0.16765928067E+04  0.16765928067E+04  0.25500000920E-02 0. -1.
    10030    2    1    2    0    0  0.00000000000E+00  0.00000000000E+00 -0.96617657407E+03  0.23870090393E+04  0.21827310831E+04 0.  0.
        4    1    3    3  502    0 -0.87413590072E+03 -0.11224375372E+03  0.22086738122E+03  0.90856823968E+03  0.12699999809E+01 0.  1.
       -4    1    3    3    0  502  0.87413590072E+03  0.11224375372E+03 -0.11870439553E+04  0.14784407996E+04  0.12699999809E+01 0. -1.
</event>
<event>
 5   0  0.2908031E-05  0.2210954E+04  0.7818609E-02  0.8513882E-01
       -1   -1    0    0    0  501  0.00000000000E+00  0.00000000000E+00  0.97255583937E+03  0.97255583938E+03  0.50400001928E-02 0. -1.
        1   -1    0    0  501    0  0.00000000000E+00  0.00000000000E+00 -0.12565652723E+04  0.12565652723E+04  0.50400001928E-02 0.  1.
    10030    2    1    2    0    0  0.00000000000E+00  0.00000000000E+00 -0.28400943289E+03  0.22291211117E+04  0.22109544483E+04 0.  0.
        1    1    3    3  502    0  0.33328406173E+03  0.52999826464E+03  0.77658162553E+03  0.99752466007E+03  0.50400001928E-02 0. -1.
       -1    1    3    3    0  502 -0.33328406173E+03 -0.52999826464E+03 -0.10605910584E+04  0.12315964516E+04  0.50400001928E-02 0.  1.
</event>
<event>
 5   0  0.6445740E-05  0.2197387E+04  0.7818609E-02  0.8519517E-01
       -2   -1    0    0    0  501  0.00000000000E+00  0.00000000000E+00  0.10124797531E+04  0.10124797531E+04  0.25500000920E-02 0.  1.
        2   -1    0    0  501    0  0.00000000000E+00  0.00000000000E+00 -0.11922479160E+04  0.11922479160E+04  0.25500000920E-02 0. -1.
    10030    2    1    2    0    0  0.00000000000E+00  0.00000000000E+00 -0.17976816292E+03  0.22047276691E+04  0.21973865164E+04 0.  0.
        5    1    3    3  502    0  0.99427434740E+03  0.45883424540E+03 -0.17959444193E+03  0.11096786004E+04  0.46999998093E+01 0. -1.
       -5    1    3    3    0  502 -0.99427434740E+03 -0.45883424540E+03 -0.17372098159E+00  0.10950490687E+04  0.46999998093E+01 0.  1.
</event>
<event>
 5   0  0.6445740E-05  0.2155046E+04  0.7818609E-02  0.8537376E-01
        2   -1    0    0  501    0  0.00000000000E+00  0.00000000000E+00  0.10857814766E+04  0.10857814766E+04  0.25500000920E-02 0. -1.
       -2   -1    0    0    0  501  0.00000000000E+00  0.00000000000E+00 -0.10693268442E+04  0.10693268442E+04  0.25500000920E-02 0.  1.
    10030    2    1    2    0    0  0.00000000000E+00  0.00000000000E+00  0.16454632408E+02  0.21551083208E+04  0.21550455029E+04 0.  0.
        5    1    3    3  502    0 -0.25631565435E+03 -0.47125928440E+03  0.94273310643E+03  0.10846892771E+04  0.46999998093E+01 0. -1.
       -5    1    3    3    0  502  0.25631565435E+03  0.47125928440E+03 -0.92627847402E+03  0.10704190438E+04  0.46999998093E+01 0.  1.
</event>
<event>
 5   0  0.6445740E-05  0.2184091E+04  0.7818609E-02  0.8525079E-01
        2   -1    0    0  501    0  0.00000000000E+00  0.00000000000E+00  0.10011341247E+04  0.10011341247E+04  0.25500000920E-02 0. -1.
       -2   -1    0    0    0  501  0.00000000000E+00  0.00000000000E+00 -0.11912118707E+04  0.11912118707E+04  0.25500000920E-02 0.  1.
    10030    2    1    2    0    0  0.00000000000E+00  0.00000000000E+00 -0.19007774600E+03  0.21923459953E+04  0.21840905232E+04 0.  0.
        5    1    3    3  502    0 -0.30708679789E+03  0.37303055986E+03 -0.10780702654E+04  0.11814024239E+04  0.46999998093E+01 0.  1.
       -5    1    3    3    0  502  0.30708679789E+03 -0.37303055986E+03  0.88799251943E+03  0.10109435714E+04  0.46999998093E+01 0. -1.
</event>
<event>
 5   0  0.6414768E-05  0.2203026E+04  0.7818609E-02  0.8517170E-01
       -2   -1    0    0    0  501  0.00000000000E+00  0.00000000000E+00  0.70567420818E+03  0.70567420819E+03  0.25500000920E-02 0.  1.
        2   -1    0    0  501    0  0.00000000000E+00  0.00000000000E+00 -0.17193923002E+04  0.17193923002E+04  0.25500000920E-02 0. -1.
    10030    2    1    2    0    0  0.00000000000E+00  0.00000000000E+00 -0.10137180920E+04  0.24250665083E+04  0.22030259190E+04 0.  0.
        2    1    3    3  502    0  0.12401067477E+02  0.14359114262E+03 -0.17089682182E+04  0.17150348607E+04  0.25500000920E-02 0. -1.
       -2    1    3    3    0  502 -0.12401067477E+02 -0.14359114262E+03  0.69525012618E+03  0.71003164766E+03  0.25500000920E-02 0.  1.
</event>
<event>
 5   0  0.2753631E-05  0.2195053E+04  0.7818609E-02  0.8520490E-01
       -1   -1    0    0    0  501  0.00000000000E+00  0.00000000000E+00  0.88309336868E+03  0.88309336870E+03  0.50400001928E-02 0. -1.
        1   -1    0    0  501    0  0.00000000000E+00  0.00000000000E+00 -0.13640281102E+04  0.13640281102E+04  0.50400001928E-02 0.  1.
    10030    2    1    2    0    0  0.00000000000E+00  0.00000000000E+00 -0.48093474151E+03  0.22471214789E+04  0.21950527819E+04 0.  0.
        4    1    3    3  502    0 -0.77295309216E+03 -0.10779349230E+03 -0.10304500999E+04  0.12926348831E+04  0.12699999809E+01 0.  1.
       -4    1    3    3    0  502  0.77295309216E+03  0.10779349230E+03  0.54951535836E+03  0.95448659584E+03  0.12699999809E+01 0. -1.
</event>
<event>
 5   0  0.6293013E-05  0.2224441E+04  0.7818609E-02  0.8508323E-01
        2   -1    0    0  501    0  0.00000000000E+00  0.00000000000E+00  0.21286578042E+04  0.21286578042E+04  0.25500000920E-02 0. -1.
       -2   -1    0    0    0  501  0.00000000000E+00  0.00000000000E+00 -0.58113375951E+03  0.58113375951E+03  0.25500000920E-02 0.  1.
    10030    2    1    2    0    0  0.00000000000E+00  0.00000000000E+00  0.15475240447E+04  0.27097915637E+04  0.22244414242E+04 0.  0.
        1    1    3    3  502    0  0.28766897949E+03  0.99922985820E+03  0.29289152756E+03  0.10802773710E+04  0.50400001928E-02 0. -1.
       -1    1    3    3    0  502 -0.28766897949E+03 -0.99922985820E+03  0.12546325171E+04  0.16295141927E+04  0.50400001928E-02 0.  1.
</event>
<event>
 5   0  0.6445740E-05  0.2219155E+04  0.7818609E-02  0.8510498E-01
        2   -1    0    0  501    0  0.00000000000E+00  0.00000000000E+00  0.14006957713E+04  0.14006957713E+04  0.25500000920E-02 0.  1.
       -2   -1    0    0    0  501  0.00000000000E+00  0.00000000000E+00 -0.87896460342E+03  0.87896460343E+03  0.25500000920E-02 0. -1.
    10030    2    1    2    0    0  0.00000000000E+00  0.00000000000E+00  0.52173116792E+03  0.22796603748E+04  0.22191547969E+04 0.  0.
        5    1    3    3  502    0 -0.90198050415E+03 -0.54248151140E+03  0.62155839324E+03  0.12223796245E+04  0.46999998093E+01 0.  1.
       -5    1    3    3    0  502  0.90198050415E+03  0.54248151140E+03 -0.99827225323E+02  0.10572807503E+04  0.46999998093E+01 0. -1.
</event>
<event>
 5   0  0.6628798E-05  0.2212258E+04  0.7818609E-02  0.8513343E-01
        2   -1    0    0  501    0  0.00000000000E+00  0.00000000000E+00  0.18670231443E+04  0.18670231443E+04  0.25500000920E-02 0. -1.
       -2   -1    0    0    0  501  0.00000000000E+00  0.00000000000E+00 -0.65533257742E+03  0.65533257743E+03  0.25500000920E-02 0.  1.
    10030    2    1    2    0    0  0.00000000000E+00  0.00000000000E+00  0.12116905669E+04  0.25223557218E+04  0.22122577511E+04 0.  0.
        4    1    3    3  502    0 -0.76042193483E+02  0.10691945420E+04  0.29451323570E+03  0.11116200082E+04  0.12699999809E+01 0.  1.
       -4    1    3    3    0  502  0.76042193483E+02 -0.10691945420E+04  0.91717733120E+03  0.14107357136E+04  0.12699999809E+01 0. -1.
</event>
<event>
 5   0  0.6306919E-05  0.2191479E+04  0.7818609E-02  0.8521983E-01
        2   -1    0    0  501    0  0.00000000000E+00  0.00000000000E+00  0.12711260334E+04  0.12711260334E+04  0.25500000920E-02 0.  1.
       -2   -1    0    0    0  501  0.00000000000E+00  0.00000000000E+00 -0.94455209417E+03  0.94455209417E+03  0.25500000920E-02 0. -1.
    10030    2    1    2    0    0  0.00000000000E+00  0.00000000000E+00  0.32657393926E+03  0.22156781276E+04  0.21914787307E+04 0.  0.
        3    1    3    3  502    0 -0.49597883094E+03  0.97550053150E+03  0.21910950848E+03  0.11160668773E+04  0.10100000352E+00 0. -1.
       -3    1    3    3    0  502  0.49597883094E+03 -0.97550053150E+03  0.10746443078E+03  0.10996112503E+04  0.10100000352E+00 0.  1.
</event>
<event>
 5   0  0.6445740E-05  0.2194743E+04  0.7818609E-02  0.8520619E-01
       -2   -1    0    0    0  501  0.00000000000E+00  0.00000000000E+00  0.14195672564E+04  0.14195672564E+04  0.25500000920E-02 0.  1.
        2   -1    0    0  501    0  0.00000000000E+00  0.00000000000E+00 -0.84830367060E+03  0.84830367060E+03  0.25500000920E-02 0. -1.
    10030    2    1    2    0    0  0.00000000000E+00  0.00000000000E+00  0.57126358581E+03  0.22678709270E+04  0.21947429137E+04 0.  0.
        5    1    3    3  502    0  0.10044179066E+04 -0.43476118659E+03  0.20342341477E+03  0.11132276479E+04  0.46999998093E+01 0.  1.
       -5    1    3    3    0  502 -0.10044179066E+04  0.43476118659E+03  0.36784017104E+03  0.11546432791E+04  0.46999998093E+01 0. -1.
</event>
<event>
 5   0  0.2753631E-05  0.2204997E+04  0.7818609E-02  0.8516351E-01
        1   -1    0    0  501    0  0.00000000000E+00  0.00000000000E+00  0.88881078153E+03  0.88881078155E+03  0.50400001928E-02 0. -1.
       -1   -1    0    0    0  501  0.00000000000E+00  0.00000000000E+00 -0.13675613408E+04  0.13675613408E+04  0.50400001928E-02 0.  1.
    10030    2    1    2    0    0  0.00000000000E+00  0.00000000000E+00 -0.47875055924E+03  0.22563721223E+04  0.22049972917E+04 0.  0.
        4    1    3    3  502    0  0.37544987533E+03 -0.10163737572E+04 -0.30854535854E+02  0.10839427284E+04  0.12699999809E+01 0. -1.
       -4    1    3    3    0  502 -0.37544987533E+03  0.10163737572E+04 -0.44789602339E+03  0.11724293940E+04  0.12699999809E+01 0.  1.
</event>
<event>
 5   0  0.2820239E-05  0.2213323E+04  0.7818609E-02  0.8512903E-01
        1   -1    0    0  501    0  0.00000000000E+00  0.00000000000E+00  0.27250204097E+04  0.27250204097E+04  0.50400001928E-02 0. -1.
       -1   -1    0    0    0  501  0.00000000000E+00  0.00000000000E+00 -0.44942785631E+03  0.44942785633E+03  0.50400001928E-02 0.  1.
    10030    2    1    2    0    0  0.00000000000E+00  0.00000000000E+00  0.22755925533E+04  0.31744482660E+04  0.22133233665E+04 0.  0.
        3    1    3    3  502    0  0.43974604994E+03 -0.90819892547E+03  0.17895469882E+04  0.20544294366E+04  0.10100000352E+00 0. -1.
       -3    1    3    3    0  502 -0.43974604994E+03  0.90819892547E+03  0.48604556516E+03  0.11200188294E+04  0.10100000352E+00 0.  1.
</event>
<event>
 5   0  0.2910318E-05  0.2194214E+04  0.7818609E-02  0.8520840E-01
       -1   -1    0    0    0  501  0.00000000000E+00  0.00000000000E+00  0.11250499776E+04  0.11250499776E+04  0.50400001928E-02 0.  1.
        1   -1    0    0  501    0  0.00000000000E+00  0.00000000000E+00 -0.10698576084E+04  0.10698576084E+04  0.50400001928E-02 0. -1.
    10030    2    1    2    0    0  0.00000000000E+00  0.00000000000E+00  0.55192369166E+02  0.21949075860E+04  0.21942135524E+04 0.  0.
        5    1    3    3  502    0  0.40677143111E+03 -0.34390318237E+03  0.98700788419E+03  0.11215788200E+04  0.46999998093E+01 0.  1.
       -5    1    3    3    0  502 -0.40677143111E+03  0.34390318237E+03 -0.93181551502E+03  0.10733287661E+04  0.46999998093E+01 0. -1.
</event>
<event>
 5   0  0.6293013E-05  0.2172082E+04  0.7818609E-02  0.8530139E-01
        2   -1    0    0  501    0  0.00000000000E+00  0.00000000000E+00  0.17445843919E+04  0.17445843919E+04  0.25500000920E-02 0. -1.
       -2   -1    0    0    0  501  0.00000000000E+00  0.00000000000E+00 -0.67608353155E+03  0.67608353156E+03  0.25500000920E-02 0.  1.
    10030    2    1    2    0    0  0.00000000000E+00  0.00000000000E+00  0.10685008603E+04  0.24206679234E+04  0.21720817450E+04 0.  0.
        1    1    3    3  502    0 -0.18168568983E+03 -0.69254552595E+02 -0.65652821017E+03  0.68471539614E+03  0.50400001928E-02 0.  1.
       -1    1    3    3    0  502  0.18168568983E+03  0.69254552595E+02  0.17250290705E+04  0.17359525273E+04  0.50400001928E-02 0. -1.
</event>
<event>
 5   0  0.6445740E-05  0.2206676E+04  0.7818609E-02  0.8515654E-01
        2   -1    0    0  501    0  0.00000000000E+00  0.00000000000E+00  0.12966922613E+04  0.12966922613E+04  0.25500000920E-02 0.  1.
       -2   -1    0    0    0  501  0.00000000000E+00  0.00000000000E+00 -0.93881571374E+03  0.93881571374E+03  0.25500000920E-02 0. -1.
    10030    2    1    2    0    0  0.00000000000E+00  0.00000000000E+00  0.35787654755E+03  0.22355079750E+04  0.22066762978E+04 0.  0.
        5    1    3    3  502    0 -0.34259417711E+03 -0.10485779200E+04  0.20034625371E+03  0.11211811343E+04  0.46999998093E+01 0.  1.
       -5    1    3    3    0  502  0.34259417711E+03  0.10485779200E+04  0.15753029384E+03  0.11143268407E+04  0.46999998093E+01 0. -1.
</event>
<event>
 5   0  0.2910318E-05  0.2198350E+04  0.7818609E-02  0.8519115E-01
       -1   -1    0    0    0  501  0.00000000000E+00  0.00000000000E+00  0.11127659902E+04  0.11127659902E+04  0.50400001928E-02 0.  1.
        1   -1    0    0  501    0  0.00000000000E+00  0.00000000000E+00 -0.10857499601E+04  0.10857499601E+04  0.50400001928E-02 0. -1.
    10030    2    1    2    0    0  0.00000000000E+00  0.00000000000E+00  0.27016030038E+02  0.21985159503E+04  0.21983499535E+04 0.  0.
        5    1    3    3  502    0  0.67718543692E+03 -0.16886215761E+03  0.86272994999E+03  0.11096934716E+04  0.46999998093E+01 0.  1.
       -5    1    3    3    0  502 -0.67718543692E+03  0.16886215761E+03 -0.83571391995E+03  0.10888224788E+04  0.46999998093E+01 0. -1.
</event>
<event>
 5   0  0.2908031E-05  0.2184584E+04  0.7818609E-02  0.8524872E-01
        1   -1    0    0  501    0  0.00000000000E+00  0.00000000000E+00  0.13874931583E+04  0.13874931583E+04  0.50400001928E-02 0.  1.
       -1   -1    0    0    0  501  0.00000000000E+00  0.00000000000E+00 -0.85989733677E+03  0.85989733678E+03  0.50400001928E-02 0. -1.
    10030    2    1    2    0    0  0.00000000000E+00  0.00000000000E+00  0.52759582153E+03  0.22473904951E+04  0.21845838703E+04 0.  0.
        1    1    3    3  502    0 -0.99482630181E+03 -0.63206154198E+01  0.72774285696E+03  0.12326106388E+04  0.50400001928E-02 0. -1.
       -1    1    3    3    0  502  0.99482630181E+03  0.63206154198E+01 -0.20014703543E+03  0.10147798563E+04  0.50400001928E-02 0.  1.
</event>
<event>
 5   0  0.6628798E-05  0.2221405E+04  0.7818609E-02  0.8509571E-01
        2   -1    0    0  501    0  0.00000000000E+00  0.00000000000E+00  0.12323242733E+04  0.12323242733E+04  0.25500000920E-02 0. -1.
       -2   -1    0    0    0  501  0.00000000000E+00  0.00000000000E+00 -0.10010838565E+04  0.10010838565E+04  0.25500000920E-02 0.  1.
    10030    2    1    2    0    0  0.00000000000E+00  0.00000000000E+00  0.23124041674E+03  0.22334081298E+04  0.22214049032E+04 0.  0.
        4    1    3    3  502    0 -0.48811844036E+03  0.39288869264E+03 -0.80641597811E+03  0.10212391881E+04  0.12699999809E+01 0.  1.
       -4    1    3    3    0  502  0.48811844036E+03 -0.39288869264E+03  0.10376563949E+04  0.12121689417E+04  0.12699999809E+01 0. -1.
</event>
<event>
 5   0  0.2908031E-05  0.2209912E+04  0.7818609E-02  0.8514314E-01
       -1   -1    0    0    0  501  0.00000000000E+00  0.00000000000E+00  0.14987337165E+04  0.14987337165E+04  0.50400001928E-02 0.  1.
        1   -1    0    0  501    0  0.00000000000E+00  0.00000000000E+00 -0.81463955923E+03  0.81463955924E+03  0.50400001928E-02 0. -1.
    10030    2    1    2    0    0  0.00000000000E+00  0.00000000000E+00  0.68409415723E+03  0.23133732757E+04  0.22099120111E+04 0.  0.
        1    1    3    3  502    0 -0.52379223595E+03  0.68999273121E+03  0.10600745884E+04  0.13690165845E+04  0.50400001928E-02 0.  1.
       -1    1    3    3    0  502  0.52379223595E+03 -0.68999273121E+03 -0.37598043121E+03  0.94435669121E+03  0.50400001928E-02 0. -1.
</event>
<event>
 5   0  0.6628798E-05  0.2188178E+04  0.7818609E-02  0.8523365E-01
       -2   -1    0    0    0  501  0.00000000000E+00  0.00000000000E+00  0.14657061630E+04  0.14657061630E+04  0.25500000920E-02 0. -1.
        2   -1    0    0  501    0  0.00000000000E+00  0.00000000000E+00 -0.81669192518E+03  0.81669192518E+03  0.25500000920E-02 0.  1.
    10030    2    1    2    0    0  0.00000000000E+00  0.00000000000E+00  0.64901423779E+03  0.22823980882E+04  0.21881776783E+04 0.  0.
        4    1    3    3  502    0  0.55528305293E+03 -0.68886086253E+03  0.99577057067E+03  0.13320770245E+04  0.12699999809E+01 0. -1.
       -4    1    3    3    0  502 -0.55528305293E+03  0.68886086253E+03 -0.34675633289E+03  0.95032106369E+03  0.12699999809E+01 0.  1.
</event>
<event>
 5   0  0.6293013E-05  0.2198875E+04  0.7818609E-02  0.8518896E-01
       -2   -1    0    0    0  501  0.00000000000E+00  0.00000000000E+00  0.70817587348E+03  0.70817587348E+03  0.25500000920E-02 0. -1.
        2   -1    0    0  501    0  0.00000000000E+00  0.00000000000E+00 -0.17068681469E+04  0.17068681469E+04  0.25500000920E-02 0.  1.
    10030    2    1    2    0    0  0.00000000000E+00  0.00000000000E+00 -0.99869227346E+03  0.24150440204E+04  0.21988750223E+04 0.  0.
        1    1    3    3  502    0  0.14895159954E+03  0.10020118650E+04 -0.96860622820E+03  0.14015749648E+04  0.50400001928E-02 0.  1.
       -1    1    3    3    0  502 -0.14895159954E+03 -0.10020118650E+04 -0.30086045256E+02  0.10134690556E+04  0.50400001928E-02 0. -1.
</event>
<event>
 5   0  0.2245375E-05  0.2179007E+04  0.7818609E-02  0.8527217E-01
       -4   -1    0    0    0  501  0.00000000000E+00  0.00000000000E+00  0.13663322262E+04  0.13663328165E+04  0.12699999809E+01 0.  1.
        4   -1    0    0  501    0  0.00000000000E+00  0.00000000000E+00 -0.86876135706E+03  0.86876228534E+03  0.12699999809E+01 0. -1.
    10030    2    1    2    0    0  0.00000000000E+00  0.00000000000E+00  0.49757086918E+03  0.22350951018E+04  0.21790074218E+04 0.  0.
        5    1    3    3  502    0 -0.54533095892E+03 -0.79832543699E+03 -0.26642498448E+03  0.10028527910E+04  0.46999998093E+01 0. -1.
       -5    1    3    3    0  502  0.54533095892E+03  0.79832543699E+03  0.76399585366E+03  0.12322423108E+04  0.46999998093E+01 0.  1.
</event>
<event>
 5   0  0.2908031E-05  0.2188471E+04  0.7818609E-02  0.8523242E-01
       -1   -1    0    0    0  501  0.00000000000E+00  0.00000000000E+00  0.19740738684E+04  0.19740738684E+04  0.50400001928E-02 0.  1.
        1   -1    0    0  501    0  0.00000000000E+00  0.00000000000E+00 -0.60653821252E+03  0.60653821254E+03  0.50400001928E-02 0. -1.
    10030    2    1    2    0    0  0.00000000000E+00  0.00000000000E+00  0.13675356559E+04  0.25806120809E+04  0.21884709142E+04 0.  0.
        1    1    3    3  502    0 -0.31528048329E+03 -0.36216492183E+03  0.18432047554E+04  0.19047228103E+04  0.50400001928E-02 0.  1.
       -1    1    3    3    0  502  0.31528048329E+03  0.36216492183E+03 -0.47566909959E+03  0.67588927057E+03  0.50400001928E-02 0. -1.
</event>
<event>
 5   0  0.2245375E-05  0.2209464E+04  0.7818609E-02  0.8514499E-01
        3   -1    0    0  501    0  0.00000000000E+00  0.00000000000E+00  0.48167044218E+03  0.48167045277E+03  0.10100000352E+00 0.  1.
       -3   -1    0    0    0  501  0.00000000000E+00  0.00000000000E+00 -0.25337513209E+04  0.25337513229E+04  0.10100000352E+00 0. -1.
    10030    2    1    2    0    0  0.00000000000E+00  0.00000000000E+00 -0.20520808787E+04  0.30154217756E+04  0.22094643134E+04 0.  0.
        2    1    3    3  502    0  0.57796044964E+03  0.27090502782E+03 -0.22566145382E+04  0.23451518052E+04  0.25500000920E-02 0. -1.
       -2    1    3    3    0  502 -0.57796044964E+03 -0.27090502782E+03  0.20453365949E+03  0.67026997047E+03  0.25500000920E-02 0.  1.
</event>
<event>
 5   0  0.6628798E-05  0.2213007E+04  0.7818609E-02  0.8513034E-01
        2   -1    0    0  501    0  0.00000000000E+00  0.00000000000E+00  0.65318311258E+03  0.65318311259E+03  0.25500000920E-02 0.  1.
       -2   -1    0    0    0  501  0.00000000000E+00  0.00000000000E+00 -0.18744365639E+04  0.18744365639E+04  0.25500000920E-02 0. -1.
    10030    2    1    2    0    0  0.00000000000E+00  0.00000000000E+00 -0.12212534513E+04  0.25276196765E+04  0.22130072835E+04 0.  0.
        4    1    3    3  502    0  0.92781073311E+03 -0.56755814597E+03 -0.84300523394E+03  0.13760866408E+04  0.12699999809E+01 0. -1.
       -4    1    3    3    0  502 -0.92781073311E+03  0.56755814597E+03 -0.37824821738E+03  0.11515330357E+04  0.12699999809E+01 0.  1.
</event>
<event>
 5   0  0.2753631E-05  0.2193181E+04  0.7818609E-02  0.8521272E-01
        1   -1    0    0  501    0  0.00000000000E+00  0.00000000000E+00  0.87875951547E+03  0.87875951548E+03  0.50400001928E-02 0. -1.
       -1   -1    0    0    0  501  0.00000000000E+00  0.00000000000E+00 -0.13684184409E+04  0.13684184409E+04  0.50400001928E-02 0.  1.
    10030    2    1    2    0    0  0.00000000000E+00  0.00000000000E+00 -0.48965892539E+03  0.22471779563E+04  0.21931810013E+04 0.  0.
        4    1    3    3  502    0  0.52065875870E+03 -0.57989397050E+03  0.54562153555E+03  0.95135011063E+03  0.12699999809E+01 0. -1.
       -4    1    3    3    0  502 -0.52065875870E+03  0.57989397050E+03 -0.10352804609E+04  0.12958278457E+04  0.12699999809E+01 0.  1.
</event>
<event>
 5   0  0.6628798E-05  0.2200152E+04  0.7818609E-02  0.8518365E-01
        2   -1    0    0  501    0  0.00000000000E+00  0.00000000000E+00  0.75230505245E+03  0.75230505245E+03  0.25500000920E-02 0.  1.
       -2   -1    0    0    0  501  0.00000000000E+00  0.00000000000E+00 -0.16086120071E+04  0.16086120071E+04  0.25500000920E-02 0. -1.
    10030    2    1    2    0    0  0.00000000000E+00  0.00000000000E+00 -0.85630695461E+03  0.23609170595E+04  0.22001517587E+04 0.  0.
        4    1    3    3  502    0  0.18601658556E+03  0.96276150372E+03 -0.96324162582E+03  0.13745355309E+04  0.12699999809E+01 0.  1.
       -4    1    3    3    0  502 -0.18601658556E+03 -0.96276150372E+03  0.10693467121E+03  0.98638152859E+03  0.12699999809E+01 0. -1.
</event>
<event>
 5   0  0.2929471E-05  0.2137276E+04  0.7818609E-02  0.8544998E-01
       -1   -1    0    0    0  501  0.00000000000E+00  0.00000000000E+00  0.57693497302E+03  0.57693497305E+03  0.50400001928E-02 0.  1.
        1   -1    0    0  501    0  0.00000000000E+00  0.00000000000E+00 -0.19794036012E+04  0.19794036012E+04  0.50400001928E-02 0. -1.
    10030    2    1    2    0    0  0.00000000000E+00  0.00000000000E+00 -0.14024686282E+04  0.25563385742E+04  0.21372759890E+04 0.  0.
        2    1    3    3  502    0  0.10981913007E+03 -0.67510817712E+03 -0.16832940991E+04  0.18169508294E+04  0.25500000920E-02 0. -1.
       -2    1    3    3    0  502 -0.10981913007E+03  0.67510817712E+03  0.28082547096E+03  0.73938774488E+03  0.25500000920E-02 0.  1.
</event>
<event>
 5   0  0.6293013E-05  0.2186820E+04  0.7818609E-02  0.8523934E-01
       -2   -1    0    0    0  501  0.00000000000E+00  0.00000000000E+00  0.13261410956E+04  0.13261410956E+04  0.25500000920E-02 0.  1.
        2   -1    0    0  501    0  0.00000000000E+00  0.00000000000E+00 -0.90152216509E+03  0.90152216509E+03  0.25500000920E-02 0. -1.
    10030    2    1    2    0    0  0.00000000000E+00  0.00000000000E+00  0.42461893055E+03  0.22276632607E+04  0.21868201497E+04 0.  0.
        1    1    3    3  502    0 -0.41702269171E+03  0.26323387062E+03 -0.78179898241E+03  0.92434281788E+03  0.50400001928E-02 0. -1.
       -1    1    3    3    0  502  0.41702269171E+03 -0.26323387062E+03  0.12064179130E+04  0.13033204429E+04  0.50400001928E-02 0.  1.
</event>
<event>
 5   0  0.2820239E-05  0.2214202E+04  0.7818609E-02  0.8512540E-01
        1   -1    0    0  501    0  0.00000000000E+00  0.00000000000E+00  0.20801593333E+04  0.20801593333E+04  0.50400001928E-02 0.  1.
       -1   -1    0    0    0  501  0.00000000000E+00  0.00000000000E+00 -0.58922077410E+03  0.58922077412E+03  0.50400001928E-02 0. -1.
    10030    2    1    2    0    0  0.00000000000E+00  0.00000000000E+00  0.14909385592E+04  0.26693801075E+04  0.22142024232E+04 0.  0.
        3    1    3    3  502    0  0.39874309264E+03 -0.41423593577E+03 -0.39510976329E+03  0.69763830146E+03  0.10100000352E+00 0. -1.
       -3    1    3    3    0  502 -0.39874309264E+03  0.41423593577E+03  0.18860483225E+04  0.19717418060E+04  0.10100000352E+00 0.  1.
</event>
<event>
 5   0  0.2908031E-05  0.2207483E+04  0.7818609E-02  0.8515320E-01
       -1   -1    0    0    0  501  0.00000000000E+00  0.00000000000E+00  0.66287089878E+03  0.66287089880E+03  0.50400001928E-02 0. -1.
        1   -1    0    0  501    0  0.00000000000E+00  0.00000000000E+00 -0.18378320986E+04  0.18378320986E+04  0.50400001928E-02 0.  1.
    10030    2    1    2    0    0  0.00000000000E+00  0.00000000000E+00 -0.11749611998E+04  0.25007029974E+04  0.22074831053E+04 0.  0.
        1    1    3    3  502    0 -0.75940396835E+03 -0.61027089130E+03 -0.11751567828E+04  0.15264725389E+04  0.50400001928E-02 0.  1.
       -1    1    3    3    0  502  0.75940396835E+03  0.61027089130E+03  0.19558299594E+00  0.97423045846E+03  0.50400001928E-02 0. -1.
</event>
<event>
 5   0  0.2820239E-05  0.2193588E+04  0.7818609E-02  0.8521102E-01
       -1   -1    0    0    0  501  0.00000000000E+00  0.00000000000E+00  0.65422853899E+03  0.65422853901E+03  0.50400001928E-02 0.  1.
        1   -1    0    0  501    0  0.00000000000E+00  0.00000000000E+00 -0.18387416626E+04  0.18387416626E+04  0.50400001928E-02 0. -1.
    10030    2    1    2    0    0  0.00000000000E+00  0.00000000000E+00 -0.11845131236E+04  0.24929702016E+04  0.21935881761E+04 0.  0.
        3    1    3    3  502    0 -0.84362792832E+03 -0.55064129078E+03 -0.10850795745E+04  0.14806456719E+04  0.10100000352E+00 0. -1.
       -3    1    3    3    0  502  0.84362792832E+03  0.55064129078E+03 -0.99433549090E+02  0.10123245297E+04  0.10100000352E+00 0.  1.
</event>
<event>
 5   0  0.6306919E-05  0.2210123E+04  0.7818609E-02  0.8514226E-01
        2   -1    0    0  501    0  0.00000000000E+00  0.00000000000E+00  0.10187118007E+04  0.10187118007E+04  0.25500000920E-02 0. -1.
       -2   -1    0    0    0  501  0.00000000000E+00  0.00000000000E+00 -0.11987306132E+04  0.11987306132E+04  0.25500000920E-02 0.  1.
    10030    2    1    2    0    0  0.00000000000E+00  0.00000000000E+00 -0.18001881249E+03  0.22174424140E+04  0.22101230930E+04 0.  0.
        3    1    3    3  502    0 -0.47769765801E+03  0.99646944538E+03 -0.86175318718E+02  0.11084099439E+04  0.10100000352E+00 0. -1.
       -3    1    3    3    0  502  0.47769765801E+03 -0.99646944538E+03 -0.93843493770E+02  0.11090324700E+04  0.10100000352E+00 0.  1.
</event>
<event>
 5   0  0.6414768E-05  0.2242246E+04  0.7818609E-02  0.8501048E-01
       -2   -1    0    0    0  501  0.00000000000E+00  0.00000000000E+00  0.10478952058E+04  0.10478952058E+04  0.25500000920E-02 0. -1.
        2   -1    0    0  501    0  0.00000000000E+00  0.00000000000E+00 -0.11994675157E+04  0.11994675157E+04  0.25500000920E-02 0.  1.
    10030    2    1    2    0    0  0.00000000000E+00  0.00000000000E+00 -0.15157230988E+03  0.22473627215E+04  0.22422455345E+04 0.  0.
        2    1    3    3  502    0  0.58207358610E+03 -0.69114909444E+03  0.58936950185E+03  0.10788202538E+04  0.25500000920E-02 0. -1.
       -2    1    3    3    0  502 -0.58207358610E+03  0.69114909444E+03 -0.74094181173E+03  0.11685424677E+04  0.25500000920E-02 0.  1.
</event>
<event>
 5   0  0.2753631E-05  0.2015514E+04  0.7818609E-02  0.8599401E-01
       -1   -1    0    0    0  501  0.00000000000E+00  0.00000000000E+00  0.92418658981E+03  0.92418658982E+03  0.50400001928E-02 0. -1.
        1   -1    0    0  501    0  0.00000000000E+00  0.00000000000E+00 -0.10988845462E+04  0.10988845462E+04  0.50400001928E-02 0.  1.
    10030    2    1    2    0    0  0.00000000000E+00  0.00000000000E+00 -0.17469795635E+03  0.20230711360E+04  0.20155141888E+04 0.  0.
        4    1    3    3  502    0 -0.49370062709E+03 -0.14398634867E+03  0.78256093947E+03  0.93641636822E+03  0.12699999809E+01 0. -1.
       -4    1    3    3    0  502  0.49370062709E+03  0.14398634867E+03 -0.95725889581E+03  0.10866547678E+04  0.12699999809E+01 0.  1.
</event>
<event>
 5   0  0.6293013E-05  0.2182528E+04  0.7818609E-02  0.8525736E-01
       -2   -1    0    0    0  501  0.00000000000E+00  0.00000000000E+00  0.13190142796E+04  0.13190142796E+04  0.25500000920E-02 0. -1.
        2   -1    0    0  501    0  0.00000000000E+00  0.00000000000E+00 -0.90283860314E+03  0.90283860314E+03  0.25500000920E-02 0.  1.
    10030    2    1    2    0    0  0.00000000000E+00  0.00000000000E+00  0.41617567651E+03  0.22218528828E+04  0.21825279011E+04 0.  0.
        1    1    3    3  502    0  0.51164293655E+03 -0.94741686725E+03  0.27465507632E+02  0.10770940391E+04  0.50400001928E-02 0.  1.
       -1    1    3    3    0  502 -0.51164293655E+03  0.94741686725E+03  0.38871016888E+03  0.11447588437E+04  0.50400001928E-02 0. -1.
</event>
<event>
 5   0  0.6445740E-05  0.2213123E+04  0.7818609E-02  0.8512986E-01
        2   -1    0    0  501    0  0.00000000000E+00  0.00000000000E+00  0.26063047498E+04  0.26063047498E+04  0.25500000920E-02 0. -1.
       -2   -1    0    0    0  501  0.00000000000E+00  0.00000000000E+00 -0.46981391774E+03  0.46981391775E+03  0.25500000920E-02 0.  1.
    10030    2    1    2    0    0  0.00000000000E+00  0.00000000000E+00  0.21364908321E+04  0.30761186675E+04  0.22131229025E+04 0.  0.
        5    1    3    3  502    0  0.12858737042E+03 -0.47843593622E+03  0.24435327563E+04  0.24932529110E+04  0.46999998093E+01 0. -1.
       -5    1    3    3    0  502 -0.12858737042E+03  0.47843593622E+03 -0.30704192428E+03  0.58286575655E+03  0.46999998093E+01 0.  1.
</event>
<event>
 5   0  0.2753631E-05  0.2044927E+04  0.7818609E-02  0.8585899E-01
       -1   -1    0    0    0  501  0.00000000000E+00  0.00000000000E+00  0.75054108945E+03  0.75054108947E+03  0.50400001928E-02 0.  1.
        1   -1    0    0  501    0  0.00000000000E+00  0.00000000000E+00 -0.13929032339E+04  0.13929032339E+04  0.50400001928E-02 0. -1.
    10030    2    1    2    0    0  0.00000000000E+00  0.00000000000E+00 -0.64236214447E+03  0.21434443234E+04  0.20449265128E+04 0.  0.
        4    1    3    3  502    0  0.79009949856E+03  0.52904211451E+03 -0.71517105033E+03  0.11897957895E+04  0.12699999809E+01 0. -1.
       -4    1    3    3    0  502 -0.79009949856E+03 -0.52904211451E+03  0.72808905853E+02  0.95364853391E+03  0.12699999809E+01 0.  1.
</event>
<event>
 5   0  0.6293013E-05  0.2311015E+04  0.7818609E-02  0.8473591E-01
        2   -1    0    0  501    0  0.00000000000E+00  0.00000000000E+00  0.10413798399E+04  0.10413798399E+04  0.25500000920E-02 0. -1.
       -2   -1    0    0    0  501  0.00000000000E+00  0.00000000000E+00 -0.12821422662E+04  0.12821422662E+04  0.25500000920E-02 0.  1.
    10030    2    1    2    0    0  0.00000000000E+00  0.00000000000E+00 -0.24076242632E+03  0.23235221061E+04  0.23110145892E+04 0.  0.
        1    1    3    3  502    0  0.64882957836E+03 -0.29866698961E+03 -0.10336006092E+04  0.12563884796E+04  0.50400001928E-02 0.  1.
       -1    1    3    3    0  502 -0.64882957836E+03  0.29866698961E+03  0.79283818287E+03  0.10671336264E+04  0.50400001928E-02 0. -1.
</event>
<event>
 5   0  0.2908031E-05  0.2166684E+04  0.7818609E-02  0.8532424E-01
       -1   -1    0    0    0  501  0.00000000000E+00  0.00000000000E+00  0.75516383186E+03  0.75516383188E+03  0.50400001928E-02 0.  1.
        1   -1    0    0  501    0  0.00000000000E+00  0.00000000000E+00 -0.15541400702E+04  0.15541400702E+04  0.50400001928E-02 0. -1.
    10030    2    1    2    0    0  0.00000000000E+00  0.00000000000E+00 -0.79897623833E+03  0.23093039021E+04  0.21666844447E+04 0.  0.
        1    1    3    3  502    0 -0.81547516081E+03 -0.34194876014E+03 -0.10665454174E+04  0.13854413809E+04  0.50400001928E-02 0. -1.
       -1    1    3    3    0  502  0.81547516081E+03  0.34194876014E+03  0.26756917907E+03  0.92386252120E+03  0.50400001928E-02 0.  1.
</event>
<event>
 5   0  0.6293013E-05  0.2197647E+04  0.7818609E-02  0.8519408E-01
        2   -1    0    0  501    0  0.00000000000E+00  0.00000000000E+00  0.10923810657E+04  0.10923810657E+04  0.25500000920E-02 0.  1.
       -2   -1    0    0    0  501  0.00000000000E+00  0.00000000000E+00 -0.11053037192E+04  0.11053037192E+04  0.25500000920E-02 0. -1.
    10030    2    1    2    0    0  0.00000000000E+00  0.00000000000E+00 -0.12922653451E+02  0.21976847849E+04  0.21976467912E+04 0.  0.
        1    1    3    3  502    0 -0.54915506295E+03  0.37596074990E+03  0.86790788593E+03  0.10937009953E+04  0.50400001928E-02 0.  1.
       -1    1    3    3    0  502  0.54915506295E+03 -0.37596074990E+03 -0.88083053938E+03  0.11039837896E+04  0.50400001928E-02 0. -1.
</event>
<event>
 5   0  0.2753631E-05  0.2229492E+04  0.7818609E-02  0.8506252E-01
       -1   -1    0    0    0  501  0.00000000000E+00  0.00000000000E+00  0.17184940396E+04  0.17184940396E+04  0.50400001928E-02 0. -1.
        1   -1    0    0  501    0  0.00000000000E+00  0.00000000000E+00 -0.72310880045E+03  0.72310880047E+03  0.50400001928E-02 0.  1.
    10030    2    1    2    0    0  0.00000000000E+00  0.00000000000E+00  0.99538523913E+03  0.24416028401E+04  0.22294915686E+04 0.  0.
        4    1    3    3  502    0 -0.11748266426E+03  0.89249178119E+03  0.12177518662E+04  0.15143529894E+04  0.12699999809E+01 0. -1.
       -4    1    3    3    0  502  0.11748266426E+03 -0.89249178119E+03 -0.22236662704E+03  0.92724985070E+03  0.12699999809E+01 0.  1.
</event>
<event>
 5   0  0.6414768E-05  0.2207554E+04  0.7818609E-02  0.8515290E-01
       -2   -1    0    0    0  501  0.00000000000E+00  0.00000000000E+00  0.17142916129E+04  0.17142916129E+04  0.25500000920E-02 0.  1.
        2   -1    0    0  501    0  0.00000000000E+00  0.00000000000E+00 -0.71068647279E+03  0.71068647280E+03  0.25500000920E-02 0. -1.
    10030    2    1    2    0    0  0.00000000000E+00  0.00000000000E+00  0.10036051401E+04  0.24249780857E+04  0.22075541758E+04 0.  0.
        2    1    3    3  502    0 -0.24579968121E+03 -0.55782331121E+03 -0.50901170246E+03  0.79415190175E+03  0.25500000920E-02 0. -1.
       -2    1    3    3    0  502  0.24579968121E+03  0.55782331121E+03  0.15126168426E+04  0.16308261840E+04  0.25500000920E-02 0.  1.
</event>
<event>
 5   0  0.6414768E-05  0.2176292E+04  0.7818609E-02  0.8528361E-01
       -2   -1    0    0    0  501  0.00000000000E+00  0.00000000000E+00  0.61526559505E+03  0.61526559505E+03  0.25500000920E-02 0.  1.
        2   -1    0    0  501    0  0.00000000000E+00  0.00000000000E+00 -0.19244727724E+04  0.19244727724E+04  0.25500000920E-02 0. -1.
    10030    2    1    2    0    0  0.00000000000E+00  0.00000000000E+00 -0.13092071773E+04  0.25397383675E+04  0.21762921545E+04 0.  0.
        2    1    3    3  502    0  0.99449268419E+03 -0.40285010308E+03 -0.44338587042E+03  0.11609887745E+04  0.25500000920E-02 0.  1.
       -2    1    3    3    0  502 -0.99449268419E+03  0.40285010308E+03 -0.86582130693E+03  0.13787495929E+04  0.25500000920E-02 0. -1.
</event>
<event>
 5   0  0.2753631E-05  0.2192511E+04  0.7818609E-02  0.8521552E-01
        1   -1    0    0  501    0  0.00000000000E+00  0.00000000000E+00  0.24879621682E+04  0.24879621682E+04  0.50400001928E-02 0. -1.
       -1   -1    0    0    0  501  0.00000000000E+00  0.00000000000E+00 -0.48303625900E+03  0.48303625903E+03  0.50400001928E-02 0.  1.
    10030    2    1    2    0    0  0.00000000000E+00  0.00000000000E+00  0.20049259092E+04  0.29709984272E+04  0.21925108331E+04 0.  0.
        4    1    3    3  502    0  0.31262939440E+02 -0.68819742130E+03 -0.15306914469E+03  0.70570874872E+03  0.12699999809E+01 0.  1.
       -4    1    3    3    0  502 -0.31262939440E+02  0.68819742130E+03  0.21579950539E+04  0.22652896785E+04  0.12699999809E+01 0. -1.
</event>
<event>
 5   0  0.2910318E-05  0.2188751E+04  0.7818609E-02  0.8523125E-01
       -1   -1    0    0    0  501  0.00000000000E+00  0.00000000000E+00  0.59862152484E+03  0.59862152486E+03  0.50400001928E-02 0. -1.
        1   -1    0    0  501    0  0.00000000000E+00  0.00000000000E+00 -0.20006933268E+04  0.20006933268E+04  0.50400001928E-02 0.  1.
    10030    2    1    2    0    0  0.00000000000E+00  0.00000000000E+00 -0.14020718020E+04  0.25993148517E+04  0.21887513244E+04 0.  0.
        5    1    3    3  502    0  0.95275734833E+03 -0.34571691914E+03 -0.11912187011E+04  0.15640622868E+04  0.46999998093E+01 0. -1.
       -5    1    3    3    0  502 -0.95275734833E+03  0.34571691914E+03 -0.21085310081E+03  0.10352525649E+04  0.46999998093E+01 0.  1.
</event>
<event>
 5   0  0.2929471E-05  0.2076914E+04  0.7818609E-02  0.8571482E-01
       -1   -1    0    0    0  501  0.00000000000E+00  0.00000000000E+00  0.55133263513E+03  0.55133263515E+03  0.50400001928E-02 0. -1.
        1   -1    0    0  501    0  0.00000000000E+00  0.00000000000E+00 -0.19559757067E+04  0.19559757067E+04  0.50400001928E-02 0.  1.
    10030    2    1    2    0    0  0.00000000000E+00  0.00000000000E+00 -0.14046430716E+04  0.25073083419E+04  0.20769142887E+04 0.  0.
        2    1    3    3  502    0 -0.73293235126E+03  0.29876949507E+03  0.10925532677E+03  0.79899297190E+03  0.25500000920E-02 0. -1.
       -2    1    3    3    0  502  0.73293235126E+03 -0.29876949507E+03 -0.15138983984E+04  0.17083153700E+04  0.25500000920E-02 0.  1.
</event>
<event>
 5   0  0.6306919E-05  0.2191213E+04  0.7818609E-02  0.8522095E-01
        2   -1    0    0  501    0  0.00000000000E+00  0.00000000000E+00  0.19571584942E+04  0.19571584942E+04  0.25500000920E-02 0. -1.
       -2   -1    0    0    0  501  0.00000000000E+00  0.00000000000E+00 -0.61331424343E+03  0.61331424344E+03  0.25500000920E-02 0.  1.
    10030    2    1    2    0    0  0.00000000000E+00  0.00000000000E+00  0.13438442508E+04  0.25704727376E+04  0.21912126151E+04 0.  0.
        3    1    3    3  502    0  0.37513146222E+03  0.10134272922E+04  0.46013388298E+03  0.11745133848E+04  0.10100000352E+00 0. -1.
       -3    1    3    3    0  502 -0.37513146222E+03 -0.10134272922E+04  0.88371036779E+03  0.13959593529E+04  0.10100000352E+00 0.  1.
</event>
<event>
 5   0  0.2929471E-05  0.2182118E+04  0.7818609E-02  0.8525908E-01
        1   -1    0    0  501    0  0.00000000000E+00  0.00000000000E+00  0.13157111064E+04  0.13157111064E+04  0.50400001928E-02 0. -1.
       -1   -1    0    0    0  501  0.00000000000E+00  0.00000000000E+00 -0.90476495809E+03  0.90476495810E+03  0.50400001928E-02 0.  1.
    10030    2    1    2    0    0  0.00000000000E+00  0.00000000000E+00  0.41094614827E+03  0.22204760645E+04  0.21821175991E+04 0.  0.
        2    1    3    3  502    0 -0.88468845751E+03 -0.22527921980E+02 -0.44388886384E+03  0.99005984544E+03  0.25500000920E-02 0.  1.
       -2    1    3    3    0  502  0.88468845751E+03  0.22527921980E+02  0.85483501211E+03  0.12304162190E+04  0.25500000920E-02 0. -1.
</event>
<event>
 5   0  0.2908031E-05  0.2209166E+04  0.7818609E-02  0.8514623E-01
        1   -1    0    0  501    0  0.00000000000E+00  0.00000000000E+00  0.12215529619E+04  0.12215529619E+04  0.50400001928E-02 0. -1.
       -1   -1    0    0    0  501  0.00000000000E+00  0.00000000000E+00 -0.99881318338E+03  0.99881318339E+03  0.50400001928E-02 0.  1.
    10030    2    1    2    0    0  0.00000000000E+00  0.00000000000E+00  0.22273977850E+03  0.22203661453E+04  0.22091656367E+04 0.  0.
        1    1    3    3  502    0 -0.88477438543E+03 -0.23996789452E+03 -0.50794647449E+03  0.10480553060E+04  0.50400001928E-02 0.  1.
       -1    1    3    3    0  502  0.88477438543E+03  0.23996789452E+03  0.73068625299E+03  0.11723108393E+04  0.50400001928E-02 0. -1.
</event>
<event>
 5   0  0.6293013E-05  0.2182473E+04  0.7818609E-02  0.8525759E-01
       -2   -1    0    0    0  501  0.00000000000E+00  0.00000000000E+00  0.65860100482E+03  0.65860100482E+03  0.25500000920E-02 0.  1.
        2   -1    0    0  501    0  0.00000000000E+00  0.00000000000E+00 -0.18080706065E+04  0.18080706065E+04  0.25500000920E-02 0. -1.
    10030    2    1    2    0    0  0.00000000000E+00  0.00000000000E+00 -0.11494696016E+04  0.24666716113E+04  0.21824730177E+04 0.  0.
        1    1    3    3  502    0  0.26074431460E+03  0.52146862792E+02  0.62142431980E+03  0.67592534955E+03  0.50400001928E-02 0.  1.
       -1    1    3    3    0  502 -0.26074431460E+03 -0.52146862792E+02 -0.17708939215E+04  0.17907462617E+04  0.50400001928E-02 0. -1.
</event>
<event>
 5   0  0.2910318E-05  0.2216759E+04  0.7818609E-02  0.8511485E-01
       -1   -1    0    0    0  501  0.00000000000E+00  0.00000000000E+00  0.92883331142E+03  0.92883331143E+03  0.50400001928E-02 0.  1.
        1   -1    0    0  501    0  0.00000000000E+00  0.00000000000E+00 -0.13226329619E+04  0.13226329619E+04  0.50400001928E-02 0. -1.
    10030    2    1    2    0    0  0.00000000000E+00  0.00000000000E+00 -0.39379965052E+03  0.22514662734E+04  0.22167593950E+04 0.  0.
        5    1    3    3  502    0  0.37551517512E+03 -0.20675049906E+03 -0.12350211195E+04  0.13073089425E+04  0.46999998093E+01 0. -1.
       -5    1    3    3    0  502 -0.37551517512E+03  0.20675049906E+03  0.84122146896E+03  0.94415733087E+03  0.46999998093E+01 0.  1.
</event>
<event>
 5   0  0.2910318E-05  0.2209878E+04  0.7818609E-02  0.8514328E-01
       -1   -1    0    0    0  501  0.00000000000E+00  0.00000000000E+00  0.11911107505E+04  0.11911107505E+04  0.50400001928E-02 0.  1.
        1   -1    0    0  501    0  0.00000000000E+00  0.00000000000E+00 -0.10250011101E+04  0.10250011102E+04  0.50400001928E-02 0. -1.
    10030    2    1    2    0    0  0.00000000000E+00  0.00000000000E+00  0.16610964033E+03  0.22161118606E+04  0.22098776813E+04 0.  0.
        5    1    3    3  502    0 -0.65926291118E+03 -0.88622292665E+03  0.53833472350E+02  0.11058656313E+04  0.46999998093E+01 0. -1.
       -5    1    3    3    0  502  0.65926291118E+03  0.88622292665E+03  0.11227616798E+03  0.11102462293E+04  0.46999998093E+01 0.  1.
</event>
<event>
 5   0  0.6414768E-05  0.2159411E+04  0.7818609E-02  0.8535515E-01
       -2   -1    0    0    0  501  0.00000000000E+00  0.00000000000E+00  0.11963354964E+04  0.11963354964E+04  0.25500000920E-02 0.  1.
        2   -1    0    0  501    0  0.00000000000E+00  0.00000000000E+00 -0.97444578393E+03  0.97444578394E+03  0.25500000920E-02 0. -1.
    10030    2    1    2    0    0  0.00000000000E+00  0.00000000000E+00  0.22188971248E+03  0.21707812804E+04  0.21594111055E+04 0.  0.
        2    1    3    3  502    0  0.45978959932E+03  0.16801748211E+03  0.10783673508E+04  0.11842772029E+04  0.25500000920E-02 0.  1.
       -2    1    3    3    0  502 -0.45978959932E+03 -0.16801748211E+03 -0.85647763833E+03  0.98650407749E+03  0.25500000920E-02 0. -1.
</event>
<event>
 5   0  0.6414768E-05  0.2204882E+04  0.7818609E-02  0.8516399E-01
       -2   -1    0    0    0  501  0.00000000000E+00  0.00000000000E+00  0.14839105580E+04  0.14839105580E+04  0.25500000920E-02 0. -1.
        2   -1    0    0  501    0  0.00000000000E+00  0.00000000000E+00 -0.81903624602E+03  0.81903624602E+03  0.25500000920E-02 0.  1.
    10030    2    1    2    0    0  0.00000000000E+00  0.00000000000E+00  0.66487431198E+03  0.23029468040E+04  0.22048823396E+04 0.  0.
        2    1    3    3  502    0  0.85352910032E+02  0.16360730024E+03  0.14676649433E+04  0.14792203533E+04  0.25500000920E-02 0. -1.
       -2    1    3    3    0  502 -0.85352910032E+02 -0.16360730024E+03 -0.80279063128E+03  0.82372645072E+03  0.25500000920E-02 0.  1.
</event>
<event>
 5   0  0.2820239E-05  0.2205508E+04  0.7818609E-02  0.8516139E-01
       -1   -1    0    0    0  501  0.00000000000E+00  0.00000000000E+00  0.60676227027E+03  0.60676227029E+03  0.50400001928E-02 0.  1.
        1   -1    0    0  501    0  0.00000000000E+00  0.00000000000E+00 -0.20041884890E+04  0.20041884890E+04  0.50400001928E-02 0. -1.
    10030    2    1    2    0    0  0.00000000000E+00  0.00000000000E+00 -0.13974262187E+04  0.26109507593E+04  0.22055076129E+04 0.  0.
        3    1    3    3  502    0 -0.13350934463E+02 -0.78273362222E+03  0.22073339508E+03  0.81337163259E+03  0.10100000352E+00 0. -1.
       -3    1    3    3    0  502  0.13350934463E+02  0.78273362222E+03 -0.16181596138E+04  0.17975791267E+04  0.10100000352E+00 0.  1.
</event>
<event>
 5   0  0.6445740E-05  0.2209006E+04  0.7818609E-02  0.8514689E-01
       -2   -1    0    0    0  501  0.00000000000E+00  0.00000000000E+00  0.90992266657E+03  0.90992266657E+03  0.25500000920E-02 0.  1.
        2   -1    0    0  501    0  0.00000000000E+00  0.00000000000E+00 -0.13406929219E+04  0.13406929219E+04  0.25500000920E-02 0. -1.
    10030    2    1    2    0    0  0.00000000000E+00  0.00000000000E+00 -0.43077025530E+03  0.22506155885E+04  0.22090060014E+04 0.  0.
        5    1    3    3  502    0  0.88739586769E+03  0.57752807537E+03  0.10501368790E+03  0.10639831148E+04  0.46999998093E+01 0.  1.
       -5    1    3    3    0  502 -0.88739586769E+03 -0.57752807537E+03 -0.53578394320E+03  0.11866324737E+04  0.46999998093E+01 0. -1.
</event>
<event>
 5   0  0.2753631E-05  0.2186771E+04  0.7818609E-02  0.8523954E-01
        1   -1    0    0  501    0  0.00000000000E+00  0.00000000000E+00  0.10933039026E+04  0.10933039026E+04  0.50400001928E-02 0. -1.
       -1   -1    0    0    0  501  0.00000000000E+00  0.00000000000E+00 -0.10934672966E+04  0.10934672966E+04  0.50400001928E-02 0.  1.
    10030    2    1    2    0    0  0.00000000000E+00  0.00000000000E+00 -0.16339396487E+00  0.21867711992E+04  0.21867711931E+04 0.  0.
        4    1    3    3  502    0 -0.78615369570E+03 -0.58605757796E+03  0.48364274231E+03  0.10933494560E+04  0.12699999809E+01 0. -1.
       -4    1    3    3    0  502  0.78615369570E+03  0.58605757796E+03 -0.48380613628E+03  0.10934217431E+04  0.12699999809E+01 0.  1.
</event>
<event>
 5   0  0.6414768E-05  0.2156169E+04  0.7818609E-02  0.8536896E-01
        2   -1    0    0  501    0  0.00000000000E+00  0.00000000000E+00  0.25300751510E+04  0.25300751510E+04  0.25500000920E-02 0. -1.
       -2   -1    0    0    0  501  0.00000000000E+00  0.00000000000E+00 -0.45937989288E+03  0.45937989289E+03  0.25500000920E-02 0.  1.
    10030    2    1    2    0    0  0.00000000000E+00  0.00000000000E+00  0.20706952581E+04  0.29894550439E+04  0.21561685016E+04 0.  0.
        2    1    3    3  502    0 -0.51635377632E+03 -0.13089189627E+03  0.23348680679E+04  0.23948617508E+04  0.25500000920E-02 0. -1.
       -2    1    3    3    0  502  0.51635377632E+03  0.13089189627E+03 -0.26417280975E+03  0.59459329314E+03  0.25500000920E-02 0.  1.
</event>
<event>
 5   0  0.2820239E-05  0.2175792E+04  0.7818609E-02  0.8528572E-01
        1   -1    0    0  501    0  0.00000000000E+00  0.00000000000E+00  0.14978581825E+04  0.14978581825E+04  0.50400001928E-02 0. -1.
       -1   -1    0    0    0  501  0.00000000000E+00  0.00000000000E+00 -0.79014032721E+03  0.79014032723E+03  0.50400001928E-02 0.  1.
    10030    2    1    2    0    0  0.00000000000E+00  0.00000000000E+00  0.70771785527E+03  0.22879985097E+04  0.21757924115E+04 0.  0.
        3    1    3    3  502    0  0.11557593445E+03 -0.39741358319E+03  0.14118361932E+04  0.14712500805E+04  0.10100000352E+00 0. -1.
       -3    1    3    3    0  502 -0.11557593445E+03  0.39741358319E+03 -0.70411833790E+03  0.81674842926E+03  0.10100000352E+00 0.  1.
</event>
<event>
 5   0  0.2910318E-05  0.2218551E+04  0.7818609E-02  0.8510746E-01
       -1   -1    0    0    0  501  0.00000000000E+00  0.00000000000E+00  0.88286946908E+03  0.88286946909E+03  0.50400001928E-02 0.  1.
        1   -1    0    0  501    0  0.00000000000E+00  0.00000000000E+00 -0.13937414528E+04  0.13937414528E+04  0.50400001928E-02 0. -1.
    10030    2    1    2    0    0  0.00000000000E+00  0.00000000000E+00 -0.51087198370E+03  0.22766109219E+04  0.22185506769E+04 0.  0.
        5    1    3    3  502    0 -0.27858844232E+03 -0.81282488227E+03  0.46447489476E+03  0.97675730214E+03  0.46999998093E+01 0.  1.
       -5    1    3    3    0  502  0.27858844232E+03  0.81282488227E+03 -0.97534687846E+03  0.12998536197E+04  0.46999998093E+01 0. -1.
</event>
<event>
 5   0  0.2929471E-05  0.2215463E+04  0.7818609E-02  0.8512020E-01
       -1   -1    0    0    0  501  0.00000000000E+00  0.00000000000E+00  0.11825603977E+04  0.11825603977E+04  0.50400001928E-02 0. -1.
        1   -1    0    0  501    0  0.00000000000E+00  0.00000000000E+00 -0.10376371998E+04  0.10376371998E+04  0.50400001928E-02 0.  1.
    10030    2    1    2    0    0  0.00000000000E+00  0.00000000000E+00  0.14492319789E+03  0.22201975975E+04  0.22154626241E+04 0.  0.
        2    1    3    3  502    0  0.30454281927E+03 -0.26428255948E+03  0.11064016388E+04  0.11775891416E+04  0.25500000920E-02 0. -1.
       -2    1    3    3    0  502 -0.30454281927E+03  0.26428255948E+03 -0.96147844094E+03  0.10426084559E+04  0.25500000920E-02 0.  1.
</event>
<event>
 5   0  0.2910318E-05  0.2116895E+04  0.7818609E-02  0.8553837E-01
       -1   -1    0    0    0  501  0.00000000000E+00  0.00000000000E+00  0.15649647984E+04  0.15649647984E+04  0.50400001928E-02 0. -1.
        1   -1    0    0  501    0  0.00000000000E+00  0.00000000000E+00 -0.71586966999E+03  0.71586967000E+03  0.50400001928E-02 0.  1.
    10030    2    1    2    0    0  0.00000000000E+00  0.00000000000E+00  0.84909512845E+03  0.22808344685E+04  0.21168947388E+04 0.  0.
        5    1    3    3  502    0  0.75329621012E+03 -0.49387860996E+03 -0.17429925516E+03  0.91748219704E+03  0.46999998093E+01 0.  1.
       -5    1    3    3    0  502 -0.75329621012E+03  0.49387860996E+03  0.10233943836E+04  0.13633522714E+04  0.46999998093E+01 0. -1.
</event>
<event>
 5   0  0.6414768E-05  0.2165875E+04  0.7818609E-02  0.8532767E-01
       -2   -1    0    0    0  501  0.00000000000E+00  0.00000000000E+00  0.67705580918E+03  0.67705580919E+03  0.25500000920E-02 0.  1.
        2   -1    0    0  501    0  0.00000000000E+00  0.00000000000E+00 -0.17321371746E+04  0.17321371746E+04  0.25500000920E-02 0. -1.
    10030    2    1    2    0    0  0.00000000000E+00  0.00000000000E+00 -0.10550813654E+04  0.24091929838E+04  0.21658749146E+04 0.  0.
        2    1    3    3  502    0 -0.29977681774E+02  0.24983236928E+03 -0.16991690187E+04  0.17176991087E+04  0.25500000920E-02 0. -1.
       -2    1    3    3    0  502  0.29977681774E+02 -0.24983236928E+03  0.64408765326E+03  0.69149387505E+03  0.25500000920E-02 0.  1.
</event>
<event>
 5   0  0.6414768E-05  0.2193288E+04  0.7818609E-02  0.8521227E-01
       -2   -1    0    0    0  501  0.00000000000E+00  0.00000000000E+00  0.10739188926E+04  0.10739188926E+04  0.25500000920E-02 0.  1.
        2   -1    0    0  501    0  0.00000000000E+00  0.00000000000E+00 -0.11198497636E+04  0.11198497636E+04  0.25500000920E-02 0. -1.
    10030    2    1    2    0    0  0.00000000000E+00  0.00000000000E+00 -0.45930870993E+02  0.21937686562E+04  0.21932877769E+04 0.  0.
        2    1    3    3  502    0  0.64120407781E+03  0.88611319514E+03 -0.10228322595E+03  0.10985450024E+04  0.25500000920E-02 0.  1.
       -2    1    3    3    0  502 -0.64120407781E+03 -0.88611319514E+03  0.56352354957E+02  0.10952236538E+04  0.25500000920E-02 0. -1.
</event>
<event>
 5   0  0.2753631E-05  0.2191163E+04  0.7818609E-02  0.8522115E-01
       -1   -1    0    0    0  501  0.00000000000E+00  0.00000000000E+00  0.19014843239E+04  0.19014843239E+04  0.50400001928E-02 0. -1.
        1   -1    0    0  501    0  0.00000000000E+00  0.00000000000E+00 -0.63124332055E+03  0.63124332057E+03  0.50400001928E-02 0.  1.
    10030    2    1    2    0    0  0.00000000000E+00  0.00000000000E+00  0.12702410034E+04  0.25327276445E+04  0.21911634157E+04 0.  0.
        4    1    3    3  502    0 -0.40189788970E+03 -0.10112048489E+04  0.78242414718E+03  0.13402411422E+04  0.12699999809E+01 0. -1.
       -4    1    3    3    0  502  0.40189788970E+03  0.10112048489E+04  0.48781685617E+03  0.11924865023E+04  0.12699999809E+01 0.  1.
</event>
<event>
 5   0  0.6628798E-05  0.2203073E+04  0.7818609E-02  0.8517150E-01
        2   -1    0    0  501    0  0.00000000000E+00  0.00000000000E+00  0.21455779204E+04  0.21455779204E+04  0.25500000920E-02 0. -1.
       -2   -1    0    0    0  501  0.00000000000E+00  0.00000000000E+00 -0.56552722211E+03  0.56552722211E+03  0.25500000920E-02 0.  1.
    10030    2    1    2    0    0  0.00000000000E+00  0.00000000000E+00  0.15800506983E+04  0.27111051425E+04  0.22030730547E+04 0.  0.
        4    1    3    3  502    0 -0.40540302500E+03  0.95255476202E+03  0.32684006286E+03  0.10856050050E+04  0.12699999809E+01 0.  1.
       -4    1    3    3    0  502  0.40540302500E+03 -0.95255476202E+03  0.12532106354E+04  0.16255001375E+04  0.12699999809E+01 0. -1.
</event>
<event>
 5   0  0.2245375E-05  0.2027268E+04  0.7818609E-02  0.8593977E-01
       -3   -1    0    0    0  501  0.00000000000E+00  0.00000000000E+00  0.10932557683E+04  0.10932557729E+04  0.10100000352E+00 0.  1.
        3   -1    0    0  501    0  0.00000000000E+00  0.00000000000E+00 -0.93981148544E+03  0.93981149087E+03  0.10100000352E+00 0. -1.
    10030    2    1    2    0    0  0.00000000000E+00  0.00000000000E+00  0.15344428284E+03  0.20330672638E+04  0.20272684458E+04 0.  0.
        4    1    3    3  502    0 -0.72380410832E+03  0.51726673895E+03 -0.41046106508E+03  0.97976383139E+03  0.12699999809E+01 0. -1.
       -4    1    3    3    0  502  0.72380410832E+03 -0.51726673895E+03  0.56390534792E+03  0.10533034324E+04  0.12699999809E+01 0.  1.
</event>
<event>
 5   0  0.2910318E-05  0.2190176E+04  0.7818609E-02  0.8522528E-01
        1   -1    0    0  501    0  0.00000000000E+00  0.00000000000E+00  0.12462854329E+04  0.12462854330E+04  0.50400001928E-02 0. -1.
       -1   -1    0    0    0  501  0.00000000000E+00  0.00000000000E+00 -0.96223318550E+03  0.96223318551E+03  0.50400001928E-02 0.  1.
    10030    2    1    2    0    0  0.00000000000E+00  0.00000000000E+00  0.28405224745E+03  0.22085186185E+04  0.21901755201E+04 0.  0.
        5    1    3    3  502    0  0.96805988645E+03  0.30488497879E+03  0.55668823704E+03  0.11575917576E+04  0.46999998093E+01 0. -1.
       -5    1    3    3    0  502 -0.96805988645E+03 -0.30488497879E+03 -0.27263598959E+03  0.10509268609E+04  0.46999998093E+01 0.  1.
</event>
<event>
 5   0  0.2820239E-05  0.2198294E+04  0.7818609E-02  0.8519139E-01
       -1   -1    0    0    0  501  0.00000000000E+00  0.00000000000E+00  0.30339264503E+04  0.30339264503E+04  0.50400001928E-02 0.  1.
        1   -1    0    0  501    0  0.00000000000E+00  0.00000000000E+00 -0.39820473475E+03  0.39820473478E+03  0.50400001928E-02 0. -1.
    10030    2    1    2    0    0  0.00000000000E+00  0.00000000000E+00  0.26357217156E+04  0.34321311851E+04  0.21982937724E+04 0.  0.
        3    1    3    3  502    0  0.90736302747E+03 -0.25306347333E+03  0.22021177676E+04  0.23951349561E+04  0.10100000352E+00 0.  1.
       -3    1    3    3    0  502 -0.90736302747E+03  0.25306347333E+03  0.43360394796E+03  0.10369962290E+04  0.10100000352E+00 0. -1.
</event>
<event>
 5   0  0.6414768E-05  0.2258571E+04  0.7818609E-02  0.8494438E-01
        2   -1    0    0  501    0  0.00000000000E+00  0.00000000000E+00  0.11627937796E+04  0.11627937796E+04  0.25500000920E-02 0.  1.
       -2   -1    0    0    0  501  0.00000000000E+00  0.00000000000E+00 -0.10967425289E+04  0.10967425289E+04  0.25500000920E-02 0. -1.
    10030    2    1    2    0    0  0.00000000000E+00  0.00000000000E+00  0.66051250717E+02  0.22595363086E+04  0.22585706901E+04 0.  0.
        2    1    3    3  502    0  0.58757389796E+02 -0.59555291167E+01  0.11612477667E+04  0.11627485863E+04  0.25500000920E-02 0.  1.
       -2    1    3    3    0  502 -0.58757389796E+02  0.59555291167E+01 -0.10951965160E+04  0.10967877223E+04  0.25500000920E-02 0. -1.
</event>
<event>
 5   0  0.2908031E-05  0.2214618E+04  0.7818609E-02  0.8512368E-01
        1   -1    0    0  501    0  0.00000000000E+00  0.00000000000E+00  0.22221691577E+04  0.22221691577E+04  0.50400001928E-02 0. -1.
       -1   -1    0    0    0  501  0.00000000000E+00  0.00000000000E+00 -0.55177332876E+03  0.55177332878E+03  0.50400001928E-02 0.  1.
    10030    2    1    2    0    0  0.00000000000E+00  0.00000000000E+00  0.16703958290E+04  0.27739424865E+04  0.22146184080E+04 0.  0.
        1    1    3    3  502    0  0.51084794369E+03  0.24259105908E+03  0.20276440238E+04  0.21050311947E+04  0.50400001928E-02 0. -1.
       -1    1    3    3    0  502 -0.51084794369E+03 -0.24259105908E+03 -0.35724819484E+03  0.66891129177E+03  0.50400001928E-02 0.  1.
</event>
<event>
 5   0  0.6414768E-05  0.2185519E+04  0.7818609E-02  0.8524480E-01
        2   -1    0    0  501    0  0.00000000000E+00  0.00000000000E+00  0.13298669956E+04  0.13298669956E+04  0.25500000920E-02 0. -1.
       -2   -1    0    0    0  501  0.00000000000E+00  0.00000000000E+00 -0.89792721686E+03  0.89792721686E+03  0.25500000920E-02 0.  1.
    10030    2    1    2    0    0  0.00000000000E+00  0.00000000000E+00  0.43193977874E+03  0.22277942125E+04  0.21855194075E+04 0.  0.
        2    1    3    3  502    0 -0.91183675830E+03  0.49939940113E+03 -0.12710796189E+03  0.10473788568E+04  0.25500000920E-02 0.  1.
       -2    1    3    3    0  502  0.91183675830E+03 -0.49939940113E+03  0.55904774063E+03  0.11804153557E+04  0.25500000920E-02 0. -1.
</event>
<event>
 5   0  0.6414768E-05  0.2205267E+04  0.7818609E-02  0.8516239E-01
       -2   -1    0    0    0  501  0.00000000000E+00  0.00000000000E+00  0.61727000599E+03  0.61727000600E+03  0.25500000920E-02 0.  1.
        2   -1    0    0  501    0  0.00000000000E+00  0.00000000000E+00 -0.19696412223E+04  0.19696412223E+04  0.25500000920E-02 0. -1.
    10030    2    1    2    0    0  0.00000000000E+00  0.00000000000E+00 -0.13523712163E+04  0.25869112283E+04  0.22052668311E+04 0.  0.
        2    1    3    3  502    0 -0.71017363333E+03  0.18526649123E+03  0.28910141572E+03  0.78882817573E+03  0.25500000920E-02 0.  1.
       -2    1    3    3    0  502  0.71017363333E+03 -0.18526649123E+03 -0.16414726320E+04  0.17980830526E+04  0.25500000920E-02 0. -1.
</event>
<event>
 5   0  0.2820239E-05  0.2201350E+04  0.7818609E-02  0.8517866E-01
       -1   -1    0    0    0  501  0.00000000000E+00  0.00000000000E+00  0.56248676652E+03  0.56248676655E+03  0.50400001928E-02 0.  1.
        1   -1    0    0  501    0  0.00000000000E+00  0.00000000000E+00 -0.21538022613E+04  0.21538022613E+04  0.50400001928E-02 0. -1.
    10030    2    1    2    0    0  0.00000000000E+00  0.00000000000E+00 -0.15913154948E+04  0.27162890279E+04  0.22013498311E+04 0.  0.
        3    1    3    3  502    0 -0.27742670496E+03 -0.39219371295E+03 -0.20176145068E+04  0.20740177900E+04  0.10100000352E+00 0. -1.
       -3    1    3    3    0  502  0.27742670496E+03  0.39219371295E+03  0.42629901202E+03  0.64227123783E+03  0.10100000352E+00 0.  1.
</event>
<event>
 5   0  0.2908031E-05  0.2161460E+04  0.7818609E-02  0.8534643E-01
       -1   -1    0    0    0  501  0.00000000000E+00  0.00000000000E+00  0.77377939523E+03  0.77377939524E+03  0.50400001928E-02 0.  1.
        1   -1    0    0  501    0  0.00000000000E+00  0.00000000000E+00 -0.15094442513E+04  0.15094442513E+04  0.50400001928E-02 0. -1.
    10030    2    1    2    0    0  0.00000000000E+00  0.00000000000E+00 -0.73566485603E+03  0.22832236465E+04  0.21614595623E+04 0.  0.
        1    1    3    3  502    0  0.20328686721E+03 -0.10792045901E+03  0.74759070102E+03  0.78221750948E+03  0.50400001928E-02 0.  1.
       -1    1    3    3    0  502 -0.20328686721E+03  0.10792045901E+03 -0.14832555571E+04  0.15010061370E+04  0.50400001928E-02 0. -1.
</event>
<event>
 5   0  0.2820239E-05  0.2182378E+04  0.7818609E-02  0.8525799E-01
        1   -1    0    0  501    0  0.00000000000E+00  0.00000000000E+00  0.12520334468E+04  0.12520334468E+04  0.50400001928E-02 0. -1.
       -1   -1    0    0    0  501  0.00000000000E+00  0.00000000000E+00 -0.95100808706E+03  0.95100808707E+03  0.50400001928E-02 0.  1.
    10030    2    1    2    0    0  0.00000000000E+00  0.00000000000E+00  0.30102535971E+03  0.22030415339E+04  0.21823784577E+04 0.  0.
        3    1    3    3  502    0  0.14611202286E+03 -0.13585509684E+03 -0.93243945452E+03  0.95354531990E+03  0.10100000352E+00 0.  1.
       -3    1    3    3    0  502 -0.14611202286E+03  0.13585509684E+03  0.12334648142E+04  0.12494962140E+04  0.10100000352E+00 0. -1.
</event>
<event>
 5   0  0.2245375E-05  0.2186727E+04  0.7818609E-02  0.8523973E-01
       -3   -1    0    0    0  501  0.00000000000E+00  0.00000000000E+00  0.14605880208E+04  0.14605880243E+04  0.10100000352E+00 0. -1.
        3   -1    0    0  501    0  0.00000000000E+00  0.00000000000E+00 -0.81846755485E+03  0.81846756108E+03  0.10100000352E+00 0.  1.
    10030    2    1    2    0    0  0.00000000000E+00  0.00000000000E+00  0.64212046592E+03  0.22790555854E+04  0.21867271591E+04 0.  0.
        2    1    3    3  502    0 -0.33474458904E+03 -0.10330727329E+04  0.45351148598E+03  0.11768457330E+04  0.25500000920E-02 0.  1.
       -2    1    3    3    0  502  0.33474458904E+03  0.10330727329E+04  0.18860897994E+03  0.11022098524E+04  0.25500000920E-02 0. -1.
</event>
<event>
 5   0  0.2753631E-05  0.2137327E+04  0.7818609E-02  0.8544977E-01
       -1   -1    0    0    0  501  0.00000000000E+00  0.00000000000E+00  0.15737597186E+04  0.15737597186E+04  0.50400001928E-02 0. -1.
        1   -1    0    0  501    0  0.00000000000E+00  0.00000000000E+00 -0.72567720186E+03  0.72567720188E+03  0.50400001928E-02 0.  1.
    10030    2    1    2    0    0  0.00000000000E+00  0.00000000000E+00  0.84808251676E+03  0.22994369205E+04  0.21373268810E+04 0.  0.
        4    1    3    3  502    0  0.53144189609E+03  0.18640095781E+03 -0.55306492488E+03  0.78934037653E+03  0.12699999809E+01 0.  1.
       -4    1    3    3    0  502 -0.53144189609E+03 -0.18640095781E+03  0.14011474416E+04  0.15100965440E+04  0.12699999809E+01 0. -1.
</event>
<event>
 5   0  0.2753631E-05  0.2196694E+04  0.7818609E-02  0.8519805E-01
       -1   -1    0    0    0  501  0.00000000000E+00  0.00000000000E+00  0.85248223488E+03  0.85248223490E+03  0.50400001928E-02 0.  1.
        1   -1    0    0  501    0  0.00000000000E+00  0.00000000000E+00 -0.14151219854E+04  0.14151219854E+04  0.50400001928E-02 0. -1.
    10030    2    1    2    0    0  0.00000000000E+00  0.00000000000E+00 -0.56263975055E+03  0.22676042203E+04  0.21966942007E+04 0.  0.
        4    1    3    3  502    0  0.35978857315E+03 -0.86825199797E+03 -0.86804697681E+03  0.12793813021E+04  0.12699999809E+01 0. -1.
       -4    1    3    3    0  502 -0.35978857315E+03  0.86825199797E+03  0.30540722626E+03  0.98822291822E+03  0.12699999809E+01 0.  1.
</event>
<event>
 5   0  0.6293013E-05  0.2194186E+04  0.7818609E-02  0.8520852E-01
        2   -1    0    0  501    0  0.00000000000E+00  0.00000000000E+00  0.14434992200E+04  0.14434992200E+04  0.25500000920E-02 0.  1.
       -2   -1    0    0    0  501  0.00000000000E+00  0.00000000000E+00 -0.83381651251E+03  0.83381651251E+03  0.25500000920E-02 0. -1.
    10030    2    1    2    0    0  0.00000000000E+00  0.00000000000E+00  0.60968270753E+03  0.22773157326E+04  0.21941863963E+04 0.  0.
        1    1    3    3  502    0  0.87585118011E+03 -0.25727756926E+03 -0.32674154978E+03  0.96957056355E+03  0.50400001928E-02 0.  1.
       -1    1    3    3    0  502 -0.87585118011E+03  0.25727756926E+03  0.93642425731E+03  0.13077451690E+04  0.50400001928E-02 0. -1.
</event>
<event>
 5   0  0.6306919E-05  0.2197277E+04  0.7818609E-02  0.8519562E-01
        2   -1    0    0  501    0  0.00000000000E+00  0.00000000000E+00  0.68341968479E+03  0.68341968479E+03  0.25500000920E-02 0.  1.
       -2   -1    0    0    0  501  0.00000000000E+00  0.00000000000E+00 -0.17661279935E+04  0.17661279935E+04  0.25500000920E-02 0. -1.
    10030    2    1    2    0    0  0.00000000000E+00  0.00000000000E+00 -0.10827083087E+04  0.24495476783E+04  0.21972770755E+04 0.  0.
        3    1    3    3  502    0  0.65923205913E+03  0.40980917473E+03 -0.14080977886E+04  0.16078774393E+04  0.10100000352E+00 0. -1.
       -3    1    3    3    0  502 -0.65923205913E+03 -0.40980917473E+03  0.32538947982E+03  0.84167023902E+03  0.10100000352E+00 0.  1.
</event>
<event>
 5   0  0.2910318E-05  0.2211954E+04  0.7818609E-02  0.8513469E-01
        1   -1    0    0  501    0  0.00000000000E+00  0.00000000000E+00  0.14177106966E+04  0.14177106966E+04  0.50400001928E-02 0.  1.
       -1   -1    0    0    0  501  0.00000000000E+00  0.00000000000E+00 -0.86278864645E+03  0.86278864647E+03  0.50400001928E-02 0. -1.
    10030    2    1    2    0    0  0.00000000000E+00  0.00000000000E+00  0.55492205015E+03  0.22804993431E+04  0.22119536098E+04 0.  0.
        5    1    3    3  502    0 -0.97735186308E+03 -0.37313156731E+03 -0.92430926189E+02  0.10502425419E+04  0.46999998093E+01 0.  1.
       -5    1    3    3    0  502  0.97735186308E+03  0.37313156731E+03  0.64735297634E+03  0.12302568011E+04  0.46999998093E+01 0. -1.
</event>
<event>
 5   0  0.6414768E-05  0.2144628E+04  0.7818609E-02  0.8541835E-01
       -2   -1    0    0    0  501  0.00000000000E+00  0.00000000000E+00  0.66205844547E+03  0.66205844548E+03  0.25500000920E-02 0.  1.
        2   -1    0    0  501    0  0.00000000000E+00  0.00000000000E+00 -0.17367916180E+04  0.17367916180E+04  0.25500000920E-02 0. -1.
    10030    2    1    2    0    0  0.00000000000E+00  0.00000000000E+00 -0.10747331725E+04  0.23988500634E+04  0.21446282276E+04 0.  0.
        2    1    3    3  502    0  0.14647703931E+03 -0.96630449179E+03 -0.10308662266E+04  0.14205228161E+04  0.25500000920E-02 0.  1.
       -2    1    3    3    0  502 -0.14647703931E+03  0.96630449179E+03 -0.43866945864E+02  0.97832724732E+03  0.25500000920E-02 0. -1.
</event>
<event>
 5   0  0.6628798E-05  0.2205779E+04  0.7818609E-02  0.8516026E-01
        2   -1    0    0  501    0  0.00000000000E+00  0.00000000000E+00  0.16375009072E+04  0.16375009072E+04  0.25500000920E-02 0. -1.
       -2   -1    0    0    0  501  0.00000000000E+00  0.00000000000E+00 -0.74281838982E+03  0.74281838983E+03  0.25500000920E-02 0.  1.
    10030    2    1    2    0    0  0.00000000000E+00  0.00000000000E+00  0.89468251733E+03  0.23803192970E+04  0.22057794878E+04 0.  0.
        4    1    3    3  502    0 -0.15182481033E+03  0.24451660704E+01  0.16261661420E+04  0.16332405475E+04  0.12699999809E+01 0. -1.
       -4    1    3    3    0  502  0.15182481033E+03 -0.24451660704E+01 -0.73148362465E+03  0.74707874946E+03  0.12699999809E+01 0.  1.
</event>
<event>
 5   0  0.2753631E-05  0.2200560E+04  0.7818609E-02  0.8518195E-01
        1   -1    0    0  501    0  0.00000000000E+00  0.00000000000E+00  0.10589020565E+04  0.10589020565E+04  0.50400001928E-02 0.  1.
       -1   -1    0    0    0  501  0.00000000000E+00  0.00000000000E+00 -0.11432750889E+04  0.11432750890E+04  0.50400001928E-02 0. -1.
    10030    2    1    2    0    0  0.00000000000E+00  0.00000000000E+00 -0.84373032462E+02  0.22021771455E+04  0.22005602403E+04 0.  0.
        4    1    3    3  502    0  0.34446394588E+03  0.61637535136E+03  0.80225856938E+03  0.10687349572E+04  0.12699999809E+01 0.  1.
       -4    1    3    3    0  502 -0.34446394588E+03 -0.61637535136E+03 -0.88663160184E+03  0.11334421882E+04  0.12699999809E+01 0. -1.
</event>
<event>
 5   0  0.6445740E-05  0.2143391E+04  0.7818609E-02  0.8542367E-01
        2   -1    0    0  501    0  0.00000000000E+00  0.00000000000E+00  0.87898881112E+03  0.87898881112E+03  0.25500000920E-02 0. -1.
       -2   -1    0    0    0  501  0.00000000000E+00  0.00000000000E+00 -0.13066505281E+04  0.13066505281E+04  0.25500000920E-02 0.  1.
    10030    2    1    2    0    0  0.00000000000E+00  0.00000000000E+00 -0.42766171694E+03  0.21856393392E+04  0.21433909529E+04 0.  0.
        5    1    3    3  502    0 -0.22524545699E+03  0.50701911160E+03 -0.11488036544E+04  0.12757647987E+04  0.46999998093E+01 0.  1.
       -5    1    3    3    0  502  0.22524545699E+03 -0.50701911160E+03  0.72114193743E+03  0.90987454044E+03  0.46999998093E+01 0. -1.
</event>
<event>
 5   0  0.6306919E-05  0.2224297E+04  0.7818609E-02  0.8508383E-01
       -2   -1    0    0    0  501  0.00000000000E+00  0.00000000000E+00  0.59501843515E+03  0.59501843516E+03  0.25500000920E-02 0.  1.
        2   -1    0    0  501    0  0.00000000000E+00  0.00000000000E+00 -0.20787167767E+04  0.20787167767E+04  0.25500000920E-02 0. -1.
    10030    2    1    2    0    0  0.00000000000E+00  0.00000000000E+00 -0.14836983415E+04  0.26737352118E+04  0.22242974654E+04 0.  0.
        3    1    3    3  502    0  0.46623752678E+02  0.83736963702E+03  0.13615802765E+03  0.84964739864E+03  0.10100000352E+00 0.  1.
       -3    1    3    3    0  502 -0.46623752678E+02 -0.83736963702E+03 -0.16198563692E+04  0.18240878132E+04  0.10100000352E+00 0. -1.
</event>
<event>
 5   0  0.2753631E-05  0.2240766E+04  0.7818609E-02  0.8501649E-01
        1   -1    0    0  501    0  0.00000000000E+00  0.00000000000E+00  0.79304635971E+03  0.79304635973E+03  0.50400001928E-02 0. -1.
       -1   -1    0    0    0  501  0.00000000000E+00  0.00000000000E+00 -0.15828309543E+04  0.15828309543E+04  0.50400001928E-02 0.  1.
    10030    2    1    2    0    0  0.00000000000E+00  0.00000000000E+00 -0.78978459456E+03  0.23758773140E+04  0.22407662318E+04 0.  0.
        4    1    3    3  502    0 -0.10552137933E+04  0.32711492934E+03 -0.19716360750E+03  0.11222100640E+04  0.12699999809E+01 0. -1.
       -4    1    3    3    0  502  0.10552137933E+04 -0.32711492934E+03 -0.59262098706E+03  0.12536672500E+04  0.12699999809E+01 0.  1.
</event>
<event>
 5   0  0.2820239E-05  0.2175220E+04  0.7818609E-02  0.8528813E-01
       -1   -1    0    0    0  501  0.00000000000E+00  0.00000000000E+00  0.11602502412E+04  0.11602502412E+04  0.50400001928E-02 0. -1.
        1   -1    0    0  501    0  0.00000000000E+00  0.00000000000E+00 -0.10195176561E+04  0.10195176562E+04  0.50400001928E-02 0.  1.
    10030    2    1    2    0    0  0.00000000000E+00  0.00000000000E+00  0.14073258503E+03  0.21797678973E+04  0.21752200867E+04 0.  0.
        3    1    3    3  502    0  0.22141915539E+03 -0.39551324493E+01 -0.99668555412E+03  0.10209917676E+04  0.10100000352E+00 0.  1.
       -3    1    3    3    0  502 -0.22141915539E+03  0.39551324493E+01  0.11374181392E+04  0.11587761298E+04  0.10100000352E+00 0. -1.
</event>
<event>
 5   0  0.6628798E-05  0.2194821E+04  0.7818609E-02  0.8520587E-01
        2   -1    0    0  501    0  0.00000000000E+00  0.00000000000E+00  0.17094422133E+04  0.17094422133E+04  0.25500000920E-02 0.  1.
       -2   -1    0    0    0  501  0.00000000000E+00  0.00000000000E+00 -0.70450457759E+03  0.70450457760E+03  0.25500000920E-02 0. -1.
    10030    2    1    2    0    0  0.00000000000E+00  0.00000000000E+00  0.10049376357E+04  0.24139467909E+04  0.21948210536E+04 0.  0.
        4    1    3    3  502    0  0.42620703978E+03  0.58281503049E+01 -0.60973942152E+03  0.74395576693E+03  0.12699999809E+01 0. -1.
       -4    1    3    3    0  502 -0.42620703978E+03 -0.58281503049E+01  0.16146770572E+04  0.16699910239E+04  0.12699999809E+01 0.  1.
</event>
<event>
 5   0  0.6306919E-05  0.2210778E+04  0.7818609E-02  0.8513955E-01
        2   -1    0    0  501    0  0.00000000000E+00  0.00000000000E+00  0.83249256430E+03  0.83249256430E+03  0.25500000920E-02 0. -1.
       -2   -1    0    0    0  501  0.00000000000E+00  0.00000000000E+00 -0.14677428268E+04  0.14677428268E+04  0.25500000920E-02 0.  1.
    10030    2    1    2    0    0  0.00000000000E+00  0.00000000000E+00 -0.63525026252E+03  0.23002353911E+04  0.22107781342E+04 0.  0.
        3    1    3    3  502    0  0.88218499381E+03 -0.57902350277E+03  0.24885804609E+02  0.10555273059E+04  0.10100000352E+00 0. -1.
       -3    1    3    3    0  502 -0.88218499381E+03  0.57902350277E+03 -0.66013606713E+03  0.12447080852E+04  0.10100000352E+00 0.  1.
</event>
<event>
 5   0  0.6414768E-05  0.2230107E+04  0.7818609E-02  0.8506001E-01
       -2   -1    0    0    0  501  0.00000000000E+00  0.00000000000E+00  0.98416445136E+03  0.98416445137E+03  0.25500000920E-02 0. -1.
        2   -1    0    0  501    0  0.00000000000E+00  0.00000000000E+00 -0.12633497795E+04  0.12633497795E+04  0.25500000920E-02 0.  1.
    10030    2    1    2    0    0  0.00000000000E+00  0.00000000000E+00 -0.27918532814E+03  0.22475142309E+04  0.22301066725E+04 0.  0.
        2    1    3    3  502    0 -0.19689245747E+03  0.70614002068E+03  0.70717020908E+03  0.10185725665E+04  0.25500000920E-02 0. -1.
       -2    1    3    3    0  502  0.19689245747E+03 -0.70614002068E+03 -0.98635553723E+03  0.12289416644E+04  0.25500000920E-02 0.  1.
</event>
<event>
 5   0  0.6414768E-05  0.2220975E+04  0.7818609E-02  0.8509748E-01
        2   -1    0    0  501    0  0.00000000000E+00  0.00000000000E+00  0.10877785900E+04  0.10877785900E+04  0.25500000920E-02 0. -1.
       -2   -1    0    0    0  501  0.00000000000E+00  0.00000000000E+00 -0.11336700468E+04  0.11336700468E+04  0.25500000920E-02 0.  1.
    10030    2    1    2    0    0  0.00000000000E+00  0.00000000000E+00 -0.45891456774E+02  0.22214486368E+04  0.22209745653E+04 0.  0.
        2    1    3    3  502    0 -0.10655795236E+03  0.40760637859E+03  0.10047386453E+04  0.10894940580E+04  0.25500000920E-02 0. -1.
       -2    1    3    3    0  502  0.10655795236E+03 -0.40760637859E+03 -0.10506301020E+04  0.11319545788E+04  0.25500000920E-02 0.  1.
</event>
<event>
 5   0  0.6628798E-05  0.2227428E+04  0.7818609E-02  0.8507098E-01
       -2   -1    0    0    0  501  0.00000000000E+00  0.00000000000E+00  0.10914037413E+04  0.10914037413E+04  0.25500000920E-02 0.  1.
        2   -1    0    0  501    0  0.00000000000E+00  0.00000000000E+00 -0.11364802784E+04  0.11364802784E+04  0.25500000920E-02 0. -1.
    10030    2    1    2    0    0  0.00000000000E+00  0.00000000000E+00 -0.45076537135E+02  0.22278840197E+04  0.22274279586E+04 0.  0.
        4    1    3    3  502    0  0.34114743721E+01 -0.89085050609E+03  0.64597792837E+03  0.11004159937E+04  0.12699999809E+01 0.  1.
       -4    1    3    3    0  502 -0.34114743721E+01  0.89085050609E+03 -0.69105446550E+03  0.11274680260E+04  0.12699999809E+01 0. -1.
</event>
<event>
 5   0  0.6445740E-05  0.2185016E+04  0.7818609E-02  0.8524691E-01
       -2   -1    0    0    0  501  0.00000000000E+00  0.00000000000E+00  0.10446116903E+04  0.10446116903E+04  0.25500000920E-02 0. -1.
        2   -1    0    0  501    0  0.00000000000E+00  0.00000000000E+00 -0.11426004761E+04  0.11426004761E+04  0.25500000920E-02 0.  1.
    10030    2    1    2    0    0  0.00000000000E+00  0.00000000000E+00 -0.97988785796E+02  0.21872121663E+04  0.21850160774E+04 0.  0.
        5    1    3    3  502    0  0.33393737776E+03  0.11988479811E+03  0.98532297497E+03  0.10472678703E+04  0.46999998093E+01 0. -1.
       -5    1    3    3    0  502 -0.33393737776E+03 -0.11988479811E+03 -0.10833117608E+04  0.11399442961E+04  0.46999998093E+01 0.  1.
</event>
<event>
 5   0  0.6445740E-05  0.2178190E+04  0.7818609E-02  0.8527561E-01
       -2   -1    0    0    0  501  0.00000000000E+00  0.00000000000E+00  0.10665221286E+04  0.10665221286E+04  0.25500000920E-02 0. -1.
        2   -1    0    0  501    0  0.00000000000E+00  0.00000000000E+00 -0.11121460367E+04  0.11121460367E+04  0.25500000920E-02 0.  1.
    10030    2    1    2    0    0  0.00000000000E+00  0.00000000000E+00 -0.45623908047E+02  0.21786681653E+04  0.21781904034E+04 0.  0.
        5    1    3    3  502    0  0.30264425888E+02  0.16240012156E+03  0.10539075713E+04  0.10667862925E+04  0.46999998093E+01 0. -1.
       -5    1    3    3    0  502 -0.30264425888E+02 -0.16240012156E+03 -0.10995314794E+04  0.11118818728E+04  0.46999998093E+01 0.  1.
</event>
<event>
 5   0  0.6306919E-05  0.2227820E+04  0.7818609E-02  0.8506937E-01
       -2   -1    0    0    0  501  0.00000000000E+00  0.00000000000E+00  0.87531630316E+03  0.87531630316E+03  0.25500000920E-02 0. -1.
        2   -1    0    0  501    0  0.00000000000E+00  0.00000000000E+00 -0.14175390347E+04  0.14175390347E+04  0.25500000920E-02 0.  1.
    10030    2    1    2    0    0  0.00000000000E+00  0.00000000000E+00 -0.54222273158E+03  0.22928553379E+04  0.22278195865E+04 0.  0.
        3    1    3    3  502    0  0.10680906038E+04  0.91723955247E+02  0.40317940798E+02  0.10727797390E+04  0.10100000352E+00 0. -1.
       -3    1    3    3    0  502 -0.10680906038E+04 -0.91723955247E+02 -0.58254067238E+03  0.12200755989E+04  0.10100000352E+00 0.  1.
</event>
<event>
 5   0  0.2908031E-05  0.2360599E+04  0.7818609E-02  0.8454404E-01
        1   -1    0    0  501    0  0.00000000000E+00  0.00000000000E+00  0.13413292546E+04  0.13413292546E+04  0.50400001928E-02 0. -1.
       -1   -1    0    0    0  501  0.00000000000E+00  0.00000000000E+00 -0.10386014220E+04  0.10386014220E+04  0.50400001928E-02 0.  1.
    10030    2    1    2    0    0  0.00000000000E+00  0.00000000000E+00  0.30272783255E+03  0.23799306766E+04  0.23605986285E+04 0.  0.
        1    1    3    3  502    0 -0.46781909948E+03 -0.27623340576E+03 -0.90504684943E+03  0.10555896002E+04  0.50400001928E-02 0.  1.
       -1    1    3    3    0  502  0.46781909948E+03  0.27623340576E+03  0.12077746820E+04  0.13243410764E+04  0.50400001928E-02 0. -1.
</event>
<event>
 5   0  0.2908031E-05  0.2178271E+04  0.7818609E-02  0.8527527E-01
        1   -1    0    0  501    0  0.00000000000E+00  0.00000000000E+00  0.87502024698E+03  0.87502024699E+03  0.50400001928E-02 0. -1.
       -1   -1    0    0    0  501  0.00000000000E+00  0.00000000000E+00 -0.13556440363E+04  0.13556440363E+04  0.50400001928E-02 0.  1.
    10030    2    1    2    0    0  0.00000000000E+00  0.00000000000E+00 -0.48062378936E+03  0.22306642833E+04  0.21782708551E+04 0.  0.
        1    1    3    3  502    0 -0.64927672908E+03 -0.87417707624E+03 -0.26251632360E+03  0.11201163563E+04  0.50400001928E-02 0.  1.
       -1    1    3    3    0  502  0.64927672908E+03  0.87417707624E+03 -0.21810746576E+03  0.11105479270E+04  0.50400001928E-02 0. -1.
</event>
<event>
 5   0  0.6414768E-05  0.1998201E+04  0.7818609E-02  0.8607462E-01
        2   -1    0    0  501    0  0.00000000000E+00  0.00000000000E+00  0.10239271289E+04  0.10239271289E+04  0.25500000920E-02 0. -1.
       -2   -1    0    0    0  501  0.00000000000E+00  0.00000000000E+00 -0.97487591424E+03  0.97487591424E+03  0.25500000920E-02 0.  1.
    10030    2    1    2    0    0  0.00000000000E+00  0.00000000000E+00  0.49051214694E+02  0.19988030432E+04  0.19982010869E+04 0.  0.
        2    1    3    3  502    0  0.58674203465E+03 -0.21415454732E+03  0.80455120240E+03  0.10185435792E+04  0.25500000920E-02 0. -1.
       -2    1    3    3    0  502 -0.58674203465E+03  0.21415454732E+03 -0.75549998770E+03  0.98025946402E+03  0.25500000920E-02 0.  1.
</event>
<event>
 5   0  0.6628798E-05  0.2349420E+04  0.7818609E-02  0.8458687E-01
        2   -1    0    0  501    0  0.00000000000E+00  0.00000000000E+00  0.15903477241E+04  0.15903477241E+04  0.25500000920E-02 0. -1.
       -2   -1    0    0    0  501  0.00000000000E+00  0.00000000000E+00 -0.86769907130E+03  0.86769907130E+03  0.25500000920E-02 0.  1.
    10030    2    1    2    0    0  0.00000000000E+00  0.00000000000E+00  0.72264865282E+03  0.24580467954E+04  0.23494197099E+04 0.  0.
        4    1    3    3  502    0  0.35368039652E+03  0.11180347804E+04  0.28846216053E+03  0.12076024280E+04  0.12699999809E+01 0.  1.
       -4    1    3    3    0  502 -0.35368039652E+03 -0.11180347804E+04  0.43418649229E+03  0.12504443674E+04  0.12699999809E+01 0. -1.
</event>
<event>
 5   0  0.2910318E-05  0.2200494E+04  0.7818609E-02  0.8518222E-01
        1   -1    0    0  501    0  0.00000000000E+00  0.00000000000E+00  0.70418152423E+03  0.70418152425E+03  0.50400001928E-02 0.  1.
       -1   -1    0    0    0  501  0.00000000000E+00  0.00000000000E+00 -0.17190793668E+04  0.17190793668E+04  0.50400001928E-02 0. -1.
    10030    2    1    2    0    0  0.00000000000E+00  0.00000000000E+00 -0.10148978426E+04  0.24232608911E+04  0.22004944252E+04 0.  0.
        5    1    3    3  502    0  0.36501312583E+03  0.76649219377E+03  0.26323994027E+03  0.88885444325E+03  0.46999998093E+01 0.  1.
       -5    1    3    3    0  502 -0.36501312583E+03 -0.76649219377E+03 -0.12781377828E+04  0.15344064478E+04  0.46999998093E+01 0. -1.
</event>
<event>
 5   0  0.2245375E-05  0.2199023E+04  0.7818609E-02  0.8518835E-01
       -3   -1    0    0    0  501  0.00000000000E+00  0.00000000000E+00  0.13011360717E+04  0.13011360756E+04  0.10100000352E+00 0. -1.
        3   -1    0    0  501    0  0.00000000000E+00  0.00000000000E+00 -0.92913040302E+03  0.92913040851E+03  0.10100000352E+00 0.  1.
    10030    2    1    2    0    0  0.00000000000E+00  0.00000000000E+00  0.37200566867E+03  0.22302664841E+04  0.21990225949E+04 0.  0.
        5    1    3    3  502    0  0.67672308397E+03  0.33322861007E+03  0.99731070314E+03  0.12504583830E+04  0.46999998093E+01 0. -1.
       -5    1    3    3    0  502 -0.67672308397E+03 -0.33322861007E+03 -0.62530503447E+03  0.97980810115E+03  0.46999998093E+01 0.  1.
</event>
<event>
 5   0  0.6293013E-05  0.2237872E+04  0.7818609E-02  0.8502828E-01
        2   -1    0    0  501    0  0.00000000000E+00  0.00000000000E+00  0.99018297289E+03  0.99018297290E+03  0.25500000920E-02 0.  1.
       -2   -1    0    0    0  501  0.00000000000E+00  0.00000000000E+00 -0.12644309182E+04  0.12644309182E+04  0.25500000920E-02 0. -1.
    10030    2    1    2    0    0  0.00000000000E+00  0.00000000000E+00 -0.27424794530E+03  0.22546138911E+04  0.22378721729E+04 0.  0.
        1    1    3    3  502    0  0.21789608321E+03  0.10076889303E+04  0.30098816747E+03  0.10740156238E+04  0.50400001928E-02 0.  1.
       -1    1    3    3    0  502 -0.21789608321E+03 -0.10076889303E+04 -0.57523611276E+03  0.11805982673E+04  0.50400001928E-02 0. -1.
</event>
<event>
 5   0  0.2910318E-05  0.2159183E+04  0.7818609E-02  0.8535612E-01
        1   -1    0    0  501    0  0.00000000000E+00  0.00000000000E+00  0.16772874934E+04  0.16772874934E+04  0.50400001928E-02 0. -1.
       -1   -1    0    0    0  501  0.00000000000E+00  0.00000000000E+00 -0.69488279327E+03  0.69488279329E+03  0.50400001928E-02 0.  1.
    10030    2    1    2    0    0  0.00000000000E+00  0.00000000000E+00  0.98240470013E+03  0.23721702867E+04  0.21591833813E+04 0.  0.
        5    1    3    3  502    0 -0.87783985719E+03  0.50176526393E+03  0.75565560229E+02  0.10139543574E+04  0.46999998093E+01 0.  1.
       -5    1    3    3    0  502  0.87783985719E+03 -0.50176526393E+03  0.90683913990E+03  0.13582159293E+04  0.46999998093E+01 0. -1.
</event>
<event>
 5   0  0.2753631E-05  0.2198429E+04  0.7818609E-02  0.8519082E-01
       -1   -1    0    0    0  501  0.00000000000E+00  0.00000000000E+00  0.81883738447E+03  0.81883738449E+03  0.50400001928E-02 0. -1.
        1   -1    0    0  501    0  0.00000000000E+00  0.00000000000E+00 -0.14755953022E+04  0.14755953022E+04  0.50400001928E-02 0.  1.
    10030    2    1    2    0    0  0.00000000000E+00  0.00000000000E+00 -0.65675791769E+03  0.22944326867E+04  0.21984290735E+04 0.  0.
        4    1    3    3  502    0 -0.36804801026E+03 -0.10345583332E+04 -0.27618816985E+03  0.11322772631E+04  0.12699999809E+01 0. -1.
       -4    1    3    3    0  502  0.36804801026E+03  0.10345583332E+04 -0.38056974784E+03  0.11621554235E+04  0.12699999809E+01 0.  1.
</event>
<event>
 5   0  0.2908031E-05  0.2243554E+04  0.7818609E-02  0.8500515E-01
       -1   -1    0    0    0  501  0.00000000000E+00  0.00000000000E+00  0.92988952274E+03  0.92988952275E+03  0.50400001928E-02 0. -1.
        1   -1    0    0  501    0  0.00000000000E+00  0.00000000000E+00 -0.13532620170E+04  0.13532620170E+04  0.50400001928E-02 0.  1.
    10030    2    1    2    0    0  0.00000000000E+00  0.00000000000E+00 -0.42337249429E+03  0.22831515398E+04  0.22435544755E+04 0.  0.
        1    1    3    3  502    0  0.37433834843E+03 -0.89236771721E+03  0.36572082795E+03  0.10345052276E+04  0.50400001928E-02 0. -1.
       -1    1    3    3    0  502 -0.37433834843E+03  0.89236771721E+03 -0.78909332224E+03  0.12486463122E+04  0.50400001928E-02 0.  1.
</event>
<event>
 5   0  0.2908031E-05  0.2267063E+04  0.7818609E-02  0.8491022E-01
       -1   -1    0    0    0  501  0.00000000000E+00  0.00000000000E+00  0.60315660075E+03  0.60315660077E+03  0.50400001928E-02 0.  1.
        1   -1    0    0  501    0  0.00000000000E+00  0.00000000000E+00 -0.21302818183E+04  0.21302818183E+04  0.50400001928E-02 0. -1.
    10030    2    1    2    0    0  0.00000000000E+00  0.00000000000E+00 -0.15271252175E+04  0.27334384191E+04  0.22670628930E+04 0.  0.
        1    1    3    3  502    0  0.66818505561E+03 -0.65466902106E+03  0.83142010212E+01  0.93548485911E+03  0.50400001928E-02 0.  1.
       -1    1    3    3    0  502 -0.66818505561E+03  0.65466902106E+03 -0.15354394186E+04  0.17979535599E+04  0.50400001928E-02 0. -1.
</event>
<event>
 5   0  0.2908031E-05  0.2193680E+04  0.7818609E-02  0.8521063E-01
        1   -1    0    0  501    0  0.00000000000E+00  0.00000000000E+00  0.99549758217E+03  0.99549758218E+03  0.50400001928E-02 0.  1.
       -1   -1    0    0    0  501  0.00000000000E+00  0.00000000000E+00 -0.12084996060E+04  0.12084996060E+04  0.50400001928E-02 0. -1.
    10030    2    1    2    0    0  0.00000000000E+00  0.00000000000E+00 -0.21300202383E+03  0.22039971882E+04  0.21936804105E+04 0.  0.
        1    1    3    3  502    0  0.80765117811E+03 -0.74176232232E+03 -0.12999189296E+03  0.11042688353E+04  0.50400001928E-02 0. -1.
       -1    1    3    3    0  502 -0.80765117811E+03  0.74176232232E+03 -0.83010130870E+02  0.10997283529E+04  0.50400001928E-02 0.  1.
</event>
<event>
 5   0  0.2929471E-05  0.2194573E+04  0.7818609E-02  0.8520690E-01
        1   -1    0    0  501    0  0.00000000000E+00  0.00000000000E+00  0.17054441216E+04  0.17054441216E+04  0.50400001928E-02 0.  1.
       -1   -1    0    0    0  501  0.00000000000E+00  0.00000000000E+00 -0.70599655311E+03  0.70599655313E+03  0.50400001928E-02 0. -1.
    10030    2    1    2    0    0  0.00000000000E+00  0.00000000000E+00  0.99944756851E+03  0.24114406748E+04  0.21945730076E+04 0.  0.
        2    1    3    3  502    0  0.54512784658E+03  0.44992235249E+02 -0.54551280584E+03  0.77251077124E+03  0.25500000920E-02 0. -1.
       -2    1    3    3    0  502 -0.54512784658E+03 -0.44992235249E+02  0.15449603743E+04  0.16389299035E+04  0.25500000920E-02 0.  1.
</event>
<event>
 5   0  0.2910318E-05  0.2203979E+04  0.7818609E-02  0.8516774E-01
        1   -1    0    0  501    0  0.00000000000E+00  0.00000000000E+00  0.18964406773E+04  0.18964406773E+04  0.50400001928E-02 0. -1.
       -1   -1    0    0    0  501  0.00000000000E+00  0.00000000000E+00 -0.64034742532E+03  0.64034742534E+03  0.50400001928E-02 0.  1.
    10030    2    1    2    0    0  0.00000000000E+00  0.00000000000E+00  0.12560932520E+04  0.25367881026E+04  0.22039790426E+04 0.  0.
        5    1    3    3  502    0 -0.69044830463E+03  0.75401302064E+03  0.11013657812E+04  0.15027585204E+04  0.46999998093E+01 0. -1.
       -5    1    3    3    0  502  0.69044830463E+03 -0.75401302064E+03  0.15472747073E+03  0.10340295822E+04  0.46999998093E+01 0.  1.
</event>
<event>
 5   0  0.6306919E-05  0.2224056E+04  0.7818609E-02  0.8508482E-01
        2   -1    0    0  501    0  0.00000000000E+00  0.00000000000E+00  0.18977952219E+04  0.18977952219E+04  0.25500000920E-02 0. -1.
       -2   -1    0    0    0  501  0.00000000000E+00  0.00000000000E+00 -0.65160166680E+03  0.65160166680E+03  0.25500000920E-02 0.  1.
    10030    2    1    2    0    0  0.00000000000E+00  0.00000000000E+00  0.12461935551E+04  0.25493968887E+04  0.22240562312E+04 0.  0.
        3    1    3    3  502    0  0.33417444894E+03 -0.10596060469E+04  0.67648183655E+03  0.13007940738E+04  0.10100000352E+00 0.  1.
       -3    1    3    3    0  502 -0.33417444894E+03  0.10596060469E+04  0.56971171855E+03  0.12486028149E+04  0.10100000352E+00 0. -1.
</event>
<event>
 5   0  0.2820239E-05  0.2205388E+04  0.7818609E-02  0.8516189E-01
       -1   -1    0    0    0  501  0.00000000000E+00  0.00000000000E+00  0.11443474540E+04  0.11443474540E+04  0.50400001928E-02 0. -1.
        1   -1    0    0  501    0  0.00000000000E+00  0.00000000000E+00 -0.10625564817E+04  0.10625564817E+04  0.50400001928E-02 0.  1.
    10030    2    1    2    0    0  0.00000000000E+00  0.00000000000E+00  0.81790972280E+02  0.22069039357E+04  0.22053877705E+04 0.  0.
        3    1    3    3  502    0  0.58277712975E+03  0.33678136214E+03  0.91492764983E+03  0.11358448325E+04  0.10100000352E+00 0. -1.
       -3    1    3    3    0  502 -0.58277712975E+03 -0.33678136214E+03 -0.83313667755E+03  0.10710591032E+04  0.10100000352E+00 0.  1.
</event>
<event>
 5   0  0.2929471E-05  0.2214184E+04  0.7818609E-02  0.8512548E-01
       -1   -1    0    0    0  501  0.00000000000E+00  0.00000000000E+00  0.11709650618E+04  0.11709650618E+04  0.50400001928E-02 0.  1.
        1   -1    0    0  501    0  0.00000000000E+00  0.00000000000E+00 -0.10467030840E+04  0.10467030841E+04  0.50400001928E-02 0. -1.
    10030    2    1    2    0    0  0.00000000000E+00  0.00000000000E+00  0.12426197777E+03  0.22176681459E+04  0.22141840407E+04 0.  0.
        2    1    3    3  502    0 -0.23787394228E+03  0.64670499341E+03 -0.80574353906E+03  0.10602047027E+04  0.25500000920E-02 0. -1.
       -2    1    3    3    0  502  0.23787394228E+03 -0.64670499341E+03  0.93000551683E+03  0.11574634432E+04  0.25500000920E-02 0.  1.
</event>
<event>
 5   0  0.6445740E-05  0.2138796E+04  0.7818609E-02  0.8544343E-01
       -2   -1    0    0    0  501  0.00000000000E+00  0.00000000000E+00  0.85529729061E+03  0.85529729061E+03  0.25500000920E-02 0.  1.
        2   -1    0    0  501    0  0.00000000000E+00  0.00000000000E+00 -0.13370931688E+04  0.13370931688E+04  0.25500000920E-02 0. -1.
    10030    2    1    2    0    0  0.00000000000E+00  0.00000000000E+00 -0.48179587819E+03  0.21923904594E+04  0.21387960768E+04 0.  0.
        5    1    3    3  502    0 -0.74368047755E+03 -0.71680895366E+03 -0.52481194517E+03  0.11585876732E+04  0.46999998093E+01 0. -1.
       -5    1    3    3    0  502  0.74368047755E+03  0.71680895366E+03  0.43016066979E+02  0.10338027862E+04  0.46999998093E+01 0.  1.
</event>
<event>
 5   0  0.6306919E-05  0.2123637E+04  0.7818609E-02  0.8550902E-01
        2   -1    0    0  501    0  0.00000000000E+00  0.00000000000E+00  0.12661165150E+04  0.12661165150E+04  0.25500000920E-02 0.  1.
       -2   -1    0    0    0  501  0.00000000000E+00  0.00000000000E+00 -0.89048567798E+03  0.89048567799E+03  0.25500000920E-02 0. -1.
    10030    2    1    2    0    0  0.00000000000E+00  0.00000000000E+00  0.37563083705E+03  0.21566021930E+04  0.21236370908E+04 0.  0.
        3    1    3    3  502    0 -0.40688247628E+03 -0.56935567474E+03 -0.62316684824E+03  0.93704651155E+03  0.10100000352E+00 0. -1.
       -3    1    3    3    0  502  0.40688247628E+03  0.56935567474E+03  0.99879768529E+03  0.12195556815E+04  0.10100000352E+00 0.  1.
</event>
<event>
 5   0  0.2908031E-05  0.2180018E+04  0.7818609E-02  0.8526792E-01
       -1   -1    0    0    0  501  0.00000000000E+00  0.00000000000E+00  0.77147345193E+03  0.77147345195E+03  0.50400001928E-02 0. -1.
        1   -1    0    0  501    0  0.00000000000E+00  0.00000000000E+00 -0.15400647949E+04  0.15400647949E+04  0.50400001928E-02 0.  1.
    10030    2    1    2    0    0  0.00000000000E+00  0.00000000000E+00 -0.76859134297E+03  0.23115382469E+04  0.21800175261E+04 0.  0.
        1    1    3    3  502    0 -0.21158493702E+03 -0.10425005541E+04 -0.63643029661E+03  0.12396044181E+04  0.50400001928E-02 0. -1.
       -1    1    3    3    0  502  0.21158493702E+03  0.10425005541E+04 -0.13216104636E+03  0.10719338287E+04  0.50400001928E-02 0.  1.
</event>
<event>
 5   0  0.6628798E-05  0.2222345E+04  0.7818609E-02  0.8509185E-01
        2   -1    0    0  501    0  0.00000000000E+00  0.00000000000E+00  0.11390835037E+04  0.11390835037E+04  0.25500000920E-02 0. -1.
       -2   -1    0    0    0  501  0.00000000000E+00  0.00000000000E+00 -0.10839451508E+04  0.10839451508E+04  0.25500000920E-02 0.  1.
    10030    2    1    2    0    0  0.00000000000E+00  0.00000000000E+00  0.55138352815E+02  0.22230286545E+04  0.22223447439E+04 0.  0.
        4    1    3    3  502    0  0.95630015367E+03 -0.55926027132E+03 -0.58599032036E+02  0.11093770750E+04  0.12699999809E+01 0.  1.
       -4    1    3    3    0  502 -0.95630015367E+03  0.55926027132E+03  0.11373738485E+03  0.11136515795E+04  0.12699999809E+01 0. -1.
</event>
<event>
 5   0  0.6293013E-05  0.2180510E+04  0.7818609E-02  0.8526584E-01
        2   -1    0    0  501    0  0.00000000000E+00  0.00000000000E+00  0.15565676817E+04  0.15565676817E+04  0.25500000920E-02 0. -1.
       -2   -1    0    0    0  501  0.00000000000E+00  0.00000000000E+00 -0.76363881406E+03  0.76363881406E+03  0.25500000920E-02 0.  1.
    10030    2    1    2    0    0  0.00000000000E+00  0.00000000000E+00  0.79292886768E+03  0.23202064958E+04  0.21805095721E+04 0.  0.
        1    1    3    3  502    0 -0.85657764152E+03  0.47129078277E+03  0.90988628026E+03  0.13355647872E+04  0.50400001928E-02 0. -1.
       -1    1    3    3    0  502  0.85657764152E+03 -0.47129078277E+03 -0.11695741258E+03  0.98464170857E+03  0.50400001928E-02 0.  1.
</event>
<event>
 5   0  0.6306919E-05  0.2205676E+04  0.7818609E-02  0.8516069E-01
        2   -1    0    0  501    0  0.00000000000E+00  0.00000000000E+00  0.16449437178E+04  0.16449437178E+04  0.25500000920E-02 0. -1.
       -2   -1    0    0    0  501  0.00000000000E+00  0.00000000000E+00 -0.73938808686E+03  0.73938808686E+03  0.25500000920E-02 0.  1.
    10030    2    1    2    0    0  0.00000000000E+00  0.00000000000E+00  0.90555563098E+03  0.23843318047E+04  0.22056761218E+04 0.  0.
        3    1    3    3  502    0  0.26284717064E+02 -0.73953381046E+03  0.13367214669E+04  0.15278826635E+04  0.10100000352E+00 0. -1.
       -3    1    3    3    0  502 -0.26284717064E+02  0.73953381046E+03 -0.43116583593E+03  0.85644914118E+03  0.10100000352E+00 0.  1.
</event>
<event>
 5   0  0.2910318E-05  0.2228135E+04  0.7818609E-02  0.8506808E-01
        1   -1    0    0  501    0  0.00000000000E+00  0.00000000000E+00  0.22582052868E+04  0.22582052868E+04  0.50400001928E-02 0.  1.
       -1   -1    0    0    0  501  0.00000000000E+00  0.00000000000E+00 -0.54961607415E+03  0.54961607418E+03  0.50400001928E-02 0. -1.
    10030    2    1    2    0    0  0.00000000000E+00  0.00000000000E+00  0.17085892127E+04  0.28078213610E+04  0.22281345780E+04 0.  0.
        5    1    3    3  502    0 -0.49211920550E+03 -0.73809483144E+03  0.17035372599E+04  0.19206838830E+04  0.46999998093E+01 0.  1.
       -5    1    3    3    0  502  0.49211920550E+03  0.73809483144E+03  0.50519527754E+01  0.88713747799E+03  0.46999998093E+01 0. -1.
</event>
<event>
 5   0  0.2929471E-05  0.2213081E+04  0.7818609E-02  0.8513003E-01
        1   -1    0    0  501    0  0.00000000000E+00  0.00000000000E+00  0.79777999703E+03  0.79777999704E+03  0.50400001928E-02 0. -1.
       -1   -1    0    0    0  501  0.00000000000E+00  0.00000000000E+00 -0.15347993769E+04  0.15347993769E+04  0.50400001928E-02 0.  1.
    10030    2    1    2    0    0  0.00000000000E+00  0.00000000000E+00 -0.73701937991E+03  0.23325793740E+04  0.22130813292E+04 0.  0.
        2    1    3    3  502    0 -0.31447399071E+03 -0.92196599247E+03 -0.92174934871E+03  0.13410954641E+04  0.25500000920E-02 0.  1.
       -2    1    3    3    0  502  0.31447399071E+03  0.92196599247E+03  0.18472996880E+03  0.99148390984E+03  0.25500000920E-02 0. -1.
</event>
<event>
 5   0  0.2908031E-05  0.2184757E+04  0.7818609E-02  0.8524799E-01
       -1   -1    0    0    0  501  0.00000000000E+00  0.00000000000E+00  0.73692529693E+03  0.73692529695E+03  0.50400001928E-02 0.  1.
        1   -1    0    0  501    0  0.00000000000E+00  0.00000000000E+00 -0.16192836101E+04  0.16192836101E+04  0.50400001928E-02 0. -1.
    10030    2    1    2    0    0  0.00000000000E+00  0.00000000000E+00 -0.88235831317E+03  0.23562089071E+04  0.21847572453E+04 0.  0.
        1    1    3    3  502    0 -0.79369983760E+03 -0.70014217801E+03 -0.14952647487E+03  0.10688857134E+04  0.50400001928E-02 0.  1.
       -1    1    3    3    0  502  0.79369983760E+03  0.70014217801E+03 -0.73283183831E+03  0.12873231936E+04  0.50400001928E-02 0. -1.
</event>
<event>
 5   0  0.6414768E-05  0.2181769E+04  0.7818609E-02  0.8526055E-01
       -2   -1    0    0    0  501  0.00000000000E+00  0.00000000000E+00  0.13442363682E+04  0.13442363682E+04  0.25500000920E-02 0. -1.
        2   -1    0    0  501    0  0.00000000000E+00  0.00000000000E+00 -0.88528270247E+03  0.88528270247E+03  0.25500000920E-02 0.  1.
    10030    2    1    2    0    0  0.00000000000E+00  0.00000000000E+00  0.45895366577E+03  0.22295190707E+04  0.21817691948E+04 0.  0.
        2    1    3    3  502    0  0.50178123316E+03  0.75230390881E+03 -0.39402732599E+03  0.98640920048E+03  0.25500000920E-02 0.  1.
       -2    1    3    3    0  502 -0.50178123316E+03 -0.75230390881E+03  0.85298099175E+03  0.12431098702E+04  0.25500000920E-02 0. -1.
</event>
<event>
 5   0  0.6628798E-05  0.2194991E+04  0.7818609E-02  0.8520516E-01
        2   -1    0    0  501    0  0.00000000000E+00  0.00000000000E+00  0.85828122345E+03  0.85828122346E+03  0.25500000920E-02 0.  1.
       -2   -1    0    0    0  501  0.00000000000E+00  0.00000000000E+00 -0.14033823720E+04  0.14033823720E+04  0.25500000920E-02 0. -1.
    10030    2    1    2    0    0  0.00000000000E+00  0.00000000000E+00 -0.54510114859E+03  0.22616635955E+04  0.21949913342E+04 0.  0.
        4    1    3    3  502    0  0.10385174229E+04  0.32088913572E+03 -0.11626323761E+03  0.10931637702E+04  0.12699999809E+01 0. -1.
       -4    1    3    3    0  502 -0.10385174229E+04 -0.32088913572E+03 -0.42883791098E+03  0.11684998254E+04  0.12699999809E+01 0.  1.
</event>
<event>
 5   0  0.2929471E-05  0.2144061E+04  0.7818609E-02  0.8542079E-01
       -1   -1    0    0    0  501  0.00000000000E+00  0.00000000000E+00  0.57208010945E+03  0.57208010948E+03  0.50400001928E-02 0. -1.
        1   -1    0    0  501    0  0.00000000000E+00  0.00000000000E+00 -0.20088959621E+04  0.20088959621E+04  0.50400001928E-02 0.  1.
    10030    2    1    2    0    0  0.00000000000E+00  0.00000000000E+00 -0.14368158526E+04  0.25809760716E+04  0.21440610270E+04 0.  0.
        2    1    3    3  502    0 -0.80345362583E+03 -0.55312512947E+03 -0.18307893170E+03  0.99247319004E+03  0.25500000920E-02 0. -1.
       -2    1    3    3    0  502  0.80345362583E+03  0.55312512947E+03 -0.12537369209E+04  0.15885028815E+04  0.25500000920E-02 0.  1.
</event>
<event>
 5   0  0.2910318E-05  0.2115133E+04  0.7818609E-02  0.8554606E-01
        1   -1    0    0  501    0  0.00000000000E+00  0.00000000000E+00  0.12421404303E+04  0.12421404303E+04  0.50400001928E-02 0. -1.
       -1   -1    0    0    0  501  0.00000000000E+00  0.00000000000E+00 -0.90041886365E+03  0.90041886366E+03  0.50400001928E-02 0.  1.
    10030    2    1    2    0    0  0.00000000000E+00  0.00000000000E+00  0.34172156664E+03  0.21425592940E+04  0.21151327852E+04 0.  0.
        5    1    3    3  502    0 -0.94447607324E+03 -0.46606936388E+03  0.73864888280E+02  0.10558095551E+04  0.46999998093E+01 0.  1.
       -5    1    3    3    0  502  0.94447607324E+03  0.46606936388E+03  0.26785667836E+03  0.10867497389E+04  0.46999998093E+01 0. -1.
</event>
<event>
 5   0  0.2929471E-05  0.2239463E+04  0.7818609E-02  0.8502180E-01
       -1   -1    0    0    0  501  0.00000000000E+00  0.00000000000E+00  0.11477406423E+04  0.11477406424E+04  0.50400001928E-02 0.  1.
        1   -1    0    0  501    0  0.00000000000E+00  0.00000000000E+00 -0.10924060146E+04  0.10924060146E+04  0.50400001928E-02 0. -1.
    10030    2    1    2    0    0  0.00000000000E+00  0.00000000000E+00  0.55334627742E+02  0.22401466570E+04  0.22394631329E+04 0.  0.
        2    1    3    3  502    0  0.27789121200E+03  0.10002469264E+04 -0.39208123497E+03  0.11097049762E+04  0.25500000920E-02 0. -1.
       -2    1    3    3    0  502 -0.27789121200E+03 -0.10002469264E+04  0.44741586271E+03  0.11304416808E+04  0.25500000920E-02 0.  1.
</event>
<event>
 5   0  0.2245375E-05  0.1931345E+04  0.7818609E-02  0.8639409E-01
        3   -1    0    0  501    0  0.00000000000E+00  0.00000000000E+00  0.10955897185E+04  0.10955897231E+04  0.10100000352E+00 0. -1.
       -3   -1    0    0    0  501  0.00000000000E+00  0.00000000000E+00 -0.85116115569E+03  0.85116116168E+03  0.10100000352E+00 0.  1.
    10030    2    1    2    0    0  0.00000000000E+00  0.00000000000E+00  0.24442856279E+03  0.19467508848E+04  0.19313450456E+04 0.  0.
        5    1    3    3  502    0  0.69206377567E+03  0.14153672822E+03  0.78588595969E+03  0.10567041907E+04  0.46999998093E+01 0. -1.
       -5    1    3    3    0  502 -0.69206377567E+03 -0.14153672822E+03 -0.54145739689E+03  0.89004669410E+03  0.46999998093E+01 0.  1.
</event>
<event>
 5   0  0.6414768E-05  0.2200619E+04  0.7818609E-02  0.8518170E-01
       -2   -1    0    0    0  501  0.00000000000E+00  0.00000000000E+00  0.97631064929E+03  0.97631064929E+03  0.25500000920E-02 0. -1.
        2   -1    0    0  501    0  0.00000000000E+00  0.00000000000E+00 -0.12400576576E+04  0.12400576576E+04  0.25500000920E-02 0.  1.
    10030    2    1    2    0    0  0.00000000000E+00  0.00000000000E+00 -0.26374700830E+03  0.22163683069E+04  0.22006194554E+04 0.  0.
        2    1    3    3  502    0  0.36898973373E+03  0.94718735646E+03 -0.55603373518E+03  0.11586590640E+04  0.25500000920E-02 0.  1.
       -2    1    3    3    0  502 -0.36898973373E+03 -0.94718735646E+03  0.29228672688E+03  0.10577092429E+04  0.25500000920E-02 0. -1.
</event>
<event>
 5   0  0.6306919E-05  0.2194183E+04  0.7818609E-02  0.8520853E-01
       -2   -1    0    0    0  501  0.00000000000E+00  0.00000000000E+00  0.66835457633E+03  0.66835457634E+03  0.25500000920E-02 0.  1.
        2   -1    0    0  501    0  0.00000000000E+00  0.00000000000E+00 -0.18008547034E+04  0.18008547034E+04  0.25500000920E-02 0. -1.
    10030    2    1    2    0    0  0.00000000000E+00  0.00000000000E+00 -0.11325001271E+04  0.24692092797E+04  0.21941827475E+04 0.  0.
        3    1    3    3  502    0 -0.39105766525E+03 -0.47373711414E+03  0.45667202014E+03  0.76544254849E+03  0.10100000352E+00 0.  1.
       -3    1    3    3    0  502  0.39105766525E+03  0.47373711414E+03 -0.15891721472E+04  0.17037667312E+04  0.10100000352E+00 0. -1.
</event>
<event>
 5   0  0.6414768E-05  0.2207104E+04  0.7818609E-02  0.8515477E-01
       -2   -1    0    0    0  501  0.00000000000E+00  0.00000000000E+00  0.10231104438E+04  0.10231104438E+04  0.25500000920E-02 0. -1.
        2   -1    0    0  501    0  0.00000000000E+00  0.00000000000E+00 -0.11903177945E+04  0.11903177945E+04  0.25500000920E-02 0.  1.
    10030    2    1    2    0    0  0.00000000000E+00  0.00000000000E+00 -0.16720735066E+03  0.22134282383E+04  0.22071035925E+04 0.  0.
        2    1    3    3  502    0  0.21537704670E+03 -0.50781783947E+03 -0.10421461159E+04  0.11791245724E+04  0.25500000920E-02 0.  1.
       -2    1    3    3    0  502 -0.21537704670E+03  0.50781783947E+03  0.87493876527E+03  0.10343036659E+04  0.25500000920E-02 0. -1.
</event>
<event>
 5   0  0.2820239E-05  0.2204264E+04  0.7818609E-02  0.8516655E-01
        1   -1    0    0  501    0  0.00000000000E+00  0.00000000000E+00  0.13114835838E+04  0.13114835838E+04  0.50400001928E-02 0.  1.
       -1   -1    0    0    0  501  0.00000000000E+00  0.00000000000E+00 -0.92619906819E+03  0.92619906821E+03  0.50400001928E-02 0. -1.
    10030    2    1    2    0    0  0.00000000000E+00  0.00000000000E+00  0.38528451560E+03  0.22376826520E+04  0.22042639346E+04 0.  0.
        3    1    3    3  502    0  0.15057214519E+03 -0.96114243769E+03 -0.33311713724E+03  0.10283159990E+04  0.10100000352E+00 0. -1.
       -3    1    3    3    0  502 -0.15057214519E+03  0.96114243769E+03  0.71840165285E+03  0.12093666530E+04  0.10100000352E+00 0.  1.
</event>
<event>
 5   0  0.2910318E-05  0.2196590E+04  0.7818609E-02  0.8519849E-01
        1   -1    0    0  501    0  0.00000000000E+00  0.00000000000E+00  0.10292930484E+04  0.10292930484E+04  0.50400001928E-02 0. -1.
       -1   -1    0    0    0  501  0.00000000000E+00  0.00000000000E+00 -0.11719229432E+04  0.11719229432E+04  0.50400001928E-02 0.  1.
    10030    2    1    2    0    0  0.00000000000E+00  0.00000000000E+00 -0.14262989482E+03  0.22012159916E+04  0.21965902109E+04 0.  0.
        5    1    3    3  502    0  0.27338012991E+03  0.98601598884E-01  0.99464188374E+03  0.10315383037E+04  0.46999998093E+01 0. -1.
       -5    1    3    3    0  502 -0.27338012991E+03 -0.98601598884E-01 -0.11372717786E+04  0.11696776878E+04  0.46999998093E+01 0.  1.
</event>
<event>
 5   0  0.6445740E-05  0.2209890E+04  0.7818609E-02  0.8514323E-01
        2   -1    0    0  501    0  0.00000000000E+00  0.00000000000E+00  0.21037449196E+04  0.21037449196E+04  0.25500000920E-02 0.  1.
       -2   -1    0    0    0  501  0.00000000000E+00  0.00000000000E+00 -0.58034792634E+03  0.58034792634E+03  0.25500000920E-02 0. -1.
    10030    2    1    2    0    0  0.00000000000E+00  0.00000000000E+00  0.15233969932E+04  0.26840928459E+04  0.22098904965E+04 0.  0.
        5    1    3    3  502    0 -0.10847666301E+04  0.13547156724E+03  0.95682976879E+03  0.14527960916E+04  0.46999998093E+01 0.  1.
       -5    1    3    3    0  502  0.10847666301E+04 -0.13547156724E+03  0.56656722445E+03  0.12312967543E+04  0.46999998093E+01 0. -1.
</event>
<event>
 5   0  0.2910318E-05  0.2166836E+04  0.7818609E-02  0.8532360E-01
       -1   -1    0    0    0  501  0.00000000000E+00  0.00000000000E+00  0.11690743439E+04  0.11690743439E+04  0.50400001928E-02 0. -1.
        1   -1    0    0  501    0  0.00000000000E+00  0.00000000000E+00 -0.10040375322E+04  0.10040375323E+04  0.50400001928E-02 0.  1.
    10030    2    1    2    0    0  0.00000000000E+00  0.00000000000E+00  0.16503681163E+03  0.21731118761E+04  0.21668359599E+04 0.  0.
        5    1    3    3  502    0  0.85153706772E+03  0.63102444462E+03  0.30781366766E+03  0.11036659691E+04  0.46999998093E+01 0. -1.
       -5    1    3    3    0  502 -0.85153706772E+03 -0.63102444462E+03 -0.14277685603E+03  0.10694459070E+04  0.46999998093E+01 0.  1.
</event>
<event>
 5   0  0.2929471E-05  0.2183929E+04  0.7818609E-02  0.8525147E-01
        1   -1    0    0  501    0  0.00000000000E+00  0.00000000000E+00  0.90363928403E+03  0.90363928405E+03  0.50400001928E-02 0.  1.
       -1   -1    0    0    0  501  0.00000000000E+00  0.00000000000E+00 -0.13195377737E+04  0.13195377737E+04  0.50400001928E-02 0. -1.
    10030    2    1    2    0    0  0.00000000000E+00  0.00000000000E+00 -0.41589848963E+03  0.22231770577E+04  0.21839287251E+04 0.  0.
        2    1    3    3  502    0 -0.91584304321E+03 -0.58568193160E+03 -0.31272795364E+03  0.11311898947E+04  0.25500000920E-02 0.  1.
       -2    1    3    3    0  502  0.91584304321E+03  0.58568193160E+03 -0.10317053599E+03  0.10919871631E+04  0.25500000920E-02 0. -1.
</event>
<event>
 5   0  0.6445740E-05  0.2227095E+04  0.7818609E-02  0.8507235E-01
       -2   -1    0    0    0  501  0.00000000000E+00  0.00000000000E+00  0.77807453511E+03  0.77807453511E+03  0.25500000920E-02 0. -1.
        2   -1    0    0  501    0  0.00000000000E+00  0.00000000000E+00 -0.15936619080E+04  0.15936619080E+04  0.25500000920E-02 0.  1.
    10030    2    1    2    0    0  0.00000000000E+00  0.00000000000E+00 -0.81558737294E+03  0.23717364432E+04  0.22270947427E+04 0.  0.
        5    1    3    3  502    0  0.72020142969E+01 -0.38397155699E+03 -0.15208942654E+04  0.15686387354E+04  0.46999998093E+01 0.  1.
       -5    1    3    3    0  502 -0.72020142969E+01  0.38397155699E+03  0.70530689250E+03  0.80309770775E+03  0.46999998093E+01 0. -1.
</event>
<event>
 5   0  0.2908031E-05  0.2200382E+04  0.7818609E-02  0.8518269E-01
       -1   -1    0    0    0  501  0.00000000000E+00  0.00000000000E+00  0.54910071277E+03  0.54910071279E+03  0.50400001928E-02 0.  1.
        1   -1    0    0  501    0  0.00000000000E+00  0.00000000000E+00 -0.22043675019E+04  0.22043675019E+04  0.50400001928E-02 0. -1.
    10030    2    1    2    0    0  0.00000000000E+00  0.00000000000E+00 -0.16552667891E+04  0.27534682147E+04  0.22003815728E+04 0.  0.
        1    1    3    3  502    0 -0.65033348828E+02 -0.55733518244E+03  0.35658372041E+03  0.66483365719E+03  0.50400001928E-02 0.  1.
       -1    1    3    3    0  502  0.65033348828E+02  0.55733518244E+03 -0.20118505095E+04  0.20886345575E+04  0.50400001928E-02 0. -1.
</event>
<event>
 5   0  0.6306919E-05  0.2209923E+04  0.7818609E-02  0.8514309E-01
       -2   -1    0    0    0  501  0.00000000000E+00  0.00000000000E+00  0.11176210056E+04  0.11176210056E+04  0.25500000920E-02 0.  1.
        2   -1    0    0  501    0  0.00000000000E+00  0.00000000000E+00 -0.10924450918E+04  0.10924450918E+04  0.25500000920E-02 0. -1.
    10030    2    1    2    0    0  0.00000000000E+00  0.00000000000E+00  0.25175913774E+02  0.22100660974E+04  0.22099226974E+04 0.  0.
        3    1    3    3  502    0  0.63062013122E+03  0.26201268537E+03  0.88132560977E+03  0.11149292524E+04  0.10100000352E+00 0.  1.
       -3    1    3    3    0  502 -0.63062013122E+03 -0.26201268537E+03 -0.85614969600E+03  0.10951368450E+04  0.10100000352E+00 0. -1.
</event>
<event>
 5   0  0.6293013E-05  0.2193554E+04  0.7818609E-02  0.8521116E-01
        2   -1    0    0  501    0  0.00000000000E+00  0.00000000000E+00  0.89586736417E+03  0.89586736417E+03  0.25500000920E-02 0. -1.
       -2   -1    0    0    0  501  0.00000000000E+00  0.00000000000E+00 -0.13427435360E+04  0.13427435361E+04  0.25500000920E-02 0.  1.
    10030    2    1    2    0    0  0.00000000000E+00  0.00000000000E+00 -0.44687617188E+03  0.22386109002E+04  0.21935542960E+04 0.  0.
        1    1    3    3  502    0  0.75891843454E+03  0.24772131429E+03 -0.99094766025E+03  0.12725173104E+04  0.50400001928E-02 0.  1.
       -1    1    3    3    0  502 -0.75891843454E+03 -0.24772131429E+03  0.54407148837E+03  0.96609358984E+03  0.50400001928E-02 0. -1.
</event>
<event>
 5   0  0.6306919E-05  0.2220373E+04  0.7818609E-02  0.8509996E-01
        2   -1    0    0  501    0  0.00000000000E+00  0.00000000000E+00  0.11801471926E+04  0.11801471926E+04  0.25500000920E-02 0. -1.
       -2   -1    0    0    0  501  0.00000000000E+00  0.00000000000E+00 -0.10443732507E+04  0.10443732507E+04  0.25500000920E-02 0.  1.
    10030    2    1    2    0    0  0.00000000000E+00  0.00000000000E+00  0.13577394195E+03  0.22245204433E+04  0.22203730857E+04 0.  0.
        3    1    3    3  502    0 -0.41649687937E+03 -0.93857654639E+03 -0.35494229730E+03  0.10864527733E+04  0.10100000352E+00 0.  1.
       -3    1    3    3    0  502  0.41649687937E+03  0.93857654639E+03  0.49071623926E+03  0.11380676701E+04  0.10100000352E+00 0. -1.
</event>
<event>
 5   0  0.2929471E-05  0.2183245E+04  0.7818609E-02  0.8525434E-01
       -1   -1    0    0    0  501  0.00000000000E+00  0.00000000000E+00  0.92461338410E+03  0.92461338412E+03  0.50400001928E-02 0.  1.
        1   -1    0    0  501    0  0.00000000000E+00  0.00000000000E+00 -0.12887982368E+04  0.12887982368E+04  0.50400001928E-02 0. -1.
    10030    2    1    2    0    0  0.00000000000E+00  0.00000000000E+00 -0.36418485268E+03  0.22134116209E+04  0.21832453817E+04 0.  0.
        2    1    3    3  502    0 -0.72371086818E+03  0.15929393874E+03  0.63054897757E+03  0.97299742690E+03  0.25500000920E-02 0.  1.
       -2    1    3    3    0  502  0.72371086818E+03 -0.15929393874E+03 -0.99473383025E+03  0.12404141940E+04  0.25500000920E-02 0. -1.
</event>
<event>
 5   0  0.6628798E-05  0.2198317E+04  0.7818609E-02  0.8519129E-01
       -2   -1    0    0    0  501  0.00000000000E+00  0.00000000000E+00  0.62591497924E+03  0.62591497925E+03  0.25500000920E-02 0. -1.
        2   -1    0    0  501    0  0.00000000000E+00  0.00000000000E+00 -0.19302134475E+04  0.19302134475E+04  0.25500000920E-02 0.  1.
    10030    2    1    2    0    0  0.00000000000E+00  0.00000000000E+00 -0.13042984682E+04  0.25561284267E+04  0.21983170926E+04 0.  0.
        4    1    3    3  502    0  0.48376131543E+03 -0.16905388673E+03  0.47851363253E+03  0.70112847350E+03  0.12699999809E+01 0. -1.
       -4    1    3    3    0  502 -0.48376131543E+03  0.16905388673E+03 -0.17828121007E+04  0.18549999532E+04  0.12699999809E+01 0.  1.
</event>
<event>
 5   0  0.2910318E-05  0.2129123E+04  0.7818609E-02  0.8548522E-01
       -1   -1    0    0    0  501  0.00000000000E+00  0.00000000000E+00  0.84659357129E+03  0.84659357131E+03  0.50400001928E-02 0. -1.
        1   -1    0    0  501    0  0.00000000000E+00  0.00000000000E+00 -0.13386483836E+04  0.13386483836E+04  0.50400001928E-02 0.  1.
    10030    2    1    2    0    0  0.00000000000E+00  0.00000000000E+00 -0.49205481226E+03  0.21852419549E+04  0.21291229328E+04 0.  0.
        5    1    3    3  502    0 -0.84856947842E+03 -0.12535350924E+03  0.40105465936E+03  0.94691635944E+03  0.46999998093E+01 0. -1.
       -5    1    3    3    0  502  0.84856947842E+03  0.12535350924E+03 -0.89310947162E+03  0.12383255954E+04  0.46999998093E+01 0.  1.
</event>
<event>
 5   0  0.2929471E-05  0.2212433E+04  0.7818609E-02  0.8513271E-01
        1   -1    0    0  501    0  0.00000000000E+00  0.00000000000E+00  0.13615689297E+04  0.13615689297E+04  0.50400001928E-02 0.  1.
       -1   -1    0    0    0  501  0.00000000000E+00  0.00000000000E+00 -0.89875344737E+03  0.89875344738E+03  0.50400001928E-02 0. -1.
    10030    2    1    2    0    0  0.00000000000E+00  0.00000000000E+00  0.46281548229E+03  0.22603223770E+04  0.22124328414E+04 0.  0.
        2    1    3    3  502    0 -0.10917833666E+04 -0.80875129739E+02  0.69281032507E+02  0.10969647066E+04  0.25500000920E-02 0.  1.
       -2    1    3    3    0  502  0.10917833666E+04  0.80875129739E+02  0.39353444978E+03  0.11633576704E+04  0.25500000920E-02 0. -1.
</event>
<event>
 5   0  0.2245375E-05  0.2229785E+04  0.7818609E-02  0.8506132E-01
       -3   -1    0    0    0  501  0.00000000000E+00  0.00000000000E+00  0.16056074774E+04  0.16056074806E+04  0.10100000352E+00 0.  1.
        3   -1    0    0  501    0  0.00000000000E+00  0.00000000000E+00 -0.77415268615E+03  0.77415269274E+03  0.10100000352E+00 0. -1.
    10030    2    1    2    0    0  0.00000000000E+00  0.00000000000E+00  0.83145479128E+03  0.23797601733E+04  0.22297850598E+04 0.  0.
        1    1    3    3  502    0 -0.62108917739E+03 -0.91094083930E+03  0.23899877852E+03  0.11281335892E+04  0.50400001928E-02 0.  1.
       -1    1    3    3    0  502  0.62108917739E+03  0.91094083930E+03  0.59245601276E+03  0.12516265841E+04  0.50400001928E-02 0. -1.
</event>
<event>
 5   0  0.2929471E-05  0.2172879E+04  0.7818609E-02  0.8529802E-01
        1   -1    0    0  501    0  0.00000000000E+00  0.00000000000E+00  0.17896644720E+04  0.17896644720E+04  0.50400001928E-02 0.  1.
       -1   -1    0    0    0  501  0.00000000000E+00  0.00000000000E+00 -0.65953759211E+03  0.65953759213E+03  0.50400001928E-02 0. -1.
    10030    2    1    2    0    0  0.00000000000E+00  0.00000000000E+00  0.11301268799E+04  0.24492020642E+04  0.21728791928E+04 0.  0.
        2    1    3    3  502    0  0.70482924047E+02 -0.15081635871E+03  0.17752029014E+04  0.17829915193E+04  0.25500000920E-02 0.  1.
       -2    1    3    3    0  502 -0.70482924047E+02  0.15081635871E+03 -0.64507602148E+03  0.66621054490E+03  0.25500000920E-02 0. -1.
</event>
<event>
 5   0  0.2820239E-05  0.2194195E+04  0.7818609E-02  0.8520848E-01
        1   -1    0    0  501    0  0.00000000000E+00  0.00000000000E+00  0.14104945785E+04  0.14104945785E+04  0.50400001928E-02 0. -1.
       -1   -1    0    0    0  501  0.00000000000E+00  0.00000000000E+00 -0.85333364424E+03  0.85333364426E+03  0.50400001928E-02 0.  1.
    10030    2    1    2    0    0  0.00000000000E+00  0.00000000000E+00  0.55716093422E+03  0.22638282227E+04  0.21941945938E+04 0.  0.
        3    1    3    3  502    0 -0.63279878742E+03  0.64058616342E+03  0.92523870628E+03  0.12910660757E+04  0.10100000352E+00 0. -1.
       -3    1    3    3    0  502  0.63279878742E+03 -0.64058616342E+03 -0.36807777206E+03  0.97276214699E+03  0.10100000352E+00 0.  1.
</event>
<event>
 5   0  0.2910318E-05  0.2215004E+04  0.7818609E-02  0.8512209E-01
        1   -1    0    0  501    0  0.00000000000E+00  0.00000000000E+00  0.16078262753E+04  0.16078262753E+04  0.50400001928E-02 0. -1.
       -1   -1    0    0    0  501  0.00000000000E+00  0.00000000000E+00 -0.76286857507E+03  0.76286857508E+03  0.50400001928E-02 0.  1.
    10030    2    1    2    0    0  0.00000000000E+00  0.00000000000E+00  0.84495770020E+03  0.23706948504E+04  0.22150035120E+04 0.  0.
        5    1    3    3  502    0  0.99370421935E+03  0.40559677026E+03  0.71477023805E+03  0.12895252610E+04  0.46999998093E+01 0. -1.
       -5    1    3    3    0  502 -0.99370421935E+03 -0.40559677026E+03  0.13018746215E+03  0.10811695893E+04  0.46999998093E+01 0.  1.
</event>
<event>
 5   0  0.6445740E-05  0.2156350E+04  0.7818609E-02  0.8536819E-01
       -2   -1    0    0    0  501  0.00000000000E+00  0.00000000000E+00  0.91756291584E+03  0.91756291585E+03  0.25500000920E-02 0.  1.
        2   -1    0    0  501    0  0.00000000000E+00  0.00000000000E+00 -0.12669011732E+04  0.12669011732E+04  0.25500000920E-02 0. -1.
    10030    2    1    2    0    0  0.00000000000E+00  0.00000000000E+00 -0.34933825738E+03  0.21844640891E+04  0.21563501892E+04 0.  0.
        5    1    3    3  502    0  0.50895339620E+03 -0.54302258344E+03 -0.96492450088E+03  0.12186092352E+04  0.46999998093E+01 0. -1.
       -5    1    3    3    0  502 -0.50895339620E+03  0.54302258344E+03  0.61558624350E+03  0.96585485391E+03  0.46999998093E+01 0.  1.
</event>
<event>
 5   0  0.2908031E-05  0.2192070E+04  0.7818609E-02  0.8521736E-01
       -1   -1    0    0    0  501  0.00000000000E+00  0.00000000000E+00  0.64233743444E+03  0.64233743446E+03  0.50400001928E-02 0.  1.
        1   -1    0    0  501    0  0.00000000000E+00  0.00000000000E+00 -0.18701896284E+04  0.18701896284E+04  0.50400001928E-02 0. -1.
    10030    2    1    2    0    0  0.00000000000E+00  0.00000000000E+00 -0.12278521939E+04  0.25125270629E+04  0.21920700790E+04 0.  0.
        1    1    3    3  502    0 -0.10195450874E+02 -0.36934468545E+03  0.56880197090E+03  0.67827363653E+03  0.50400001928E-02 0.  1.
       -1    1    3    3    0  502  0.10195450874E+02  0.36934468545E+03 -0.17966541648E+04  0.18342534263E+04  0.50400001928E-02 0. -1.
</event>
<event>
 5   0  0.2910318E-05  0.2189993E+04  0.7818609E-02  0.8522605E-01
        1   -1    0    0  501    0  0.00000000000E+00  0.00000000000E+00  0.17978093963E+04  0.17978093963E+04  0.50400001928E-02 0.  1.
       -1   -1    0    0    0  501  0.00000000000E+00  0.00000000000E+00 -0.66693261956E+03  0.66693261958E+03  0.50400001928E-02 0. -1.
    10030    2    1    2    0    0  0.00000000000E+00  0.00000000000E+00  0.11308767767E+04  0.24647420159E+04  0.21899933609E+04 0.  0.
        5    1    3    3  502    0 -0.54691318209E+03  0.60123062579E+03  0.13912529667E+04  0.16112725411E+04  0.46999998093E+01 0.  1.
       -5    1    3    3    0  502  0.54691318209E+03 -0.60123062579E+03 -0.26037619000E+03  0.85346947482E+03  0.46999998093E+01 0. -1.
</event>
<event>
 5   0  0.2753631E-05  0.2193254E+04  0.7818609E-02  0.8521241E-01
       -1   -1    0    0    0  501  0.00000000000E+00  0.00000000000E+00  0.98311420896E+03  0.98311420897E+03  0.50400001928E-02 0.  1.
        1   -1    0    0  501    0  0.00000000000E+00  0.00000000000E+00 -0.12232459737E+04  0.12232459738E+04  0.50400001928E-02 0. -1.
    10030    2    1    2    0    0  0.00000000000E+00  0.00000000000E+00 -0.24013176479E+03  0.22063601827E+04  0.21932537453E+04 0.  0.
        4    1    3    3  502    0 -0.84269612662E+03 -0.63629022898E+03  0.17765344506E+03  0.10707774637E+04  0.12699999809E+01 0. -1.
       -4    1    3    3    0  502  0.84269612662E+03  0.63629022898E+03 -0.41778520985E+03  0.11355827190E+04  0.12699999809E+01 0.  1.
</event>
<event>
 5   0  0.2929471E-05  0.2289780E+04  0.7818609E-02  0.8481962E-01
       -1   -1    0    0    0  501  0.00000000000E+00  0.00000000000E+00  0.13500501969E+04  0.13500501969E+04  0.50400001928E-02 0.  1.
        1   -1    0    0  501    0  0.00000000000E+00  0.00000000000E+00 -0.97090672603E+03  0.97090672604E+03  0.50400001928E-02 0. -1.
    10030    2    1    2    0    0  0.00000000000E+00  0.00000000000E+00  0.37914347087E+03  0.23209569229E+04  0.22897797420E+04 0.  0.
        2    1    3    3  502    0  0.83985096171E+03  0.68361633366E+03  0.56623863175E+03  0.12220094589E+04  0.25500000920E-02 0.  1.
       -2    1    3    3    0  502 -0.83985096171E+03 -0.68361633366E+03 -0.18709516088E+03  0.10989474641E+04  0.25500000920E-02 0. -1.
</event>
<event>
 5   0  0.6414768E-05  0.2205005E+04  0.7818609E-02  0.8516348E-01
       -2   -1    0    0    0  501  0.00000000000E+00  0.00000000000E+00  0.81811202993E+03  0.81811202994E+03  0.25500000920E-02 0.  1.
        2   -1    0    0  501    0  0.00000000000E+00  0.00000000000E+00 -0.14857527596E+04  0.14857527596E+04  0.25500000920E-02 0. -1.
    10030    2    1    2    0    0  0.00000000000E+00  0.00000000000E+00 -0.66764072972E+03  0.23038647896E+04  0.22050054024E+04 0.  0.
        2    1    3    3  502    0  0.75765918787E+03  0.49123979352E+03 -0.99475388417E+03  0.13434653958E+04  0.25500000920E-02 0. -1.
       -2    1    3    3    0  502 -0.75765918787E+03 -0.49123979352E+03  0.32711315445E+03  0.96039939376E+03  0.25500000920E-02 0.  1.
</event>
<event>
 5   0  0.6306919E-05  0.2178992E+04  0.7818609E-02  0.8527223E-01
        2   -1    0    0  501    0  0.00000000000E+00  0.00000000000E+00  0.11679500310E+04  0.11679500310E+04  0.25500000920E-02 0.  1.
       -2   -1    0    0    0  501  0.00000000000E+00  0.00000000000E+00 -0.10163120661E+04  0.10163120661E+04  0.25500000920E-02 0. -1.
    10030    2    1    2    0    0  0.00000000000E+00  0.00000000000E+00  0.15163796487E+03  0.21842620971E+04  0.21789921608E+04 0.  0.
        3    1    3    3  502    0 -0.54884351594E+03 -0.21399253293E+03  0.99453962476E+03  0.11559113654E+04  0.10100000352E+00 0.  1.
       -3    1    3    3    0  502  0.54884351594E+03  0.21399253293E+03 -0.84290165989E+03  0.10283507318E+04  0.10100000352E+00 0. -1.
</event>
<event>
 5   0  0.6628798E-05  0.2230812E+04  0.7818609E-02  0.8505712E-01
       -2   -1    0    0    0  501  0.00000000000E+00  0.00000000000E+00  0.70976926051E+03  0.70976926051E+03  0.25500000920E-02 0. -1.
        2   -1    0    0  501    0  0.00000000000E+00  0.00000000000E+00 -0.17528668953E+04  0.17528668953E+04  0.25500000920E-02 0.  1.
    10030    2    1    2    0    0  0.00000000000E+00  0.00000000000E+00 -0.10430976348E+04  0.24626361558E+04  0.22308124440E+04 0.  0.
        4    1    3    3  502    0  0.23347661952E+03  0.19079151438E+03  0.66392687430E+03  0.72918669841E+03  0.12699999809E+01 0. -1.
       -4    1    3    3    0  502 -0.23347661952E+03 -0.19079151438E+03 -0.17070245091E+04  0.17334494574E+04  0.12699999809E+01 0.  1.
</event>
<event>
 5   0  0.2910318E-05  0.2216380E+04  0.7818609E-02  0.8511641E-01
        1   -1    0    0  501    0  0.00000000000E+00  0.00000000000E+00  0.13029165730E+04  0.13029165730E+04  0.50400001928E-02 0. -1.
       -1   -1    0    0    0  501  0.00000000000E+00  0.00000000000E+00 -0.94256618488E+03  0.94256618489E+03  0.50400001928E-02 0.  1.
    10030    2    1    2    0    0  0.00000000000E+00  0.00000000000E+00  0.36035038815E+03  0.22454827579E+04  0.22163800247E+04 0.  0.
        5    1    3    3  502    0 -0.10123265443E+04  0.44584361937E+03  0.24799783367E+03  0.11336254147E+04  0.46999998093E+01 0.  1.
       -5    1    3    3    0  502  0.10123265443E+04 -0.44584361937E+03  0.11235255448E+03  0.11118573433E+04  0.46999998093E+01 0. -1.
</event>
<event>
 5   0  0.6293013E-05  0.2188147E+04  0.7818609E-02  0.8523378E-01
       -2   -1    0    0    0  501  0.00000000000E+00  0.00000000000E+00  0.84915093687E+03  0.84915093688E+03  0.25500000920E-02 0. -1.
        2   -1    0    0  501    0  0.00000000000E+00  0.00000000000E+00 -0.14096391503E+04  0.14096391503E+04  0.25500000920E-02 0.  1.
    10030    2    1    2    0    0  0.00000000000E+00  0.00000000000E+00 -0.56048821339E+03  0.22587900871E+04  0.21881466177E+04 0.  0.
        1    1    3    3  502    0 -0.41631796600E+03  0.57198398185E+03 -0.11417597300E+04  0.13431684948E+04  0.50400001928E-02 0.  1.
       -1    1    3    3    0  502  0.41631796600E+03 -0.57198398185E+03  0.58127151662E+03  0.91562159235E+03  0.50400001928E-02 0. -1.
</event>
<event>
 5   0  0.6445740E-05  0.2176092E+04  0.7818609E-02  0.8528445E-01
        2   -1    0    0  501    0  0.00000000000E+00  0.00000000000E+00  0.13798178238E+04  0.13798178238E+04  0.25500000920E-02 0. -1.
       -2   -1    0    0    0  501  0.00000000000E+00  0.00000000000E+00 -0.85797159926E+03  0.85797159926E+03  0.25500000920E-02 0.  1.
    10030    2    1    2    0    0  0.00000000000E+00  0.00000000000E+00  0.52184622457E+03  0.22377894231E+04  0.21760923740E+04 0.  0.
        5    1    3    3  502    0 -0.89313757240E+02 -0.52252809892E+03 -0.71617918662E+03  0.89103719268E+03  0.46999998093E+01 0.  1.
       -5    1    3    3    0  502  0.89313757240E+02  0.52252809892E+03  0.12380254112E+04  0.13467522304E+04  0.46999998093E+01 0. -1.
</event>
<event>
 5   0  0.2753631E-05  0.2209425E+04  0.7818609E-02  0.8514515E-01
       -1   -1    0    0    0  501  0.00000000000E+00  0.00000000000E+00  0.12633411065E+04  0.12633411065E+04  0.50400001928E-02 0. -1.
        1   -1    0    0  501    0  0.00000000000E+00  0.00000000000E+00 -0.96600200003E+03  0.96600200005E+03  0.50400001928E-02 0.  1.
    10030    2    1    2    0    0  0.00000000000E+00  0.00000000000E+00  0.29733910647E+03  0.22293431066E+04  0.22094252969E+04 0.  0.
        4    1    3    3  502    0  0.80632929722E+03  0.56240773266E+03  0.65711599939E+03  0.11824857051E+04  0.12699999809E+01 0. -1.
       -4    1    3    3    0  502 -0.80632929722E+03 -0.56240773266E+03 -0.35977689293E+03  0.10468574014E+04  0.12699999809E+01 0.  1.
</event>
<event>
 5   0  0.2929471E-05  0.2179490E+04  0.7818609E-02  0.8527013E-01
        1   -1    0    0  501    0  0.00000000000E+00  0.00000000000E+00  0.10265260879E+04  0.10265260879E+04  0.50400001928E-02 0. -1.
       -1   -1    0    0    0  501  0.00000000000E+00  0.00000000000E+00 -0.11568575978E+04  0.11568575978E+04  0.50400001928E-02 0.  1.
    10030    2    1    2    0    0  0.00000000000E+00  0.00000000000E+00 -0.13033150994E+03  0.21833836857E+04  0.21794903112E+04 0.  0.
        2    1    3    3  502    0 -0.51593938929E+03 -0.87148679631E+03 -0.46820498509E+03  0.11157502398E+04  0.25500000920E-02 0.  1.
       -2    1    3    3    0  502  0.51593938929E+03  0.87148679631E+03  0.33787347514E+03  0.10676334459E+04  0.25500000920E-02 0. -1.
</event>
<event>
 5   0  0.2929471E-05  0.2154514E+04  0.7818609E-02  0.8537602E-01
       -1   -1    0    0    0  501  0.00000000000E+00  0.00000000000E+00  0.22097358579E+04  0.22097358579E+04  0.50400001928E-02 0.  1.
        1   -1    0    0  501    0  0.00000000000E+00  0.00000000000E+00 -0.52516810902E+03  0.52516810905E+03  0.50400001928E-02 0. -1.
    10030    2    1    2    0    0  0.00000000000E+00  0.00000000000E+00  0.16845677488E+04  0.27349039669E+04  0.21545141466E+04 0.  0.
        2    1    3    3  502    0 -0.40487196223E+03 -0.98917393340E+03  0.67152270027E+03  0.12622714103E+04  0.25500000920E-02 0.  1.
       -2    1    3    3    0  502  0.40487196223E+03  0.98917393340E+03  0.10130450486E+04  0.14726325566E+04  0.25500000920E-02 0. -1.
</event>
<event>
 5   0  0.2820239E-05  0.2199931E+04  0.7818609E-02  0.8518457E-01
        1   -1    0    0  501    0  0.00000000000E+00  0.00000000000E+00  0.11644982564E+04  0.11644982564E+04  0.50400001928E-02 0.  1.
       -1   -1    0    0    0  501  0.00000000000E+00  0.00000000000E+00 -0.10390093574E+04  0.10390093574E+04  0.50400001928E-02 0. -1.
    10030    2    1    2    0    0  0.00000000000E+00  0.00000000000E+00  0.12548889903E+03  0.22035076138E+04  0.21999314399E+04 0.  0.
        3    1    3    3  502    0  0.59598674410E+02 -0.76994548904E+03 -0.72182735327E+03  0.10570727488E+04  0.10100000352E+00 0. -1.
       -3    1    3    3    0  502 -0.59598674410E+02  0.76994548904E+03  0.84731625230E+03  0.11464348650E+04  0.10100000352E+00 0.  1.
</event>
<event>
 5   0  0.2929471E-05  0.2225685E+04  0.7818609E-02  0.8507813E-01
        1   -1    0    0  501    0  0.00000000000E+00  0.00000000000E+00  0.13006722693E+04  0.13006722693E+04  0.50400001928E-02 0.  1.
       -1   -1    0    0    0  501  0.00000000000E+00  0.00000000000E+00 -0.95213684790E+03  0.95213684791E+03  0.50400001928E-02 0. -1.
    10030    2    1    2    0    0  0.00000000000E+00  0.00000000000E+00  0.34853542144E+03  0.22528091173E+04  0.22256846090E+04 0.  0.
        2    1    3    3  502    0  0.44526948431E+03 -0.70810190068E+03 -0.56866984020E+03  0.10114635943E+04  0.25500000920E-02 0. -1.
       -2    1    3    3    0  502 -0.44526948431E+03  0.70810190068E+03  0.91720526164E+03  0.12413455230E+04  0.25500000920E-02 0.  1.
</event>
<event>
 5   0  0.6414768E-05  0.2196807E+04  0.7818609E-02  0.8519758E-01
       -2   -1    0    0    0  501  0.00000000000E+00  0.00000000000E+00  0.12840336233E+04  0.12840336233E+04  0.25500000920E-02 0. -1.
        2   -1    0    0  501    0  0.00000000000E+00  0.00000000000E+00 -0.93960957154E+03  0.93960957155E+03  0.25500000920E-02 0.  1.
    10030    2    1    2    0    0  0.00000000000E+00  0.00000000000E+00  0.34442405178E+03  0.22236431949E+04  0.21968070308E+04 0.  0.
        2    1    3    3  502    0  0.60981290001E+03  0.75384948051E+03  0.69458753163E+03  0.11927332692E+04  0.25500000920E-02 0. -1.
       -2    1    3    3    0  502 -0.60981290001E+03 -0.75384948051E+03 -0.35016347985E+03  0.10309099257E+04  0.25500000920E-02 0.  1.
</event>
<event>
 5   0  0.6414768E-05  0.1982309E+04  0.7818609E-02  0.8614937E-01
       -2   -1    0    0    0  501  0.00000000000E+00  0.00000000000E+00  0.15725516879E+04  0.15725516879E+04  0.25500000920E-02 0.  1.
        2   -1    0    0  501    0  0.00000000000E+00  0.00000000000E+00 -0.62470912009E+03  0.62470912009E+03  0.25500000920E-02 0. -1.
    10030    2    1    2    0    0  0.00000000000E+00  0.00000000000E+00  0.94784256776E+03  0.21972608079E+04  0.19823091396E+04 0.  0.
        2    1    3    3  502    0  0.61982937839E+02  0.98395941403E+02 -0.61712098518E+03  0.62798244898E+03  0.25500000920E-02 0. -1.
       -2    1    3    3    0  502 -0.61982937839E+02 -0.98395941403E+02  0.15649635529E+04  0.15692783590E+04  0.25500000920E-02 0.  1.
</event>
<event>
 5   0  0.6306919E-05  0.2179404E+04  0.7818609E-02  0.8527050E-01
        2   -1    0    0  501    0  0.00000000000E+00  0.00000000000E+00  0.14554889956E+04  0.14554889956E+04  0.25500000920E-02 0.  1.
       -2   -1    0    0    0  501  0.00000000000E+00  0.00000000000E+00 -0.81584328742E+03  0.81584328742E+03  0.25500000920E-02 0. -1.
    10030    2    1    2    0    0  0.00000000000E+00  0.00000000000E+00  0.63964570818E+03  0.22713322830E+04  0.21794044388E+04 0.  0.
        3    1    3    3  502    0  0.59587636075E+03  0.78034190991E+03  0.81246531331E+03  0.12744026166E+04  0.10100000352E+00 0. -1.
       -3    1    3    3    0  502 -0.59587636075E+03 -0.78034190991E+03 -0.17281960513E+03  0.99692966642E+03  0.10100000352E+00 0.  1.
</event>
<event>
 5   0  0.2908031E-05  0.2189566E+04  0.7818609E-02  0.8522784E-01
        1   -1    0    0  501    0  0.00000000000E+00  0.00000000000E+00  0.60351813065E+03  0.60351813067E+03  0.50400001928E-02 0. -1.
       -1   -1    0    0    0  501  0.00000000000E+00  0.00000000000E+00 -0.19859381153E+04  0.19859381153E+04  0.50400001928E-02 0.  1.
    10030    2    1    2    0    0  0.00000000000E+00  0.00000000000E+00 -0.13824199846E+04  0.25894562460E+04  0.21895658556E+04 0.  0.
        1    1    3    3  502    0 -0.29671559145E+03 -0.32772270917E+03  0.49326056506E+03  0.66238078277E+03  0.50400001928E-02 0. -1.
       -1    1    3    3    0  502  0.29671559145E+03  0.32772270917E+03 -0.18756805497E+04  0.19270754632E+04  0.50400001928E-02 0.  1.
</event>
<event>
 5   0  0.2929471E-05  0.2187009E+04  0.7818609E-02  0.8523855E-01
        1   -1    0    0  501    0  0.00000000000E+00  0.00000000000E+00  0.14029416691E+04  0.14029416691E+04  0.50400001928E-02 0. -1.
       -1   -1    0    0    0  501  0.00000000000E+00  0.00000000000E+00 -0.85231796783E+03  0.85231796785E+03  0.50400001928E-02 0.  1.
    10030    2    1    2    0    0  0.00000000000E+00  0.00000000000E+00  0.55062370127E+03  0.22552596370E+04  0.21870092752E+04 0.  0.
        2    1    3    3  502    0  0.14717423734E+02  0.87555316118E+02 -0.84859509020E+03  0.85322691182E+03  0.25500000920E-02 0.  1.
       -2    1    3    3    0  502 -0.14717423734E+02 -0.87555316118E+02  0.13992187915E+04  0.14020327251E+04  0.25500000920E-02 0. -1.
</event>
<event>
 5   0  0.2929471E-05  0.2061734E+04  0.7818609E-02  0.8578290E-01
        1   -1    0    0  501    0  0.00000000000E+00  0.00000000000E+00  0.13424611121E+04  0.13424611122E+04  0.50400001928E-02 0.  1.
       -1   -1    0    0    0  501  0.00000000000E+00  0.00000000000E+00 -0.79159616689E+03  0.79159616690E+03  0.50400001928E-02 0. -1.
    10030    2    1    2    0    0  0.00000000000E+00  0.00000000000E+00  0.55086494526E+03  0.21340572791E+04  0.20617342900E+04 0.  0.
        2    1    3    3  502    0  0.13340858865E+02  0.66013613539E+03 -0.54400043949E+03  0.85550813785E+03  0.25500000920E-02 0. -1.
       -2    1    3    3    0  502 -0.13340858865E+02 -0.66013613539E+03  0.10948653847E+04  0.12785491412E+04  0.25500000920E-02 0.  1.
</event>
<event>
 5   0  0.6306919E-05  0.2341973E+04  0.7818609E-02  0.8461553E-01
        2   -1    0    0  501    0  0.00000000000E+00  0.00000000000E+00  0.76455926906E+03  0.76455926906E+03  0.25500000920E-02 0. -1.
       -2   -1    0    0    0  501  0.00000000000E+00  0.00000000000E+00 -0.17934640633E+04  0.17934640633E+04  0.25500000920E-02 0.  1.
    10030    2    1    2    0    0  0.00000000000E+00  0.00000000000E+00 -0.10289047943E+04  0.25580233324E+04  0.23419731624E+04 0.  0.
        3    1    3    3  502    0  0.92220037737E+03  0.59456563161E+02 -0.12999785321E+04  0.15949711010E+04  0.10100000352E+00 0. -1.
       -3    1    3    3    0  502 -0.92220037737E+03 -0.59456563161E+02  0.27107373780E+03  0.96305223142E+03  0.10100000352E+00 0.  1.
</event>
<event>
 5   0  0.6414768E-05  0.2295801E+04  0.7818609E-02  0.8479579E-01
        2   -1    0    0  501    0  0.00000000000E+00  0.00000000000E+00  0.15673455451E+04  0.15673455451E+04  0.25500000920E-02 0. -1.
       -2   -1    0    0    0  501  0.00000000000E+00  0.00000000000E+00 -0.84070509810E+03  0.84070509810E+03  0.25500000920E-02 0.  1.
    10030    2    1    2    0    0  0.00000000000E+00  0.00000000000E+00  0.72664044705E+03  0.24080506432E+04  0.22958008540E+04 0.  0.
        2    1    3    3  502    0 -0.67786158650E+02 -0.95374217160E+03 -0.30291816384E+03  0.10029847991E+04  0.25500000920E-02 0.  1.
       -2    1    3    3    0  502  0.67786158650E+02  0.95374217160E+03  0.10295586109E+04  0.14050658442E+04  0.25500000920E-02 0. -1.
</event>
<event>
 5   0  0.6414768E-05  0.2172263E+04  0.7818609E-02  0.8530062E-01
        2   -1    0    0  501    0  0.00000000000E+00  0.00000000000E+00  0.22486465385E+04  0.22486465385E+04  0.25500000920E-02 0.  1.
       -2   -1    0    0    0  501  0.00000000000E+00  0.00000000000E+00 -0.52461875443E+03  0.52461875443E+03  0.25500000920E-02 0. -1.
    10030    2    1    2    0    0  0.00000000000E+00  0.00000000000E+00  0.17240277841E+04  0.27732652930E+04  0.21722634704E+04 0.  0.
        2    1    3    3  502    0 -0.72471287439E+03 -0.71857490488E+03  0.13364882076E+04  0.16815942951E+04  0.25500000920E-02 0.  1.
       -2    1    3    3    0  502  0.72471287439E+03  0.71857490488E+03  0.38753957650E+03  0.10916709979E+04  0.25500000920E-02 0. -1.
</event>
<event>
 5   0  0.2753631E-05  0.1802696E+04  0.7818609E-02  0.8704867E-01
       -1   -1    0    0    0  501  0.00000000000E+00  0.00000000000E+00  0.12725286271E+04  0.12725286271E+04  0.50400001928E-02 0.  1.
        1   -1    0    0  501    0  0.00000000000E+00  0.00000000000E+00 -0.63843601074E+03  0.63843601076E+03  0.50400001928E-02 0. -1.
    10030    2    1    2    0    0  0.00000000000E+00  0.00000000000E+00  0.63409261639E+03  0.19109646379E+04  0.18026958704E+04 0.  0.
        4    1    3    3  502    0 -0.18351875303E+03  0.67311189237E+03 -0.28790100693E+03  0.75474986257E+03  0.12699999809E+01 0. -1.
       -4    1    3    3    0  502  0.18351875303E+03 -0.67311189237E+03  0.92199362332E+03  0.11562147753E+04  0.12699999809E+01 0.  1.
</event>
<event>
 5   0  0.2245375E-05  0.2204986E+04  0.7818609E-02  0.8516356E-01
       -3   -1    0    0    0  501  0.00000000000E+00  0.00000000000E+00  0.47637232007E+03  0.47637233077E+03  0.10100000352E+00 0.  1.
        3   -1    0    0  501    0  0.00000000000E+00  0.00000000000E+00 -0.25515566338E+04  0.25515566358E+04  0.10100000352E+00 0. -1.
    10030    2    1    2    0    0  0.00000000000E+00  0.00000000000E+00 -0.20751843137E+04  0.30279289665E+04  0.22049861429E+04 0.  0.
        2    1    3    3  502    0 -0.81194968287E+03 -0.18115356385E+03 -0.20310780056E+04  0.21948477774E+04  0.25500000920E-02 0. -1.
       -2    1    3    3    0  502  0.81194968287E+03  0.18115356385E+03 -0.44106308075E+02  0.83308118910E+03  0.25500000920E-02 0.  1.
</event>
<event>
 5   0  0.6293013E-05  0.2208004E+04  0.7818609E-02  0.8515104E-01
       -2   -1    0    0    0  501  0.00000000000E+00  0.00000000000E+00  0.18347148980E+04  0.18347148980E+04  0.25500000920E-02 0.  1.
        2   -1    0    0  501    0  0.00000000000E+00  0.00000000000E+00 -0.66431027424E+03  0.66431027425E+03  0.25500000920E-02 0. -1.
    10030    2    1    2    0    0  0.00000000000E+00  0.00000000000E+00  0.11704046237E+04  0.24990251722E+04  0.22080035843E+04 0.  0.
        1    1    3    3  502    0  0.95759900620E+03  0.39347717285E+03  0.10191418780E+04  0.14527457829E+04  0.50400001928E-02 0.  1.
       -1    1    3    3    0  502 -0.95759900620E+03 -0.39347717285E+03  0.15126274570E+03  0.10462793893E+04  0.50400001928E-02 0. -1.
</event>
<event>
 5   0  0.6306919E-05  0.2181168E+04  0.7818609E-02  0.8526308E-01
       -2   -1    0    0    0  501  0.00000000000E+00  0.00000000000E+00  0.11277265244E+04  0.11277265244E+04  0.25500000920E-02 0.  1.
        2   -1    0    0  501    0  0.00000000000E+00  0.00000000000E+00 -0.10546647724E+04  0.10546647724E+04  0.25500000920E-02 0. -1.
    10030    2    1    2    0    0  0.00000000000E+00  0.00000000000E+00  0.73061751946E+02  0.21823912968E+04  0.21811679790E+04 0.  0.
        3    1    3    3  502    0  0.43195196347E+03  0.66722336474E+03 -0.71061673690E+03  0.10661827583E+04  0.10100000352E+00 0. -1.
       -3    1    3    3    0  502 -0.43195196347E+03 -0.66722336474E+03  0.78367848885E+03  0.11162085384E+04  0.10100000352E+00 0.  1.
</event>
<event>
 5   0  0.2929471E-05  0.2176790E+04  0.7818609E-02  0.8528151E-01
       -1   -1    0    0    0  501  0.00000000000E+00  0.00000000000E+00  0.99101312048E+03  0.99101312049E+03  0.50400001928E-02 0.  1.
        1   -1    0    0  501    0  0.00000000000E+00  0.00000000000E+00 -0.11953464468E+04  0.11953464468E+04  0.50400001928E-02 0. -1.
    10030    2    1    2    0    0  0.00000000000E+00  0.00000000000E+00 -0.20433332635E+03  0.21863595673E+04  0.21767903090E+04 0.  0.
        2    1    3    3  502    0  0.24385769538E+02  0.85729315608E+03 -0.77523027213E+03  0.11560831268E+04  0.25500000920E-02 0. -1.
       -2    1    3    3    0  502 -0.24385769538E+02 -0.85729315608E+03  0.57089694578E+03  0.10302764405E+04  0.25500000920E-02 0.  1.
</event>
<event>
 5   0  0.6306919E-05  0.2196212E+04  0.7818609E-02  0.8520006E-01
        2   -1    0    0  501    0  0.00000000000E+00  0.00000000000E+00  0.10027738473E+04  0.10027738473E+04  0.25500000920E-02 0.  1.
       -2   -1    0    0    0  501  0.00000000000E+00  0.00000000000E+00 -0.12025013763E+04  0.12025013763E+04  0.25500000920E-02 0. -1.
    10030    2    1    2    0    0  0.00000000000E+00  0.00000000000E+00 -0.19972752905E+03  0.22052752236E+04  0.21962121314E+04 0.  0.
        3    1    3    3  502    0  0.95259108638E+03  0.20797648969E+03 -0.60707490759E+03  0.11485747480E+04  0.10100000352E+00 0. -1.
       -3    1    3    3    0  502 -0.95259108638E+03 -0.20797648969E+03  0.40734737854E+03  0.10567004756E+04  0.10100000352E+00 0.  1.
</event>
<event>
 5   0  0.6414768E-05  0.2235353E+04  0.7818609E-02  0.8503856E-01
        2   -1    0    0  501    0  0.00000000000E+00  0.00000000000E+00  0.14464018039E+04  0.14464018039E+04  0.25500000920E-02 0.  1.
       -2   -1    0    0    0  501  0.00000000000E+00  0.00000000000E+00 -0.86366059619E+03  0.86366059619E+03  0.25500000920E-02 0. -1.
    10030    2    1    2    0    0  0.00000000000E+00  0.00000000000E+00  0.58274120776E+03  0.23100624001E+04  0.22353525398E+04 0.  0.
        2    1    3    3  502    0  0.96118745253E+02 -0.11119091022E+04  0.22919689893E+03  0.11393471303E+04  0.25500000920E-02 0. -1.
       -2    1    3    3    0  502 -0.96118745253E+02  0.11119091022E+04  0.35354430883E+03  0.11707152699E+04  0.25500000920E-02 0.  1.
</event>
<event>
 5   0  0.6445740E-05  0.2190711E+04  0.7818609E-02  0.8522304E-01
        2   -1    0    0  501    0  0.00000000000E+00  0.00000000000E+00  0.99191393799E+03  0.99191393800E+03  0.25500000920E-02 0.  1.
       -2   -1    0    0    0  501  0.00000000000E+00  0.00000000000E+00 -0.12095849639E+04  0.12095849639E+04  0.25500000920E-02 0. -1.
    10030    2    1    2    0    0  0.00000000000E+00  0.00000000000E+00 -0.21767102587E+03  0.22014989019E+04  0.21907114688E+04 0.  0.
        5    1    3    3  502    0  0.42901345893E+03  0.10064055102E+04 -0.16274195235E+03  0.11060793968E+04  0.46999998093E+01 0. -1.
       -5    1    3    3    0  502 -0.42901345893E+03 -0.10064055102E+04 -0.54929073520E+02  0.10954195051E+04  0.46999998093E+01 0.  1.
</event>
<event>
 5   0  0.2910318E-05  0.2186310E+04  0.7818609E-02  0.8524148E-01
        1   -1    0    0  501    0  0.00000000000E+00  0.00000000000E+00  0.13867179567E+04  0.13867179568E+04  0.50400001928E-02 0.  1.
       -1   -1    0    0    0  501  0.00000000000E+00  0.00000000000E+00 -0.86173783651E+03  0.86173783652E+03  0.50400001928E-02 0. -1.
    10030    2    1    2    0    0  0.00000000000E+00  0.00000000000E+00  0.52498012024E+03  0.22484557933E+04  0.21863095224E+04 0.  0.
        5    1    3    3  502    0  0.58489243859E+03 -0.79060434059E+03  0.75335262564E+03  0.12388368160E+04  0.46999998093E+01 0.  1.
       -5    1    3    3    0  502 -0.58489243859E+03  0.79060434059E+03 -0.22837250540E+03  0.10096189773E+04  0.46999998093E+01 0. -1.
</event>
<event>
 5   0  0.2910318E-05  0.2064366E+04  0.7818609E-02  0.8577105E-01
        1   -1    0    0  501    0  0.00000000000E+00  0.00000000000E+00  0.12426671351E+04  0.12426671351E+04  0.50400001928E-02 0. -1.
       -1   -1    0    0    0  501  0.00000000000E+00  0.00000000000E+00 -0.85735120407E+03  0.85735120409E+03  0.50400001928E-02 0.  1.
    10030    2    1    2    0    0  0.00000000000E+00  0.00000000000E+00  0.38531593099E+03  0.21000183392E+04  0.20643664060E+04 0.  0.
        5    1    3    3  502    0 -0.30093196631E+02  0.99956327615E+00 -0.85689346839E+03  0.85743519042E+03  0.46999998093E+01 0.  1.
       -5    1    3    3    0  502  0.30093196631E+02 -0.99956327615E+00  0.12422093994E+04  0.12425831487E+04  0.46999998093E+01 0. -1.
</event>
<event>
 5   0  0.6293013E-05  0.2197764E+04  0.7818609E-02  0.8519359E-01
       -2   -1    0    0    0  501  0.00000000000E+00  0.00000000000E+00  0.68685708958E+03  0.68685708959E+03  0.25500000920E-02 0. -1.
        2   -1    0    0  501    0  0.00000000000E+00  0.00000000000E+00 -0.17580679940E+04  0.17580679940E+04  0.25500000920E-02 0.  1.
    10030    2    1    2    0    0  0.00000000000E+00  0.00000000000E+00 -0.10712109044E+04  0.24449250836E+04  0.21977638323E+04 0.  0.
        1    1    3    3  502    0  0.25597180052E+03 -0.46183347410E+03  0.53647952820E+03  0.75274298712E+03  0.50400001928E-02 0. -1.
       -1    1    3    3    0  502 -0.25597180052E+03  0.46183347410E+03 -0.16076904326E+04  0.16921820965E+04  0.50400001928E-02 0.  1.
</event>
<event>
 5   0  0.2753631E-05  0.2205203E+04  0.7818609E-02  0.8516266E-01
       -1   -1    0    0    0  501  0.00000000000E+00  0.00000000000E+00  0.91941030175E+03  0.91941030176E+03  0.50400001928E-02 0. -1.
        1   -1    0    0  501    0  0.00000000000E+00  0.00000000000E+00 -0.13222929749E+04  0.13222929749E+04  0.50400001928E-02 0.  1.
    10030    2    1    2    0    0  0.00000000000E+00  0.00000000000E+00 -0.40288267312E+03  0.22417032766E+04  0.22052027418E+04 0.  0.
        4    1    3    3  502    0 -0.23340262566E+03 -0.87225817195E+03 -0.84470036783E+03  0.12364592304E+04  0.12699999809E+01 0.  1.
       -4    1    3    3    0  502  0.23340262566E+03  0.87225817195E+03  0.44181769471E+03  0.10052440462E+04  0.12699999809E+01 0. -1.
</event>
<event>
 5   0  0.6414768E-05  0.2191492E+04  0.7818609E-02  0.8521978E-01
        2   -1    0    0  501    0  0.00000000000E+00  0.00000000000E+00  0.96662448664E+03  0.96662448664E+03  0.25500000920E-02 0.  1.
       -2   -1    0    0    0  501  0.00000000000E+00  0.00000000000E+00 -0.12421159274E+04  0.12421159274E+04  0.25500000920E-02 0. -1.
    10030    2    1    2    0    0  0.00000000000E+00  0.00000000000E+00 -0.27549144074E+03  0.22087404140E+04  0.21914923414E+04 0.  0.
        2    1    3    3  502    0  0.76419812999E+03 -0.78370957048E+03 -0.18773648090E+03  0.11106054470E+04  0.25500000920E-02 0.  1.
       -2    1    3    3    0  502 -0.76419812999E+03  0.78370957048E+03 -0.87754959842E+02  0.10981349670E+04  0.25500000920E-02 0. -1.
</event>
<event>
 5   0  0.2908031E-05  0.2164186E+04  0.7818609E-02  0.8533484E-01
       -1   -1    0    0    0  501  0.00000000000E+00  0.00000000000E+00  0.65120522969E+03  0.65120522971E+03  0.50400001928E-02 0.  1.
        1   -1    0    0  501    0  0.00000000000E+00  0.00000000000E+00 -0.17980888653E+04  0.17980888653E+04  0.50400001928E-02 0. -1.
    10030    2    1    2    0    0  0.00000000000E+00  0.00000000000E+00 -0.11468836356E+04  0.24492940950E+04  0.21641856414E+04 0.  0.
        1    1    3    3  502    0 -0.92993917427E+03 -0.32839518808E+03 -0.69475080057E+02  0.98866427778E+03  0.50400001928E-02 0.  1.
       -1    1    3    3    0  502  0.92993917427E+03  0.32839518808E+03 -0.10774085556E+04  0.14606298173E+04  0.50400001928E-02 0. -1.
</event>
<event>
 5   0  0.6628798E-05  0.2204247E+04  0.7818609E-02  0.8516663E-01
       -2   -1    0    0    0  501  0.00000000000E+00  0.00000000000E+00  0.97953310436E+03  0.97953310436E+03  0.25500000920E-02 0.  1.
        2   -1    0    0  501    0  0.00000000000E+00  0.00000000000E+00 -0.12400558419E+04  0.12400558419E+04  0.25500000920E-02 0. -1.
    10030    2    1    2    0    0  0.00000000000E+00  0.00000000000E+00 -0.26052273753E+03  0.22195889463E+04  0.22042465818E+04 0.  0.
        4    1    3    3  502    0 -0.13759922411E+03  0.92104320816E+03  0.46326467971E+03  0.10401297583E+04  0.12699999809E+01 0.  1.
       -4    1    3    3    0  502  0.13759922411E+03 -0.92104320816E+03 -0.72378741724E+03  0.11794591879E+04  0.12699999809E+01 0. -1.
</event>
<event>
 5   0  0.2753631E-05  0.2212740E+04  0.7818609E-02  0.8513144E-01
        1   -1    0    0  501    0  0.00000000000E+00  0.00000000000E+00  0.21885065296E+04  0.21885065296E+04  0.50400001928E-02 0. -1.
       -1   -1    0    0    0  501  0.00000000000E+00  0.00000000000E+00 -0.55931067064E+03  0.55931067066E+03  0.50400001928E-02 0.  1.
    10030    2    1    2    0    0  0.00000000000E+00  0.00000000000E+00  0.16291958590E+04  0.27478172003E+04  0.22127404320E+04 0.  0.
        4    1    3    3  502    0 -0.48405614994E+03  0.11579966137E+03  0.20416315631E+04  0.21014235580E+04  0.12699999809E+01 0. -1.
       -4    1    3    3    0  502  0.48405614994E+03 -0.11579966137E+03 -0.41243570410E+03  0.64639364228E+03  0.12699999809E+01 0.  1.
</event>
<event>
 5   0  0.6445740E-05  0.2449737E+04  0.7818609E-02  0.8421114E-01
       -2   -1    0    0    0  501  0.00000000000E+00  0.00000000000E+00  0.66477229281E+03  0.66477229282E+03  0.25500000920E-02 0. -1.
        2   -1    0    0  501    0  0.00000000000E+00  0.00000000000E+00 -0.22568671712E+04  0.22568671712E+04  0.25500000920E-02 0.  1.
    10030    2    1    2    0    0  0.00000000000E+00  0.00000000000E+00 -0.15920948784E+04  0.29216394640E+04  0.24497369361E+04 0.  0.
        5    1    3    3  502    0 -0.31456252946E+03 -0.71843606725E+03 -0.19181256820E+04  0.20722760891E+04  0.46999998093E+01 0.  1.
       -5    1    3    3    0  502  0.31456252946E+03  0.71843606725E+03  0.32603080363E+03  0.84936337487E+03  0.46999998093E+01 0. -1.
</event>
<event>
 5   0  0.2753631E-05  0.2028312E+04  0.7818609E-02  0.8593497E-01
        1   -1    0    0  501    0  0.00000000000E+00  0.00000000000E+00  0.20228645123E+04  0.20228645123E+04  0.50400001928E-02 0. -1.
       -1   -1    0    0    0  501  0.00000000000E+00  0.00000000000E+00 -0.50844372826E+03  0.50844372829E+03  0.50400001928E-02 0.  1.
    10030    2    1    2    0    0  0.00000000000E+00  0.00000000000E+00  0.15144207840E+04  0.25313082406E+04  0.20283123768E+04 0.  0.
        4    1    3    3  502    0 -0.42037186918E+03  0.88607451938E+03  0.10794488506E+04  0.14584416328E+04  0.12699999809E+01 0. -1.
       -4    1    3    3    0  502  0.42037186918E+03 -0.88607451938E+03  0.43497193336E+03  0.10728666077E+04  0.12699999809E+01 0.  1.
</event>
<event>
 5   0  0.2910318E-05  0.2193147E+04  0.7818609E-02  0.8521286E-01
       -1   -1    0    0    0  501  0.00000000000E+00  0.00000000000E+00  0.12227359805E+04  0.12227359805E+04  0.50400001928E-02 0.  1.
        1   -1    0    0  501    0  0.00000000000E+00  0.00000000000E+00 -0.98342829984E+03  0.98342829986E+03  0.50400001928E-02 0. -1.
    10030    2    1    2    0    0  0.00000000000E+00  0.00000000000E+00  0.23930768066E+03  0.22061642804E+04  0.21931467498E+04 0.  0.
        5    1    3    3  502    0  0.29493170151E+03  0.10516532380E+04  0.21765816601E+03  0.11137128933E+04  0.46999998093E+01 0.  1.
       -5    1    3    3    0  502 -0.29493170151E+03 -0.10516532380E+04  0.21649514648E+02  0.10924513870E+04  0.46999998093E+01 0. -1.
</event>
<event>
 5   0  0.6293013E-05  0.1987652E+04  0.7818609E-02  0.8612416E-01
       -2   -1    0    0    0  501  0.00000000000E+00  0.00000000000E+00  0.56940135252E+03  0.56940135253E+03  0.25500000920E-02 0.  1.
        2   -1    0    0  501    0  0.00000000000E+00  0.00000000000E+00 -0.17346109486E+04  0.17346109486E+04  0.25500000920E-02 0. -1.
    10030    2    1    2    0    0  0.00000000000E+00  0.00000000000E+00 -0.11652095961E+04  0.23040123011E+04  0.19876517001E+04 0.  0.
        1    1    3    3  502    0 -0.66986877219E+03  0.16931431369E+03 -0.14106548230E+04  0.15707764126E+04  0.50400001928E-02 0. -1.
       -1    1    3    3    0  502  0.66986877219E+03 -0.16931431369E+03  0.24544522691E+03  0.73323588852E+03  0.50400001928E-02 0.  1.
</event>
<event>
 5   0  0.2820239E-05  0.2203039E+04  0.7818609E-02  0.8517164E-01
        1   -1    0    0  501    0  0.00000000000E+00  0.00000000000E+00  0.79460315229E+03  0.79460315231E+03  0.50400001928E-02 0. -1.
       -1   -1    0    0    0  501  0.00000000000E+00  0.00000000000E+00 -0.15269825388E+04  0.15269825388E+04  0.50400001928E-02 0.  1.
    10030    2    1    2    0    0  0.00000000000E+00  0.00000000000E+00 -0.73237938648E+03  0.23215856911E+04  0.22030389364E+04 0.  0.
        3    1    3    3  502    0 -0.91657537273E+03 -0.31990003246E+03 -0.91467625687E+03  0.13338212435E+04  0.10100000352E+00 0.  1.
       -3    1    3    3    0  502  0.91657537273E+03  0.31990003246E+03  0.18229687039E+03  0.98776444754E+03  0.10100000352E+00 0. -1.
</event>
<event>
 5   0  0.6293013E-05  0.2169265E+04  0.7818609E-02  0.8531331E-01
        2   -1    0    0  501    0  0.00000000000E+00  0.00000000000E+00  0.86194593590E+03  0.86194593590E+03  0.25500000920E-02 0.  1.
       -2   -1    0    0    0  501  0.00000000000E+00  0.00000000000E+00 -0.13648506319E+04  0.13648506319E+04  0.25500000920E-02 0. -1.
    10030    2    1    2    0    0  0.00000000000E+00  0.00000000000E+00 -0.50290469598E+03  0.22267965678E+04  0.21692648112E+04 0.  0.
        1    1    3    3  502    0 -0.39102636693E+03  0.44846820475E+02 -0.12889574966E+04  0.13477107572E+04  0.50400001928E-02 0. -1.
       -1    1    3    3    0  502  0.39102636693E+03 -0.44846820475E+02  0.78605280064E+03  0.87908581058E+03  0.50400001928E-02 0.  1.
</event>
<event>
 5   0  0.2820239E-05  0.2185004E+04  0.7818609E-02  0.8524696E-01
       -1   -1    0    0    0  501  0.00000000000E+00  0.00000000000E+00  0.74082495014E+03  0.74082495016E+03  0.50400001928E-02 0. -1.
        1   -1    0    0  501    0  0.00000000000E+00  0.00000000000E+00 -0.16111242911E+04  0.16111242911E+04  0.50400001928E-02 0.  1.
    10030    2    1    2    0    0  0.00000000000E+00  0.00000000000E+00 -0.87029934092E+03  0.23519492412E+04  0.21850044143E+04 0.  0.
        3    1    3    3  502    0  0.45210689813E+03 -0.92288603650E+03 -0.83420674049E+03  0.13236389915E+04  0.10100000352E+00 0.  1.
       -3    1    3    3    0  502 -0.45210689813E+03  0.92288603650E+03 -0.36092600428E+02  0.10283102497E+04  0.10100000352E+00 0. -1.
</event>
<event>
 5   0  0.2910318E-05  0.2180575E+04  0.7818609E-02  0.8526557E-01
        1   -1    0    0  501    0  0.00000000000E+00  0.00000000000E+00  0.89456952114E+03  0.89456952116E+03  0.50400001928E-02 0.  1.
       -1   -1    0    0    0  501  0.00000000000E+00  0.00000000000E+00 -0.13288258158E+04  0.13288258158E+04  0.50400001928E-02 0. -1.
    10030    2    1    2    0    0  0.00000000000E+00  0.00000000000E+00 -0.43425629461E+03  0.22233953369E+04  0.21805752211E+04 0.  0.
        5    1    3    3  502    0 -0.21156624109E+03 -0.61228688957E+03 -0.11113036295E+04  0.12863410732E+04  0.46999998093E+01 0.  1.
       -5    1    3    3    0  502  0.21156624109E+03  0.61228688957E+03  0.67704733492E+03  0.93705426376E+03  0.46999998093E+01 0. -1.
</event>
<event>
 5   0  0.6628798E-05  0.2078350E+04  0.7818609E-02  0.8570841E-01
        2   -1    0    0  501    0  0.00000000000E+00  0.00000000000E+00  0.16314630316E+04  0.16314630317E+04  0.25500000920E-02 0.  1.
       -2   -1    0    0    0  501  0.00000000000E+00  0.00000000000E+00 -0.66191174196E+03  0.66191174197E+03  0.25500000920E-02 0. -1.
    10030    2    1    2    0    0  0.00000000000E+00  0.00000000000E+00  0.96955128969E+03  0.22933747736E+04  0.20783498620E+04 0.  0.
        4    1    3    3  502    0  0.38563669487E+03  0.73133207996E+03 -0.20989624667E+03  0.85300663472E+03  0.12699999809E+01 0. -1.
       -4    1    3    3    0  502 -0.38563669487E+03 -0.73133207996E+03  0.11794475364E+04  0.14403681389E+04  0.12699999809E+01 0.  1.
</event>
<event>
 5   0  0.6414768E-05  0.2247005E+04  0.7818609E-02  0.8499114E-01
        2   -1    0    0  501    0  0.00000000000E+00  0.00000000000E+00  0.29006500083E+04  0.29006500083E+04  0.25500000920E-02 0.  1.
       -2   -1    0    0    0  501  0.00000000000E+00  0.00000000000E+00 -0.43516391712E+03  0.43516391712E+03  0.25500000920E-02 0. -1.
    10030    2    1    2    0    0  0.00000000000E+00  0.00000000000E+00  0.24654860912E+04  0.33358139255E+04  0.22470053136E+04 0.  0.
        2    1    3    3  502    0 -0.47602715021E+03  0.70343177868E+03  0.14097051763E+03  0.86098246314E+03  0.25500000920E-02 0. -1.
       -2    1    3    3    0  502  0.47602715021E+03 -0.70343177868E+03  0.23245155736E+04  0.24748314623E+04  0.25500000920E-02 0.  1.
</event>
<event>
 5   0  0.2753631E-05  0.2192944E+04  0.7818609E-02  0.8521371E-01
       -1   -1    0    0    0  501  0.00000000000E+00  0.00000000000E+00  0.96828954128E+03  0.96828954130E+03  0.50400001928E-02 0.  1.
        1   -1    0    0  501    0  0.00000000000E+00  0.00000000000E+00 -0.12416228932E+04  0.12416228932E+04  0.50400001928E-02 0. -1.
    10030    2    1    2    0    0  0.00000000000E+00  0.00000000000E+00 -0.27333335196E+03  0.22099124345E+04  0.21929436489E+04 0.  0.
        4    1    3    3  502    0  0.90882700229E+03 -0.61066166331E+03 -0.78125328092E+02  0.10977155219E+04  0.12699999809E+01 0. -1.
       -4    1    3    3    0  502 -0.90882700229E+03  0.61066166331E+03 -0.19520802386E+03  0.11121969127E+04  0.12699999809E+01 0.  1.
</event>
<event>
 5   0  0.6445740E-05  0.2249787E+04  0.7818609E-02  0.8497987E-01
       -2   -1    0    0    0  501  0.00000000000E+00  0.00000000000E+00  0.85817666167E+03  0.85817666167E+03  0.25500000920E-02 0. -1.
        2   -1    0    0  501    0  0.00000000000E+00  0.00000000000E+00 -0.14745047229E+04  0.14745047229E+04  0.25500000920E-02 0.  1.
    10030    2    1    2    0    0  0.00000000000E+00  0.00000000000E+00 -0.61632806126E+03  0.23326813846E+04  0.22497871373E+04 0.  0.
        5    1    3    3  502    0 -0.10399763667E+04 -0.74515631977E+02  0.12960091221E+03  0.10506768814E+04  0.46999998093E+01 0. -1.
       -5    1    3    3    0  502  0.10399763667E+04  0.74515631977E+02 -0.74592897347E+03  0.12820045032E+04  0.46999998093E+01 0.  1.
</event>
<event>
 5   0  0.2908031E-05  0.2214201E+04  0.7818609E-02  0.8512540E-01
       -1   -1    0    0    0  501  0.00000000000E+00  0.00000000000E+00  0.11144212822E+04  0.11144212822E+04  0.50400001928E-02 0. -1.
        1   -1    0    0  501    0  0.00000000000E+00  0.00000000000E+00 -0.10998281639E+04  0.10998281639E+04  0.50400001928E-02 0.  1.
    10030    2    1    2    0    0  0.00000000000E+00  0.00000000000E+00  0.14593118254E+02  0.22142494461E+04  0.22142013572E+04 0.  0.
        1    1    3    3  502    0  0.10108288882E+04  0.21888777244E+03  0.40225451876E+03  0.11097277126E+04  0.50400001928E-02 0. -1.
       -1    1    3    3    0  502 -0.10108288882E+04 -0.21888777244E+03 -0.38766140050E+03  0.11045217335E+04  0.50400001928E-02 0.  1.
</event>
<event>
 5   0  0.6628798E-05  0.2192374E+04  0.7818609E-02  0.8521609E-01
       -2   -1    0    0    0  501  0.00000000000E+00  0.00000000000E+00  0.85708756956E+03  0.85708756956E+03  0.25500000920E-02 0.  1.
        2   -1    0    0  501    0  0.00000000000E+00  0.00000000000E+00 -0.14019868810E+04  0.14019868810E+04  0.25500000920E-02 0. -1.
    10030    2    1    2    0    0  0.00000000000E+00  0.00000000000E+00 -0.54489931143E+03  0.22590744506E+04  0.21923736254E+04 0.  0.
        4    1    3    3  502    0 -0.34291694072E+03  0.61116027665E+03 -0.11410152091E+04  0.13390392945E+04  0.12699999809E+01 0. -1.
       -4    1    3    3    0  502  0.34291694072E+03 -0.61116027665E+03  0.59611589766E+03  0.92003515603E+03  0.12699999809E+01 0.  1.
</event>
<event>
 5   0  0.2929471E-05  0.2148234E+04  0.7818609E-02  0.8540289E-01
       -1   -1    0    0    0  501  0.00000000000E+00  0.00000000000E+00  0.10234590626E+04  0.10234590626E+04  0.50400001928E-02 0.  1.
        1   -1    0    0  501    0  0.00000000000E+00  0.00000000000E+00 -0.11272818704E+04  0.11272818704E+04  0.50400001928E-02 0. -1.
    10030    2    1    2    0    0  0.00000000000E+00  0.00000000000E+00 -0.10382280786E+03  0.21507409330E+04  0.21482335501E+04 0.  0.
        2    1    3    3  502    0 -0.68978700490E+03 -0.59725505803E+03 -0.61932428967E+03  0.11027612127E+04  0.25500000920E-02 0. -1.
       -2    1    3    3    0  502  0.68978700490E+03  0.59725505803E+03  0.51550148181E+03  0.10479797203E+04  0.25500000920E-02 0.  1.
</event>
<event>
 5   0  0.2929471E-05  0.2153560E+04  0.7818609E-02  0.8538010E-01
       -1   -1    0    0    0  501  0.00000000000E+00  0.00000000000E+00  0.13064981847E+04  0.13064981847E+04  0.50400001928E-02 0. -1.
        1   -1    0    0  501    0  0.00000000000E+00  0.00000000000E+00 -0.88745251243E+03  0.88745251244E+03  0.50400001928E-02 0.  1.
    10030    2    1    2    0    0  0.00000000000E+00  0.00000000000E+00  0.41904567225E+03  0.21939506971E+04  0.21535599332E+04 0.  0.
        2    1    3    3  502    0  0.28527958908E+03  0.66915595063E+03  0.10183279484E+04  0.12514575265E+04  0.25500000920E-02 0. -1.
       -2    1    3    3    0  502 -0.28527958908E+03 -0.66915595063E+03 -0.59928227611E+03  0.94249317063E+03  0.25500000920E-02 0.  1.
</event>
<event>
 5   0  0.6414768E-05  0.2170487E+04  0.7818609E-02  0.8530814E-01
       -2   -1    0    0    0  501  0.00000000000E+00  0.00000000000E+00  0.10609866568E+04  0.10609866568E+04  0.25500000920E-02 0. -1.
        2   -1    0    0  501    0  0.00000000000E+00  0.00000000000E+00 -0.11100545243E+04  0.11100545243E+04  0.25500000920E-02 0.  1.
    10030    2    1    2    0    0  0.00000000000E+00  0.00000000000E+00 -0.49067867536E+02  0.21710411811E+04  0.21704866170E+04 0.  0.
        2    1    3    3  502    0 -0.42634577369E+03  0.93311261467E+03  0.32951012658E+03  0.10775188137E+04  0.25500000920E-02 0. -1.
       -2    1    3    3    0  502  0.42634577369E+03 -0.93311261467E+03 -0.37857799412E+03  0.10935223674E+04  0.25500000920E-02 0.  1.
</event>
<event>
 5   0  0.2910318E-05  0.2234097E+04  0.7818609E-02  0.8504369E-01
        1   -1    0    0  501    0  0.00000000000E+00  0.00000000000E+00  0.66742690757E+03  0.66742690759E+03  0.50400001928E-02 0. -1.
       -1   -1    0    0    0  501  0.00000000000E+00  0.00000000000E+00 -0.18695646213E+04  0.18695646213E+04  0.50400001928E-02 0.  1.
    10030    2    1    2    0    0  0.00000000000E+00  0.00000000000E+00 -0.12021377137E+04  0.25369915289E+04  0.22340973423E+04 0.  0.
        5    1    3    3  502    0  0.52815782681E+03 -0.32839779083E+03 -0.16547602136E+04  0.17677808839E+04  0.46999998093E+01 0.  1.
       -5    1    3    3    0  502 -0.52815782681E+03  0.32839779083E+03  0.45262249984E+03  0.76921064501E+03  0.46999998093E+01 0. -1.
</event>
<event>
 5   0  0.2753631E-05  0.2203644E+04  0.7818609E-02  0.8516913E-01
       -1   -1    0    0    0  501  0.00000000000E+00  0.00000000000E+00  0.12673925530E+04  0.12673925530E+04  0.50400001928E-02 0.  1.
        1   -1    0    0  501    0  0.00000000000E+00  0.00000000000E+00 -0.95788118694E+03  0.95788118696E+03  0.50400001928E-02 0. -1.
    10030    2    1    2    0    0  0.00000000000E+00  0.00000000000E+00  0.30951136601E+03  0.22252737399E+04  0.22036437852E+04 0.  0.
        4    1    3    3  502    0 -0.48031535164E+03  0.84028635631E+03  0.68644621824E+03  0.11865892386E+04  0.12699999809E+01 0.  1.
       -4    1    3    3    0  502  0.48031535164E+03 -0.84028635631E+03 -0.37693485223E+03  0.10386845014E+04  0.12699999809E+01 0. -1.
</event>
<event>
 5   0  0.2910318E-05  0.2183087E+04  0.7818609E-02  0.8525501E-01
       -1   -1    0    0    0  501  0.00000000000E+00  0.00000000000E+00  0.10872125765E+04  0.10872125765E+04  0.50400001928E-02 0.  1.
        1   -1    0    0  501    0  0.00000000000E+00  0.00000000000E+00 -0.10958921410E+04  0.10958921410E+04  0.50400001928E-02 0. -1.
    10030    2    1    2    0    0  0.00000000000E+00  0.00000000000E+00 -0.86795644421E+01  0.21831047175E+04  0.21830874634E+04 0.  0.
        5    1    3    3  502    0 -0.15490763218E+03 -0.69058619746E+03  0.82665412450E+03  0.10882485020E+04  0.46999998093E+01 0.  1.
       -5    1    3    3    0  502  0.15490763218E+03  0.69058619746E+03 -0.83533368894E+03  0.10948562154E+04  0.46999998093E+01 0. -1.
</event>
<event>
 5   0  0.6414768E-05  0.2189752E+04  0.7818609E-02  0.8522706E-01
       -2   -1    0    0    0  501  0.00000000000E+00  0.00000000000E+00  0.92635859513E+03  0.92635859514E+03  0.25500000920E-02 0. -1.
        2   -1    0    0  501    0  0.00000000000E+00  0.00000000000E+00 -0.12940485947E+04  0.12940485947E+04  0.25500000920E-02 0.  1.
    10030    2    1    2    0    0  0.00000000000E+00  0.00000000000E+00 -0.36768999960E+03  0.22204071899E+04  0.21897516190E+04 0.  0.
        2    1    3    3  502    0  0.51130638681E+02 -0.17280786321E+02  0.92500887829E+03  0.92658210251E+03  0.25500000920E-02 0. -1.
       -2    1    3    3    0  502 -0.51130638681E+02  0.17280786321E+02 -0.12926988779E+04  0.12938250874E+04  0.25500000920E-02 0.  1.
</event>
<event>
 5   0  0.6414768E-05  0.2246241E+04  0.7818609E-02  0.8499424E-01
       -2   -1    0    0    0  501  0.00000000000E+00  0.00000000000E+00  0.57376685127E+03  0.57376685127E+03  0.25500000920E-02 0.  1.
        2   -1    0    0  501    0  0.00000000000E+00  0.00000000000E+00 -0.21984527965E+04  0.21984527965E+04  0.25500000920E-02 0. -1.
    10030    2    1    2    0    0  0.00000000000E+00  0.00000000000E+00 -0.16246859452E+04  0.27722196477E+04  0.22462407161E+04 0.  0.
        2    1    3    3  502    0 -0.28975483761E+03  0.91850479788E+03 -0.99312207194E+02  0.96823129682E+03  0.25500000920E-02 0.  1.
       -2    1    3    3    0  502  0.28975483761E+03 -0.91850479788E+03 -0.15253737380E+04  0.18039883509E+04  0.25500000920E-02 0. -1.
</event>
<event>
 5   0  0.2908031E-05  0.2237733E+04  0.7818609E-02  0.8502885E-01
        1   -1    0    0  501    0  0.00000000000E+00  0.00000000000E+00  0.77431518768E+03  0.77431518770E+03  0.50400001928E-02 0.  1.
       -1   -1    0    0    0  501  0.00000000000E+00  0.00000000000E+00 -0.16167347298E+04  0.16167347298E+04  0.50400001928E-02 0. -1.
    10030    2    1    2    0    0  0.00000000000E+00  0.00000000000E+00 -0.84241954211E+03  0.23910499175E+04  0.22377330098E+04 0.  0.
        1    1    3    3  502    0 -0.61658748848E+03 -0.80322640495E+03  0.87328396448E+02  0.10163557632E+04  0.50400001928E-02 0.  1.
       -1    1    3    3    0  502  0.61658748848E+03  0.80322640495E+03 -0.92974793856E+03  0.13746941543E+04  0.50400001928E-02 0. -1.
</event>
<event>
 5   0  0.6306919E-05  0.2217690E+04  0.7818609E-02  0.8511101E-01
       -2   -1    0    0    0  501  0.00000000000E+00  0.00000000000E+00  0.89273036811E+03  0.89273036811E+03  0.25500000920E-02 0.  1.
        2   -1    0    0  501    0  0.00000000000E+00  0.00000000000E+00 -0.13772774929E+04  0.13772774929E+04  0.25500000920E-02 0. -1.
    10030    2    1    2    0    0  0.00000000000E+00  0.00000000000E+00 -0.48454712479E+03  0.22700078610E+04  0.22176901887E+04 0.  0.
        3    1    3    3  502    0  0.24596831683E+03  0.20341682588E+03 -0.13292379292E+04  0.13670231529E+04  0.10100000352E+00 0. -1.
       -3    1    3    3    0  502 -0.24596831683E+03 -0.20341682588E+03  0.84469080438E+03  0.90298470814E+03  0.10100000352E+00 0.  1.
</event>
<event>
 5   0  0.6306919E-05  0.2196952E+04  0.7818609E-02  0.8519698E-01
        2   -1    0    0  501    0  0.00000000000E+00  0.00000000000E+00  0.18535211877E+04  0.18535211877E+04  0.25500000920E-02 0.  1.
       -2   -1    0    0    0  501  0.00000000000E+00  0.00000000000E+00 -0.65100372767E+03  0.65100372768E+03  0.25500000920E-02 0. -1.
    10030    2    1    2    0    0  0.00000000000E+00  0.00000000000E+00  0.12025174600E+04  0.25045249154E+04  0.21969517086E+04 0.  0.
        3    1    3    3  502    0 -0.59797792233E+03 -0.34656334770E+03  0.15745847108E+04  0.17195931993E+04  0.10100000352E+00 0.  1.
       -3    1    3    3    0  502  0.59797792233E+03  0.34656334770E+03 -0.37206725076E+03  0.78493171604E+03  0.10100000352E+00 0. -1.
</event>
<event>
 5   0  0.6628798E-05  0.2169874E+04  0.7818609E-02  0.8531073E-01
       -2   -1    0    0    0  501  0.00000000000E+00  0.00000000000E+00  0.16103609697E+04  0.16103609697E+04  0.25500000920E-02 0. -1.
        2   -1    0    0  501    0  0.00000000000E+00  0.00000000000E+00 -0.73094712596E+03  0.73094712597E+03  0.25500000920E-02 0.  1.
    10030    2    1    2    0    0  0.00000000000E+00  0.00000000000E+00  0.87941384377E+03  0.23413080957E+04  0.21698743951E+04 0.  0.
        4    1    3    3  502    0  0.95886364605E+03 -0.32120403984E+02 -0.10690949866E+03  0.96534059579E+03  0.12699999809E+01 0.  1.
       -4    1    3    3    0  502 -0.95886364605E+03  0.32120403984E+02  0.98632334243E+03  0.13759674999E+04  0.12699999809E+01 0. -1.
</event>
<event>
 5   0  0.2753631E-05  0.2249351E+04  0.7818609E-02  0.8498163E-01
       -1   -1    0    0    0  501  0.00000000000E+00  0.00000000000E+00  0.12227862086E+04  0.12227862086E+04  0.50400001928E-02 0. -1.
        1   -1    0    0  501    0  0.00000000000E+00  0.00000000000E+00 -0.10344368728E+04  0.10344368728E+04  0.50400001928E-02 0.  1.
    10030    2    1    2    0    0  0.00000000000E+00  0.00000000000E+00  0.18834933577E+03  0.22572230814E+04  0.22493511435E+04 0.  0.
        4    1    3    3  502    0 -0.83427638723E+03 -0.65040671286E+03  0.47741109995E+03  0.11605899162E+04  0.12699999809E+01 0. -1.
       -4    1    3    3    0  502  0.83427638723E+03  0.65040671286E+03 -0.28906176418E+03  0.10966331651E+04  0.12699999809E+01 0.  1.
</event>
<event>
 5   0  0.2753631E-05  0.2177589E+04  0.7818609E-02  0.8527815E-01
        1   -1    0    0  501    0  0.00000000000E+00  0.00000000000E+00  0.19940948221E+04  0.19940948221E+04  0.50400001928E-02 0.  1.
       -1   -1    0    0    0  501  0.00000000000E+00  0.00000000000E+00 -0.59449179317E+03  0.59449179320E+03  0.50400001928E-02 0. -1.
    10030    2    1    2    0    0  0.00000000000E+00  0.00000000000E+00  0.13996030289E+04  0.25885866153E+04  0.21775885806E+04 0.  0.
        4    1    3    3  502    0 -0.32022012209E+03  0.92910577324E+03  0.14262229503E+03  0.99303635200E+03  0.12699999809E+01 0.  1.
       -4    1    3    3    0  502  0.32022012209E+03 -0.92910577324E+03  0.12569807339E+04  0.15955502633E+04  0.12699999809E+01 0. -1.
</event>
<event>
 5   0  0.6445740E-05  0.2211701E+04  0.7818609E-02  0.8513574E-01
        2   -1    0    0  501    0  0.00000000000E+00  0.00000000000E+00  0.15992483249E+04  0.15992483249E+04  0.25500000920E-02 0.  1.
       -2   -1    0    0    0  501  0.00000000000E+00  0.00000000000E+00 -0.76467490917E+03  0.76467490917E+03  0.25500000920E-02 0. -1.
    10030    2    1    2    0    0  0.00000000000E+00  0.00000000000E+00  0.83457341576E+03  0.23639232341E+04  0.22117007642E+04 0.  0.
        5    1    3    3  502    0 -0.74281312720E+03  0.53731247293E+02 -0.45642514486E+03  0.87350122595E+03  0.46999998093E+01 0. -1.
       -5    1    3    3    0  502  0.74281312720E+03 -0.53731247293E+02  0.12909985606E+04  0.14904220082E+04  0.46999998093E+01 0.  1.
</event>
<event>
 5   0  0.2753631E-05  0.2211148E+04  0.7818609E-02  0.8513803E-01
        1   -1    0    0  501    0  0.00000000000E+00  0.00000000000E+00  0.13624066420E+04  0.13624066420E+04  0.50400001928E-02 0. -1.
       -1   -1    0    0    0  501  0.00000000000E+00  0.00000000000E+00 -0.89715753232E+03  0.89715753234E+03  0.50400001928E-02 0.  1.
    10030    2    1    2    0    0  0.00000000000E+00  0.00000000000E+00  0.46524910968E+03  0.22595641743E+04  0.22111475582E+04 0.  0.
        4    1    3    3  502    0  0.33062987868E+03  0.91300089112E+03 -0.30753748458E+03  0.10185615647E+04  0.12699999809E+01 0.  1.
       -4    1    3    3    0  502 -0.33062987868E+03 -0.91300089112E+03  0.77278659426E+03  0.12410026096E+04  0.12699999809E+01 0. -1.
</event>
<event>
 5   0  0.6306919E-05  0.2215730E+04  0.7818609E-02  0.8511910E-01
       -2   -1    0    0    0  501  0.00000000000E+00  0.00000000000E+00  0.10965781178E+04  0.10965781178E+04  0.25500000920E-02 0. -1.
        2   -1    0    0  501    0  0.00000000000E+00  0.00000000000E+00 -0.11192676623E+04  0.11192676623E+04  0.25500000920E-02 0.  1.
    10030    2    1    2    0    0  0.00000000000E+00  0.00000000000E+00 -0.22689544450E+02  0.22158457801E+04  0.22157296102E+04 0.  0.
        3    1    3    3  502    0 -0.46783098371E+03 -0.24095073490E+03  0.96361214754E+03  0.10979396464E+04  0.10100000352E+00 0. -1.
       -3    1    3    3    0  502  0.46783098371E+03  0.24095073490E+03 -0.98630169199E+03  0.11179061337E+04  0.10100000352E+00 0.  1.
</event>
<event>
 5   0  0.6306919E-05  0.2167355E+04  0.7818609E-02  0.8532140E-01
       -2   -1    0    0    0  501  0.00000000000E+00  0.00000000000E+00  0.13042116699E+04  0.13042116699E+04  0.25500000920E-02 0.  1.
        2   -1    0    0  501    0  0.00000000000E+00  0.00000000000E+00 -0.90043423953E+03  0.90043423954E+03  0.25500000920E-02 0. -1.
    10030    2    1    2    0    0  0.00000000000E+00  0.00000000000E+00  0.40377743040E+03  0.22046459095E+04  0.21673549254E+04 0.  0.
        3    1    3    3  502    0 -0.83567835553E+03 -0.53340831753E+03 -0.24321765752E+03  0.10208024227E+04  0.10100000352E+00 0. -1.
       -3    1    3    3    0  502  0.83567835553E+03  0.53340831753E+03  0.64699508792E+03  0.11838434867E+04  0.10100000352E+00 0.  1.
</event>
<event>
 5   0  0.2753631E-05  0.2212663E+04  0.7818609E-02  0.8513176E-01
       -1   -1    0    0    0  501  0.00000000000E+00  0.00000000000E+00  0.64835191323E+03  0.64835191325E+03  0.50400001928E-02 0. -1.
        1   -1    0    0  501    0  0.00000000000E+00  0.00000000000E+00 -0.18878171032E+04  0.18878171032E+04  0.50400001928E-02 0.  1.
    10030    2    1    2    0    0  0.00000000000E+00  0.00000000000E+00 -0.12394651900E+04  0.25361690165E+04  0.22126634003E+04 0.  0.
        4    1    3    3  502    0  0.37362786331E+03  0.25758504843E+03 -0.17762204508E+04  0.18332780859E+04  0.12699999809E+01 0.  1.
       -4    1    3    3    0  502 -0.37362786331E+03 -0.25758504843E+03  0.53675526081E+03  0.70289093060E+03  0.12699999809E+01 0. -1.
</event>
<event>
 5   0  0.2820239E-05  0.2204594E+04  0.7818609E-02  0.8516519E-01
       -1   -1    0    0    0  501  0.00000000000E+00  0.00000000000E+00  0.62832863881E+03  0.62832863883E+03  0.50400001928E-02 0.  1.
        1   -1    0    0  501    0  0.00000000000E+00  0.00000000000E+00 -0.19337941007E+04  0.19337941007E+04  0.50400001928E-02 0. -1.
    10030    2    1    2    0    0  0.00000000000E+00  0.00000000000E+00 -0.13054654619E+04  0.25621227396E+04  0.22045935817E+04 0.  0.
        3    1    3    3  502    0 -0.41949992391E+03 -0.47211746290E+03 -0.17026744596E+04  0.18160328770E+04  0.10100000352E+00 0. -1.
       -3    1    3    3    0  502  0.41949992391E+03  0.47211746290E+03  0.39720899767E+03  0.74608986253E+03  0.10100000352E+00 0.  1.
</event>
<event>
 5   0  0.2753631E-05  0.2188761E+04  0.7818609E-02  0.8523121E-01
        1   -1    0    0  501    0  0.00000000000E+00  0.00000000000E+00  0.78341459259E+03  0.78341459261E+03  0.50400001928E-02 0.  1.
       -1   -1    0    0    0  501  0.00000000000E+00  0.00000000000E+00 -0.15287800698E+04  0.15287800698E+04  0.50400001928E-02 0. -1.
    10030    2    1    2    0    0  0.00000000000E+00  0.00000000000E+00 -0.74536547724E+03  0.23121946624E+04  0.21887609423E+04 0.  0.
        4    1    3    3  502    0 -0.86114363605E+03 -0.29320005265E+03  0.27001178310E+03  0.94891654464E+03  0.12699999809E+01 0. -1.
       -4    1    3    3    0  502  0.86114363605E+03  0.29320005265E+03 -0.10153772603E+04  0.13632781178E+04  0.12699999809E+01 0.  1.
</event>
<event>
 5   0  0.6445740E-05  0.2186306E+04  0.7818609E-02  0.8524150E-01
        2   -1    0    0  501    0  0.00000000000E+00  0.00000000000E+00  0.17069442832E+04  0.17069442832E+04  0.25500000920E-02 0. -1.
       -2   -1    0    0    0  501  0.00000000000E+00  0.00000000000E+00 -0.70007148582E+03  0.70007148582E+03  0.25500000920E-02 0.  1.
    10030    2    1    2    0    0  0.00000000000E+00  0.00000000000E+00  0.10068727974E+04  0.24070157691E+04  0.21863055784E+04 0.  0.
        5    1    3    3  502    0 -0.92921612038E+03  0.50693268654E+03  0.20285941146E+03  0.10777742704E+04  0.46999998093E+01 0.  1.
       -5    1    3    3    0  502  0.92921612038E+03 -0.50693268654E+03  0.80401338595E+03  0.13292414987E+04  0.46999998093E+01 0. -1.
</event>
<event>
 5   0  0.2753631E-05  0.2203198E+04  0.7818609E-02  0.8517098E-01
        1   -1    0    0  501    0  0.00000000000E+00  0.00000000000E+00  0.99768651873E+03  0.99768651874E+03  0.50400001928E-02 0.  1.
       -1   -1    0    0    0  501  0.00000000000E+00  0.00000000000E+00 -0.12163343180E+04  0.12163343181E+04  0.50400001928E-02 0. -1.
    10030    2    1    2    0    0  0.00000000000E+00  0.00000000000E+00 -0.21864779931E+03  0.22140208368E+04  0.22031979951E+04 0.  0.
        4    1    3    3  502    0  0.26587279049E+03  0.50234333623E+03  0.83896494987E+03  0.10133612230E+04  0.12699999809E+01 0.  1.
       -4    1    3    3    0  502 -0.26587279049E+03 -0.50234333623E+03 -0.10576127492E+04  0.12006596138E+04  0.12699999809E+01 0. -1.
</event>
<event>
 5   0  0.2929471E-05  0.2128379E+04  0.7818609E-02  0.8548844E-01
        1   -1    0    0  501    0  0.00000000000E+00  0.00000000000E+00  0.46385548191E+03  0.46385548194E+03  0.50400001928E-02 0.  1.
       -1   -1    0    0    0  501  0.00000000000E+00  0.00000000000E+00 -0.24414922684E+04  0.24414922684E+04  0.50400001928E-02 0. -1.
    10030    2    1    2    0    0  0.00000000000E+00  0.00000000000E+00 -0.19776367865E+04  0.29053477503E+04  0.21283792639E+04 0.  0.
        2    1    3    3  502    0  0.73380235773E+03 -0.27808512854E+03 -0.75917899077E+01  0.78476421568E+03  0.25500000920E-02 0.  1.
       -2    1    3    3    0  502 -0.73380235773E+03  0.27808512854E+03 -0.19700449965E+04  0.21205835346E+04  0.25500000920E-02 0. -1.
</event>
<event>
 5   0  0.2910318E-05  0.2197965E+04  0.7818609E-02  0.8519275E-01
        1   -1    0    0  501    0  0.00000000000E+00  0.00000000000E+00  0.20880463698E+04  0.20880463698E+04  0.50400001928E-02 0.  1.
       -1   -1    0    0    0  501  0.00000000000E+00  0.00000000000E+00 -0.57841765841E+03  0.57841765843E+03  0.50400001928E-02 0. -1.
    10030    2    1    2    0    0  0.00000000000E+00  0.00000000000E+00  0.15096287114E+04  0.26664640282E+04  0.21979653245E+04 0.  0.
        5    1    3    3  502    0 -0.10727931831E+04  0.10078149173E+03  0.49265389562E+03  0.11848088765E+04  0.46999998093E+01 0.  1.
       -5    1    3    3    0  502  0.10727931831E+04 -0.10078149173E+03  0.10169748157E+04  0.14816551518E+04  0.46999998093E+01 0. -1.
</event>
<event>
 5   0  0.6414768E-05  0.2183582E+04  0.7818609E-02  0.8525293E-01
        2   -1    0    0  501    0  0.00000000000E+00  0.00000000000E+00  0.48991718030E+03  0.48991718031E+03  0.25500000920E-02 0. -1.
       -2   -1    0    0    0  501  0.00000000000E+00  0.00000000000E+00 -0.24330792717E+04  0.24330792717E+04  0.25500000920E-02 0.  1.
    10030    2    1    2    0    0  0.00000000000E+00  0.00000000000E+00 -0.19431620914E+04  0.29229964520E+04  0.21835817697E+04 0.  0.
        2    1    3    3  502    0  0.75298312262E+02 -0.46798831199E+03 -0.22881539375E+04  0.23367351878E+04  0.25500000920E-02 0.  1.
       -2    1    3    3    0  502 -0.75298312262E+02  0.46798831199E+03  0.34499184615E+03  0.58626126420E+03  0.25500000920E-02 0. -1.
</event>
<event>
 5   0  0.6628798E-05  0.2227762E+04  0.7818609E-02  0.8506961E-01
       -2   -1    0    0    0  501  0.00000000000E+00  0.00000000000E+00  0.50148099297E+03  0.50148099298E+03  0.25500000920E-02 0.  1.
        2   -1    0    0  501    0  0.00000000000E+00  0.00000000000E+00 -0.24741341142E+04  0.24741341142E+04  0.25500000920E-02 0. -1.
    10030    2    1    2    0    0  0.00000000000E+00  0.00000000000E+00 -0.19726531212E+04  0.29756151072E+04  0.22277623144E+04 0.  0.
        4    1    3    3  502    0  0.59985425570E+03 -0.93763612275E+03 -0.10420907870E+04  0.15247758682E+04  0.12699999809E+01 0. -1.
       -4    1    3    3    0  502 -0.59985425570E+03  0.93763612275E+03 -0.93056233420E+03  0.14508392390E+04  0.12699999809E+01 0.  1.
</event>
<event>
 5   0  0.6306919E-05  0.2226536E+04  0.7818609E-02  0.8507464E-01
       -2   -1    0    0    0  501  0.00000000000E+00  0.00000000000E+00  0.90671644669E+03  0.90671644669E+03  0.25500000920E-02 0.  1.
        2   -1    0    0  501    0  0.00000000000E+00  0.00000000000E+00 -0.13668720668E+04  0.13668720668E+04  0.25500000920E-02 0. -1.
    10030    2    1    2    0    0  0.00000000000E+00  0.00000000000E+00 -0.46015562015E+03  0.22735885135E+04  0.22265357698E+04 0.  0.
        3    1    3    3  502    0 -0.19633101698E+03  0.83586595908E+03 -0.95367669197E+03  0.12832447205E+04  0.10100000352E+00 0. -1.
       -3    1    3    3    0  502  0.19633101698E+03 -0.83586595908E+03  0.49352107182E+03  0.99034379299E+03  0.10100000352E+00 0.  1.
</event>
<event>
 5   0  0.2753631E-05  0.2159281E+04  0.7818609E-02  0.8535570E-01
        1   -1    0    0  501    0  0.00000000000E+00  0.00000000000E+00  0.88489639583E+03  0.88489639585E+03  0.50400001928E-02 0. -1.
       -1   -1    0    0    0  501  0.00000000000E+00  0.00000000000E+00 -0.13172434684E+04  0.13172434684E+04  0.50400001928E-02 0.  1.
    10030    2    1    2    0    0  0.00000000000E+00  0.00000000000E+00 -0.43234707253E+03  0.22021398642E+04  0.21592813597E+04 0.  0.
        4    1    3    3  502    0 -0.64165357598E+03  0.84820231976E+03 -0.40548087448E+03  0.11382367237E+04  0.12699999809E+01 0.  1.
       -4    1    3    3    0  502  0.64165357598E+03 -0.84820231976E+03 -0.26866198048E+02  0.10639031405E+04  0.12699999809E+01 0. -1.
</event>
<event>
 5   0  0.2820239E-05  0.2197460E+04  0.7818609E-02  0.8519486E-01
        1   -1    0    0  501    0  0.00000000000E+00  0.00000000000E+00  0.78711201616E+03  0.78711201617E+03  0.50400001928E-02 0. -1.
       -1   -1    0    0    0  501  0.00000000000E+00  0.00000000000E+00 -0.15337169990E+04  0.15337169990E+04  0.50400001928E-02 0.  1.
    10030    2    1    2    0    0  0.00000000000E+00  0.00000000000E+00 -0.74660498285E+03  0.23208290152E+04  0.21974595144E+04 0.  0.
        3    1    3    3  502    0  0.68201804697E+03 -0.69016333499E+03  0.17113124344E+03  0.98527151488E+03  0.10100000352E+00 0. -1.
       -3    1    3    3    0  502 -0.68201804697E+03  0.69016333499E+03 -0.91773622630E+03  0.13355575003E+04  0.10100000352E+00 0.  1.
</event>
<event>
 5   0  0.2910318E-05  0.2185376E+04  0.7818609E-02  0.8524540E-01
       -1   -1    0    0    0  501  0.00000000000E+00  0.00000000000E+00  0.56281270540E+03  0.56281270542E+03  0.50400001928E-02 0.  1.
        1   -1    0    0  501    0  0.00000000000E+00  0.00000000000E+00 -0.21214286634E+04  0.21214286634E+04  0.50400001928E-02 0. -1.
    10030    2    1    2    0    0  0.00000000000E+00  0.00000000000E+00 -0.15586159580E+04  0.26842413688E+04  0.21853759451E+04 0.  0.
        5    1    3    3  502    0 -0.34590040590E+03  0.99133387135E+03 -0.40765604837E+03  0.11263194392E+04  0.46999998093E+01 0.  1.
       -5    1    3    3    0  502  0.34590040590E+03 -0.99133387135E+03 -0.11509599096E+04  0.15579219296E+04  0.46999998093E+01 0. -1.
</event>
<event>
 5   0  0.2910318E-05  0.2170468E+04  0.7818609E-02  0.8530822E-01
        1   -1    0    0  501    0  0.00000000000E+00  0.00000000000E+00  0.92258795955E+03  0.92258795957E+03  0.50400001928E-02 0. -1.
       -1   -1    0    0    0  501  0.00000000000E+00  0.00000000000E+00 -0.12765532336E+04  0.12765532337E+04  0.50400001928E-02 0.  1.
    10030    2    1    2    0    0  0.00000000000E+00  0.00000000000E+00 -0.35396527409E+03  0.21991411932E+04  0.21704678234E+04 0.  0.
        5    1    3    3  502    0 -0.38271404642E+03 -0.84906606448E+03  0.38744695383E+03  0.10087221893E+04  0.46999998093E+01 0. -1.
       -5    1    3    3    0  502  0.38271404642E+03  0.84906606448E+03 -0.74141222791E+03  0.11904190039E+04  0.46999998093E+01 0.  1.
</event>
<event>
 5   0  0.6414768E-05  0.2185471E+04  0.7818609E-02  0.8524500E-01
       -2   -1    0    0    0  501  0.00000000000E+00  0.00000000000E+00  0.13724391394E+04  0.13724391394E+04  0.25500000920E-02 0.  1.
        2   -1    0    0  501    0  0.00000000000E+00  0.00000000000E+00 -0.87003527005E+03  0.87003527005E+03  0.25500000920E-02 0. -1.
    10030    2    1    2    0    0  0.00000000000E+00  0.00000000000E+00  0.50240386932E+03  0.22424744094E+04  0.21854706196E+04 0.  0.
        2    1    3    3  502    0 -0.14260264533E+03  0.45291130550E+03  0.12610502986E+04  0.13474835883E+04  0.25500000920E-02 0.  1.
       -2    1    3    3    0  502  0.14260264533E+03 -0.45291130550E+03 -0.75864642932E+03  0.89499082109E+03  0.25500000920E-02 0. -1.
</event>
<event>
 5   0  0.6414768E-05  0.2224695E+04  0.7818609E-02  0.8508219E-01
        2   -1    0    0  501    0  0.00000000000E+00  0.00000000000E+00  0.13626240589E+04  0.13626240589E+04  0.25500000920E-02 0.  1.
       -2   -1    0    0    0  501  0.00000000000E+00  0.00000000000E+00 -0.90804003876E+03  0.90804003876E+03  0.25500000920E-02 0. -1.
    10030    2    1    2    0    0  0.00000000000E+00  0.00000000000E+00  0.45458402018E+03  0.22706640977E+04  0.22246952180E+04 0.  0.
        2    1    3    3  502    0  0.10646677037E+04 -0.31608152315E+03  0.29096988788E+03  0.11480802778E+04  0.25500000920E-02 0. -1.
       -2    1    3    3    0  502 -0.10646677037E+04  0.31608152315E+03  0.16361413229E+03  0.11225838199E+04  0.25500000920E-02 0.  1.
</event>
<event>
 5   0  0.2820239E-05  0.2297342E+04  0.7818609E-02  0.8478970E-01
       -1   -1    0    0    0  501  0.00000000000E+00  0.00000000000E+00  0.63370396365E+03  0.63370396367E+03  0.50400001928E-02 0. -1.
        1   -1    0    0  501    0  0.00000000000E+00  0.00000000000E+00 -0.20821165557E+04  0.20821165557E+04  0.50400001928E-02 0.  1.
    10030    2    1    2    0    0  0.00000000000E+00  0.00000000000E+00 -0.14484125921E+04  0.27158205194E+04  0.22973423900E+04 0.  0.
        3    1    3    3  502    0  0.10270878191E+04 -0.48127784023E+03 -0.50975707375E+03  0.12435393167E+04  0.10100000352E+00 0. -1.
       -3    1    3    3    0  502 -0.10270878191E+04  0.48127784023E+03 -0.93865551831E+03  0.14722812027E+04  0.10100000352E+00 0.  1.
</event>
<event>
 5   0  0.2908031E-05  0.2207320E+04  0.7818609E-02  0.8515387E-01
        1   -1    0    0  501    0  0.00000000000E+00  0.00000000000E+00  0.70381693135E+03  0.70381693137E+03  0.50400001928E-02 0.  1.
       -1   -1    0    0    0  501  0.00000000000E+00  0.00000000000E+00 -0.17306572089E+04  0.17306572089E+04  0.50400001928E-02 0. -1.
    10030    2    1    2    0    0  0.00000000000E+00  0.00000000000E+00 -0.10268402775E+04  0.24344741402E+04  0.22073204081E+04 0.  0.
        1    1    3    3  502    0 -0.28858361863E+03  0.78832594201E+03  0.27677994929E+03  0.88393746167E+03  0.50400001928E-02 0.  1.
       -1    1    3    3    0  502  0.28858361863E+03 -0.78832594201E+03 -0.13036202268E+04  0.15505366786E+04  0.50400001928E-02 0. -1.
</event>
<event>
 5   0  0.6293013E-05  0.2193939E+04  0.7818609E-02  0.8520955E-01
       -2   -1    0    0    0  501  0.00000000000E+00  0.00000000000E+00  0.17035754418E+04  0.17035754418E+04  0.25500000920E-02 0.  1.
        2   -1    0    0  501    0  0.00000000000E+00  0.00000000000E+00 -0.70636285590E+03  0.70636285590E+03  0.25500000920E-02 0. -1.
    10030    2    1    2    0    0  0.00000000000E+00  0.00000000000E+00  0.99721258594E+03  0.24099382977E+04  0.21939393012E+04 0.  0.
        1    1    3    3  502    0  0.94932033907E+03 -0.53898432908E+03  0.38015051302E+03  0.11559531244E+04  0.50400001928E-02 0.  1.
       -1    1    3    3    0  502 -0.94932033907E+03  0.53898432908E+03  0.61706207292E+03  0.12539851734E+04  0.50400001928E-02 0. -1.
</event>
<event>
 5   0  0.6445740E-05  0.2200341E+04  0.7818609E-02  0.8518286E-01
        2   -1    0    0  501    0  0.00000000000E+00  0.00000000000E+00  0.20341719209E+04  0.20341719209E+04  0.25500000920E-02 0.  1.
       -2   -1    0    0    0  501  0.00000000000E+00  0.00000000000E+00 -0.59502111383E+03  0.59502111383E+03  0.25500000920E-02 0. -1.
    10030    2    1    2    0    0  0.00000000000E+00  0.00000000000E+00  0.14391508071E+04  0.26291930347E+04  0.22003411027E+04 0.  0.
        5    1    3    3  502    0 -0.70561248092E+03  0.14114414646E+03  0.17139629565E+04  0.18588979933E+04  0.46999998093E+01 0. -1.
       -5    1    3    3    0  502  0.70561248092E+03 -0.14114414646E+03 -0.27481214945E+03  0.77029504140E+03  0.46999998093E+01 0.  1.
</event>
<event>
 5   0  0.2929471E-05  0.2194837E+04  0.7818609E-02  0.8520580E-01
        1   -1    0    0  501    0  0.00000000000E+00  0.00000000000E+00  0.10251869608E+04  0.10251869608E+04  0.50400001928E-02 0. -1.
       -1   -1    0    0    0  501  0.00000000000E+00  0.00000000000E+00 -0.11747392365E+04  0.11747392365E+04  0.50400001928E-02 0.  1.
    10030    2    1    2    0    0  0.00000000000E+00  0.00000000000E+00 -0.14955227569E+03  0.21999261972E+04  0.21948369849E+04 0.  0.
        2    1    3    3  502    0 -0.17138553943E+03 -0.15953073511E+03  0.99985925444E+03  0.10269087531E+04  0.25500000920E-02 0. -1.
       -2    1    3    3    0  502  0.17138553943E+03  0.15953073511E+03 -0.11494115301E+04  0.11730174441E+04  0.25500000920E-02 0.  1.
</event>
<event>
 5   0  0.2929471E-05  0.2192032E+04  0.7818609E-02  0.8521752E-01
        1   -1    0    0  501    0  0.00000000000E+00  0.00000000000E+00  0.19004634705E+04  0.19004634706E+04  0.50400001928E-02 0.  1.
       -1   -1    0    0    0  501  0.00000000000E+00  0.00000000000E+00 -0.63208308212E+03  0.63208308214E+03  0.50400001928E-02 0. -1.
    10030    2    1    2    0    0  0.00000000000E+00  0.00000000000E+00  0.12683803884E+04  0.25325465527E+04  0.21920317589E+04 0.  0.
        2    1    3    3  502    0  0.21770617658E+03 -0.20261827039E+03 -0.58457286832E+03  0.65587771817E+03  0.25500000920E-02 0. -1.
       -2    1    3    3    0  502 -0.21770617658E+03  0.20261827039E+03  0.18529532567E+04  0.18766688345E+04  0.25500000920E-02 0.  1.
</event>
<event>
 5   0  0.2820239E-05  0.2216461E+04  0.7818609E-02  0.8511608E-01
        1   -1    0    0  501    0  0.00000000000E+00  0.00000000000E+00  0.14755269040E+04  0.14755269040E+04  0.50400001928E-02 0.  1.
       -1   -1    0    0    0  501  0.00000000000E+00  0.00000000000E+00 -0.83236346910E+03  0.83236346912E+03  0.50400001928E-02 0. -1.
    10030    2    1    2    0    0  0.00000000000E+00  0.00000000000E+00  0.64316343491E+03  0.23078903731E+04  0.22164608660E+04 0.  0.
        3    1    3    3  502    0 -0.93129872094E+03 -0.56443410656E+03  0.10750028108E+03  0.10942849213E+04  0.10100000352E+00 0. -1.
       -3    1    3    3    0  502  0.93129872094E+03  0.56443410656E+03  0.53566315383E+03  0.12136054519E+04  0.10100000352E+00 0.  1.
</event>
<event>
 5   0  0.6306919E-05  0.2174082E+04  0.7818609E-02  0.8529294E-01
       -2   -1    0    0    0  501  0.00000000000E+00  0.00000000000E+00  0.34032594254E+03  0.34032594255E+03  0.25500000920E-02 0.  1.
        2   -1    0    0  501    0  0.00000000000E+00  0.00000000000E+00 -0.34721380713E+04  0.34721380713E+04  0.25500000920E-02 0. -1.
    10030    2    1    2    0    0  0.00000000000E+00  0.00000000000E+00 -0.31318121288E+04  0.38124640139E+04  0.21740824840E+04 0.  0.
        3    1    3    3  502    0  0.90732651477E+03 -0.35938385373E+03 -0.24055484364E+04  0.25959702326E+04  0.10100000352E+00 0. -1.
       -3    1    3    3    0  502 -0.90732651477E+03  0.35938385373E+03 -0.72626369243E+03  0.12164937813E+04  0.10100000352E+00 0.  1.
</event>
<event>
 5   0  0.2910318E-05  0.2201196E+04  0.7818609E-02  0.8517931E-01
        1   -1    0    0  501    0  0.00000000000E+00  0.00000000000E+00  0.21195305638E+04  0.21195305638E+04  0.50400001928E-02 0.  1.
       -1   -1    0    0    0  501  0.00000000000E+00  0.00000000000E+00 -0.57150183460E+03  0.57150183462E+03  0.50400001928E-02 0. -1.
    10030    2    1    2    0    0  0.00000000000E+00  0.00000000000E+00  0.15480287292E+04  0.26910323984E+04  0.22011956803E+04 0.  0.
        5    1    3    3  502    0 -0.42531133983E+03  0.60061702512E+03 -0.22641957478E+03  0.77001198724E+03  0.46999998093E+01 0. -1.
       -5    1    3    3    0  502  0.42531133983E+03 -0.60061702512E+03  0.17744483039E+04  0.19210204111E+04  0.46999998093E+01 0.  1.
</event>
<event>
 5   0  0.2929471E-05  0.2166464E+04  0.7818609E-02  0.8532518E-01
        1   -1    0    0  501    0  0.00000000000E+00  0.00000000000E+00  0.99929889737E+03  0.99929889738E+03  0.50400001928E-02 0. -1.
       -1   -1    0    0    0  501  0.00000000000E+00  0.00000000000E+00 -0.11742149150E+04  0.11742149150E+04  0.50400001928E-02 0.  1.
    10030    2    1    2    0    0  0.00000000000E+00  0.00000000000E+00 -0.17491601764E+03  0.21735138124E+04  0.21664640960E+04 0.  0.
        2    1    3    3  502    0 -0.41592389502E+03 -0.39773266012E+03  0.83324702154E+03  0.10126621126E+04  0.25500000920E-02 0. -1.
       -2    1    3    3    0  502  0.41592389502E+03  0.39773266012E+03 -0.10081630392E+04  0.11608516998E+04  0.25500000920E-02 0.  1.
</event>
<event>
 5   0  0.6306919E-05  0.2163956E+04  0.7818609E-02  0.8533582E-01
       -2   -1    0    0    0  501  0.00000000000E+00  0.00000000000E+00  0.48633812485E+03  0.48633812485E+03  0.25500000920E-02 0.  1.
        2   -1    0    0  501    0  0.00000000000E+00  0.00000000000E+00 -0.24071254752E+04  0.24071254752E+04  0.25500000920E-02 0. -1.
    10030    2    1    2    0    0  0.00000000000E+00  0.00000000000E+00 -0.19207873504E+04  0.28934636001E+04  0.21639564597E+04 0.  0.
        3    1    3    3  502    0 -0.74114633573E+03 -0.14268097579E+03  0.76213891524E+02  0.75859364569E+03  0.10100000352E+00 0.  1.
       -3    1    3    3    0  502  0.74114633573E+03  0.14268097579E+03 -0.19970012419E+04  0.21348699544E+04  0.10100000352E+00 0. -1.
</event>
<event>
 5   0  0.6445740E-05  0.2167342E+04  0.7818609E-02  0.8532145E-01
        2   -1    0    0  501    0  0.00000000000E+00  0.00000000000E+00  0.15795350565E+04  0.15795350565E+04  0.25500000920E-02 0.  1.
       -2   -1    0    0    0  501  0.00000000000E+00  0.00000000000E+00 -0.74347363698E+03  0.74347363698E+03  0.25500000920E-02 0. -1.
    10030    2    1    2    0    0  0.00000000000E+00  0.00000000000E+00  0.83606141956E+03  0.23230086935E+04  0.21673418496E+04 0.  0.
        5    1    3    3  502    0 -0.10212615829E+02 -0.99845243483E+03 -0.33293711752E+02  0.99907062983E+03  0.46999998093E+01 0. -1.
       -5    1    3    3    0  502  0.10212615829E+02  0.99845243483E+03  0.86935513131E+03  0.13239380637E+04  0.46999998093E+01 0.  1.
</event>
<event>
 5   0  0.6445740E-05  0.2197865E+04  0.7818609E-02  0.8519317E-01
       -2   -1    0    0    0  501  0.00000000000E+00  0.00000000000E+00  0.76821447493E+03  0.76821447493E+03  0.25500000920E-02 0. -1.
        2   -1    0    0  501    0  0.00000000000E+00  0.00000000000E+00 -0.15720250561E+04  0.15720250561E+04  0.25500000920E-02 0.  1.
    10030    2    1    2    0    0  0.00000000000E+00  0.00000000000E+00 -0.80381058119E+03  0.23402395311E+04  0.21978647848E+04 0.  0.
        5    1    3    3  502    0  0.89359021491E+03 -0.32352632905E+03  0.18561479494E+03  0.96832210543E+03  0.46999998093E+01 0. -1.
       -5    1    3    3    0  502 -0.89359021491E+03  0.32352632905E+03 -0.98942537613E+03  0.13719174256E+04  0.46999998093E+01 0.  1.
</event>
<event>
 5   0  0.6445740E-05  0.1867752E+04  0.7818609E-02  0.8671077E-01
        2   -1    0    0  501    0  0.00000000000E+00  0.00000000000E+00  0.40806259568E+03  0.40806259569E+03  0.25500000920E-02 0. -1.
       -2   -1    0    0    0  501  0.00000000000E+00  0.00000000000E+00 -0.21372323155E+04  0.21372323155E+04  0.25500000920E-02 0.  1.
    10030    2    1    2    0    0  0.00000000000E+00  0.00000000000E+00 -0.17291697198E+04  0.25452949112E+04  0.18677521958E+04 0.  0.
        5    1    3    3  502    0  0.17444269707E+03  0.53396981952E+03 -0.18812322351E+04  0.19633162851E+04  0.46999998093E+01 0.  1.
       -5    1    3    3    0  502 -0.17444269707E+03 -0.53396981952E+03  0.15206251530E+03  0.58197862613E+03  0.46999998093E+01 0. -1.
</event>
<event>
 5   0  0.6414768E-05  0.2202140E+04  0.7818609E-02  0.8517538E-01
        2   -1    0    0  501    0  0.00000000000E+00  0.00000000000E+00  0.15591877219E+04  0.15591877219E+04  0.25500000920E-02 0. -1.
       -2   -1    0    0    0  501  0.00000000000E+00  0.00000000000E+00 -0.77755526361E+03  0.77755526361E+03  0.25500000920E-02 0.  1.
    10030    2    1    2    0    0  0.00000000000E+00  0.00000000000E+00  0.78163245826E+03  0.23367429855E+04  0.22021395234E+04 0.  0.
        2    1    3    3  502    0  0.58085743954E+03  0.74354743695E+03  0.99304166508E+03  0.13698138212E+04  0.25500000920E-02 0. -1.
       -2    1    3    3    0  502 -0.58085743954E+03 -0.74354743695E+03 -0.21140920682E+03  0.96692916432E+03  0.25500000920E-02 0.  1.
</event>
<event>
 5   0  0.6628798E-05  0.2189011E+04  0.7818609E-02  0.8523016E-01
       -2   -1    0    0    0  501  0.00000000000E+00  0.00000000000E+00  0.10186151105E+04  0.10186151105E+04  0.25500000920E-02 0.  1.
        2   -1    0    0  501    0  0.00000000000E+00  0.00000000000E+00 -0.11760503284E+04  0.11760503284E+04  0.25500000920E-02 0. -1.
    10030    2    1    2    0    0  0.00000000000E+00  0.00000000000E+00 -0.15743521793E+03  0.21946654389E+04  0.21890113158E+04 0.  0.
        4    1    3    3  502    0  0.79797187669E+03 -0.16642873269E+03 -0.81100366799E+03  0.11498635577E+04  0.12699999809E+01 0.  1.
       -4    1    3    3    0  502 -0.79797187669E+03  0.16642873269E+03  0.65356845006E+03  0.10448018812E+04  0.12699999809E+01 0. -1.
</event>
<event>
 5   0  0.6306919E-05  0.2218447E+04  0.7818609E-02  0.8510789E-01
       -2   -1    0    0    0  501  0.00000000000E+00  0.00000000000E+00  0.11213970656E+04  0.11213970656E+04  0.25500000920E-02 0.  1.
        2   -1    0    0  501    0  0.00000000000E+00  0.00000000000E+00 -0.10971823474E+04  0.10971823474E+04  0.25500000920E-02 0. -1.
    10030    2    1    2    0    0  0.00000000000E+00  0.00000000000E+00  0.24214718278E+02  0.22185794130E+04  0.22184472631E+04 0.  0.
        3    1    3    3  502    0  0.93738179060E+03 -0.51104160136E+03 -0.28879079744E+03  0.11060055491E+04  0.10100000352E+00 0. -1.
       -3    1    3    3    0  502 -0.93738179060E+03  0.51104160136E+03  0.31300551572E+03  0.11125738640E+04  0.10100000352E+00 0.  1.
</event>
<event>
 5   0  0.6445740E-05  0.1771578E+04  0.7818609E-02  0.8721562E-01
        2   -1    0    0  501    0  0.00000000000E+00  0.00000000000E+00  0.21167052811E+04  0.21167052811E+04  0.25500000920E-02 0.  1.
       -2   -1    0    0    0  501  0.00000000000E+00  0.00000000000E+00 -0.37068086098E+03  0.37068086098E+03  0.25500000920E-02 0. -1.
    10030    2    1    2    0    0  0.00000000000E+00  0.00000000000E+00  0.17460244201E+04  0.24873861421E+04  0.17715779814E+04 0.  0.
        5    1    3    3  502    0 -0.23611581501E+03 -0.68066366891E+03  0.15965364650E+04  0.17515720032E+04  0.46999998093E+01 0.  1.
       -5    1    3    3    0  502  0.23611581501E+03  0.68066366891E+03  0.14948795511E+03  0.73581413889E+03  0.46999998093E+01 0. -1.
</event>
<event>
 5   0  0.6293013E-05  0.2236721E+04  0.7818609E-02  0.8503298E-01
       -2   -1    0    0    0  501  0.00000000000E+00  0.00000000000E+00  0.44086413923E+03  0.44086413924E+03  0.25500000920E-02 0.  1.
        2   -1    0    0  501    0  0.00000000000E+00  0.00000000000E+00 -0.28369970645E+04  0.28369970645E+04  0.25500000920E-02 0. -1.
    10030    2    1    2    0    0  0.00000000000E+00  0.00000000000E+00 -0.23961329253E+04  0.32778612038E+04  0.22367210545E+04 0.  0.
        1    1    3    3  502    0 -0.78472818891E+03 -0.69412608384E+03 -0.17715170428E+04  0.20581258426E+04  0.50400001928E-02 0.  1.
       -1    1    3    3    0  502  0.78472818891E+03  0.69412608384E+03 -0.62461588247E+03  0.12197353612E+04  0.50400001928E-02 0. -1.
</event>
<event>
 5   0  0.2245375E-05  0.2481645E+04  0.7818609E-02  0.8409554E-01
       -3   -1    0    0    0  501  0.00000000000E+00  0.00000000000E+00  0.11092239398E+04  0.11092239444E+04  0.10100000352E+00 0. -1.
        3   -1    0    0  501    0  0.00000000000E+00  0.00000000000E+00 -0.13880344793E+04  0.13880344829E+04  0.10100000352E+00 0.  1.
    10030    2    1    2    0    0  0.00000000000E+00  0.00000000000E+00 -0.27881053943E+03  0.24972584274E+04  0.24816454896E+04 0.  0.
        1    1    3    3  502    0 -0.44255141068E+03  0.53618002775E+03  0.89482548899E+03  0.11331608134E+04  0.50400001928E-02 0. -1.
       -1    1    3    3    0  502  0.44255141068E+03 -0.53618002775E+03 -0.11736360284E+04  0.13640976140E+04  0.50400001928E-02 0.  1.
</event>
<event>
 5   0  0.6293013E-05  0.2197052E+04  0.7818609E-02  0.8519656E-01
        2   -1    0    0  501    0  0.00000000000E+00  0.00000000000E+00  0.18551192467E+04  0.18551192467E+04  0.25500000920E-02 0. -1.
       -2   -1    0    0    0  501  0.00000000000E+00  0.00000000000E+00 -0.65050222589E+03  0.65050222590E+03  0.25500000920E-02 0.  1.
    10030    2    1    2    0    0  0.00000000000E+00  0.00000000000E+00  0.12046170208E+04  0.25056214726E+04  0.21970518421E+04 0.  0.
        1    1    3    3  502    0  0.58885188107E+03  0.49027312654E+03  0.15000403019E+04  0.16844094466E+04  0.50400001928E-02 0. -1.
       -1    1    3    3    0  502 -0.58885188107E+03 -0.49027312654E+03 -0.29542328117E+03  0.82121202593E+03  0.50400001928E-02 0.  1.
</event>
<event>
 5   0  0.2929471E-05  0.2180019E+04  0.7818609E-02  0.8526791E-01
        1   -1    0    0  501    0  0.00000000000E+00  0.00000000000E+00  0.19132771542E+04  0.19132771542E+04  0.50400001928E-02 0. -1.
       -1   -1    0    0    0  501  0.00000000000E+00  0.00000000000E+00 -0.62098719134E+03  0.62098719136E+03  0.50400001928E-02 0.  1.
    10030    2    1    2    0    0  0.00000000000E+00  0.00000000000E+00  0.12922899628E+04  0.25342643455E+04  0.21800189047E+04 0.  0.
        2    1    3    3  502    0  0.14202377002E+03  0.20372931599E+03  0.18799499062E+04  0.18962826887E+04  0.25500000920E-02 0. -1.
       -2    1    3    3    0  502 -0.14202377002E+03 -0.20372931599E+03 -0.58765994339E+03  0.63798165688E+03  0.25500000920E-02 0.  1.
</event>
<event>
 5   0  0.6306919E-05  0.2212971E+04  0.7818609E-02  0.8513049E-01
       -2   -1    0    0    0  501  0.00000000000E+00  0.00000000000E+00  0.57578999168E+03  0.57578999168E+03  0.25500000920E-02 0.  1.
        2   -1    0    0  501    0  0.00000000000E+00  0.00000000000E+00 -0.21263129867E+04  0.21263129867E+04  0.25500000920E-02 0. -1.
    10030    2    1    2    0    0  0.00000000000E+00  0.00000000000E+00 -0.15505229951E+04  0.27021029784E+04  0.22129706161E+04 0.  0.
        3    1    3    3  502    0 -0.67615614012E+03  0.73363419021E+03 -0.13594492430E+04  0.16862705908E+04  0.10100000352E+00 0. -1.
       -3    1    3    3    0  502  0.67615614012E+03 -0.73363419021E+03 -0.19107375208E+03  0.10158323877E+04  0.10100000352E+00 0.  1.
</event>
<event>
 5   0  0.2753631E-05  0.2217513E+04  0.7818609E-02  0.8511174E-01
       -1   -1    0    0    0  501  0.00000000000E+00  0.00000000000E+00  0.11789472936E+04  0.11789472937E+04  0.50400001928E-02 0. -1.
        1   -1    0    0  501    0  0.00000000000E+00  0.00000000000E+00 -0.10427446544E+04  0.10427446544E+04  0.50400001928E-02 0.  1.
    10030    2    1    2    0    0  0.00000000000E+00  0.00000000000E+00  0.13620263922E+03  0.22216919481E+04  0.22175130109E+04 0.  0.
        4    1    3    3  502    0  0.34101593765E+03  0.10169272819E+04  0.34953353153E+03  0.11280994056E+04  0.12699999809E+01 0. -1.
       -4    1    3    3    0  502 -0.34101593765E+03 -0.10169272819E+04 -0.21333089231E+03  0.10935925425E+04  0.12699999809E+01 0.  1.
</event>
<event>
 5   0  0.2908031E-05  0.2190594E+04  0.7818609E-02  0.8522353E-01
       -1   -1    0    0    0  501  0.00000000000E+00  0.00000000000E+00  0.94741558409E+03  0.94741558410E+03  0.50400001928E-02 0.  1.
        1   -1    0    0  501    0  0.00000000000E+00  0.00000000000E+00 -0.12662612657E+04  0.12662612657E+04  0.50400001928E-02 0. -1.
    10030    2    1    2    0    0  0.00000000000E+00  0.00000000000E+00 -0.31884568159E+03  0.22136768498E+04  0.21905941264E+04 0.  0.
        1    1    3    3  502    0 -0.84799858973E+03  0.66821948432E+03 -0.34591218757E+03  0.11336993115E+04  0.50400001928E-02 0.  1.
       -1    1    3    3    0  502  0.84799858973E+03 -0.66821948432E+03  0.27066505974E+02  0.10799775383E+04  0.50400001928E-02 0. -1.
</event>
<event>
 5   0  0.2910318E-05  0.2260212E+04  0.7818609E-02  0.8493776E-01
       -1   -1    0    0    0  501  0.00000000000E+00  0.00000000000E+00  0.67333060043E+03  0.67333060045E+03  0.50400001928E-02 0. -1.
        1   -1    0    0  501    0  0.00000000000E+00  0.00000000000E+00 -0.18967492643E+04  0.18967492643E+04  0.50400001928E-02 0.  1.
    10030    2    1    2    0    0  0.00000000000E+00  0.00000000000E+00 -0.12234186639E+04  0.25700798648E+04  0.22602117786E+04 0.  0.
        5    1    3    3  502    0  0.32974122049E+03 -0.30125399100E+03  0.56870133718E+03  0.72313659878E+03  0.46999998093E+01 0. -1.
       -5    1    3    3    0  502 -0.32974122049E+03  0.30125399100E+03 -0.17921200011E+04  0.18469432660E+04  0.46999998093E+01 0.  1.
</event>
<event>
 5   0  0.6628798E-05  0.2184403E+04  0.7818609E-02  0.8524948E-01
       -2   -1    0    0    0  501  0.00000000000E+00  0.00000000000E+00  0.54898070940E+03  0.54898070941E+03  0.25500000920E-02 0.  1.
        2   -1    0    0  501    0  0.00000000000E+00  0.00000000000E+00 -0.21729431416E+04  0.21729431416E+04  0.25500000920E-02 0. -1.
    10030    2    1    2    0    0  0.00000000000E+00  0.00000000000E+00 -0.16239624322E+04  0.27219238510E+04  0.21844027718E+04 0.  0.
        4    1    3    3  502    0  0.20494449150E+03  0.64224380827E+03 -0.18827503179E+04  0.19998074223E+04  0.12699999809E+01 0. -1.
       -4    1    3    3    0  502 -0.20494449150E+03 -0.64224380827E+03  0.25878788573E+03  0.72211642867E+03  0.12699999809E+01 0.  1.
</event>
<event>
 5   0  0.2929471E-05  0.2188049E+04  0.7818609E-02  0.8523419E-01
       -1   -1    0    0    0  501  0.00000000000E+00  0.00000000000E+00  0.10693609643E+04  0.10693609643E+04  0.50400001928E-02 0.  1.
        1   -1    0    0  501    0  0.00000000000E+00  0.00000000000E+00 -0.11192568399E+04  0.11192568399E+04  0.50400001928E-02 0. -1.
    10030    2    1    2    0    0  0.00000000000E+00  0.00000000000E+00 -0.49895875625E+02  0.21886178042E+04  0.21880489698E+04 0.  0.
        2    1    3    3  502    0  0.39159648903E+03 -0.18324896415E+03  0.98028177468E+03  0.10713917822E+04  0.25500000920E-02 0.  1.
       -2    1    3    3    0  502 -0.39159648903E+03  0.18324896415E+03 -0.10301776503E+04  0.11172260220E+04  0.25500000920E-02 0. -1.
</event>
<event>
 5   0  0.6414768E-05  0.2186370E+04  0.7818609E-02  0.8524123E-01
        2   -1    0    0  501    0  0.00000000000E+00  0.00000000000E+00  0.14540845798E+04  0.14540845798E+04  0.25500000920E-02 0.  1.
       -2   -1    0    0    0  501  0.00000000000E+00  0.00000000000E+00 -0.82185994169E+03  0.82185994169E+03  0.25500000920E-02 0. -1.
    10030    2    1    2    0    0  0.00000000000E+00  0.00000000000E+00  0.63222463808E+03  0.22759445215E+04  0.21863703876E+04 0.  0.
        2    1    3    3  502    0  0.10028192026E+04  0.16253335982E+03 -0.10414857168E+03  0.10212298327E+04  0.25500000920E-02 0. -1.
       -2    1    3    3    0  502 -0.10028192026E+04 -0.16253335982E+03  0.73637320976E+03  0.12547146888E+04  0.25500000920E-02 0.  1.
</event>
<event>
 5   0  0.6293013E-05  0.2197411E+04  0.7818609E-02  0.8519506E-01
       -2   -1    0    0    0  501  0.00000000000E+00  0.00000000000E+00  0.64812915915E+03  0.64812915916E+03  0.25500000920E-02 0. -1.
        2   -1    0    0  501    0  0.00000000000E+00  0.00000000000E+00 -0.18625204296E+04  0.18625204296E+04  0.25500000920E-02 0.  1.
    10030    2    1    2    0    0  0.00000000000E+00  0.00000000000E+00 -0.12143912705E+04  0.25106495888E+04  0.21974110221E+04 0.  0.
        1    1    3    3  502    0 -0.32089689132E+02  0.92888021387E+03 -0.12766411679E+04  0.15791329493E+04  0.50400001928E-02 0.  1.
       -1    1    3    3    0  502  0.32089689132E+02 -0.92888021387E+03  0.62249897469E+02  0.93151663948E+03  0.50400001928E-02 0. -1.
</event>
<event>
 5   0  0.6445740E-05  0.2184321E+04  0.7818609E-02  0.8524982E-01
       -2   -1    0    0    0  501  0.00000000000E+00  0.00000000000E+00  0.78152473171E+03  0.78152473171E+03  0.25500000920E-02 0. -1.
        2   -1    0    0  501    0  0.00000000000E+00  0.00000000000E+00 -0.15262665370E+04  0.15262665370E+04  0.25500000920E-02 0.  1.
    10030    2    1    2    0    0  0.00000000000E+00  0.00000000000E+00 -0.74474180525E+03  0.23077912687E+04  0.21843214469E+04 0.  0.
        5    1    3    3  502    0 -0.42830484368E+03  0.50765648486E+03  0.54360245281E+03  0.85830406176E+03  0.46999998093E+01 0. -1.
       -5    1    3    3    0  502  0.42830484368E+03 -0.50765648486E+03 -0.12883442581E+04  0.14494872069E+04  0.46999998093E+01 0.  1.
</event>
<event>
 5   0  0.2929471E-05  0.2323866E+04  0.7818609E-02  0.8468570E-01
        1   -1    0    0  501    0  0.00000000000E+00  0.00000000000E+00  0.11204611320E+04  0.11204611320E+04  0.50400001928E-02 0.  1.
       -1   -1    0    0    0  501  0.00000000000E+00  0.00000000000E+00 -0.12049394029E+04  0.12049394029E+04  0.50400001928E-02 0. -1.
    10030    2    1    2    0    0  0.00000000000E+00  0.00000000000E+00 -0.84478270911E+02  0.23254005349E+04  0.23238655446E+04 0.  0.
        2    1    3    3  502    0  0.78732560607E+03 -0.77992056525E+03  0.30717637676E+03  0.11500065324E+04  0.25500000920E-02 0.  1.
       -2    1    3    3    0  502 -0.78732560607E+03  0.77992056525E+03 -0.39165464768E+03  0.11753940025E+04  0.25500000920E-02 0. -1.
</event>
<event>
 5   0  0.2753631E-05  0.2215308E+04  0.7818609E-02  0.8512084E-01
        1   -1    0    0  501    0  0.00000000000E+00  0.00000000000E+00  0.99119868656E+03  0.99119868657E+03  0.50400001928E-02 0. -1.
       -1   -1    0    0    0  501  0.00000000000E+00  0.00000000000E+00 -0.12377913815E+04  0.12377913815E+04  0.50400001928E-02 0.  1.
    10030    2    1    2    0    0  0.00000000000E+00  0.00000000000E+00 -0.24659269493E+03  0.22289900681E+04  0.22153078265E+04 0.  0.
        4    1    3    3  502    0  0.17097476512E+03 -0.64554077922E+03  0.76586990685E+03  0.10161267613E+04  0.12699999809E+01 0. -1.
       -4    1    3    3    0  502 -0.17097476512E+03  0.64554077922E+03 -0.10124626018E+04  0.12128633067E+04  0.12699999809E+01 0.  1.
</event>
<event>
 5   0  0.6628798E-05  0.2219348E+04  0.7818609E-02  0.8510418E-01
       -2   -1    0    0    0  501  0.00000000000E+00  0.00000000000E+00  0.14983506021E+04  0.14983506021E+04  0.25500000920E-02 0.  1.
        2   -1    0    0  501    0  0.00000000000E+00  0.00000000000E+00 -0.82182162856E+03  0.82182162856E+03  0.25500000920E-02 0. -1.
    10030    2    1    2    0    0  0.00000000000E+00  0.00000000000E+00  0.67652897359E+03  0.23201722307E+04  0.22193484918E+04 0.  0.
        4    1    3    3  502    0 -0.22756296095E+03  0.23567325318E+03  0.14466408465E+04  0.14832727784E+04  0.12699999809E+01 0.  1.
       -4    1    3    3    0  502  0.22756296095E+03 -0.23567325318E+03 -0.77011187295E+03  0.83689945228E+03  0.12699999809E+01 0. -1.
</event>
<event>
 5   0  0.6306919E-05  0.2186849E+04  0.7818609E-02  0.8523922E-01
        2   -1    0    0  501    0  0.00000000000E+00  0.00000000000E+00  0.31379804679E+04  0.31379804679E+04  0.25500000920E-02 0.  1.
       -2   -1    0    0    0  501  0.00000000000E+00  0.00000000000E+00 -0.38100222058E+03  0.38100222059E+03  0.25500000920E-02 0. -1.
    10030    2    1    2    0    0  0.00000000000E+00  0.00000000000E+00  0.27569782473E+04  0.35189826885E+04  0.21868493560E+04 0.  0.
        3    1    3    3  502    0 -0.27563763275E+03 -0.24223178022E+03 -0.27896165878E+03  0.46094680518E+03  0.10100000352E+00 0. -1.
       -3    1    3    3    0  502  0.27563763275E+03  0.24223178022E+03  0.30359399061E+04  0.30580358833E+04  0.10100000352E+00 0.  1.
</event>
<event>
 5   0  0.2908031E-05  0.2182738E+04  0.7818609E-02  0.8525648E-01
        1   -1    0    0  501    0  0.00000000000E+00  0.00000000000E+00  0.10226229698E+04  0.10226229698E+04  0.50400001928E-02 0. -1.
       -1   -1    0    0    0  501  0.00000000000E+00  0.00000000000E+00 -0.11647362843E+04  0.11647362843E+04  0.50400001928E-02 0.  1.
    10030    2    1    2    0    0  0.00000000000E+00  0.00000000000E+00 -0.14211331449E+03  0.21873592540E+04  0.21827378020E+04 0.  0.
        1    1    3    3  502    0 -0.10033377230E+04  0.73571533212E+01 -0.50132030801E+03  0.11216339712E+04  0.50400001928E-02 0. -1.
       -1    1    3    3    0  502  0.10033377230E+04 -0.73571533212E+01  0.35920699352E+03  0.10657252828E+04  0.50400001928E-02 0.  1.
</event>
<event>
 5   0  0.2820239E-05  0.2199246E+04  0.7818609E-02  0.8518742E-01
       -1   -1    0    0    0  501  0.00000000000E+00  0.00000000000E+00  0.11112452989E+04  0.11112452990E+04  0.50400001928E-02 0. -1.
        1   -1    0    0  501    0  0.00000000000E+00  0.00000000000E+00 -0.10881217800E+04  0.10881217800E+04  0.50400001928E-02 0.  1.
    10030    2    1    2    0    0  0.00000000000E+00  0.00000000000E+00  0.23123518908E+02  0.21993670790E+04  0.21992455186E+04 0.  0.
        3    1    3    3  502    0  0.75809766024E+03 -0.14374123989E+03  0.79505678276E+03  0.11079209830E+04  0.10100000352E+00 0. -1.
       -3    1    3    3    0  502 -0.75809766024E+03  0.14374123989E+03 -0.77193326385E+03  0.10914460960E+04  0.10100000352E+00 0.  1.
</event>
<event>
 5   0  0.2929471E-05  0.2209169E+04  0.7818609E-02  0.8514621E-01
        1   -1    0    0  501    0  0.00000000000E+00  0.00000000000E+00  0.68344305619E+03  0.68344305620E+03  0.50400001928E-02 0.  1.
       -1   -1    0    0    0  501  0.00000000000E+00  0.00000000000E+00 -0.17852360413E+04  0.17852360413E+04  0.50400001928E-02 0. -1.
    10030    2    1    2    0    0  0.00000000000E+00  0.00000000000E+00 -0.11017929851E+04  0.24686790975E+04  0.22091692340E+04 0.  0.
        2    1    3    3  502    0 -0.11144829803E+03 -0.77251048017E+03 -0.14243216488E+04  0.16241568042E+04  0.25500000920E-02 0. -1.
       -2    1    3    3    0  502  0.11144829803E+03  0.77251048017E+03  0.32252866370E+03  0.84452229339E+03  0.25500000920E-02 0.  1.
</event>
<event>
 5   0  0.2929471E-05  0.2204052E+04  0.7818609E-02  0.8516743E-01
       -1   -1    0    0    0  501  0.00000000000E+00  0.00000000000E+00  0.86925467893E+03  0.86925467894E+03  0.50400001928E-02 0.  1.
        1   -1    0    0  501    0  0.00000000000E+00  0.00000000000E+00 -0.13971299321E+04  0.13971299322E+04  0.50400001928E-02 0. -1.
    10030    2    1    2    0    0  0.00000000000E+00  0.00000000000E+00 -0.52787525322E+03  0.22663846111E+04  0.22040523865E+04 0.  0.
        2    1    3    3  502    0  0.29090040298E+03  0.10117421206E+04 -0.59906340155E+03  0.12112481670E+04  0.25500000920E-02 0. -1.
       -2    1    3    3    0  502 -0.29090040298E+03 -0.10117421206E+04  0.71188148330E+02  0.10551364441E+04  0.25500000920E-02 0.  1.
</event>
<event>
 5   0  0.6445740E-05  0.2210493E+04  0.7818609E-02  0.8514073E-01
        2   -1    0    0  501    0  0.00000000000E+00  0.00000000000E+00  0.97338002424E+03  0.97338002424E+03  0.25500000920E-02 0. -1.
       -2   -1    0    0    0  501  0.00000000000E+00  0.00000000000E+00 -0.12549773744E+04  0.12549773744E+04  0.25500000920E-02 0.  1.
    10030    2    1    2    0    0  0.00000000000E+00  0.00000000000E+00 -0.28159735012E+03  0.22283573986E+04  0.22104930736E+04 0.  0.
        5    1    3    3  502    0 -0.93552248363E+02 -0.40138810748E+03 -0.11746026419E+04  0.12448204257E+04  0.46999998093E+01 0.  1.
       -5    1    3    3    0  502  0.93552248363E+02  0.40138810748E+03  0.89300529173E+03  0.98353697290E+03  0.46999998093E+01 0. -1.
</event>
<event>
 5   0  0.2910318E-05  0.2188969E+04  0.7818609E-02  0.8523034E-01
        1   -1    0    0  501    0  0.00000000000E+00  0.00000000000E+00  0.14292695776E+04  0.14292695776E+04  0.50400001928E-02 0.  1.
       -1   -1    0    0    0  501  0.00000000000E+00  0.00000000000E+00 -0.83811767303E+03  0.83811767304E+03  0.50400001928E-02 0. -1.
    10030    2    1    2    0    0  0.00000000000E+00  0.00000000000E+00  0.59115190456E+03  0.22673872506E+04  0.21889687915E+04 0.  0.
        5    1    3    3  502    0 -0.70612247930E+03  0.78265044987E+03 -0.94621415721E+01  0.10541642683E+04  0.46999998093E+01 0. -1.
       -5    1    3    3    0  502  0.70612247930E+03 -0.78265044987E+03  0.60061404614E+03  0.12132229823E+04  0.46999998093E+01 0.  1.
</event>
<event>
 5   0  0.2820239E-05  0.2200032E+04  0.7818609E-02  0.8518415E-01
        1   -1    0    0  501    0  0.00000000000E+00  0.00000000000E+00  0.12453388917E+04  0.12453388917E+04  0.50400001928E-02 0. -1.
       -1   -1    0    0    0  501  0.00000000000E+00  0.00000000000E+00 -0.97165137606E+03  0.97165137608E+03  0.50400001928E-02 0.  1.
    10030    2    1    2    0    0  0.00000000000E+00  0.00000000000E+00  0.27368751560E+03  0.22169902678E+04  0.22000320432E+04 0.  0.
        3    1    3    3  502    0  0.97385742444E+03 -0.44713100920E+03  0.38717521159E+03  0.11393985594E+04  0.10100000352E+00 0.  1.
       -3    1    3    3    0  502 -0.97385742444E+03  0.44713100920E+03 -0.11348769599E+03  0.10775917083E+04  0.10100000352E+00 0. -1.
</event>
<event>
 5   0  0.2910318E-05  0.2226777E+04  0.7818609E-02  0.8507365E-01
       -1   -1    0    0    0  501  0.00000000000E+00  0.00000000000E+00  0.11779309344E+04  0.11779309344E+04  0.50400001928E-02 0.  1.
        1   -1    0    0  501    0  0.00000000000E+00  0.00000000000E+00 -0.10523828057E+04  0.10523828057E+04  0.50400001928E-02 0. -1.
    10030    2    1    2    0    0  0.00000000000E+00  0.00000000000E+00  0.12554812879E+03  0.22303137401E+04  0.22267772782E+04 0.  0.
        5    1    3    3  502    0 -0.65344060931E+03 -0.61618833846E+03 -0.59625227281E+03  0.10780591640E+04  0.46999998093E+01 0.  1.
       -5    1    3    3    0  502  0.65344060931E+03  0.61618833846E+03  0.72180040159E+03  0.11522545761E+04  0.46999998093E+01 0. -1.
</event>
<event>
 5   0  0.2908031E-05  0.2190240E+04  0.7818609E-02  0.8522501E-01
        1   -1    0    0  501    0  0.00000000000E+00  0.00000000000E+00  0.15005218699E+04  0.15005218699E+04  0.50400001928E-02 0.  1.
       -1   -1    0    0    0  501  0.00000000000E+00  0.00000000000E+00 -0.79924736902E+03  0.79924736904E+03  0.50400001928E-02 0. -1.
    10030    2    1    2    0    0  0.00000000000E+00  0.00000000000E+00  0.70127450089E+03  0.22997692390E+04  0.21902403126E+04 0.  0.
        1    1    3    3  502    0  0.16409873297E+03 -0.90791873301E+03 -0.26881688184E+03  0.96099289066E+03  0.50400001928E-02 0. -1.
       -1    1    3    3    0  502 -0.16409873297E+03  0.90791873301E+03  0.97009138273E+03  0.13387763483E+04  0.50400001928E-02 0.  1.
</event>
<event>
 5   0  0.6414768E-05  0.2215098E+04  0.7818609E-02  0.8512170E-01
       -2   -1    0    0    0  501  0.00000000000E+00  0.00000000000E+00  0.16928609964E+04  0.16928609964E+04  0.25500000920E-02 0.  1.
        2   -1    0    0  501    0  0.00000000000E+00  0.00000000000E+00 -0.72461069359E+03  0.72461069359E+03  0.25500000920E-02 0. -1.
    10030    2    1    2    0    0  0.00000000000E+00  0.00000000000E+00  0.96825030279E+03  0.24174716900E+04  0.22150983551E+04 0.  0.
        2    1    3    3  502    0  0.69815375739E+02  0.52137214251E+03  0.15478309284E+04  0.16347732811E+04  0.25500000920E-02 0.  1.
       -2    1    3    3    0  502 -0.69815375739E+02 -0.52137214251E+03 -0.57958062561E+03  0.78269840888E+03  0.25500000920E-02 0. -1.
</event>
<event>
 5   0  0.6293013E-05  0.2030145E+04  0.7818609E-02  0.8592655E-01
       -2   -1    0    0    0  501  0.00000000000E+00  0.00000000000E+00  0.16511679899E+04  0.16511679899E+04  0.25500000920E-02 0. -1.
        2   -1    0    0  501    0  0.00000000000E+00  0.00000000000E+00 -0.62402628489E+03  0.62402628489E+03  0.25500000920E-02 0.  1.
    10030    2    1    2    0    0  0.00000000000E+00  0.00000000000E+00  0.10271417050E+04  0.22751942748E+04  0.20301450455E+04 0.  0.
        1    1    3    3  502    0  0.17790633663E+03  0.98671918658E+03  0.69114804063E+03  0.12177647687E+04  0.50400001928E-02 0. -1.
       -1    1    3    3    0  502 -0.17790633663E+03 -0.98671918658E+03  0.33599366435E+03  0.10574295061E+04  0.50400001928E-02 0.  1.
</event>
<event>
 5   0  0.2910318E-05  0.2196943E+04  0.7818609E-02  0.8519701E-01
       -1   -1    0    0    0  501  0.00000000000E+00  0.00000000000E+00  0.54669568062E+03  0.54669568064E+03  0.50400001928E-02 0. -1.
        1   -1    0    0  501    0  0.00000000000E+00  0.00000000000E+00 -0.22071511489E+04  0.22071511489E+04  0.50400001928E-02 0.  1.
    10030    2    1    2    0    0  0.00000000000E+00  0.00000000000E+00 -0.16604554682E+04  0.27538468295E+04  0.21969433307E+04 0.  0.
        5    1    3    3  502    0  0.96740241980E+03 -0.14357580354E+03 -0.14571438335E+04  0.17549278318E+04  0.46999998093E+01 0.  1.
       -5    1    3    3    0  502 -0.96740241980E+03  0.14357580354E+03 -0.20331163472E+03  0.99891899772E+03  0.46999998093E+01 0. -1.
</event>
<event>
 5   0  0.2929471E-05  0.2191572E+04  0.7818609E-02  0.8521944E-01
        1   -1    0    0  501    0  0.00000000000E+00  0.00000000000E+00  0.26253414574E+04  0.26253414574E+04  0.50400001928E-02 0.  1.
       -1   -1    0    0    0  501  0.00000000000E+00  0.00000000000E+00 -0.45736790671E+03  0.45736790674E+03  0.50400001928E-02 0. -1.
    10030    2    1    2    0    0  0.00000000000E+00  0.00000000000E+00  0.21679735507E+04  0.30827093642E+04  0.21915719717E+04 0.  0.
        2    1    3    3  502    0 -0.51616166936E+03 -0.14414266278E+03  0.24284294224E+04  0.24868593518E+04  0.25500000920E-02 0.  1.
       -2    1    3    3    0  502  0.51616166936E+03  0.14414266278E+03 -0.26045587167E+03  0.59585001237E+03  0.25500000920E-02 0. -1.
</event>
<event>
 5   0  0.2820239E-05  0.2261686E+04  0.7818609E-02  0.8493183E-01
        1   -1    0    0  501    0  0.00000000000E+00  0.00000000000E+00  0.68817628150E+03  0.68817628152E+03  0.50400001928E-02 0.  1.
       -1   -1    0    0    0  501  0.00000000000E+00  0.00000000000E+00 -0.18582528600E+04  0.18582528600E+04  0.50400001928E-02 0. -1.
    10030    2    1    2    0    0  0.00000000000E+00  0.00000000000E+00 -0.11700765785E+04  0.25464291416E+04  0.22616856929E+04 0.  0.
        3    1    3    3  502    0 -0.10349973226E+04  0.44023696292E+03 -0.45288303744E+03  0.12124896276E+04  0.10100000352E+00 0. -1.
       -3    1    3    3    0  502  0.10349973226E+04 -0.44023696292E+03 -0.71719354110E+03  0.13339395139E+04  0.10100000352E+00 0.  1.
</event>
<event>
 5   0  0.6414768E-05  0.2192235E+04  0.7818609E-02  0.8521667E-01
        2   -1    0    0  501    0  0.00000000000E+00  0.00000000000E+00  0.20855784719E+04  0.20855784719E+04  0.25500000920E-02 0. -1.
       -2   -1    0    0    0  501  0.00000000000E+00  0.00000000000E+00 -0.57608649951E+03  0.57608649951E+03  0.25500000920E-02 0.  1.
    10030    2    1    2    0    0  0.00000000000E+00  0.00000000000E+00  0.15094919724E+04  0.26616649714E+04  0.21922350251E+04 0.  0.
        2    1    3    3  502    0  0.60749157926E+03  0.72127265216E+03  0.14331338917E+04  0.17155620097E+04  0.25500000920E-02 0. -1.
       -2    1    3    3    0  502 -0.60749157926E+03 -0.72127265216E+03  0.76358080683E+02  0.94610296169E+03  0.25500000920E-02 0.  1.
</event>
<event>
 5   0  0.6293013E-05  0.2203575E+04  0.7818609E-02  0.8516941E-01
        2   -1    0    0  501    0  0.00000000000E+00  0.00000000000E+00  0.12212357349E+04  0.12212357349E+04  0.25500000920E-02 0.  1.
       -2   -1    0    0    0  501  0.00000000000E+00  0.00000000000E+00 -0.99402277751E+03  0.99402277751E+03  0.25500000920E-02 0. -1.
    10030    2    1    2    0    0  0.00000000000E+00  0.00000000000E+00  0.22721295740E+03  0.22152585124E+04  0.22035754012E+04 0.  0.
        1    1    3    3  502    0 -0.22511818170E+03  0.94329063846E+03 -0.41210077471E+03  0.10537089128E+04  0.50400001928E-02 0.  1.
       -1    1    3    3    0  502  0.22511818170E+03 -0.94329063846E+03  0.63931373211E+03  0.11615495996E+04  0.50400001928E-02 0. -1.
</event>
<event>
 5   0  0.2908031E-05  0.2227370E+04  0.7818609E-02  0.8507122E-01
       -1   -1    0    0    0  501  0.00000000000E+00  0.00000000000E+00  0.14224372263E+04  0.14224372263E+04  0.50400001928E-02 0.  1.
        1   -1    0    0  501    0  0.00000000000E+00  0.00000000000E+00 -0.87194987031E+03  0.87194987032E+03  0.50400001928E-02 0. -1.
    10030    2    1    2    0    0  0.00000000000E+00  0.00000000000E+00  0.55048735597E+03  0.22943870966E+04  0.22273697089E+04 0.  0.
        1    1    3    3  502    0  0.45912119769E+02  0.11089023844E+04  0.18015402191E+03  0.11243788919E+04  0.50400001928E-02 0. -1.
       -1    1    3    3    0  502 -0.45912119769E+02 -0.11089023844E+04  0.37033333405E+03  0.11700082047E+04  0.50400001928E-02 0.  1.
</event>
<event>
 5   0  0.6414768E-05  0.2212894E+04  0.7818609E-02  0.8513080E-01
       -2   -1    0    0    0  501  0.00000000000E+00  0.00000000000E+00  0.96326874556E+03  0.96326874556E+03  0.25500000920E-02 0. -1.
        2   -1    0    0  501    0  0.00000000000E+00  0.00000000000E+00 -0.12709073357E+04  0.12709073357E+04  0.25500000920E-02 0.  1.
    10030    2    1    2    0    0  0.00000000000E+00  0.00000000000E+00 -0.30763859013E+03  0.22341760813E+04  0.22128943174E+04 0.  0.
        2    1    3    3  502    0 -0.34220319727E+03 -0.72169482053E+03 -0.92687154153E+03  0.12235347550E+04  0.25500000920E-02 0.  1.
       -2    1    3    3    0  502  0.34220319727E+03  0.72169482053E+03  0.61923295140E+03  0.10106413262E+04  0.25500000920E-02 0. -1.
</event>
<event>
 5   0  0.2753631E-05  0.2220172E+04  0.7818609E-02  0.8510079E-01
        1   -1    0    0  501    0  0.00000000000E+00  0.00000000000E+00  0.10597284913E+04  0.10597284913E+04  0.50400001928E-02 0.  1.
       -1   -1    0    0    0  501  0.00000000000E+00  0.00000000000E+00 -0.11628359595E+04  0.11628359595E+04  0.50400001928E-02 0. -1.
    10030    2    1    2    0    0  0.00000000000E+00  0.00000000000E+00 -0.10310746825E+03  0.22225644508E+04  0.22201715222E+04 0.  0.
        4    1    3    3  502    0  0.29987982312E+03  0.18624188416E+03 -0.11051494131E+04  0.11601598105E+04  0.12699999809E+01 0. -1.
       -4    1    3    3    0  502 -0.29987982312E+03 -0.18624188416E+03  0.10020419448E+04  0.10624046403E+04  0.12699999809E+01 0.  1.
</event>
<event>
 5   0  0.2820239E-05  0.2186825E+04  0.7818609E-02  0.8523932E-01
       -1   -1    0    0    0  501  0.00000000000E+00  0.00000000000E+00  0.10876408536E+04  0.10876408536E+04  0.50400001928E-02 0.  1.
        1   -1    0    0  501    0  0.00000000000E+00  0.00000000000E+00 -0.10992146393E+04  0.10992146393E+04  0.50400001928E-02 0. -1.
    10030    2    1    2    0    0  0.00000000000E+00  0.00000000000E+00 -0.11573785694E+02  0.21868554930E+04  0.21868248660E+04 0.  0.
        3    1    3    3  502    0 -0.38797185320E+03 -0.21470998627E+03  0.99369106187E+03  0.10881380766E+04  0.10100000352E+00 0.  1.
       -3    1    3    3    0  502  0.38797185320E+03  0.21470998627E+03 -0.10052648476E+04  0.10987174164E+04  0.10100000352E+00 0. -1.
</event>
<event>
 5   0  0.6445740E-05  0.2064787E+04  0.7818609E-02  0.8576916E-01
        2   -1    0    0  501    0  0.00000000000E+00  0.00000000000E+00  0.11987743346E+04  0.11987743346E+04  0.25500000920E-02 0.  1.
       -2   -1    0    0    0  501  0.00000000000E+00  0.00000000000E+00 -0.88910474581E+03  0.88910474581E+03  0.25500000920E-02 0. -1.
    10030    2    1    2    0    0  0.00000000000E+00  0.00000000000E+00  0.30966958877E+03  0.20878790804E+04  0.20647866234E+04 0.  0.
        5    1    3    3  502    0  0.21098545222E+02 -0.13360662753E+02 -0.88878845801E+03  0.88915165692E+03  0.46999998093E+01 0. -1.
       -5    1    3    3    0  502 -0.21098545222E+02  0.13360662753E+02  0.11984580468E+04  0.11987274235E+04  0.46999998093E+01 0.  1.
</event>
<event>
 5   0  0.6414768E-05  0.2207291E+04  0.7818609E-02  0.8515399E-01
        2   -1    0    0  501    0  0.00000000000E+00  0.00000000000E+00  0.17058945086E+04  0.17058945086E+04  0.25500000920E-02 0.  1.
       -2   -1    0    0    0  501  0.00000000000E+00  0.00000000000E+00 -0.71401479278E+03  0.71401479279E+03  0.25500000920E-02 0. -1.
    10030    2    1    2    0    0  0.00000000000E+00  0.00000000000E+00  0.99187971583E+03  0.24199093014E+04  0.22072914752E+04 0.  0.
        2    1    3    3  502    0  0.69676658452E+03  0.24821538392E+03 -0.40206986564E+03  0.84187571944E+03  0.25500000920E-02 0. -1.
       -2    1    3    3    0  502 -0.69676658452E+03 -0.24821538392E+03  0.13939495815E+04  0.15780335820E+04  0.25500000920E-02 0.  1.
</event>
<event>
 5   0  0.2245375E-05  0.2201654E+04  0.7818609E-02  0.8517740E-01
       -3   -1    0    0    0  501  0.00000000000E+00  0.00000000000E+00  0.11834616235E+04  0.11834616278E+04  0.10100000352E+00 0.  1.
        3   -1    0    0  501    0  0.00000000000E+00  0.00000000000E+00 -0.10239626343E+04  0.10239626393E+04  0.10100000352E+00 0. -1.
    10030    2    1    2    0    0  0.00000000000E+00  0.00000000000E+00  0.15949898916E+03  0.22074242671E+04  0.22016543706E+04 0.  0.
        4    1    3    3  502    0 -0.36734380648E+02 -0.27278135817E+03 -0.98890487560E+03  0.10264957623E+04  0.12699999809E+01 0. -1.
       -4    1    3    3    0  502  0.36734380648E+02  0.27278135817E+03  0.11484038648E+04  0.11809285048E+04  0.12699999809E+01 0.  1.
</event>
<event>
 5   0  0.2910318E-05  0.2190271E+04  0.7818609E-02  0.8522488E-01
        1   -1    0    0  501    0  0.00000000000E+00  0.00000000000E+00  0.16898700463E+04  0.16898700464E+04  0.50400001928E-02 0. -1.
       -1   -1    0    0    0  501  0.00000000000E+00  0.00000000000E+00 -0.70971254042E+03  0.70971254044E+03  0.50400001928E-02 0.  1.
    10030    2    1    2    0    0  0.00000000000E+00  0.00000000000E+00  0.98015750593E+03  0.23995825868E+04  0.21902711828E+04 0.  0.
        5    1    3    3  502    0  0.10994723560E+03 -0.10687170636E+04  0.72262580439E+03  0.12947797881E+04  0.46999998093E+01 0. -1.
       -5    1    3    3    0  502 -0.10994723560E+03  0.10687170636E+04  0.25753170154E+03  0.11048027986E+04  0.46999998093E+01 0.  1.
</event>
<event>
 5   0  0.2929471E-05  0.2185114E+04  0.7818609E-02  0.8524650E-01
        1   -1    0    0  501    0  0.00000000000E+00  0.00000000000E+00  0.16581323735E+04  0.16581323736E+04  0.50400001928E-02 0.  1.
       -1   -1    0    0    0  501  0.00000000000E+00  0.00000000000E+00 -0.71989475097E+03  0.71989475099E+03  0.50400001928E-02 0. -1.
    10030    2    1    2    0    0  0.00000000000E+00  0.00000000000E+00  0.93823762257E+03  0.23780271245E+04  0.21851139944E+04 0.  0.
        2    1    3    3  502    0  0.68550426990E+03 -0.37899714074E+03 -0.35978438914E+03  0.86197432875E+03  0.25500000920E-02 0. -1.
       -2    1    3    3    0  502 -0.68550426990E+03  0.37899714074E+03  0.12980220117E+04  0.15160527958E+04  0.25500000920E-02 0.  1.
</event>
<event>
 5   0  0.2908031E-05  0.2194277E+04  0.7818609E-02  0.8520814E-01
        1   -1    0    0  501    0  0.00000000000E+00  0.00000000000E+00  0.11138873479E+04  0.11138873479E+04  0.50400001928E-02 0. -1.
       -1   -1    0    0    0  501  0.00000000000E+00  0.00000000000E+00 -0.10806414665E+04  0.10806414665E+04  0.50400001928E-02 0.  1.
    10030    2    1    2    0    0  0.00000000000E+00  0.00000000000E+00  0.33245881408E+02  0.21945288145E+04  0.21942769718E+04 0.  0.
        1    1    3    3  502    0 -0.99481561606E+03  0.24773082561E+03  0.40741602557E+03  0.11031847034E+04  0.50400001928E-02 0. -1.
       -1    1    3    3    0  502  0.99481561606E+03 -0.24773082561E+03 -0.37417014416E+03  0.10913441111E+04  0.50400001928E-02 0.  1.
</event>
<event>
 5   0  0.6414768E-05  0.2193463E+04  0.7818609E-02  0.8521154E-01
        2   -1    0    0  501    0  0.00000000000E+00  0.00000000000E+00  0.11933866798E+04  0.11933866798E+04  0.25500000920E-02 0.  1.
       -2   -1    0    0    0  501  0.00000000000E+00  0.00000000000E+00 -0.10079043959E+04  0.10079043960E+04  0.25500000920E-02 0. -1.
    10030    2    1    2    0    0  0.00000000000E+00  0.00000000000E+00  0.18548228383E+03  0.22012910757E+04  0.21934627242E+04 0.  0.
        2    1    3    3  502    0 -0.84587157637E+03 -0.18168992623E+03 -0.58368943747E+03  0.10436490370E+04  0.25500000920E-02 0. -1.
       -2    1    3    3    0  502  0.84587157637E+03  0.18168992623E+03  0.76917172130E+03  0.11576420387E+04  0.25500000920E-02 0.  1.
</event>
<event>
 5   0  0.2908031E-05  0.2197921E+04  0.7818609E-02  0.8519294E-01
       -1   -1    0    0    0  501  0.00000000000E+00  0.00000000000E+00  0.13063436223E+04  0.13063436224E+04  0.50400001928E-02 0.  1.
        1   -1    0    0  501    0  0.00000000000E+00  0.00000000000E+00 -0.92449937321E+03  0.92449937322E+03  0.50400001928E-02 0. -1.
    10030    2    1    2    0    0  0.00000000000E+00  0.00000000000E+00  0.38184424913E+03  0.22308429956E+04  0.21979207084E+04 0.  0.
        1    1    3    3  502    0 -0.13808088206E+03 -0.27182531164E+03  0.12625583534E+04  0.12988490774E+04  0.50400001928E-02 0.  1.
       -1    1    3    3    0  502  0.13808088206E+03  0.27182531164E+03 -0.88071410428E+03  0.93199391819E+03  0.50400001928E-02 0. -1.
</event>
<event>
 5   0  0.6445740E-05  0.2157569E+04  0.7818609E-02  0.8536299E-01
        2   -1    0    0  501    0  0.00000000000E+00  0.00000000000E+00  0.17085106349E+04  0.17085106349E+04  0.25500000920E-02 0. -1.
       -2   -1    0    0    0  501  0.00000000000E+00  0.00000000000E+00 -0.68116383213E+03  0.68116383213E+03  0.25500000920E-02 0.  1.
    10030    2    1    2    0    0  0.00000000000E+00  0.00000000000E+00  0.10273468028E+04  0.23896744671E+04  0.21575686792E+04 0.  0.
        5    1    3    3  502    0 -0.37914980865E+03 -0.10093020005E+04  0.47360946484E+03  0.11776133155E+04  0.46999998093E+01 0. -1.
       -5    1    3    3    0  502  0.37914980865E+03  0.10093020005E+04  0.55373733798E+03  0.12120611516E+04  0.46999998093E+01 0.  1.
</event>
<event>
 5   0  0.2820239E-05  0.2174411E+04  0.7818609E-02  0.8529155E-01
        1   -1    0    0  501    0  0.00000000000E+00  0.00000000000E+00  0.12747991685E+04  0.12747991686E+04  0.50400001928E-02 0. -1.
       -1   -1    0    0    0  501  0.00000000000E+00  0.00000000000E+00 -0.92721690773E+03  0.92721690775E+03  0.50400001928E-02 0.  1.
    10030    2    1    2    0    0  0.00000000000E+00  0.00000000000E+00  0.34758226081E+03  0.22020160763E+04  0.21744105804E+04 0.  0.
        3    1    3    3  502    0 -0.27476936628E+02  0.32320312895E+02  0.12739607179E+04  0.12746668214E+04  0.10100000352E+00 0. -1.
       -3    1    3    3    0  502  0.27476936628E+02 -0.32320312895E+02 -0.92637845706E+03  0.92734925491E+03  0.10100000352E+00 0.  1.
</event>
<event>
 5   0  0.2245375E-05  0.2246576E+04  0.7818609E-02  0.8499289E-01
       -3   -1    0    0    0  501  0.00000000000E+00  0.00000000000E+00  0.61492329712E+03  0.61492330542E+03  0.10100000352E+00 0. -1.
        3   -1    0    0  501    0  0.00000000000E+00  0.00000000000E+00 -0.20519236039E+04  0.20519236064E+04  0.10100000352E+00 0.  1.
    10030    2    1    2    0    0  0.00000000000E+00  0.00000000000E+00 -0.14370003067E+04  0.26668469118E+04  0.22465757430E+04 0.  0.
        2    1    3    3  502    0  0.40251934641E+03 -0.57964987169E+02  0.52446891637E+03  0.66366362580E+03  0.25500000920E-02 0. -1.
       -2    1    3    3    0  502 -0.40251934641E+03  0.57964987169E+02 -0.19614692231E+04  0.20031832860E+04  0.25500000920E-02 0.  1.
</event>
<event>
 5   0  0.2910318E-05  0.2203757E+04  0.7818609E-02  0.8516866E-01
        1   -1    0    0  501    0  0.00000000000E+00  0.00000000000E+00  0.16120996710E+04  0.16120996710E+04  0.50400001928E-02 0. -1.
       -1   -1    0    0    0  501  0.00000000000E+00  0.00000000000E+00 -0.75313962123E+03  0.75313962125E+03  0.50400001928E-02 0.  1.
    10030    2    1    2    0    0  0.00000000000E+00  0.00000000000E+00  0.85896004976E+03  0.23652392922E+04  0.22037569155E+04 0.  0.
        5    1    3    3  502    0  0.99211208597E+03 -0.28139399761E+03  0.12909188317E+02  0.10313378254E+04  0.46999998093E+01 0.  1.
       -5    1    3    3    0  502 -0.99211208597E+03  0.28139399761E+03  0.84605086144E+03  0.13339014668E+04  0.46999998093E+01 0. -1.
</event>
<event>
 5   0  0.6414768E-05  0.2170557E+04  0.7818609E-02  0.8530784E-01
        2   -1    0    0  501    0  0.00000000000E+00  0.00000000000E+00  0.73862212312E+03  0.73862212312E+03  0.25500000920E-02 0. -1.
       -2   -1    0    0    0  501  0.00000000000E+00  0.00000000000E+00 -0.15946308808E+04  0.15946308808E+04  0.25500000920E-02 0.  1.
    10030    2    1    2    0    0  0.00000000000E+00  0.00000000000E+00 -0.85600875769E+03  0.23332530039E+04  0.21705572066E+04 0.  0.
        2    1    3    3  502    0 -0.25209616619E+03  0.39166306039E+03 -0.14817227338E+04  0.15532078708E+04  0.25500000920E-02 0.  1.
       -2    1    3    3    0  502  0.25209616619E+03 -0.39166306039E+03  0.62571397612E+03  0.78004513318E+03  0.25500000920E-02 0. -1.
</event>
<event>
 5   0  0.2245375E-05  0.2179716E+04  0.7818609E-02  0.8526919E-01
       -3   -1    0    0    0  501  0.00000000000E+00  0.00000000000E+00  0.60917278534E+03  0.60917279372E+03  0.10100000352E+00 0. -1.
        3   -1    0    0  501    0  0.00000000000E+00  0.00000000000E+00 -0.19498409639E+04  0.19498409665E+04  0.10100000352E+00 0.  1.
    10030    2    1    2    0    0  0.00000000000E+00  0.00000000000E+00 -0.13406681786E+04  0.25590137602E+04  0.21797156374E+04 0.  0.
        4    1    3    3  502    0  0.20434259379E+03  0.91498509756E+03 -0.13227670848E+04  0.16213167482E+04  0.12699999809E+01 0. -1.
       -4    1    3    3    0  502 -0.20434259379E+03 -0.91498509756E+03 -0.17901093786E+02  0.93769701208E+03  0.12699999809E+01 0.  1.
</event>
<event>
 5   0  0.2908031E-05  0.2206026E+04  0.7818609E-02  0.8515924E-01
       -1   -1    0    0    0  501  0.00000000000E+00  0.00000000000E+00  0.96336437394E+03  0.96336437396E+03  0.50400001928E-02 0. -1.
        1   -1    0    0  501    0  0.00000000000E+00  0.00000000000E+00 -0.12629044615E+04  0.12629044615E+04  0.50400001928E-02 0.  1.
    10030    2    1    2    0    0  0.00000000000E+00  0.00000000000E+00 -0.29954008758E+03  0.22262688355E+04  0.22060255356E+04 0.  0.
        1    1    3    3  502    0  0.74667602331E+03  0.31005695629E+03 -0.90697301174E+03  0.12150145859E+04  0.50400001928E-02 0.  1.
       -1    1    3    3    0  502 -0.74667602331E+03 -0.31005695629E+03  0.60743292416E+03  0.10112542496E+04  0.50400001928E-02 0. -1.
</event>
<event>
 5   0  0.6414768E-05  0.2206563E+04  0.7818609E-02  0.8515702E-01
        2   -1    0    0  501    0  0.00000000000E+00  0.00000000000E+00  0.13360180715E+04  0.13360180715E+04  0.25500000920E-02 0.  1.
       -2   -1    0    0    0  501  0.00000000000E+00  0.00000000000E+00 -0.91108771037E+03  0.91108771037E+03  0.25500000920E-02 0. -1.
    10030    2    1    2    0    0  0.00000000000E+00  0.00000000000E+00  0.42493036114E+03  0.22471057819E+04  0.22065626171E+04 0.  0.
        2    1    3    3  502    0  0.40285601591E+03 -0.54423902437E+03  0.10995270503E+04  0.12912973397E+04  0.25500000920E-02 0.  1.
       -2    1    3    3    0  502 -0.40285601591E+03  0.54423902437E+03 -0.67459668912E+03  0.95580844220E+03  0.25500000920E-02 0. -1.
</event>
<event>
 5   0  0.2929471E-05  0.2248983E+04  0.7818609E-02  0.8498313E-01
       -1   -1    0    0    0  501  0.00000000000E+00  0.00000000000E+00  0.53473026386E+03  0.53473026389E+03  0.50400001928E-02 0.  1.
        1   -1    0    0  501    0  0.00000000000E+00  0.00000000000E+00 -0.23647081014E+04  0.23647081015E+04  0.50400001928E-02 0. -1.
    10030    2    1    2    0    0  0.00000000000E+00  0.00000000000E+00 -0.18299778376E+04  0.28994383653E+04  0.22489828697E+04 0.  0.
        2    1    3    3  502    0  0.97537615071E+02 -0.10551509502E+04 -0.42981665300E+03  0.11435031567E+04  0.25500000920E-02 0.  1.
       -2    1    3    3    0  502 -0.97537615071E+02  0.10551509502E+04 -0.14001611846E+04  0.17559352086E+04  0.25500000920E-02 0. -1.
</event>
<event>
 5   0  0.2929471E-05  0.2194305E+04  0.7818609E-02  0.8520802E-01
       -1   -1    0    0    0  501  0.00000000000E+00  0.00000000000E+00  0.69101530708E+03  0.69101530709E+03  0.50400001928E-02 0. -1.
        1   -1    0    0  501    0  0.00000000000E+00  0.00000000000E+00 -0.17419922025E+04  0.17419922025E+04  0.50400001928E-02 0.  1.
    10030    2    1    2    0    0  0.00000000000E+00  0.00000000000E+00 -0.10509768954E+04  0.24330075096E+04  0.21943046978E+04 0.  0.
        2    1    3    3  502    0  0.18205941149E+03  0.87699310444E+03 -0.12280410967E+04  0.15199827202E+04  0.25500000920E-02 0.  1.
       -2    1    3    3    0  502 -0.18205941149E+03 -0.87699310444E+03  0.17706420133E+03  0.91302478934E+03  0.25500000920E-02 0. -1.
</event>
<event>
 5   0  0.2753631E-05  0.2172730E+04  0.7818609E-02  0.8529865E-01
        1   -1    0    0  501    0  0.00000000000E+00  0.00000000000E+00  0.10507721078E+04  0.10507721078E+04  0.50400001928E-02 0. -1.
       -1   -1    0    0    0  501  0.00000000000E+00  0.00000000000E+00 -0.11231638567E+04  0.11231638567E+04  0.50400001928E-02 0.  1.
    10030    2    1    2    0    0  0.00000000000E+00  0.00000000000E+00 -0.72391748864E+02  0.21739359645E+04  0.21727303128E+04 0.  0.
        4    1    3    3  502    0  0.88014634329E+03  0.58476208060E+03  0.21610146653E+03  0.10785665178E+04  0.12699999809E+01 0. -1.
       -4    1    3    3    0  502 -0.88014634329E+03 -0.58476208060E+03 -0.28849321540E+03  0.10953694467E+04  0.12699999809E+01 0.  1.
</event>
<event>
 5   0  0.2753631E-05  0.2206075E+04  0.7818609E-02  0.8515904E-01
       -1   -1    0    0    0  501  0.00000000000E+00  0.00000000000E+00  0.99420481116E+03  0.99420481117E+03  0.50400001928E-02 0.  1.
        1   -1    0    0  501    0  0.00000000000E+00  0.00000000000E+00 -0.12237842119E+04  0.12237842119E+04  0.50400001928E-02 0. -1.
    10030    2    1    2    0    0  0.00000000000E+00  0.00000000000E+00 -0.22957940071E+03  0.22179890230E+04  0.22060753852E+04 0.  0.
        4    1    3    3  502    0 -0.67430551360E+03 -0.57510883426E+03 -0.77503425331E+03  0.11773350431E+04  0.12699999809E+01 0.  1.
       -4    1    3    3    0  502  0.67430551360E+03  0.57510883426E+03  0.54545485260E+03  0.10406539800E+04  0.12699999809E+01 0. -1.
</event>
<event>
 5   0  0.2910318E-05  0.2197099E+04  0.7818609E-02  0.8519636E-01
        1   -1    0    0  501    0  0.00000000000E+00  0.00000000000E+00  0.12061263664E+04  0.12061263664E+04  0.50400001928E-02 0.  1.
       -1   -1    0    0    0  501  0.00000000000E+00  0.00000000000E+00 -0.10005677327E+04  0.10005677327E+04  0.50400001928E-02 0. -1.
    10030    2    1    2    0    0  0.00000000000E+00  0.00000000000E+00  0.20555863372E+03  0.22066940992E+04  0.21970991091E+04 0.  0.
        5    1    3    3  502    0 -0.94351639050E+03  0.53660616306E+03  0.27269163932E+03  0.11191747735E+04  0.46999998093E+01 0.  1.
       -5    1    3    3    0  502  0.94351639050E+03 -0.53660616306E+03 -0.67133005595E+02  0.10875193257E+04  0.46999998093E+01 0. -1.
</event>
<event>
 5   0  0.2820239E-05  0.2216823E+04  0.7818609E-02  0.8511459E-01
        1   -1    0    0  501    0  0.00000000000E+00  0.00000000000E+00  0.71919907075E+03  0.71919907077E+03  0.50400001928E-02 0. -1.
       -1   -1    0    0    0  501  0.00000000000E+00  0.00000000000E+00 -0.17082556761E+04  0.17082556761E+04  0.50400001928E-02 0.  1.
    10030    2    1    2    0    0  0.00000000000E+00  0.00000000000E+00 -0.98905660536E+03  0.24274547469E+04  0.22168228571E+04 0.  0.
        3    1    3    3  502    0  0.71805433655E+03 -0.69136566748E+03  0.36285748416E+02  0.99744933814E+03  0.10100000352E+00 0. -1.
       -3    1    3    3    0  502 -0.71805433655E+03  0.69136566748E+03 -0.10253423538E+04  0.14300054087E+04  0.10100000352E+00 0.  1.
</event>
<event>
 5   0  0.6445740E-05  0.2220500E+04  0.7818609E-02  0.8509944E-01
        2   -1    0    0  501    0  0.00000000000E+00  0.00000000000E+00  0.12210032793E+04  0.12210032794E+04  0.25500000920E-02 0.  1.
       -2   -1    0    0    0  501  0.00000000000E+00  0.00000000000E+00 -0.10095428858E+04  0.10095428858E+04  0.25500000920E-02 0. -1.
    10030    2    1    2    0    0  0.00000000000E+00  0.00000000000E+00  0.21146039358E+03  0.22305461651E+04  0.22205001006E+04 0.  0.
        5    1    3    3  502    0  0.87245707240E+03  0.33493082145E+03 -0.49637553439E+03  0.10581922129E+04  0.46999998093E+01 0. -1.
       -5    1    3    3    0  502 -0.87245707240E+03 -0.33493082145E+03  0.70783592797E+03  0.11723539522E+04  0.46999998093E+01 0.  1.
</event>
<event>
 5   0  0.2910318E-05  0.2180363E+04  0.7818609E-02  0.8526646E-01
       -1   -1    0    0    0  501  0.00000000000E+00  0.00000000000E+00  0.24606174408E+04  0.24606174408E+04  0.50400001928E-02 0. -1.
        1   -1    0    0  501    0  0.00000000000E+00  0.00000000000E+00 -0.48300720441E+03  0.48300720444E+03  0.50400001928E-02 0.  1.
    10030    2    1    2    0    0  0.00000000000E+00  0.00000000000E+00  0.19776102364E+04  0.29436246453E+04  0.21803632278E+04 0.  0.
        5    1    3    3  502    0 -0.66197097992E+03 -0.60045665600E+03  0.14599454171E+03  0.90558835582E+03  0.46999998093E+01 0.  1.
       -5    1    3    3    0  502  0.66197097992E+03  0.60045665600E+03  0.18316156947E+04  0.20380362895E+04  0.46999998093E+01 0. -1.
</event>
<event>
 5   0  0.6293013E-05  0.2189087E+04  0.7818609E-02  0.8522984E-01
       -2   -1    0    0    0  501  0.00000000000E+00  0.00000000000E+00  0.48105815724E+03  0.48105815725E+03  0.25500000920E-02 0. -1.
        2   -1    0    0  501    0  0.00000000000E+00  0.00000000000E+00 -0.24903971890E+04  0.24903971890E+04  0.25500000920E-02 0.  1.
    10030    2    1    2    0    0  0.00000000000E+00  0.00000000000E+00 -0.20093390317E+04  0.29714553462E+04  0.21890873738E+04 0.  0.
        1    1    3    3  502    0 -0.48761564855E+03 -0.97966691883E+03 -0.97402755567E+03  0.14650071576E+04  0.50400001928E-02 0. -1.
       -1    1    3    3    0  502  0.48761564855E+03  0.97966691883E+03 -0.10353114761E+04  0.15064481886E+04  0.50400001928E-02 0.  1.
</event>
<event>
 5   0  0.2820239E-05  0.2241500E+04  0.7818609E-02  0.8501351E-01
        1   -1    0    0  501    0  0.00000000000E+00  0.00000000000E+00  0.12436290846E+04  0.12436290846E+04  0.50400001928E-02 0. -1.
       -1   -1    0    0    0  501  0.00000000000E+00  0.00000000000E+00 -0.10100124762E+04  0.10100124762E+04  0.50400001928E-02 0.  1.
    10030    2    1    2    0    0  0.00000000000E+00  0.00000000000E+00  0.23361660844E+03  0.22536415608E+04  0.22415002933E+04 0.  0.
        3    1    3    3  502    0 -0.11534423025E+03 -0.96827709192E+03  0.67226439848E+03  0.11844003757E+04  0.10100000352E+00 0. -1.
       -3    1    3    3    0  502  0.11534423025E+03  0.96827709192E+03 -0.43864779004E+03  0.10692411852E+04  0.10100000352E+00 0.  1.
</event>
<event>
 5   0  0.2753631E-05  0.2201329E+04  0.7818609E-02  0.8517875E-01
       -1   -1    0    0    0  501  0.00000000000E+00  0.00000000000E+00  0.98835762958E+03  0.98835762959E+03  0.50400001928E-02 0. -1.
        1   -1    0    0  501    0  0.00000000000E+00  0.00000000000E+00 -0.12257333299E+04  0.12257333299E+04  0.50400001928E-02 0.  1.
    10030    2    1    2    0    0  0.00000000000E+00  0.00000000000E+00 -0.23737570036E+03  0.22140909595E+04  0.22013294969E+04 0.  0.
        4    1    3    3  502    0 -0.88198534078E+03 -0.55834860250E+03  0.23234828780E+03  0.10694104184E+04  0.12699999809E+01 0.  1.
       -4    1    3    3    0  502  0.88198534078E+03  0.55834860250E+03 -0.46972398815E+03  0.11446805411E+04  0.12699999809E+01 0. -1.
</event>
<event>
 5   0  0.6293013E-05  0.2252748E+04  0.7818609E-02  0.8496789E-01
       -2   -1    0    0    0  501  0.00000000000E+00  0.00000000000E+00  0.13671180703E+04  0.13671180703E+04  0.25500000920E-02 0.  1.
        2   -1    0    0  501    0  0.00000000000E+00  0.00000000000E+00 -0.92802366899E+03  0.92802366899E+03  0.25500000920E-02 0. -1.
    10030    2    1    2    0    0  0.00000000000E+00  0.00000000000E+00  0.43909440133E+03  0.22951417393E+04  0.22527475913E+04 0.  0.
        1    1    3    3  502    0  0.34913858309E+03 -0.16272923595E+03 -0.85883267994E+03  0.94126092375E+03  0.50400001928E-02 0. -1.
       -1    1    3    3    0  502 -0.34913858309E+03  0.16272923595E+03  0.12979270813E+04  0.13538808156E+04  0.50400001928E-02 0.  1.
</event>
<event>
 5   0  0.6306919E-05  0.2055664E+04  0.7818609E-02  0.8581029E-01
       -2   -1    0    0    0  501  0.00000000000E+00  0.00000000000E+00  0.45678584142E+03  0.45678584143E+03  0.25500000920E-02 0. -1.
        2   -1    0    0  501    0  0.00000000000E+00  0.00000000000E+00 -0.23127662004E+04  0.23127662004E+04  0.25500000920E-02 0.  1.
    10030    2    1    2    0    0  0.00000000000E+00  0.00000000000E+00 -0.18559803590E+04  0.27695520419E+04  0.20556642283E+04 0.  0.
        3    1    3    3  502    0  0.30203264127E+03  0.25179241924E+03 -0.22074193523E+04  0.22421693393E+04  0.10100000352E+00 0.  1.
       -3    1    3    3    0  502 -0.30203264127E+03 -0.25179241924E+03  0.35143899331E+03  0.52738270260E+03  0.10100000352E+00 0. -1.
</event>
<event>
 5   0  0.6293013E-05  0.2187399E+04  0.7818609E-02  0.8523691E-01
        2   -1    0    0  501    0  0.00000000000E+00  0.00000000000E+00  0.12378315296E+04  0.12378315296E+04  0.25500000920E-02 0.  1.
       -2   -1    0    0    0  501  0.00000000000E+00  0.00000000000E+00 -0.96634989991E+03  0.96634989992E+03  0.25500000920E-02 0. -1.
    10030    2    1    2    0    0  0.00000000000E+00  0.00000000000E+00  0.27148162969E+03  0.22041814295E+04  0.21873987974E+04 0.  0.
        1    1    3    3  502    0 -0.36824598620E+03 -0.64046752238E+03  0.94838636767E+03  0.12021815404E+04  0.50400001928E-02 0.  1.
       -1    1    3    3    0  502  0.36824598620E+03  0.64046752238E+03 -0.67690473798E+03  0.10019998892E+04  0.50400001928E-02 0. -1.
</event>
<event>
 5   0  0.6306919E-05  0.2179277E+04  0.7818609E-02  0.8527103E-01
        2   -1    0    0  501    0  0.00000000000E+00  0.00000000000E+00  0.10557745582E+04  0.10557745582E+04  0.25500000920E-02 0. -1.
       -2   -1    0    0    0  501  0.00000000000E+00  0.00000000000E+00 -0.11245886003E+04  0.11245886003E+04  0.25500000920E-02 0.  1.
    10030    2    1    2    0    0  0.00000000000E+00  0.00000000000E+00 -0.68814042085E+02  0.21803631585E+04  0.21792769742E+04 0.  0.
        3    1    3    3  502    0 -0.38557580823E+03  0.86658599599E+03 -0.57102500583E+03  0.11071176811E+04  0.10100000352E+00 0.  1.
       -3    1    3    3    0  502  0.38557580823E+03 -0.86658599599E+03  0.50221096374E+03  0.10732454773E+04  0.10100000352E+00 0. -1.
</event>
<event>
 5   0  0.6414768E-05  0.2208252E+04  0.7818609E-02  0.8515001E-01
       -2   -1    0    0    0  501  0.00000000000E+00  0.00000000000E+00  0.14163695802E+04  0.14163695802E+04  0.25500000920E-02 0. -1.
        2   -1    0    0  501    0  0.00000000000E+00  0.00000000000E+00 -0.86071764586E+03  0.86071764586E+03  0.25500000920E-02 0.  1.
    10030    2    1    2    0    0  0.00000000000E+00  0.00000000000E+00  0.55565193431E+03  0.22770872260E+04  0.22082520605E+04 0.  0.
        2    1    3    3  502    0 -0.10372651882E+04  0.37678055096E+03  0.24193235337E+03  0.11297848989E+04  0.25500000920E-02 0.  1.
       -2    1    3    3    0  502  0.10372651882E+04 -0.37678055096E+03  0.31371958094E+03  0.11473023271E+04  0.25500000920E-02 0. -1.
</event>
<event>
 5   0  0.6293013E-05  0.2205980E+04  0.7818609E-02  0.8515943E-01
        2   -1    0    0  501    0  0.00000000000E+00  0.00000000000E+00  0.24405662014E+04  0.24405662014E+04  0.25500000920E-02 0.  1.
       -2   -1    0    0    0  501  0.00000000000E+00  0.00000000000E+00 -0.49848541085E+03  0.49848541086E+03  0.25500000920E-02 0. -1.
    10030    2    1    2    0    0  0.00000000000E+00  0.00000000000E+00  0.19420807906E+04  0.29390516123E+04  0.22059797330E+04 0.  0.
        1    1    3    3  502    0 -0.67574778555E+03  0.49180914854E+03  0.19300040640E+04  0.21031944740E+04  0.50400001928E-02 0.  1.
       -1    1    3    3    0  502  0.67574778555E+03 -0.49180914854E+03  0.12076726547E+02  0.83585713828E+03  0.50400001928E-02 0. -1.
</event>
<event>
 5   0  0.2910318E-05  0.2202683E+04  0.7818609E-02  0.8517312E-01
        1   -1    0    0  501    0  0.00000000000E+00  0.00000000000E+00  0.12242196278E+04  0.12242196278E+04  0.50400001928E-02 0. -1.
       -1   -1    0    0    0  501  0.00000000000E+00  0.00000000000E+00 -0.99079662255E+03  0.99079662257E+03  0.50400001928E-02 0.  1.
    10030    2    1    2    0    0  0.00000000000E+00  0.00000000000E+00  0.23342300527E+03  0.22150162504E+04  0.22026826122E+04 0.  0.
        5    1    3    3  502    0  0.55696470764E+02  0.10189866585E+04 -0.29972646046E+03  0.10636230292E+04  0.46999998093E+01 0.  1.
       -5    1    3    3    0  502 -0.55696470764E+02 -0.10189866585E+04  0.53314946573E+03  0.11513932212E+04  0.46999998093E+01 0. -1.
</event>
<event>
 5   0  0.2910318E-05  0.2205961E+04  0.7818609E-02  0.8515951E-01
        1   -1    0    0  501    0  0.00000000000E+00  0.00000000000E+00  0.13487788799E+04  0.13487788799E+04  0.50400001928E-02 0.  1.
       -1   -1    0    0    0  501  0.00000000000E+00  0.00000000000E+00 -0.90197591209E+03  0.90197591210E+03  0.50400001928E-02 0. -1.
    10030    2    1    2    0    0  0.00000000000E+00  0.00000000000E+00  0.44680296785E+03  0.22507547920E+04  0.22059610699E+04 0.  0.
        5    1    3    3  502    0  0.37503253458E+03 -0.20890413366E+03  0.12600309496E+04  0.13311613061E+04  0.46999998093E+01 0.  1.
       -5    1    3    3    0  502 -0.37503253458E+03  0.20890413366E+03 -0.81322798174E+03  0.91959348591E+03  0.46999998093E+01 0. -1.
</event>
<event>
 5   0  0.6414768E-05  0.2245988E+04  0.7818609E-02  0.8499527E-01
        2   -1    0    0  501    0  0.00000000000E+00  0.00000000000E+00  0.17436781993E+04  0.17436781993E+04  0.25500000920E-02 0.  1.
       -2   -1    0    0    0  501  0.00000000000E+00  0.00000000000E+00 -0.72325026104E+03  0.72325026105E+03  0.25500000920E-02 0. -1.
    10030    2    1    2    0    0  0.00000000000E+00  0.00000000000E+00  0.10204279383E+04  0.24669284604E+04  0.22459881681E+04 0.  0.
        2    1    3    3  502    0 -0.94601677517E+03  0.40472919504E+03  0.10043128201E+04  0.14378448111E+04  0.25500000920E-02 0.  1.
       -2    1    3    3    0  502  0.94601677517E+03 -0.40472919504E+03  0.16115118231E+02  0.10290836493E+04  0.25500000920E-02 0. -1.
</event>
<event>
 5   0  0.2820239E-05  0.2201275E+04  0.7818609E-02  0.8517897E-01
        1   -1    0    0  501    0  0.00000000000E+00  0.00000000000E+00  0.26172839032E+04  0.26172839032E+04  0.50400001928E-02 0.  1.
       -1   -1    0    0    0  501  0.00000000000E+00  0.00000000000E+00 -0.46284752710E+03  0.46284752712E+03  0.50400001928E-02 0. -1.
    10030    2    1    2    0    0  0.00000000000E+00  0.00000000000E+00  0.21544363761E+04  0.30801314304E+04  0.22012754324E+04 0.  0.
        3    1    3    3  502    0 -0.29767620409E+02  0.66506522550E+03 -0.14918584429E+03  0.68224210639E+03  0.10100000352E+00 0. -1.
       -3    1    3    3    0  502  0.29767620409E+02 -0.66506522550E+03  0.23036222204E+04  0.23978893240E+04  0.10100000352E+00 0.  1.
</event>
<event>
 5   0  0.2910318E-05  0.2181943E+04  0.7818609E-02  0.8525982E-01
        1   -1    0    0  501    0  0.00000000000E+00  0.00000000000E+00  0.12931915273E+04  0.12931915273E+04  0.50400001928E-02 0. -1.
       -1   -1    0    0    0  501  0.00000000000E+00  0.00000000000E+00 -0.92037325675E+03  0.92037325676E+03  0.50400001928E-02 0.  1.
    10030    2    1    2    0    0  0.00000000000E+00  0.00000000000E+00  0.37281827054E+03  0.22135647841E+04  0.21819430768E+04 0.  0.
        5    1    3    3  502    0 -0.67989674696E+03  0.11054417730E+03 -0.67185220294E+03  0.96223026052E+03  0.46999998093E+01 0.  1.
       -5    1    3    3    0  502  0.67989674696E+03 -0.11054417730E+03  0.10446704735E+04  0.12513345236E+04  0.46999998093E+01 0. -1.
</event>
<event>
 5   0  0.2245375E-05  0.2122493E+04  0.7818609E-02  0.8551399E-01
        4   -1    0    0  501    0  0.00000000000E+00  0.00000000000E+00  0.77652676418E+03  0.77652780272E+03  0.12699999809E+01 0.  1.
       -4   -1    0    0    0  501  0.00000000000E+00  0.00000000000E+00 -0.14503584497E+04  0.14503590057E+04  0.12699999809E+01 0. -1.
    10030    2    1    2    0    0  0.00000000000E+00  0.00000000000E+00 -0.67383168547E+03  0.22268868084E+04  0.21224928073E+04 0.  0.
        2    1    3    3  502    0 -0.24971928211E+03 -0.10176808249E+04 -0.16069671043E+03  0.10601214147E+04  0.25500000920E-02 0. -1.
       -2    1    3    3    0  502  0.24971928211E+03  0.10176808249E+04 -0.51313497503E+03  0.11667653937E+04  0.25500000920E-02 0.  1.
</event>
<event>
 5   0  0.6306919E-05  0.2196208E+04  0.7818609E-02  0.8520008E-01
       -2   -1    0    0    0  501  0.00000000000E+00  0.00000000000E+00  0.11836904539E+04  0.11836904539E+04  0.25500000920E-02 0.  1.
        2   -1    0    0  501    0  0.00000000000E+00  0.00000000000E+00 -0.10187054102E+04  0.10187054102E+04  0.25500000920E-02 0. -1.
    10030    2    1    2    0    0  0.00000000000E+00  0.00000000000E+00  0.16498504362E+03  0.22023958641E+04  0.21962075215E+04 0.  0.
        3    1    3    3  502    0  0.10467125976E+04  0.22831026196E+03  0.32420908854E+03  0.11193053118E+04  0.10100000352E+00 0.  1.
       -3    1    3    3    0  502 -0.10467125976E+04 -0.22831026196E+03 -0.15922404492E+03  0.10830905523E+04  0.10100000352E+00 0. -1.
</event>
<event>
 5   0  0.2910318E-05  0.2234847E+04  0.7818609E-02  0.8504063E-01
        1   -1    0    0  501    0  0.00000000000E+00  0.00000000000E+00  0.15891253410E+04  0.15891253410E+04  0.50400001928E-02 0. -1.
       -1   -1    0    0    0  501  0.00000000000E+00  0.00000000000E+00 -0.78573728603E+03  0.78573728605E+03  0.50400001928E-02 0.  1.
    10030    2    1    2    0    0  0.00000000000E+00  0.00000000000E+00  0.80338805493E+03  0.23748626270E+04  0.22348467801E+04 0.  0.
        5    1    3    3  502    0 -0.29578040758E+03  0.85394175177E+03  0.11000672181E+04  0.14236827383E+04  0.46999998093E+01 0.  1.
       -5    1    3    3    0  502  0.29578040758E+03 -0.85394175177E+03 -0.29667916315E+03  0.95117988876E+03  0.46999998093E+01 0. -1.
</event>
<event>
 5   0  0.6414768E-05  0.2203505E+04  0.7818609E-02  0.8516971E-01
       -2   -1    0    0    0  501  0.00000000000E+00  0.00000000000E+00  0.51524136566E+03  0.51524136567E+03  0.25500000920E-02 0.  1.
        2   -1    0    0  501    0  0.00000000000E+00  0.00000000000E+00 -0.23559023064E+04  0.23559023064E+04  0.25500000920E-02 0. -1.
    10030    2    1    2    0    0  0.00000000000E+00  0.00000000000E+00 -0.18406609407E+04  0.28711436720E+04  0.22035047735E+04 0.  0.
        2    1    3    3  502    0 -0.42016736204E+03  0.61121536058E+03 -0.19818739718E+04  0.21161165538E+04  0.25500000920E-02 0. -1.
       -2    1    3    3    0  502  0.42016736204E+03 -0.61121536058E+03  0.14121303110E+03  0.75502711824E+03  0.25500000920E-02 0.  1.
</event>
<event>
 5   0  0.2908031E-05  0.2162774E+04  0.7818609E-02  0.8534084E-01
        1   -1    0    0  501    0  0.00000000000E+00  0.00000000000E+00  0.81870358832E+03  0.81870358833E+03  0.50400001928E-02 0. -1.
       -1   -1    0    0    0  501  0.00000000000E+00  0.00000000000E+00 -0.14283532931E+04  0.14283532931E+04  0.50400001928E-02 0.  1.
    10030    2    1    2    0    0  0.00000000000E+00  0.00000000000E+00 -0.60964970478E+03  0.22470568814E+04  0.21627741135E+04 0.  0.
        1    1    3    3  502    0  0.25163615545E+03  0.39364410220E+03  0.70843517499E+03  0.84862054602E+03  0.50400001928E-02 0. -1.
       -1    1    3    3    0  502 -0.25163615545E+03 -0.39364410220E+03 -0.13180848798E+04  0.13984363354E+04  0.50400001928E-02 0.  1.
</event>
<event>
 5   0  0.2245375E-05  0.2205922E+04  0.7818609E-02  0.8515967E-01
       -3   -1    0    0    0  501  0.00000000000E+00  0.00000000000E+00  0.11334185264E+04  0.11334185309E+04  0.10100000352E+00 0. -1.
        3   -1    0    0  501    0  0.00000000000E+00  0.00000000000E+00 -0.10733220737E+04  0.10733220784E+04  0.10100000352E+00 0.  1.
    10030    2    1    2    0    0  0.00000000000E+00  0.00000000000E+00  0.60096452704E+02  0.22067406093E+04  0.22059221502E+04 0.  0.
        5    1    3    3  502    0 -0.10728778500E+03 -0.10663981119E+04  0.29050119969E+03  0.11104632542E+04  0.46999998093E+01 0. -1.
       -5    1    3    3    0  502  0.10728778500E+03  0.10663981119E+04 -0.23040474698E+03  0.10962773551E+04  0.46999998093E+01 0.  1.
</event>
<event>
 5   0  0.6306919E-05  0.2182444E+04  0.7818609E-02  0.8525771E-01
       -2   -1    0    0    0  501  0.00000000000E+00  0.00000000000E+00  0.50177812420E+03  0.50177812421E+03  0.25500000920E-02 0. -1.
        2   -1    0    0  501    0  0.00000000000E+00  0.00000000000E+00 -0.23730920116E+04  0.23730920116E+04  0.25500000920E-02 0.  1.
    10030    2    1    2    0    0  0.00000000000E+00  0.00000000000E+00 -0.18713138874E+04  0.28748701358E+04  0.21824441877E+04 0.  0.
        3    1    3    3  502    0  0.53597918336E+03 -0.30893152467E+03 -0.21197752162E+04  0.22082027419E+04  0.10100000352E+00 0.  1.
       -3    1    3    3    0  502 -0.53597918336E+03  0.30893152467E+03  0.24846132884E+03  0.66666739388E+03  0.10100000352E+00 0. -1.
</event>
<event>
 5   0  0.2929471E-05  0.2182507E+04  0.7818609E-02  0.8525745E-01
       -1   -1    0    0    0  501  0.00000000000E+00  0.00000000000E+00  0.64391229285E+03  0.64391229287E+03  0.50400001928E-02 0.  1.
        1   -1    0    0  501    0  0.00000000000E+00  0.00000000000E+00 -0.18493725944E+04  0.18493725944E+04  0.50400001928E-02 0. -1.
    10030    2    1    2    0    0  0.00000000000E+00  0.00000000000E+00 -0.12054603015E+04  0.24932848872E+04  0.21825065843E+04 0.  0.
        2    1    3    3  502    0 -0.94440114562E+03 -0.12507642552E+03 -0.12107764489E+04  0.15406223565E+04  0.25500000920E-02 0. -1.
       -2    1    3    3    0  502  0.94440114562E+03  0.12507642552E+03  0.53161473986E+01  0.95266253075E+03  0.25500000920E-02 0.  1.
</event>
<event>
 5   0  0.2820239E-05  0.2166845E+04  0.7818609E-02  0.8532356E-01
       -1   -1    0    0    0  501  0.00000000000E+00  0.00000000000E+00  0.16914147782E+04  0.16914147782E+04  0.50400001928E-02 0. -1.
        1   -1    0    0  501    0  0.00000000000E+00  0.00000000000E+00 -0.69397788497E+03  0.69397788498E+03  0.50400001928E-02 0.  1.
    10030    2    1    2    0    0  0.00000000000E+00  0.00000000000E+00  0.99743689326E+03  0.23853926632E+04  0.21668451264E+04 0.  0.
        3    1    3    3  502    0  0.61302933257E+03 -0.77135585013E+03  0.27085663137E+01  0.98529292936E+03  0.10100000352E+00 0. -1.
       -3    1    3    3    0  502 -0.61302933257E+03  0.77135585013E+03  0.99472832695E+03  0.14000997339E+04  0.10100000352E+00 0.  1.
</event>
<event>
 5   0  0.2910318E-05  0.2248088E+04  0.7818609E-02  0.8498675E-01
        1   -1    0    0  501    0  0.00000000000E+00  0.00000000000E+00  0.17628066161E+04  0.17628066161E+04  0.50400001928E-02 0.  1.
       -1   -1    0    0    0  501  0.00000000000E+00  0.00000000000E+00 -0.71674026441E+03  0.71674026443E+03  0.50400001928E-02 0. -1.
    10030    2    1    2    0    0  0.00000000000E+00  0.00000000000E+00  0.10460663517E+04  0.24795468805E+04  0.22480876141E+04 0.  0.
        5    1    3    3  502    0  0.92844736144E+03  0.60910001173E+03  0.71545139589E+03  0.13209504598E+04  0.46999998093E+01 0.  1.
       -5    1    3    3    0  502 -0.92844736144E+03 -0.60910001173E+03  0.33061495581E+03  0.11585964208E+04  0.46999998093E+01 0. -1.
</event>
<event>
 5   0  0.2929471E-05  0.2196035E+04  0.7818609E-02  0.8520080E-01
        1   -1    0    0  501    0  0.00000000000E+00  0.00000000000E+00  0.19030094654E+04  0.19030094654E+04  0.50400001928E-02 0. -1.
       -1   -1    0    0    0  501  0.00000000000E+00  0.00000000000E+00 -0.63354487734E+03  0.63354487736E+03  0.50400001928E-02 0.  1.
    10030    2    1    2    0    0  0.00000000000E+00  0.00000000000E+00  0.12694645881E+04  0.25365543428E+04  0.21960345156E+04 0.  0.
        2    1    3    3  502    0  0.36896587772E+03  0.13449105133E+03  0.18191169218E+04  0.18610239217E+04  0.25500000920E-02 0. -1.
       -2    1    3    3    0  502 -0.36896587772E+03 -0.13449105133E+03 -0.54965233375E+03  0.67553042109E+03  0.25500000920E-02 0.  1.
</event>
<event>
 5   0  0.6628798E-05  0.2199437E+04  0.7818609E-02  0.8518663E-01
       -2   -1    0    0    0  501  0.00000000000E+00  0.00000000000E+00  0.83229619959E+03  0.83229619959E+03  0.25500000920E-02 0.  1.
        2   -1    0    0  501    0  0.00000000000E+00  0.00000000000E+00 -0.14530647536E+04  0.14530647536E+04  0.25500000920E-02 0. -1.
    10030    2    1    2    0    0  0.00000000000E+00  0.00000000000E+00 -0.62076855406E+03  0.22853609532E+04  0.21994365389E+04 0.  0.
        4    1    3    3  502    0  0.92445573276E+02  0.28807852637E+03  0.78820111349E+03  0.84427366984E+03  0.12699999809E+01 0.  1.
       -4    1    3    3    0  502 -0.92445573276E+02 -0.28807852637E+03 -0.14089696675E+04  0.14410872834E+04  0.12699999809E+01 0. -1.
</event>
<event>
 5   0  0.2753631E-05  0.2189058E+04  0.7818609E-02  0.8522996E-01
       -1   -1    0    0    0  501  0.00000000000E+00  0.00000000000E+00  0.90149028245E+03  0.90149028246E+03  0.50400001928E-02 0.  1.
        1   -1    0    0  501    0  0.00000000000E+00  0.00000000000E+00 -0.13289035635E+04  0.13289035635E+04  0.50400001928E-02 0. -1.
    10030    2    1    2    0    0  0.00000000000E+00  0.00000000000E+00 -0.42741328106E+03  0.22303938460E+04  0.21890579242E+04 0.  0.
        4    1    3    3  502    0  0.27547180925E+03 -0.84551900609E+03  0.43646918469E+03  0.99060288180E+03  0.12699999809E+01 0.  1.
       -4    1    3    3    0  502 -0.27547180925E+03  0.84551900609E+03 -0.86388246575E+03  0.12397909642E+04  0.12699999809E+01 0. -1.
</event>
<event>
 5   0  0.2910318E-05  0.2200057E+04  0.7818609E-02  0.8518404E-01
       -1   -1    0    0    0  501  0.00000000000E+00  0.00000000000E+00  0.12431382100E+04  0.12431382100E+04  0.50400001928E-02 0. -1.
        1   -1    0    0  501    0  0.00000000000E+00  0.00000000000E+00 -0.97339348898E+03  0.97339348899E+03  0.50400001928E-02 0.  1.
    10030    2    1    2    0    0  0.00000000000E+00  0.00000000000E+00  0.26974472099E+03  0.22165316990E+04  0.22000569443E+04 0.  0.
        5    1    3    3  502    0  0.82489371430E+03 -0.59240713013E+03 -0.29095650259E+03  0.10564438575E+04  0.46999998093E+01 0.  1.
       -5    1    3    3    0  502 -0.82489371430E+03  0.59240713013E+03  0.56070122358E+03  0.11600878414E+04  0.46999998093E+01 0. -1.
</event>
<event>
 5   0  0.2929471E-05  0.2266175E+04  0.7818609E-02  0.8491378E-01
        1   -1    0    0  501    0  0.00000000000E+00  0.00000000000E+00  0.13415670740E+04  0.13415670740E+04  0.50400001928E-02 0. -1.
       -1   -1    0    0    0  501  0.00000000000E+00  0.00000000000E+00 -0.95700603081E+03  0.95700603082E+03  0.50400001928E-02 0.  1.
    10030    2    1    2    0    0  0.00000000000E+00  0.00000000000E+00  0.38456104322E+03  0.22985731049E+04  0.22661754395E+04 0.  0.
        2    1    3    3  502    0  0.47733946875E+03  0.58393720541E+03  0.10499770486E+04  0.12927828243E+04  0.25500000920E-02 0. -1.
       -2    1    3    3    0  502 -0.47733946875E+03 -0.58393720541E+03 -0.66541600535E+03  0.10057902806E+04  0.25500000920E-02 0.  1.
</event>
<event>
 5   0  0.6293013E-05  0.2208881E+04  0.7818609E-02  0.8514741E-01
        2   -1    0    0  501    0  0.00000000000E+00  0.00000000000E+00  0.18574674930E+04  0.18574674930E+04  0.25500000920E-02 0. -1.
       -2   -1    0    0    0  501  0.00000000000E+00  0.00000000000E+00 -0.65669448762E+03  0.65669448763E+03  0.25500000920E-02 0.  1.
    10030    2    1    2    0    0  0.00000000000E+00  0.00000000000E+00  0.12007730054E+04  0.25141619807E+04  0.22088808602E+04 0.  0.
        1    1    3    3  502    0 -0.75677451571E+03  0.77372191261E+03  0.34988957795E+03  0.11374427381E+04  0.50400001928E-02 0.  1.
       -1    1    3    3    0  502  0.75677451571E+03 -0.77372191261E+03  0.85088342746E+03  0.13767192426E+04  0.50400001928E-02 0. -1.
</event>
<event>
 5   0  0.6306919E-05  0.2044676E+04  0.7818609E-02  0.8586013E-01
       -2   -1    0    0    0  501  0.00000000000E+00  0.00000000000E+00  0.58468459825E+03  0.58468459826E+03  0.25500000920E-02 0. -1.
        2   -1    0    0  501    0  0.00000000000E+00  0.00000000000E+00 -0.17875884216E+04  0.17875884216E+04  0.25500000920E-02 0.  1.
    10030    2    1    2    0    0  0.00000000000E+00  0.00000000000E+00 -0.12029038234E+04  0.23722730199E+04  0.20446764225E+04 0.  0.
        3    1    3    3  502    0  0.67317562097E+03 -0.72827781188E+03 -0.31344299641E+03  0.10400963946E+04  0.10100000352E+00 0.  1.
       -3    1    3    3    0  502 -0.67317562097E+03  0.72827781188E+03 -0.88946082697E+03  0.13321766252E+04  0.10100000352E+00 0. -1.
</event>
<event>
 5   0  0.6306919E-05  0.2220543E+04  0.7818609E-02  0.8509926E-01
        2   -1    0    0  501    0  0.00000000000E+00  0.00000000000E+00  0.11059876321E+04  0.11059876321E+04  0.25500000920E-02 0.  1.
       -2   -1    0    0    0  501  0.00000000000E+00  0.00000000000E+00 -0.11145715997E+04  0.11145715997E+04  0.25500000920E-02 0. -1.
    10030    2    1    2    0    0  0.00000000000E+00  0.00000000000E+00 -0.85839675292E+01  0.22205592318E+04  0.22205426403E+04 0.  0.
        3    1    3    3  502    0  0.33683859031E+03 -0.45523352704E+03 -0.95928843549E+03  0.11139713249E+04  0.10100000352E+00 0. -1.
       -3    1    3    3    0  502 -0.33683859031E+03  0.45523352704E+03  0.95070446797E+03  0.11065879069E+04  0.10100000352E+00 0.  1.
</event>
<event>
 5   0  0.2753631E-05  0.2180409E+04  0.7818609E-02  0.8526627E-01
       -1   -1    0    0    0  501  0.00000000000E+00  0.00000000000E+00  0.95455945939E+03  0.95455945940E+03  0.50400001928E-02 0.  1.
        1   -1    0    0  501    0  0.00000000000E+00  0.00000000000E+00 -0.12451244888E+04  0.12451244888E+04  0.50400001928E-02 0. -1.
    10030    2    1    2    0    0  0.00000000000E+00  0.00000000000E+00 -0.29056502945E+03  0.21996839482E+04  0.21804085479E+04 0.  0.
        4    1    3    3  502    0 -0.10576296566E+04  0.14792643725E+03  0.75929783160E+02  0.10706211591E+04  0.12699999809E+01 0. -1.
       -4    1    3    3    0  502  0.10576296566E+04 -0.14792643725E+03 -0.36649481261E+03  0.11290627892E+04  0.12699999809E+01 0.  1.
</event>
<event>
 5   0  0.6293013E-05  0.2188213E+04  0.7818609E-02  0.8523350E-01
       -2   -1    0    0    0  501  0.00000000000E+00  0.00000000000E+00  0.84051620125E+03  0.84051620125E+03  0.25500000920E-02 0. -1.
        2   -1    0    0  501    0  0.00000000000E+00  0.00000000000E+00 -0.14242071591E+04  0.14242071591E+04  0.25500000920E-02 0.  1.
    10030    2    1    2    0    0  0.00000000000E+00  0.00000000000E+00 -0.58369095784E+03  0.22647233603E+04  0.21882131442E+04 0.  0.
        1    1    3    3  502    0  0.16364261139E+02 -0.39006069050E+03 -0.13496655074E+04  0.14049954139E+04  0.50400001928E-02 0.  1.
       -1    1    3    3    0  502 -0.16364261139E+02  0.39006069050E+03  0.76597454953E+03  0.85972794642E+03  0.50400001928E-02 0. -1.
</event>
<event>
 5   0  0.2929471E-05  0.2163953E+04  0.7818609E-02  0.8533583E-01
        1   -1    0    0  501    0  0.00000000000E+00  0.00000000000E+00  0.14419426798E+04  0.14419426798E+04  0.50400001928E-02 0. -1.
       -1   -1    0    0    0  501  0.00000000000E+00  0.00000000000E+00 -0.81187228295E+03  0.81187228297E+03  0.50400001928E-02 0.  1.
    10030    2    1    2    0    0  0.00000000000E+00  0.00000000000E+00  0.63007039682E+03  0.22538149627E+04  0.21639531375E+04 0.  0.
        2    1    3    3  502    0 -0.95901645817E+03  0.41570688937E+03  0.60619456005E+03  0.12083032027E+04  0.25500000920E-02 0. -1.
       -2    1    3    3    0  502  0.95901645817E+03 -0.41570688937E+03  0.23875836773E+02  0.10455117601E+04  0.25500000920E-02 0.  1.
</event>
<event>
 5   0  0.2908031E-05  0.2153823E+04  0.7818609E-02  0.8537898E-01
        1   -1    0    0  501    0  0.00000000000E+00  0.00000000000E+00  0.16492639915E+04  0.16492639915E+04  0.50400001928E-02 0.  1.
       -1   -1    0    0    0  501  0.00000000000E+00  0.00000000000E+00 -0.70318542858E+03  0.70318542860E+03  0.50400001928E-02 0. -1.
    10030    2    1    2    0    0  0.00000000000E+00  0.00000000000E+00  0.94607856295E+03  0.23524494201E+04  0.21538230259E+04 0.  0.
        1    1    3    3  502    0 -0.86443863793E+03  0.11254680207E+03 -0.21758391255E+03  0.89847854756E+03  0.50400001928E-02 0.  1.
       -1    1    3    3    0  502  0.86443863793E+03 -0.11254680207E+03  0.11636624755E+04  0.14539708726E+04  0.50400001928E-02 0. -1.
</event>
<event>
 5   0  0.2910318E-05  0.2213198E+04  0.7818609E-02  0.8512955E-01
        1   -1    0    0  501    0  0.00000000000E+00  0.00000000000E+00  0.18088846512E+04  0.18088846512E+04  0.50400001928E-02 0.  1.
       -1   -1    0    0    0  501  0.00000000000E+00  0.00000000000E+00 -0.67697048601E+03  0.67697048603E+03  0.50400001928E-02 0. -1.
    10030    2    1    2    0    0  0.00000000000E+00  0.00000000000E+00  0.11319141652E+04  0.24858551373E+04  0.22131981579E+04 0.  0.
        5    1    3    3  502    0 -0.10382656618E+04  0.34803711737E+03  0.74501442372E+03  0.13244598903E+04  0.46999998093E+01 0.  1.
       -5    1    3    3    0  502  0.10382656618E+04 -0.34803711737E+03  0.38689974149E+03  0.11613952469E+04  0.46999998093E+01 0. -1.
</event>
<event>
 5   0  0.6414768E-05  0.2203948E+04  0.7818609E-02  0.8516787E-01
       -2   -1    0    0    0  501  0.00000000000E+00  0.00000000000E+00  0.63967226520E+03  0.63967226520E+03  0.25500000920E-02 0. -1.
        2   -1    0    0  501    0  0.00000000000E+00  0.00000000000E+00 -0.18983890215E+04  0.18983890215E+04  0.25500000920E-02 0.  1.
    10030    2    1    2    0    0  0.00000000000E+00  0.00000000000E+00 -0.12587167563E+04  0.25380612867E+04  0.22039480989E+04 0.  0.
        2    1    3    3  502    0 -0.70653241326E+02  0.90902989334E+03 -0.13420657134E+04  0.16224880913E+04  0.25500000920E-02 0. -1.
       -2    1    3    3    0  502  0.70653241326E+02 -0.90902989334E+03  0.83348957034E+02  0.91557319541E+03  0.25500000920E-02 0.  1.
</event>
<event>
 5   0  0.6293013E-05  0.2195110E+04  0.7818609E-02  0.8520466E-01
       -2   -1    0    0    0  501  0.00000000000E+00  0.00000000000E+00  0.98273602897E+03  0.98273602898E+03  0.25500000920E-02 0.  1.
        2   -1    0    0  501    0  0.00000000000E+00  0.00000000000E+00 -0.12257886475E+04  0.12257886475E+04  0.25500000920E-02 0. -1.
    10030    2    1    2    0    0  0.00000000000E+00  0.00000000000E+00 -0.24305261856E+03  0.22085246765E+04  0.21951097174E+04 0.  0.
        1    1    3    3  502    0 -0.77930530670E+03  0.73349055602E+03 -0.36653354108E+03  0.11312258809E+04  0.50400001928E-02 0. -1.
       -1    1    3    3    0  502  0.77930530670E+03 -0.73349055602E+03  0.12348092252E+03  0.10772987956E+04  0.50400001928E-02 0.  1.
</event>
<event>
 5   0  0.6445740E-05  0.2201594E+04  0.7818609E-02  0.8517765E-01
        2   -1    0    0  501    0  0.00000000000E+00  0.00000000000E+00  0.10396136574E+04  0.10396136574E+04  0.25500000920E-02 0. -1.
       -2   -1    0    0    0  501  0.00000000000E+00  0.00000000000E+00 -0.11655806744E+04  0.11655806744E+04  0.25500000920E-02 0.  1.
    10030    2    1    2    0    0  0.00000000000E+00  0.00000000000E+00 -0.12596701701E+03  0.22051943317E+04  0.22015935936E+04 0.  0.
        5    1    3    3  502    0 -0.69736104748E+03 -0.82116479055E+03 -0.28942282645E+03  0.11155320283E+04  0.46999998093E+01 0.  1.
       -5    1    3    3    0  502  0.69736104748E+03  0.82116479055E+03  0.16345580943E+03  0.10896623034E+04  0.46999998093E+01 0. -1.
</event>
<event>
 5   0  0.2245375E-05  0.2192680E+04  0.7818609E-02  0.8521481E-01
       -3   -1    0    0    0  501  0.00000000000E+00  0.00000000000E+00  0.95913542611E+03  0.95913543143E+03  0.10100000352E+00 0.  1.
        3   -1    0    0  501    0  0.00000000000E+00  0.00000000000E+00 -0.12531719106E+04  0.12531719146E+04  0.10100000352E+00 0. -1.
    10030    2    1    2    0    0  0.00000000000E+00  0.00000000000E+00 -0.29403648446E+03  0.22123073461E+04  0.21926801726E+04 0.  0.
        1    1    3    3  502    0  0.36948964239E+03  0.49964418981E+03 -0.10583166351E+04  0.12272738132E+04  0.50400001928E-02 0. -1.
       -1    1    3    3    0  502 -0.36948964239E+03 -0.49964418981E+03  0.76428015067E+03  0.98503353292E+03  0.50400001928E-02 0.  1.
</event>
<event>
 5   0  0.2929471E-05  0.2166640E+04  0.7818609E-02  0.8532443E-01
        1   -1    0    0  501    0  0.00000000000E+00  0.00000000000E+00  0.69864990986E+03  0.69864990988E+03  0.50400001928E-02 0. -1.
       -1   -1    0    0    0  501  0.00000000000E+00  0.00000000000E+00 -0.16797858588E+04  0.16797858588E+04  0.50400001928E-02 0.  1.
    10030    2    1    2    0    0  0.00000000000E+00  0.00000000000E+00 -0.98113594892E+03  0.23784357687E+04  0.21666400152E+04 0.  0.
        2    1    3    3  502    0  0.79286121684E+03 -0.33682747105E+03  0.23053180352E+03  0.89175476835E+03  0.25500000920E-02 0. -1.
       -2    1    3    3    0  502 -0.79286121684E+03  0.33682747105E+03 -0.12116677524E+04  0.14866810003E+04  0.25500000920E-02 0.  1.
</event>
<event>
 5   0  0.6628798E-05  0.2220482E+04  0.7818609E-02  0.8509951E-01
        2   -1    0    0  501    0  0.00000000000E+00  0.00000000000E+00  0.11600573594E+04  0.11600573594E+04  0.25500000920E-02 0. -1.
       -2   -1    0    0    0  501  0.00000000000E+00  0.00000000000E+00 -0.10625643155E+04  0.10625643155E+04  0.25500000920E-02 0.  1.
    10030    2    1    2    0    0  0.00000000000E+00  0.00000000000E+00  0.97493043871E+02  0.22226216748E+04  0.22204824286E+04 0.  0.
        4    1    3    3  502    0 -0.47998510645E+03 -0.57301688597E+03 -0.77295841484E+03  0.10752675844E+04  0.12699999809E+01 0.  1.
       -4    1    3    3    0  502  0.47998510645E+03  0.57301688597E+03  0.87045145872E+03  0.11473540905E+04  0.12699999809E+01 0. -1.
</event>
<event>
 5   0  0.6293013E-05  0.2194917E+04  0.7818609E-02  0.8520547E-01
       -2   -1    0    0    0  501  0.00000000000E+00  0.00000000000E+00  0.16526257556E+04  0.16526257556E+04  0.25500000920E-02 0. -1.
        2   -1    0    0  501    0  0.00000000000E+00  0.00000000000E+00 -0.72878910637E+03  0.72878910637E+03  0.25500000920E-02 0.  1.
    10030    2    1    2    0    0  0.00000000000E+00  0.00000000000E+00  0.92383664926E+03  0.23814148620E+04  0.21949174450E+04 0.  0.
        1    1    3    3  502    0  0.21396017501E+03 -0.82524059326E+02 -0.70250366129E+03  0.73898617782E+03  0.50400001928E-02 0.  1.
       -1    1    3    3    0  502 -0.21396017501E+03  0.82524059326E+02  0.16263403105E+04  0.16424286842E+04  0.50400001928E-02 0. -1.
</event>
<event>
 5   0  0.2908031E-05  0.2202994E+04  0.7818609E-02  0.8517183E-01
        1   -1    0    0  501    0  0.00000000000E+00  0.00000000000E+00  0.75406773769E+03  0.75406773770E+03  0.50400001928E-02 0. -1.
       -1   -1    0    0    0  501  0.00000000000E+00  0.00000000000E+00 -0.16090004943E+04  0.16090004943E+04  0.50400001928E-02 0.  1.
    10030    2    1    2    0    0  0.00000000000E+00  0.00000000000E+00 -0.85493275664E+03  0.23630682320E+04  0.22029937474E+04 0.  0.
        1    1    3    3  502    0 -0.45950968138E+03 -0.67767167460E+03 -0.12178280018E+04  0.14674784795E+04  0.50400001928E-02 0.  1.
       -1    1    3    3    0  502  0.45950968138E+03  0.67767167460E+03  0.36289524517E+03  0.89558975252E+03  0.50400001928E-02 0. -1.
</event>
<event>
 5   0  0.2910318E-05  0.2199761E+04  0.7818609E-02  0.8518528E-01
        1   -1    0    0  501    0  0.00000000000E+00  0.00000000000E+00  0.10421962771E+04  0.10421962771E+04  0.50400001928E-02 0.  1.
       -1   -1    0    0    0  501  0.00000000000E+00  0.00000000000E+00 -0.11607573945E+04  0.11607573945E+04  0.50400001928E-02 0. -1.
    10030    2    1    2    0    0  0.00000000000E+00  0.00000000000E+00 -0.11856111739E+03  0.22029536716E+04  0.21997609281E+04 0.  0.
        5    1    3    3  502    0  0.57423980290E+03  0.17036851024E+03 -0.98308252269E+03  0.11511950820E+04  0.46999998093E+01 0. -1.
       -5    1    3    3    0  502 -0.57423980290E+03 -0.17036851024E+03  0.86452140530E+03  0.10517585896E+04  0.46999998093E+01 0.  1.
</event>
<event>
 5   0  0.6445740E-05  0.2183017E+04  0.7818609E-02  0.8525530E-01
       -2   -1    0    0    0  501  0.00000000000E+00  0.00000000000E+00  0.11924459787E+04  0.11924459787E+04  0.25500000920E-02 0.  1.
        2   -1    0    0  501    0  0.00000000000E+00  0.00000000000E+00 -0.99911471988E+03  0.99911471988E+03  0.25500000920E-02 0. -1.
    10030    2    1    2    0    0  0.00000000000E+00  0.00000000000E+00  0.19333125880E+03  0.21915606986E+04  0.21830165643E+04 0.  0.
        5    1    3    3  502    0  0.94063260358E+03  0.25414518609E+03 -0.39718325619E+03  0.10522148543E+04  0.46999998093E+01 0. -1.
       -5    1    3    3    0  502 -0.94063260358E+03 -0.25414518609E+03  0.59051451499E+03  0.11393458443E+04  0.46999998093E+01 0.  1.
</event>
<event>
 5   0  0.6445740E-05  0.2196329E+04  0.7818609E-02  0.8519957E-01
       -2   -1    0    0    0  501  0.00000000000E+00  0.00000000000E+00  0.18715548225E+04  0.18715548225E+04  0.25500000920E-02 0.  1.
        2   -1    0    0  501    0  0.00000000000E+00  0.00000000000E+00 -0.64436569822E+03  0.64436569822E+03  0.25500000920E-02 0. -1.
    10030    2    1    2    0    0  0.00000000000E+00  0.00000000000E+00  0.12271891243E+04  0.25159205208E+04  0.21963294197E+04 0.  0.
        5    1    3    3  502    0  0.96060467929E+03 -0.41312591658E+03  0.99782661079E+03  0.14453769086E+04  0.46999998093E+01 0.  1.
       -5    1    3    3    0  502 -0.96060467929E+03  0.41312591658E+03  0.22936251353E+03  0.10705436121E+04  0.46999998093E+01 0. -1.
</event>
<event>
 5   0  0.6445740E-05  0.2202841E+04  0.7818609E-02  0.8517246E-01
        2   -1    0    0  501    0  0.00000000000E+00  0.00000000000E+00  0.22163369398E+04  0.22163369398E+04  0.25500000920E-02 0. -1.
       -2   -1    0    0    0  501  0.00000000000E+00  0.00000000000E+00 -0.54735688677E+03  0.54735688678E+03  0.25500000920E-02 0.  1.
    10030    2    1    2    0    0  0.00000000000E+00  0.00000000000E+00  0.16689800530E+04  0.27636938266E+04  0.22028411540E+04 0.  0.
        5    1    3    3  502    0 -0.10113593672E+04 -0.42781247474E+03  0.94119715357E+03  0.14462867817E+04  0.46999998093E+01 0.  1.
       -5    1    3    3    0  502  0.10113593672E+04  0.42781247474E+03  0.72778289946E+03  0.13174070449E+04  0.46999998093E+01 0. -1.
</event>
<event>
 5   0  0.6628798E-05  0.2216124E+04  0.7818609E-02  0.8511747E-01
        2   -1    0    0  501    0  0.00000000000E+00  0.00000000000E+00  0.15201695480E+04  0.15201695480E+04  0.25500000920E-02 0. -1.
       -2   -1    0    0    0  501  0.00000000000E+00  0.00000000000E+00 -0.80767416740E+03  0.80767416741E+03  0.25500000920E-02 0.  1.
    10030    2    1    2    0    0  0.00000000000E+00  0.00000000000E+00  0.71249538062E+03  0.23278437154E+04  0.22161242510E+04 0.  0.
        4    1    3    3  502    0 -0.95197183388E+03 -0.13770004717E+03  0.93405873715E+03  0.13407755266E+04  0.12699999809E+01 0. -1.
       -4    1    3    3    0  502  0.95197183388E+03  0.13770004717E+03 -0.22156335653E+03  0.98706818880E+03  0.12699999809E+01 0.  1.
</event>
<event>
 5   0  0.6628798E-05  0.2200314E+04  0.7818609E-02  0.8518297E-01
       -2   -1    0    0    0  501  0.00000000000E+00  0.00000000000E+00  0.74915885904E+03  0.74915885904E+03  0.25500000920E-02 0.  1.
        2   -1    0    0  501    0  0.00000000000E+00  0.00000000000E+00 -0.16156059993E+04  0.16156059993E+04  0.25500000920E-02 0. -1.
    10030    2    1    2    0    0  0.00000000000E+00  0.00000000000E+00 -0.86644714030E+03  0.23647648584E+04  0.22003141113E+04 0.  0.
        4    1    3    3  502    0  0.17593221806E+03  0.69522212621E+03  0.46343269755E+03  0.85384859792E+03  0.12699999809E+01 0.  1.
       -4    1    3    3    0  502 -0.17593221806E+03 -0.69522212621E+03 -0.13298798379E+04  0.15109162605E+04  0.12699999809E+01 0. -1.
</event>
<event>
 5   0  0.2910318E-05  0.2219386E+04  0.7818609E-02  0.8510402E-01
        1   -1    0    0  501    0  0.00000000000E+00  0.00000000000E+00  0.13193715529E+04  0.13193715529E+04  0.50400001928E-02 0.  1.
       -1   -1    0    0    0  501  0.00000000000E+00  0.00000000000E+00 -0.93333738817E+03  0.93333738819E+03  0.50400001928E-02 0. -1.
    10030    2    1    2    0    0  0.00000000000E+00  0.00000000000E+00  0.38603416468E+03  0.22527089410E+04  0.22193862207E+04 0.  0.
        5    1    3    3  502    0  0.34277025148E+03 -0.10205805959E+04  0.46597955342E+03  0.11731305265E+04  0.46999998093E+01 0.  1.
       -5    1    3    3    0  502 -0.34277025148E+03  0.10205805959E+04 -0.79945388737E+02  0.10795784146E+04  0.46999998093E+01 0. -1.
</event>
<event>
 5   0  0.6306919E-05  0.2192756E+04  0.7818609E-02  0.8521449E-01
       -2   -1    0    0    0  501  0.00000000000E+00  0.00000000000E+00  0.58870939400E+03  0.58870939401E+03  0.25500000920E-02 0. -1.
        2   -1    0    0  501    0  0.00000000000E+00  0.00000000000E+00 -0.20418309974E+04  0.20418309974E+04  0.25500000920E-02 0.  1.
    10030    2    1    2    0    0  0.00000000000E+00  0.00000000000E+00 -0.14531216034E+04  0.26305403914E+04  0.21927563377E+04 0.  0.
        3    1    3    3  502    0  0.28722468202E+03  0.10557080676E+04 -0.64149945910E+03  0.12682819514E+04  0.10100000352E+00 0.  1.
       -3    1    3    3    0  502 -0.28722468202E+03 -0.10557080676E+04 -0.81162214432E+03  0.13622584400E+04  0.10100000352E+00 0. -1.
</event>
<event>
 5   0  0.6414768E-05  0.2215414E+04  0.7818609E-02  0.8512040E-01
        2   -1    0    0  501    0  0.00000000000E+00  0.00000000000E+00  0.12978967522E+04  0.12978967522E+04  0.25500000920E-02 0.  1.
       -2   -1    0    0    0  501  0.00000000000E+00  0.00000000000E+00 -0.94538715802E+03  0.94538715802E+03  0.25500000920E-02 0. -1.
    10030    2    1    2    0    0  0.00000000000E+00  0.00000000000E+00  0.35250959418E+03  0.22432839102E+04  0.22154141121E+04 0.  0.
        2    1    3    3  502    0 -0.89604185586E+02 -0.21787565893E+03 -0.91972733672E+03  0.94941934189E+03  0.25500000920E-02 0. -1.
       -2    1    3    3    0  502  0.89604185586E+02  0.21787565893E+03  0.12722369309E+04  0.12938645683E+04  0.25500000920E-02 0.  1.
</event>
<event>
 5   0  0.2820239E-05  0.2103313E+04  0.7818609E-02  0.8559785E-01
       -1   -1    0    0    0  501  0.00000000000E+00  0.00000000000E+00  0.10692675687E+04  0.10692675687E+04  0.50400001928E-02 0.  1.
        1   -1    0    0  501    0  0.00000000000E+00  0.00000000000E+00 -0.10343353433E+04  0.10343353434E+04  0.50400001928E-02 0. -1.
    10030    2    1    2    0    0  0.00000000000E+00  0.00000000000E+00  0.34932225307E+02  0.21036029120E+04  0.21033128515E+04 0.  0.
        3    1    3    3  502    0 -0.50251293388E+03  0.86619462801E+03 -0.30377725701E+03  0.10464669199E+04  0.10100000352E+00 0. -1.
       -3    1    3    3    0  502  0.50251293388E+03 -0.86619462801E+03  0.33870948232E+03  0.10571359922E+04  0.10100000352E+00 0.  1.
</event>
<event>
 5   0  0.6445740E-05  0.2203857E+04  0.7818609E-02  0.8516824E-01
       -2   -1    0    0    0  501  0.00000000000E+00  0.00000000000E+00  0.64111486933E+03  0.64111486933E+03  0.25500000920E-02 0. -1.
        2   -1    0    0  501    0  0.00000000000E+00  0.00000000000E+00 -0.18939612459E+04  0.18939612459E+04  0.25500000920E-02 0.  1.
    10030    2    1    2    0    0  0.00000000000E+00  0.00000000000E+00 -0.12528463766E+04  0.25350761152E+04  0.22038572701E+04 0.  0.
        5    1    3    3  502    0  0.83155615076E+03 -0.11829317953E+03  0.19403777497E+03  0.86206244339E+03  0.46999998093E+01 0. -1.
       -5    1    3    3    0  502 -0.83155615076E+03  0.11829317953E+03 -0.14468841515E+04  0.16730136718E+04  0.46999998093E+01 0.  1.
</event>
<event>
 5   0  0.6414768E-05  0.2178555E+04  0.7818609E-02  0.8527407E-01
        2   -1    0    0  501    0  0.00000000000E+00  0.00000000000E+00  0.19541232451E+04  0.19541232451E+04  0.25500000920E-02 0.  1.
       -2   -1    0    0    0  501  0.00000000000E+00  0.00000000000E+00 -0.60719062090E+03  0.60719062090E+03  0.25500000920E-02 0. -1.
    10030    2    1    2    0    0  0.00000000000E+00  0.00000000000E+00  0.13469326242E+04  0.25613138660E+04  0.21785548481E+04 0.  0.
        2    1    3    3  502    0 -0.47919869743E+03  0.64212666809E+03  0.15410673538E+04  0.17369072049E+04  0.25500000920E-02 0.  1.
       -2    1    3    3    0  502  0.47919869743E+03 -0.64212666809E+03 -0.19413472967E+03  0.82440666104E+03  0.25500000920E-02 0. -1.
</event>
<event>
 5   0  0.2908031E-05  0.2202873E+04  0.7818609E-02  0.8517233E-01
        1   -1    0    0  501    0  0.00000000000E+00  0.00000000000E+00  0.15069273990E+04  0.15069273990E+04  0.50400001928E-02 0.  1.
       -1   -1    0    0    0  501  0.00000000000E+00  0.00000000000E+00 -0.80505715994E+03  0.80505715995E+03  0.50400001928E-02 0. -1.
    10030    2    1    2    0    0  0.00000000000E+00  0.00000000000E+00  0.70187023903E+03  0.23119845589E+04  0.22028732983E+04 0.  0.
        1    1    3    3  502    0 -0.21696929000E+03  0.11145110405E+03  0.14782244468E+04  0.14982137820E+04  0.50400001928E-02 0.  1.
       -1    1    3    3    0  502  0.21696929000E+03 -0.11145110405E+03 -0.77635420779E+03  0.81377077692E+03  0.50400001928E-02 0. -1.
</event>
<event>
 5   0  0.6445740E-05  0.2216587E+04  0.7818609E-02  0.8511556E-01
        2   -1    0    0  501    0  0.00000000000E+00  0.00000000000E+00  0.12459664839E+04  0.12459664839E+04  0.25500000920E-02 0.  1.
       -2   -1    0    0    0  501  0.00000000000E+00  0.00000000000E+00 -0.98583273474E+03  0.98583273474E+03  0.25500000920E-02 0. -1.
    10030    2    1    2    0    0  0.00000000000E+00  0.00000000000E+00  0.26013374917E+03  0.22317992187E+04  0.22165870578E+04 0.  0.
        5    1    3    3  502    0  0.98743399420E+03 -0.12593578875E+03 -0.36052104602E+03  0.10587177293E+04  0.46999998093E+01 0.  1.
       -5    1    3    3    0  502 -0.98743399420E+03  0.12593578875E+03  0.62065479519E+03  0.11730814893E+04  0.46999998093E+01 0. -1.
</event>
<event>
 5   0  0.2245375E-05  0.2188424E+04  0.7818609E-02  0.8523262E-01
        4   -1    0    0  501    0  0.00000000000E+00  0.00000000000E+00  0.18067006703E+04  0.18067011166E+04  0.12699999809E+01 0.  1.
       -4   -1    0    0    0  501  0.00000000000E+00  0.00000000000E+00 -0.66269841020E+03  0.66269962712E+03  0.12699999809E+01 0. -1.
    10030    2    1    2    0    0  0.00000000000E+00  0.00000000000E+00  0.11440022601E+04  0.24694007438E+04  0.21884238306E+04 0.  0.
        2    1    3    3  502    0 -0.46620838547E+03 -0.98198191749E+01 -0.54496655520E+03  0.71724140554E+03  0.25500000920E-02 0. -1.
       -2    1    3    3    0  502  0.46620838547E+03  0.98198191749E+01  0.16889688153E+04  0.17521593382E+04  0.25500000920E-02 0.  1.
</event>
<event>
 5   0  0.6306919E-05  0.2154803E+04  0.7818609E-02  0.8537479E-01
        2   -1    0    0  501    0  0.00000000000E+00  0.00000000000E+00  0.11289021183E+04  0.11289021183E+04  0.25500000920E-02 0.  1.
       -2   -1    0    0    0  501  0.00000000000E+00  0.00000000000E+00 -0.10282502341E+04  0.10282502341E+04  0.25500000920E-02 0. -1.
    10030    2    1    2    0    0  0.00000000000E+00  0.00000000000E+00  0.10065188424E+03  0.21571523524E+04  0.21548028841E+04 0.  0.
        3    1    3    3  502    0  0.82179137000E+03  0.52451771829E+03  0.50944780589E+03  0.10999986226E+04  0.10100000352E+00 0.  1.
       -3    1    3    3    0  502 -0.82179137000E+03 -0.52451771829E+03 -0.40879592165E+03  0.10571537298E+04  0.10100000352E+00 0. -1.
</event>
<event>
 5   0  0.2929471E-05  0.2234338E+04  0.7818609E-02  0.8504270E-01
        1   -1    0    0  501    0  0.00000000000E+00  0.00000000000E+00  0.28977650403E+04  0.28977650403E+04  0.50400001928E-02 0. -1.
       -1   -1    0    0    0  501  0.00000000000E+00  0.00000000000E+00 -0.43069978069E+03  0.43069978072E+03  0.50400001928E-02 0.  1.
    10030    2    1    2    0    0  0.00000000000E+00  0.00000000000E+00  0.24670652596E+04  0.33284648210E+04  0.22343381726E+04 0.  0.
        2    1    3    3  502    0  0.68349184075E+03  0.81309059086E+03  0.17491222813E+04  0.20463885653E+04  0.25500000920E-02 0. -1.
       -2    1    3    3    0  502 -0.68349184075E+03 -0.81309059086E+03  0.71794297829E+03  0.12820762557E+04  0.25500000920E-02 0.  1.
</event>
<event>
 5   0  0.2910318E-05  0.2252882E+04  0.7818609E-02  0.8496734E-01
        1   -1    0    0  501    0  0.00000000000E+00  0.00000000000E+00  0.14103193479E+04  0.14103193479E+04  0.50400001928E-02 0.  1.
       -1   -1    0    0    0  501  0.00000000000E+00  0.00000000000E+00 -0.89970362151E+03  0.89970362152E+03  0.50400001928E-02 0. -1.
    10030    2    1    2    0    0  0.00000000000E+00  0.00000000000E+00  0.51061572640E+03  0.23100229694E+04  0.22528820873E+04 0.  0.
        5    1    3    3  502    0 -0.10690217880E+04  0.76829710777E+02 -0.10009107995E+03  0.10764528332E+04  0.46999998093E+01 0. -1.
       -5    1    3    3    0  502  0.10690217880E+04 -0.76829710777E+02  0.61070680635E+03  0.12335701363E+04  0.46999998093E+01 0.  1.
</event>
<event>
 5   0  0.6414768E-05  0.2209628E+04  0.7818609E-02  0.8514431E-01
       -2   -1    0    0    0  501  0.00000000000E+00  0.00000000000E+00  0.73658358934E+03  0.73658358935E+03  0.25500000920E-02 0.  1.
        2   -1    0    0  501    0  0.00000000000E+00  0.00000000000E+00 -0.16571292065E+04  0.16571292065E+04  0.25500000920E-02 0. -1.
    10030    2    1    2    0    0  0.00000000000E+00  0.00000000000E+00 -0.92054561718E+03  0.23937127959E+04  0.22096281850E+04 0.  0.
        2    1    3    3  502    0 -0.88082309993E+03 -0.12062926786E+03  0.25027747956E+03  0.92360141318E+03  0.25500000920E-02 0.  1.
       -2    1    3    3    0  502  0.88082309993E+03  0.12062926786E+03 -0.11708230967E+04  0.14701113827E+04  0.25500000920E-02 0. -1.
</event>
<event>
 5   0  0.6293013E-05  0.1969579E+04  0.7818609E-02  0.8620977E-01
        2   -1    0    0  501    0  0.00000000000E+00  0.00000000000E+00  0.79880097650E+03  0.79880097651E+03  0.25500000920E-02 0. -1.
       -2   -1    0    0    0  501  0.00000000000E+00  0.00000000000E+00 -0.12140826363E+04  0.12140826363E+04  0.25500000920E-02 0.  1.
    10030    2    1    2    0    0  0.00000000000E+00  0.00000000000E+00 -0.41528165984E+03  0.20128836129E+04  0.19695790367E+04 0.  0.
        1    1    3    3  502    0 -0.27603146739E+03  0.90513862082E+02  0.75401786111E+03  0.80804026207E+03  0.50400001928E-02 0. -1.
       -1    1    3    3    0  502  0.27603146739E+03 -0.90513862082E+02 -0.11692995210E+04  0.12048433508E+04  0.50400001928E-02 0.  1.
</event>
<event>
 5   0  0.2753631E-05  0.2182770E+04  0.7818609E-02  0.8525634E-01
        1   -1    0    0  501    0  0.00000000000E+00  0.00000000000E+00  0.11972986022E+04  0.11972986022E+04  0.50400001928E-02 0. -1.
       -1   -1    0    0    0  501  0.00000000000E+00  0.00000000000E+00 -0.99484033519E+03  0.99484033520E+03  0.50400001928E-02 0.  1.
    10030    2    1    2    0    0  0.00000000000E+00  0.00000000000E+00  0.20245826705E+03  0.21921389374E+04  0.21827697476E+04 0.  0.
        4    1    3    3  502    0  0.10791026883E+04  0.99490929503E+02  0.23123854088E+03  0.11080766818E+04  0.12699999809E+01 0.  1.
       -4    1    3    3    0  502 -0.10791026883E+04 -0.99490929503E+02 -0.28780273839E+02  0.10840622556E+04  0.12699999809E+01 0. -1.
</event>
<event>
 5   0  0.2820239E-05  0.2152649E+04  0.7818609E-02  0.8538399E-01
       -1   -1    0    0    0  501  0.00000000000E+00  0.00000000000E+00  0.10006654657E+04  0.10006654657E+04  0.50400001928E-02 0. -1.
        1   -1    0    0  501    0  0.00000000000E+00  0.00000000000E+00 -0.11577035571E+04  0.11577035571E+04  0.50400001928E-02 0.  1.
    10030    2    1    2    0    0  0.00000000000E+00  0.00000000000E+00 -0.15703809139E+03  0.21583690228E+04  0.21526485724E+04 0.  0.
        3    1    3    3  502    0  0.17013435331E+03 -0.51862212507E+03 -0.10086476022E+04  0.11468585800E+04  0.10100000352E+00 0.  1.
       -3    1    3    3    0  502 -0.17013435331E+03  0.51862212507E+03  0.85160951083E+03  0.10115104428E+04  0.10100000352E+00 0. -1.
</event>
<event>
 5   0  0.6414768E-05  0.2198277E+04  0.7818609E-02  0.8519146E-01
        2   -1    0    0  501    0  0.00000000000E+00  0.00000000000E+00  0.12950496676E+04  0.12950496676E+04  0.25500000920E-02 0.  1.
       -2   -1    0    0    0  501  0.00000000000E+00  0.00000000000E+00 -0.93286394826E+03  0.93286394827E+03  0.25500000920E-02 0. -1.
    10030    2    1    2    0    0  0.00000000000E+00  0.00000000000E+00  0.36218571929E+03  0.22279136158E+04  0.21982767306E+04 0.  0.
        2    1    3    3  502    0  0.11120755311E+03 -0.37997672495E+03  0.12202729673E+04  0.12828934274E+04  0.25500000920E-02 0.  1.
       -2    1    3    3    0  502 -0.11120755311E+03  0.37997672495E+03 -0.85808724799E+03  0.94502018843E+03  0.25500000920E-02 0. -1.
</event>
<event>
 5   0  0.2908031E-05  0.2177079E+04  0.7818609E-02  0.8528029E-01
        1   -1    0    0  501    0  0.00000000000E+00  0.00000000000E+00  0.66315582970E+03  0.66315582972E+03  0.50400001928E-02 0. -1.
       -1   -1    0    0    0  501  0.00000000000E+00  0.00000000000E+00 -0.17867864349E+04  0.17867864349E+04  0.50400001928E-02 0.  1.
    10030    2    1    2    0    0  0.00000000000E+00  0.00000000000E+00 -0.11236306052E+04  0.24499422646E+04  0.21770786304E+04 0.  0.
        1    1    3    3  502    0  0.61446524048E+03 -0.81199053784E+02 -0.15688214298E+04  0.16868199360E+04  0.50400001928E-02 0.  1.
       -1    1    3    3    0  502 -0.61446524048E+03  0.81199053784E+02  0.44519082456E+03  0.76312232859E+03  0.50400001928E-02 0. -1.
</event>
<event>
 5   0  0.2908031E-05  0.2189565E+04  0.7818609E-02  0.8522784E-01
        1   -1    0    0  501    0  0.00000000000E+00  0.00000000000E+00  0.21391929260E+04  0.21391929260E+04  0.50400001928E-02 0.  1.
       -1   -1    0    0    0  501  0.00000000000E+00  0.00000000000E+00 -0.56028080955E+03  0.56028080957E+03  0.50400001928E-02 0. -1.
    10030    2    1    2    0    0  0.00000000000E+00  0.00000000000E+00  0.15789121164E+04  0.26994737356E+04  0.21895650202E+04 0.  0.
        1    1    3    3  502    0  0.31817000919E+01 -0.10260202106E+04  0.12602507064E+04  0.16251029010E+04  0.50400001928E-02 0.  1.
       -1    1    3    3    0  502 -0.31817000919E+01  0.10260202106E+04  0.31866141001E+03  0.10743708345E+04  0.50400001928E-02 0. -1.
</event>
<event>
 5   0  0.2929471E-05  0.2195714E+04  0.7818609E-02  0.8520214E-01
        1   -1    0    0  501    0  0.00000000000E+00  0.00000000000E+00  0.13365011867E+04  0.13365011867E+04  0.50400001928E-02 0.  1.
       -1   -1    0    0    0  501  0.00000000000E+00  0.00000000000E+00 -0.90182501491E+03  0.90182501492E+03  0.50400001928E-02 0. -1.
    10030    2    1    2    0    0  0.00000000000E+00  0.00000000000E+00  0.43467617183E+03  0.22383262017E+04  0.21957141915E+04 0.  0.
        2    1    3    3  502    0 -0.22772976172E+03 -0.10627166979E+04  0.37546968024E+03  0.11498717777E+04  0.25500000920E-02 0. -1.
       -2    1    3    3    0  502  0.22772976172E+03  0.10627166979E+04  0.59206491582E+02  0.10884544240E+04  0.25500000920E-02 0.  1.
</event>
<event>
 5   0  0.6628798E-05  0.2226689E+04  0.7818609E-02  0.8507401E-01
        2   -1    0    0  501    0  0.00000000000E+00  0.00000000000E+00  0.67663230770E+03  0.67663230770E+03  0.25500000920E-02 0.  1.
       -2   -1    0    0    0  501  0.00000000000E+00  0.00000000000E+00 -0.18319187738E+04  0.18319187738E+04  0.25500000920E-02 0. -1.
    10030    2    1    2    0    0  0.00000000000E+00  0.00000000000E+00 -0.11552864661E+04  0.25085510815E+04  0.22266885075E+04 0.  0.
        4    1    3    3  502    0  0.78111362392E+03 -0.34553243031E+03 -0.13821870512E+04  0.16247996219E+04  0.12699999809E+01 0. -1.
       -4    1    3    3    0  502 -0.78111362392E+03  0.34553243031E+03  0.22690058514E+03  0.88375145958E+03  0.12699999809E+01 0.  1.
</event>
<event>
 5   0  0.2245375E-05  0.2240278E+04  0.7818609E-02  0.8501848E-01
        4   -1    0    0  501    0  0.00000000000E+00  0.00000000000E+00  0.85112708345E+03  0.85112803096E+03  0.12699999809E+01 0.  1.
       -4   -1    0    0    0  501  0.00000000000E+00  0.00000000000E+00 -0.14741741738E+04  0.14741747209E+04  0.12699999809E+01 0. -1.
    10030    2    1    2    0    0  0.00000000000E+00  0.00000000000E+00 -0.62304709035E+03  0.23253027518E+04  0.22402779316E+04 0.  0.
        4    1    3    3  502    0 -0.39841878628E+03  0.54284056465E+03 -0.12406485939E+04  0.14116033275E+04  0.12699999809E+01 0. -1.
       -4    1    3    3    0  502  0.39841878628E+03 -0.54284056465E+03  0.61760150353E+03  0.91369942429E+03  0.12699999809E+01 0.  1.
</event>
<event>
 5   0  0.6628798E-05  0.2195139E+04  0.7818609E-02  0.8520454E-01
       -2   -1    0    0    0  501  0.00000000000E+00  0.00000000000E+00  0.65645496443E+03  0.65645496444E+03  0.25500000920E-02 0. -1.
        2   -1    0    0  501    0  0.00000000000E+00  0.00000000000E+00 -0.18350966363E+04  0.18350966363E+04  0.25500000920E-02 0.  1.
    10030    2    1    2    0    0  0.00000000000E+00  0.00000000000E+00 -0.11786416719E+04  0.24915516007E+04  0.21951385352E+04 0.  0.
        4    1    3    3  502    0  0.20166060710E+03 -0.33903013492E+03 -0.17518548921E+04  0.17957186886E+04  0.12699999809E+01 0.  1.
       -4    1    3    3    0  502 -0.20166060710E+03  0.33903013492E+03  0.57321322023E+03  0.69583291211E+03  0.12699999809E+01 0. -1.
</event>
<event>
 5   0  0.6293013E-05  0.2396349E+04  0.7818609E-02  0.8440872E-01
        2   -1    0    0  501    0  0.00000000000E+00  0.00000000000E+00  0.23042199502E+04  0.23042199502E+04  0.25500000920E-02 0. -1.
       -2   -1    0    0    0  501  0.00000000000E+00  0.00000000000E+00 -0.62304049878E+03  0.62304049878E+03  0.25500000920E-02 0.  1.
    10030    2    1    2    0    0  0.00000000000E+00  0.00000000000E+00  0.16811794514E+04  0.29272604490E+04  0.23963491791E+04 0.  0.
        1    1    3    3  502    0 -0.10433548135E+04  0.47037672351E+03  0.40736322061E+03  0.12148202840E+04  0.50400001928E-02 0.  1.
       -1    1    3    3    0  502  0.10433548135E+04 -0.47037672351E+03  0.12738162308E+04  0.17124401650E+04  0.50400001928E-02 0. -1.
</event>
<event>
 5   0  0.6445740E-05  0.2195416E+04  0.7818609E-02  0.8520338E-01
       -2   -1    0    0    0  501  0.00000000000E+00  0.00000000000E+00  0.14024973562E+04  0.14024973562E+04  0.25500000920E-02 0. -1.
        2   -1    0    0  501    0  0.00000000000E+00  0.00000000000E+00 -0.85915550512E+03  0.85915550513E+03  0.25500000920E-02 0.  1.
    10030    2    1    2    0    0  0.00000000000E+00  0.00000000000E+00  0.54334185108E+03  0.22616528613E+04  0.21954164293E+04 0.  0.
        5    1    3    3  502    0  0.47267170179E+02 -0.19904218475E+03  0.13826747623E+04  0.13977351555E+04  0.46999998093E+01 0. -1.
       -5    1    3    3    0  502 -0.47267170179E+02  0.19904218475E+03 -0.83933291118E+03  0.86391770585E+03  0.46999998093E+01 0.  1.
</event>
<event>
 5   0  0.6306919E-05  0.2161961E+04  0.7818609E-02  0.8534430E-01
        2   -1    0    0  501    0  0.00000000000E+00  0.00000000000E+00  0.76757256554E+03  0.76757256554E+03  0.25500000920E-02 0. -1.
       -2   -1    0    0    0  501  0.00000000000E+00  0.00000000000E+00 -0.15223566838E+04  0.15223566838E+04  0.25500000920E-02 0.  1.
    10030    2    1    2    0    0  0.00000000000E+00  0.00000000000E+00 -0.75478411826E+03  0.22899292493E+04  0.21619613553E+04 0.  0.
        3    1    3    3  502    0 -0.87034712727E+03 -0.20241145699E+02 -0.10561055164E+04  0.13686755269E+04  0.10100000352E+00 0.  1.
       -3    1    3    3    0  502  0.87034712727E+03  0.20241145699E+02  0.30132139815E+03  0.92125372244E+03  0.10100000352E+00 0. -1.
</event>
<event>
 5   0  0.6628798E-05  0.1972657E+04  0.7818609E-02  0.8619512E-01
       -2   -1    0    0    0  501  0.00000000000E+00  0.00000000000E+00  0.90498649076E+03  0.90498649077E+03  0.25500000920E-02 0. -1.
        2   -1    0    0  501    0  0.00000000000E+00  0.00000000000E+00 -0.10749820586E+04  0.10749820586E+04  0.25500000920E-02 0.  1.
    10030    2    1    2    0    0  0.00000000000E+00  0.00000000000E+00 -0.16999556784E+03  0.19799685494E+04  0.19726573355E+04 0.  0.
        4    1    3    3  502    0  0.79179100206E+03  0.53483839166E+03  0.16056697574E+03  0.96890064648E+03  0.12699999809E+01 0. -1.
       -4    1    3    3    0  502 -0.79179100206E+03 -0.53483839166E+03 -0.33056254358E+03  0.10110679029E+04  0.12699999809E+01 0.  1.
</event>
<event>
 5   0  0.2820239E-05  0.2138243E+04  0.7818609E-02  0.8544582E-01
        1   -1    0    0  501    0  0.00000000000E+00  0.00000000000E+00  0.45568088128E+03  0.45568088131E+03  0.50400001928E-02 0.  1.
       -1   -1    0    0    0  501  0.00000000000E+00  0.00000000000E+00 -0.25083798987E+04  0.25083798987E+04  0.50400001928E-02 0. -1.
    10030    2    1    2    0    0  0.00000000000E+00  0.00000000000E+00 -0.20526990174E+04  0.29640607800E+04  0.21382429823E+04 0.  0.
        3    1    3    3  502    0 -0.71254062225E+03  0.60666342955E+02 -0.21280413186E+04  0.22449842778E+04  0.10100000352E+00 0. -1.
       -3    1    3    3    0  502  0.71254062225E+03 -0.60666342955E+02  0.75342301199E+02  0.71907650224E+03  0.10100000352E+00 0.  1.
</event>
<event>
 5   0  0.2929471E-05  0.2156520E+04  0.7818609E-02  0.8536746E-01
       -1   -1    0    0    0  501  0.00000000000E+00  0.00000000000E+00  0.62689823549E+03  0.62689823551E+03  0.50400001928E-02 0. -1.
        1   -1    0    0  501    0  0.00000000000E+00  0.00000000000E+00 -0.18545992520E+04  0.18545992520E+04  0.50400001928E-02 0.  1.
    10030    2    1    2    0    0  0.00000000000E+00  0.00000000000E+00 -0.12277010165E+04  0.24814974875E+04  0.21565203441E+04 0.  0.
        2    1    3    3  502    0  0.88811220313E+03 -0.40738280112E+03 -0.11385737604E+04  0.15003513721E+04  0.25500000920E-02 0.  1.
       -2    1    3    3    0  502 -0.88811220313E+03  0.40738280112E+03 -0.89127256153E+02  0.98114611542E+03  0.25500000920E-02 0. -1.
</event>
<event>
 5   0  0.2910318E-05  0.2158378E+04  0.7818609E-02  0.8535955E-01
        1   -1    0    0  501    0  0.00000000000E+00  0.00000000000E+00  0.11170641022E+04  0.11170641022E+04  0.50400001928E-02 0.  1.
       -1   -1    0    0    0  501  0.00000000000E+00  0.00000000000E+00 -0.10425977153E+04  0.10425977153E+04  0.50400001928E-02 0. -1.
    10030    2    1    2    0    0  0.00000000000E+00  0.00000000000E+00  0.74466386894E+02  0.21596618175E+04  0.21583776137E+04 0.  0.
        5    1    3    3  502    0  0.52776216833E+03 -0.85073131767E+03  0.44039936093E+03  0.10937323111E+04  0.46999998093E+01 0.  1.
       -5    1    3    3    0  502 -0.52776216833E+03  0.85073131767E+03 -0.36593297404E+03  0.10659295064E+04  0.46999998093E+01 0. -1.
</event>
<event>
 5   0  0.6628798E-05  0.2223114E+04  0.7818609E-02  0.8508869E-01
        2   -1    0    0  501    0  0.00000000000E+00  0.00000000000E+00  0.19751109901E+04  0.19751109901E+04  0.25500000920E-02 0. -1.
       -2   -1    0    0    0  501  0.00000000000E+00  0.00000000000E+00 -0.62556411499E+03  0.62556411499E+03  0.25500000920E-02 0.  1.
    10030    2    1    2    0    0  0.00000000000E+00  0.00000000000E+00  0.13495468751E+04  0.26006751051E+04  0.22231136350E+04 0.  0.
        4    1    3    3  502    0  0.42129188968E+03 -0.18843757710E+03  0.18577309016E+04  0.19141999093E+04  0.12699999809E+01 0. -1.
       -4    1    3    3    0  502 -0.42129188968E+03  0.18843757710E+03 -0.50818402654E+03  0.68647519583E+03  0.12699999809E+01 0.  1.
</event>
<event>
 5   0  0.2908031E-05  0.2212480E+04  0.7818609E-02  0.8513252E-01
        1   -1    0    0  501    0  0.00000000000E+00  0.00000000000E+00  0.95142605112E+03  0.95142605113E+03  0.50400001928E-02 0. -1.
       -1   -1    0    0    0  501  0.00000000000E+00  0.00000000000E+00 -0.12862448519E+04  0.12862448519E+04  0.50400001928E-02 0.  1.
    10030    2    1    2    0    0  0.00000000000E+00  0.00000000000E+00 -0.33481880082E+03  0.22376709031E+04  0.22124799301E+04 0.  0.
        1    1    3    3  502    0 -0.63110751360E+03  0.17535567846E+03 -0.10690305638E+04  0.12537434562E+04  0.50400001928E-02 0.  1.
       -1    1    3    3    0  502  0.63110751360E+03 -0.17535567846E+03  0.73421176299E+03  0.98392744683E+03  0.50400001928E-02 0. -1.
</event>
<event>
 5   0  0.2910318E-05  0.2176457E+04  0.7818609E-02  0.8528292E-01
        1   -1    0    0  501    0  0.00000000000E+00  0.00000000000E+00  0.79658194832E+03  0.79658194834E+03  0.50400001928E-02 0.  1.
       -1   -1    0    0    0  501  0.00000000000E+00  0.00000000000E+00 -0.14866535533E+04  0.14866535533E+04  0.50400001928E-02 0. -1.
    10030    2    1    2    0    0  0.00000000000E+00  0.00000000000E+00 -0.69007160499E+03  0.22832355017E+04  0.21764571064E+04 0.  0.
        5    1    3    3  502    0  0.28772201730E+03 -0.90744700123E+03  0.20806422512E+03  0.97445206709E+03  0.46999998093E+01 0.  1.
       -5    1    3    3    0  502 -0.28772201730E+03  0.90744700123E+03 -0.89813583011E+03  0.13087834346E+04  0.46999998093E+01 0. -1.
</event>
<event>
 5   0  0.2908031E-05  0.2194722E+04  0.7818609E-02  0.8520628E-01
        1   -1    0    0  501    0  0.00000000000E+00  0.00000000000E+00  0.10741057005E+04  0.10741057005E+04  0.50400001928E-02 0.  1.
       -1   -1    0    0    0  501  0.00000000000E+00  0.00000000000E+00 -0.11211194779E+04  0.11211194779E+04  0.50400001928E-02 0. -1.
    10030    2    1    2    0    0  0.00000000000E+00  0.00000000000E+00 -0.47013777391E+02  0.21952251785E+04  0.21947216882E+04 0.  0.
        1    1    3    3  502    0 -0.62898155918E+03  0.89028223973E+03 -0.14995010535E+03  0.11003205452E+04  0.50400001928E-02 0.  1.
       -1    1    3    3    0  502  0.62898155918E+03 -0.89028223973E+03  0.10293632796E+03  0.10949046332E+04  0.50400001928E-02 0. -1.
</event>
<event>
 5   0  0.2929471E-05  0.2083094E+04  0.7818609E-02  0.8568727E-01
       -1   -1    0    0    0  501  0.00000000000E+00  0.00000000000E+00  0.85179146515E+03  0.85179146517E+03  0.50400001928E-02 0.  1.
        1   -1    0    0  501    0  0.00000000000E+00  0.00000000000E+00 -0.12735750914E+04  0.12735750914E+04  0.50400001928E-02 0. -1.
    10030    2    1    2    0    0  0.00000000000E+00  0.00000000000E+00 -0.42178362623E+03  0.21253665566E+04  0.20830942303E+04 0.  0.
        2    1    3    3  502    0  0.19281233234E+03  0.51110116581E+01 -0.12551943549E+04  0.12699273942E+04  0.25500000920E-02 0. -1.
       -2    1    3    3    0  502 -0.19281233234E+03 -0.51110116581E+01  0.83341072864E+03  0.85543916240E+03  0.25500000920E-02 0.  1.
</event>
<event>
 5   0  0.6445740E-05  0.1845927E+04  0.7818609E-02  0.8682250E-01
        2   -1    0    0  501    0  0.00000000000E+00  0.00000000000E+00  0.10000534844E+04  0.10000534844E+04  0.25500000920E-02 0.  1.
       -2   -1    0    0    0  501  0.00000000000E+00  0.00000000000E+00 -0.85181615898E+03  0.85181615898E+03  0.25500000920E-02 0. -1.
    10030    2    1    2    0    0  0.00000000000E+00  0.00000000000E+00  0.14823732544E+03  0.18518696434E+04  0.18459271035E+04 0.  0.
        5    1    3    3  502    0 -0.42128824149E+03 -0.12841728619E+03 -0.73958113121E+03  0.86080027965E+03  0.46999998093E+01 0. -1.
       -5    1    3    3    0  502  0.42128824149E+03  0.12841728619E+03  0.88781845665E+03  0.99106936376E+03  0.46999998093E+01 0.  1.
</event>
<event>
 5   0  0.6628798E-05  0.2181809E+04  0.7818609E-02  0.8526038E-01
        2   -1    0    0  501    0  0.00000000000E+00  0.00000000000E+00  0.11321998049E+04  0.11321998049E+04  0.25500000920E-02 0.  1.
       -2   -1    0    0    0  501  0.00000000000E+00  0.00000000000E+00 -0.10511158122E+04  0.10511158122E+04  0.25500000920E-02 0. -1.
    10030    2    1    2    0    0  0.00000000000E+00  0.00000000000E+00  0.81083992747E+02  0.21833156171E+04  0.21818094486E+04 0.  0.
        4    1    3    3  502    0 -0.41639025002E+02 -0.91648650117E+03 -0.55011134000E+03  0.10697221202E+04  0.12699999809E+01 0. -1.
       -4    1    3    3    0  502  0.41639025002E+02  0.91648650117E+03  0.63119533275E+03  0.11135934968E+04  0.12699999809E+01 0.  1.
</event>
<event>
 5   0  0.2820239E-05  0.2159211E+04  0.7818609E-02  0.8535600E-01
       -1   -1    0    0    0  501  0.00000000000E+00  0.00000000000E+00  0.87609337803E+03  0.87609337804E+03  0.50400001928E-02 0.  1.
        1   -1    0    0  501    0  0.00000000000E+00  0.00000000000E+00 -0.13303925330E+04  0.13303925331E+04  0.50400001928E-02 0. -1.
    10030    2    1    2    0    0  0.00000000000E+00  0.00000000000E+00 -0.45429915502E+03  0.22064859111E+04  0.21592110489E+04 0.  0.
        3    1    3    3  502    0 -0.10787459206E+04  0.33408953641E+02 -0.25493230850E+03  0.11089632147E+04  0.10100000352E+00 0.  1.
       -3    1    3    3    0  502  0.10787459206E+04 -0.33408953641E+02 -0.19936684651E+03  0.10975226964E+04  0.10100000352E+00 0. -1.
</event>
<event>
 5   0  0.2929471E-05  0.2173345E+04  0.7818609E-02  0.8529605E-01
        1   -1    0    0  501    0  0.00000000000E+00  0.00000000000E+00  0.13940960174E+04  0.13940960174E+04  0.50400001928E-02 0. -1.
       -1   -1    0    0    0  501  0.00000000000E+00  0.00000000000E+00 -0.84704153455E+03  0.84704153456E+03  0.50400001928E-02 0.  1.
    10030    2    1    2    0    0  0.00000000000E+00  0.00000000000E+00  0.54705448281E+03  0.22411375519E+04  0.21733450990E+04 0.  0.
        2    1    3    3  502    0  0.47766158770E+03  0.27982036877E+03  0.12377873475E+04  0.13559415728E+04  0.25500000920E-02 0. -1.
       -2    1    3    3    0  502 -0.47766158770E+03 -0.27982036877E+03 -0.69073286469E+03  0.88519597916E+03  0.25500000920E-02 0.  1.
</event>
<event>
 5   0  0.6628798E-05  0.2228114E+04  0.7818609E-02  0.8506817E-01
        2   -1    0    0  501    0  0.00000000000E+00  0.00000000000E+00  0.11436539185E+04  0.11436539185E+04  0.25500000920E-02 0.  1.
       -2   -1    0    0    0  501  0.00000000000E+00  0.00000000000E+00 -0.10852264580E+04  0.10852264580E+04  0.25500000920E-02 0. -1.
    10030    2    1    2    0    0  0.00000000000E+00  0.00000000000E+00  0.58427460412E+02  0.22288803765E+04  0.22281144415E+04 0.  0.
        4    1    3    3  502    0 -0.95625276183E+03  0.22812666599E+03 -0.49504729717E+03  0.11006973061E+04  0.12699999809E+01 0. -1.
       -4    1    3    3    0  502  0.95625276183E+03 -0.22812666599E+03  0.55347475758E+03  0.11281830704E+04  0.12699999809E+01 0.  1.
</event>
<event>
 5   0  0.2908031E-05  0.2124765E+04  0.7818609E-02  0.8550412E-01
        1   -1    0    0  501    0  0.00000000000E+00  0.00000000000E+00  0.11540831823E+04  0.11540831823E+04  0.50400001928E-02 0. -1.
       -1   -1    0    0    0  501  0.00000000000E+00  0.00000000000E+00 -0.97796839076E+03  0.97796839077E+03  0.50400001928E-02 0.  1.
    10030    2    1    2    0    0  0.00000000000E+00  0.00000000000E+00  0.17611479154E+03  0.21320515731E+04  0.21247652789E+04 0.  0.
        1    1    3    3  502    0 -0.49640600708E+03  0.62134623385E+03  0.79486399907E+03  0.11244104425E+04  0.50400001928E-02 0. -1.
       -1    1    3    3    0  502  0.49640600708E+03 -0.62134623385E+03 -0.61874920752E+03  0.10076411306E+04  0.50400001928E-02 0.  1.
</event>
<event>
 5   0  0.6293013E-05  0.2209609E+04  0.7818609E-02  0.8514439E-01
        2   -1    0    0  501    0  0.00000000000E+00  0.00000000000E+00  0.12024682218E+04  0.12024682218E+04  0.25500000920E-02 0.  1.
       -2   -1    0    0    0  501  0.00000000000E+00  0.00000000000E+00 -0.10150731046E+04  0.10150731046E+04  0.25500000920E-02 0. -1.
    10030    2    1    2    0    0  0.00000000000E+00  0.00000000000E+00  0.18739511715E+03  0.22175413264E+04  0.22096091519E+04 0.  0.
        1    1    3    3  502    0 -0.46474483301E+03 -0.95749508751E+03  0.39108639494E+03  0.11339017465E+04  0.50400001928E-02 0.  1.
       -1    1    3    3    0  502  0.46474483301E+03  0.95749508751E+03 -0.20369127779E+03  0.10836395799E+04  0.50400001928E-02 0. -1.
</event>
<event>
 5   0  0.2908031E-05  0.2206143E+04  0.7818609E-02  0.8515876E-01
        1   -1    0    0  501    0  0.00000000000E+00  0.00000000000E+00  0.15965992315E+04  0.15965992315E+04  0.50400001928E-02 0. -1.
       -1   -1    0    0    0  501  0.00000000000E+00  0.00000000000E+00 -0.76209910252E+03  0.76209910254E+03  0.50400001928E-02 0.  1.
    10030    2    1    2    0    0  0.00000000000E+00  0.00000000000E+00  0.83450012900E+03  0.23586983341E+04  0.22061430973E+04 0.  0.
        1    1    3    3  502    0  0.80969732309E+03  0.48104921814E+03 -0.19669610124E+03  0.96213692454E+03  0.50400001928E-02 0.  1.
       -1    1    3    3    0  502 -0.80969732309E+03 -0.48104921814E+03  0.10311962302E+04  0.13965614095E+04  0.50400001928E-02 0. -1.
</event>
<event>
 5   0  0.2908031E-05  0.2180253E+04  0.7818609E-02  0.8526692E-01
       -1   -1    0    0    0  501  0.00000000000E+00  0.00000000000E+00  0.10909810242E+04  0.10909810242E+04  0.50400001928E-02 0.  1.
        1   -1    0    0  501    0  0.00000000000E+00  0.00000000000E+00 -0.10892728030E+04  0.10892728030E+04  0.50400001928E-02 0. -1.
    10030    2    1    2    0    0  0.00000000000E+00  0.00000000000E+00  0.17082212596E+01  0.21802538272E+04  0.21802531580E+04 0.  0.
        1    1    3    3  502    0  0.36460609374E+03 -0.15969239825E+03 -0.10140041676E+04  0.10893317757E+04  0.50400001928E-02 0. -1.
       -1    1    3    3    0  502 -0.36460609374E+03  0.15969239825E+03  0.10157123888E+04  0.10909220515E+04  0.50400001928E-02 0.  1.
</event>
<event>
 5   0  0.6306919E-05  0.2203863E+04  0.7818609E-02  0.8516822E-01
       -2   -1    0    0    0  501  0.00000000000E+00  0.00000000000E+00  0.59677129100E+03  0.59677129101E+03  0.25500000920E-02 0. -1.
        2   -1    0    0  501    0  0.00000000000E+00  0.00000000000E+00 -0.20347038034E+04  0.20347038034E+04  0.25500000920E-02 0.  1.
    10030    2    1    2    0    0  0.00000000000E+00  0.00000000000E+00 -0.14379325124E+04  0.26314750945E+04  0.22038628048E+04 0.  0.
        3    1    3    3  502    0  0.82171371862E+03 -0.48825306561E+03 -0.64263611833E+02  0.95798450585E+03  0.10100000352E+00 0. -1.
       -3    1    3    3    0  502 -0.82171371862E+03  0.48825306561E+03 -0.13736689006E+04  0.16734905886E+04  0.10100000352E+00 0.  1.
</event>
<event>
 5   0  0.2910318E-05  0.2247428E+04  0.7818609E-02  0.8498943E-01
       -1   -1    0    0    0  501  0.00000000000E+00  0.00000000000E+00  0.87015062356E+03  0.87015062358E+03  0.50400001928E-02 0.  1.
        1   -1    0    0  501    0  0.00000000000E+00  0.00000000000E+00 -0.14511661941E+04  0.14511661941E+04  0.50400001928E-02 0. -1.
    10030    2    1    2    0    0  0.00000000000E+00  0.00000000000E+00 -0.58101557057E+03  0.23213168177E+04  0.22474280133E+04 0.  0.
        5    1    3    3  502    0  0.57486683427E+02  0.11097371642E+04 -0.46300068477E+03  0.12038326364E+04  0.46999998093E+01 0. -1.
       -5    1    3    3    0  502 -0.57486683427E+02 -0.11097371642E+04 -0.11801488580E+03  0.11174841814E+04  0.46999998093E+01 0.  1.
</event>
<event>
 5   0  0.6306919E-05  0.2226156E+04  0.7818609E-02  0.8507620E-01
        2   -1    0    0  501    0  0.00000000000E+00  0.00000000000E+00  0.10505064307E+04  0.10505064307E+04  0.25500000920E-02 0.  1.
       -2   -1    0    0    0  501  0.00000000000E+00  0.00000000000E+00 -0.11793762397E+04  0.11793762397E+04  0.25500000920E-02 0. -1.
    10030    2    1    2    0    0  0.00000000000E+00  0.00000000000E+00 -0.12886980907E+03  0.22298826704E+04  0.22261557214E+04 0.  0.
        3    1    3    3  502    0  0.37793917836E+03 -0.76363294911E+03 -0.78185252085E+03  0.11564024724E+04  0.10100000352E+00 0. -1.
       -3    1    3    3    0  502 -0.37793917836E+03  0.76363294911E+03  0.65298271179E+03  0.10734801980E+04  0.10100000352E+00 0.  1.
</event>
<event>
 5   0  0.6628798E-05  0.2170736E+04  0.7818609E-02  0.8530708E-01
        2   -1    0    0  501    0  0.00000000000E+00  0.00000000000E+00  0.22122957290E+04  0.22122957290E+04  0.25500000920E-02 0.  1.
       -2   -1    0    0    0  501  0.00000000000E+00  0.00000000000E+00 -0.53248914882E+03  0.53248914882E+03  0.25500000920E-02 0. -1.
    10030    2    1    2    0    0  0.00000000000E+00  0.00000000000E+00  0.16798065802E+04  0.27447848778E+04  0.21707357920E+04 0.  0.
        4    1    3    3  502    0 -0.56360451660E+02  0.10831862932E+04  0.79007676709E+03  0.13418986389E+04  0.12699999809E+01 0. -1.
       -4    1    3    3    0  502  0.56360451660E+02 -0.10831862932E+04  0.88972981311E+03  0.14028862390E+04  0.12699999809E+01 0.  1.
</event>
<event>
 5   0  0.6306919E-05  0.2208363E+04  0.7818609E-02  0.8514955E-01
        2   -1    0    0  501    0  0.00000000000E+00  0.00000000000E+00  0.22908835819E+04  0.22908835819E+04  0.25500000920E-02 0. -1.
       -2   -1    0    0    0  501  0.00000000000E+00  0.00000000000E+00 -0.53220360294E+03  0.53220360295E+03  0.25500000920E-02 0.  1.
    10030    2    1    2    0    0  0.00000000000E+00  0.00000000000E+00  0.17586799789E+04  0.28230871848E+04  0.22083627385E+04 0.  0.
        3    1    3    3  502    0  0.91086213941E+03  0.82106723874E+02  0.16702785647E+04  0.19042693730E+04  0.10100000352E+00 0. -1.
       -3    1    3    3    0  502 -0.91086213941E+03 -0.82106723874E+02  0.88401414289E+02  0.91881781185E+03  0.10100000352E+00 0.  1.
</event>
<event>
 5   0  0.6293013E-05  0.2199391E+04  0.7818609E-02  0.8518682E-01
       -2   -1    0    0    0  501  0.00000000000E+00  0.00000000000E+00  0.11968593729E+04  0.11968593729E+04  0.25500000920E-02 0.  1.
        2   -1    0    0  501    0  0.00000000000E+00  0.00000000000E+00 -0.10104196391E+04  0.10104196391E+04  0.25500000920E-02 0. -1.
    10030    2    1    2    0    0  0.00000000000E+00  0.00000000000E+00  0.18643973372E+03  0.22072790120E+04  0.21993910208E+04 0.  0.
        1    1    3    3  502    0  0.82932923990E+03  0.68109001785E+03 -0.14776549071E+03  0.10832844690E+04  0.50400001928E-02 0. -1.
       -1    1    3    3    0  502 -0.82932923990E+03 -0.68109001785E+03  0.33420522443E+03  0.11239945430E+04  0.50400001928E-02 0.  1.
</event>
<event>
 5   0  0.2929471E-05  0.2213849E+04  0.7818609E-02  0.8512686E-01
        1   -1    0    0  501    0  0.00000000000E+00  0.00000000000E+00  0.98910429043E+03  0.98910429045E+03  0.50400001928E-02 0. -1.
       -1   -1    0    0    0  501  0.00000000000E+00  0.00000000000E+00 -0.12387793472E+04  0.12387793473E+04  0.50400001928E-02 0.  1.
    10030    2    1    2    0    0  0.00000000000E+00  0.00000000000E+00 -0.24967505681E+03  0.22278836377E+04  0.22138491071E+04 0.  0.
        2    1    3    3  502    0 -0.24057638273E+03 -0.26901138474E+03  0.92823686343E+03  0.99592559747E+03  0.25500000920E-02 0. -1.
       -2    1    3    3    0  502  0.24057638273E+03  0.26901138474E+03 -0.11779119202E+04  0.12319580402E+04  0.25500000920E-02 0.  1.
</event>
<event>
 5   0  0.2753631E-05  0.2208499E+04  0.7818609E-02  0.8514899E-01
        1   -1    0    0  501    0  0.00000000000E+00  0.00000000000E+00  0.12359420419E+04  0.12359420419E+04  0.50400001928E-02 0.  1.
       -1   -1    0    0    0  501  0.00000000000E+00  0.00000000000E+00 -0.98658946485E+03  0.98658946486E+03  0.50400001928E-02 0. -1.
    10030    2    1    2    0    0  0.00000000000E+00  0.00000000000E+00  0.24935257706E+03  0.22225315068E+04  0.22084993980E+04 0.  0.
        4    1    3    3  502    0  0.35950773522E+03 -0.53080211905E+03  0.10294823238E+04  0.12127786975E+04  0.12699999809E+01 0.  1.
       -4    1    3    3    0  502 -0.35950773522E+03  0.53080211905E+03 -0.78012974670E+03  0.10097528093E+04  0.12699999809E+01 0. -1.
</event>
<event>
 5   0  0.6445740E-05  0.2208192E+04  0.7818609E-02  0.8515026E-01
       -2   -1    0    0    0  501  0.00000000000E+00  0.00000000000E+00  0.79748175025E+03  0.79748175026E+03  0.25500000920E-02 0. -1.
        2   -1    0    0  501    0  0.00000000000E+00  0.00000000000E+00 -0.15285961174E+04  0.15285961174E+04  0.25500000920E-02 0.  1.
    10030    2    1    2    0    0  0.00000000000E+00  0.00000000000E+00 -0.73111436711E+03  0.23260778676E+04  0.22081915742E+04 0.  0.
        5    1    3    3  502    0 -0.29781972015E+03  0.80347583149E+03  0.36784108112E+03  0.93252300157E+03  0.46999998093E+01 0. -1.
       -5    1    3    3    0  502  0.29781972015E+03 -0.80347583149E+03 -0.10989554482E+04  0.13935548660E+04  0.46999998093E+01 0.  1.
</event>
<event>
 5   0  0.2908031E-05  0.2202332E+04  0.7818609E-02  0.8517458E-01
        1   -1    0    0  501    0  0.00000000000E+00  0.00000000000E+00  0.79336318735E+03  0.79336318737E+03  0.50400001928E-02 0. -1.
       -1   -1    0    0    0  501  0.00000000000E+00  0.00000000000E+00 -0.15283872807E+04  0.15283872807E+04  0.50400001928E-02 0.  1.
    10030    2    1    2    0    0  0.00000000000E+00  0.00000000000E+00 -0.73502409334E+03  0.23217504681E+04  0.22023316776E+04 0.  0.
        1    1    3    3  502    0 -0.37402944233E+03 -0.15909217712E+03 -0.14464099878E+04  0.15024347564E+04  0.50400001928E-02 0.  1.
       -1    1    3    3    0  502  0.37402944233E+03  0.15909217712E+03  0.71138589443E+03  0.81931571166E+03  0.50400001928E-02 0. -1.
</event>
<event>
 5   0  0.2753631E-05  0.2188378E+04  0.7818609E-02  0.8523281E-01
        1   -1    0    0  501    0  0.00000000000E+00  0.00000000000E+00  0.95065998744E+03  0.95065998746E+03  0.50400001928E-02 0. -1.
       -1   -1    0    0    0  501  0.00000000000E+00  0.00000000000E+00 -0.12593872059E+04  0.12593872059E+04  0.50400001928E-02 0.  1.
    10030    2    1    2    0    0  0.00000000000E+00  0.00000000000E+00 -0.30872721848E+03  0.22100471934E+04  0.21883775044E+04 0.  0.
        4    1    3    3  502    0 -0.10850677980E+04 -0.13667260102E+03 -0.11943958731E+03  0.11001449696E+04  0.12699999809E+01 0.  1.
       -4    1    3    3    0  502  0.10850677980E+04  0.13667260102E+03 -0.18928763116E+03  0.11099022238E+04  0.12699999809E+01 0. -1.
</event>
<event>
 5   0  0.2910318E-05  0.2221187E+04  0.7818609E-02  0.8509661E-01
       -1   -1    0    0    0  501  0.00000000000E+00  0.00000000000E+00  0.13550357434E+04  0.13550357434E+04  0.50400001928E-02 0. -1.
        1   -1    0    0  501    0  0.00000000000E+00  0.00000000000E+00 -0.91024750371E+03  0.91024750372E+03  0.50400001928E-02 0.  1.
    10030    2    1    2    0    0  0.00000000000E+00  0.00000000000E+00  0.44478823970E+03  0.22652832471E+04  0.22211869826E+04 0.  0.
        5    1    3    3  502    0  0.87150815566E+03 -0.59819597888E+03  0.56978967575E+03  0.12008527217E+04  0.46999998093E+01 0. -1.
       -5    1    3    3    0  502 -0.87150815566E+03  0.59819597888E+03 -0.12500143605E+03  0.10644305255E+04  0.46999998093E+01 0.  1.
</event>
<event>
 5   0  0.6628798E-05  0.2202882E+04  0.7818609E-02  0.8517229E-01
        2   -1    0    0  501    0  0.00000000000E+00  0.00000000000E+00  0.81916550954E+03  0.81916550955E+03  0.25500000920E-02 0.  1.
       -2   -1    0    0    0  501  0.00000000000E+00  0.00000000000E+00 -0.14809858554E+04  0.14809858554E+04  0.25500000920E-02 0. -1.
    10030    2    1    2    0    0  0.00000000000E+00  0.00000000000E+00 -0.66182034590E+03  0.23001513650E+04  0.22028822328E+04 0.  0.
        4    1    3    3  502    0  0.89356790997E+02 -0.64567548911E+03 -0.12579704921E+04  0.14168178589E+04  0.12699999809E+01 0. -1.
       -4    1    3    3    0  502 -0.89356790997E+02  0.64567548911E+03  0.59615014619E+03  0.88333350612E+03  0.12699999809E+01 0.  1.
</event>
<event>
 5   0  0.2908031E-05  0.2191887E+04  0.7818609E-02  0.8521813E-01
        1   -1    0    0  501    0  0.00000000000E+00  0.00000000000E+00  0.16764460546E+04  0.16764460546E+04  0.50400001928E-02 0.  1.
       -1   -1    0    0    0  501  0.00000000000E+00  0.00000000000E+00 -0.71645110475E+03  0.71645110477E+03  0.50400001928E-02 0. -1.
    10030    2    1    2    0    0  0.00000000000E+00  0.00000000000E+00  0.95999494982E+03  0.23928971593E+04  0.21918865188E+04 0.  0.
        1    1    3    3  502    0 -0.44860913085E+03 -0.36399802752E+03 -0.53672491321E+03  0.78855459469E+03  0.50400001928E-02 0. -1.
       -1    1    3    3    0  502  0.44860913085E+03  0.36399802752E+03  0.14967198630E+04  0.16043425646E+04  0.50400001928E-02 0.  1.
</event>
<event>
 5   0  0.6414768E-05  0.1925700E+04  0.7818609E-02  0.8642169E-01
        2   -1    0    0  501    0  0.00000000000E+00  0.00000000000E+00  0.22205784425E+04  0.22205784425E+04  0.25500000920E-02 0. -1.
       -2   -1    0    0    0  501  0.00000000000E+00  0.00000000000E+00 -0.41749482049E+03  0.41749482050E+03  0.25500000920E-02 0.  1.
    10030    2    1    2    0    0  0.00000000000E+00  0.00000000000E+00  0.18030836220E+04  0.26380732630E+04  0.19256998710E+04 0.  0.
        2    1    3    3  502    0  0.44268822829E+03  0.16388811574E+03 -0.24809591124E+03  0.53327644156E+03  0.25500000920E-02 0.  1.
       -2    1    3    3    0  502 -0.44268822829E+03 -0.16388811574E+03  0.20511795332E+04  0.21047968214E+04  0.25500000920E-02 0. -1.
</event>
<event>
 5   0  0.6445740E-05  0.2186737E+04  0.7818609E-02  0.8523969E-01
       -2   -1    0    0    0  501  0.00000000000E+00  0.00000000000E+00  0.50234192083E+03  0.50234192083E+03  0.25500000920E-02 0.  1.
        2   -1    0    0  501    0  0.00000000000E+00  0.00000000000E+00 -0.23797625682E+04  0.23797625682E+04  0.25500000920E-02 0. -1.
    10030    2    1    2    0    0  0.00000000000E+00  0.00000000000E+00 -0.18774206474E+04  0.28821044891E+04  0.21867368380E+04 0.  0.
        5    1    3    3  502    0  0.28694325413E+03 -0.97522875413E+03 -0.14692330861E+04  0.17866380454E+04  0.46999998093E+01 0. -1.
       -5    1    3    3    0  502 -0.28694325413E+03  0.97522875413E+03 -0.40818756127E+03  0.10954664436E+04  0.46999998093E+01 0.  1.
</event>
<event>
 5   0  0.2820239E-05  0.2199534E+04  0.7818609E-02  0.8518622E-01
        1   -1    0    0  501    0  0.00000000000E+00  0.00000000000E+00  0.10549664662E+04  0.10549664663E+04  0.50400001928E-02 0. -1.
       -1   -1    0    0    0  501  0.00000000000E+00  0.00000000000E+00 -0.11464695363E+04  0.11464695364E+04  0.50400001928E-02 0.  1.
    10030    2    1    2    0    0  0.00000000000E+00  0.00000000000E+00 -0.91503070099E+02  0.22014360026E+04  0.21995335100E+04 0.  0.
        3    1    3    3  502    0 -0.54929393219E+03 -0.50661756552E+02  0.90648953175E+03  0.10611379358E+04  0.10100000352E+00 0. -1.
       -3    1    3    3    0  502  0.54929393219E+03  0.50661756552E+02 -0.99799260185E+03  0.11402980668E+04  0.10100000352E+00 0.  1.
</event>
<event>
 5   0  0.2910318E-05  0.2070482E+04  0.7818609E-02  0.8574359E-01
        1   -1    0    0  501    0  0.00000000000E+00  0.00000000000E+00  0.56366823169E+03  0.56366823171E+03  0.50400001928E-02 0.  1.
       -1   -1    0    0    0  501  0.00000000000E+00  0.00000000000E+00 -0.19013382112E+04  0.19013382113E+04  0.50400001928E-02 0. -1.
    10030    2    1    2    0    0  0.00000000000E+00  0.00000000000E+00 -0.13376699796E+04  0.24650064430E+04  0.20704820187E+04 0.  0.
        5    1    3    3  502    0 -0.70452705388E+02  0.14908650756E+03  0.54792019587E+03  0.57221412205E+03  0.46999998093E+01 0.  1.
       -5    1    3    3    0  502  0.70452705388E+02 -0.14908650756E+03 -0.18855901754E+04  0.18927923209E+04  0.46999998093E+01 0. -1.
</event>
<event>
 5   0  0.6414768E-05  0.2158497E+04  0.7818609E-02  0.8535904E-01
       -2   -1    0    0    0  501  0.00000000000E+00  0.00000000000E+00  0.13605097294E+04  0.13605097295E+04  0.25500000920E-02 0.  1.
        2   -1    0    0  501    0  0.00000000000E+00  0.00000000000E+00 -0.85613329502E+03  0.85613329502E+03  0.25500000920E-02 0. -1.
    10030    2    1    2    0    0  0.00000000000E+00  0.00000000000E+00  0.50437643443E+03  0.22166430245E+04  0.21584973269E+04 0.  0.
        2    1    3    3  502    0 -0.10782858922E+03 -0.87187469465E+03  0.89596058998E+03  0.12548059080E+04  0.25500000920E-02 0.  1.
       -2    1    3    3    0  502  0.10782858922E+03  0.87187469465E+03 -0.39158415555E+03  0.96183711652E+03  0.25500000920E-02 0. -1.
</event>
<event>
 5   0  0.2753631E-05  0.2059540E+04  0.7818609E-02  0.8579279E-01
       -1   -1    0    0    0  501  0.00000000000E+00  0.00000000000E+00  0.93436530693E+03  0.93436530694E+03  0.50400001928E-02 0.  1.
        1   -1    0    0  501    0  0.00000000000E+00  0.00000000000E+00 -0.11349164923E+04  0.11349164923E+04  0.50400001928E-02 0. -1.
    10030    2    1    2    0    0  0.00000000000E+00  0.00000000000E+00 -0.20055118537E+03  0.20692817992E+04  0.20595403338E+04 0.  0.
        4    1    3    3  502    0 -0.78972351448E+03  0.66080769145E+03 -0.11006587940E+03  0.10355897571E+04  0.12699999809E+01 0. -1.
       -4    1    3    3    0  502  0.78972351448E+03 -0.66080769145E+03 -0.90485305974E+02  0.10336920421E+04  0.12699999809E+01 0.  1.
</event>
<event>
 5   0  0.6306919E-05  0.2211972E+04  0.7818609E-02  0.8513462E-01
        2   -1    0    0  501    0  0.00000000000E+00  0.00000000000E+00  0.18326633461E+04  0.18326633461E+04  0.25500000920E-02 0. -1.
       -2   -1    0    0    0  501  0.00000000000E+00  0.00000000000E+00 -0.66744647586E+03  0.66744647587E+03  0.25500000920E-02 0.  1.
    10030    2    1    2    0    0  0.00000000000E+00  0.00000000000E+00  0.11652168702E+04  0.25001098219E+04  0.22119716922E+04 0.  0.
        3    1    3    3  502    0 -0.48730947062E+03  0.72306302002E+03 -0.18639750333E+03  0.89164717828E+03  0.10100000352E+00 0.  1.
       -3    1    3    3    0  502  0.48730947062E+03 -0.72306302002E+03  0.13516143735E+04  0.16084626437E+04  0.10100000352E+00 0. -1.
</event>
<event>
 5   0  0.6445740E-05  0.2200434E+04  0.7818609E-02  0.8518248E-01
        2   -1    0    0  501    0  0.00000000000E+00  0.00000000000E+00  0.11883596831E+04  0.11883596831E+04  0.25500000920E-02 0. -1.
       -2   -1    0    0    0  501  0.00000000000E+00  0.00000000000E+00 -0.10186119709E+04  0.10186119709E+04  0.25500000920E-02 0.  1.
    10030    2    1    2    0    0  0.00000000000E+00  0.00000000000E+00  0.16974771217E+03  0.22069716540E+04  0.22004339562E+04 0.  0.
        5    1    3    3  502    0 -0.21016104173E+03 -0.93167454154E+03  0.63263767844E+03  0.11456167060E+04  0.46999998093E+01 0. -1.
       -5    1    3    3    0  502  0.21016104173E+03  0.93167454154E+03 -0.46288996627E+03  0.10613549480E+04  0.46999998093E+01 0.  1.
</event>
<event>
 5   0  0.6293013E-05  0.2204409E+04  0.7818609E-02  0.8516595E-01
       -2   -1    0    0    0  501  0.00000000000E+00  0.00000000000E+00  0.98545232605E+03  0.98545232605E+03  0.25500000920E-02 0.  1.
        2   -1    0    0  501    0  0.00000000000E+00  0.00000000000E+00 -0.12327894548E+04  0.12327894548E+04  0.25500000920E-02 0. -1.
    10030    2    1    2    0    0  0.00000000000E+00  0.00000000000E+00 -0.24733712877E+03  0.22182417809E+04  0.22044094318E+04 0.  0.
        1    1    3    3  502    0  0.39872497176E+03  0.25599106042E+03  0.87773530532E+03  0.99746292781E+03  0.50400001928E-02 0.  1.
       -1    1    3    3    0  502 -0.39872497176E+03 -0.25599106042E+03 -0.11250724341E+04  0.12207788531E+04  0.50400001928E-02 0. -1.
</event>
<event>
 5   0  0.2753631E-05  0.2158806E+04  0.7818609E-02  0.8535772E-01
        1   -1    0    0  501    0  0.00000000000E+00  0.00000000000E+00  0.14015706919E+04  0.14015706920E+04  0.50400001928E-02 0.  1.
       -1   -1    0    0    0  501  0.00000000000E+00  0.00000000000E+00 -0.83128932908E+03  0.83128932909E+03  0.50400001928E-02 0. -1.
    10030    2    1    2    0    0  0.00000000000E+00  0.00000000000E+00  0.57028136287E+03  0.22328600210E+04  0.21588059294E+04 0.  0.
        4    1    3    3  502    0 -0.41552316199E+03  0.81989975970E+03 -0.30014523769E+03  0.96694565034E+03  0.12699999809E+01 0. -1.
       -4    1    3    3    0  502  0.41552316199E+03 -0.81989975970E+03  0.87042660056E+03  0.12659143707E+04  0.12699999809E+01 0.  1.
</event>
<event>
 5   0  0.6293013E-05  0.2024751E+04  0.7818609E-02  0.8595135E-01
        2   -1    0    0  501    0  0.00000000000E+00  0.00000000000E+00  0.12162312186E+04  0.12162312186E+04  0.25500000920E-02 0. -1.
       -2   -1    0    0    0  501  0.00000000000E+00  0.00000000000E+00 -0.84268875340E+03  0.84268875340E+03  0.25500000920E-02 0.  1.
    10030    2    1    2    0    0  0.00000000000E+00  0.00000000000E+00  0.37354246518E+03  0.20589199720E+04  0.20247512138E+04 0.  0.
        1    1    3    3  502    0  0.21015909425E+03 -0.62473573296E+03  0.96814119092E+03  0.11712211348E+04  0.50400001928E-02 0. -1.
       -1    1    3    3    0  502 -0.21015909425E+03  0.62473573296E+03 -0.59459872573E+03  0.88769883722E+03  0.50400001928E-02 0.  1.
</event>
<event>
 5   0  0.2753631E-05  0.2174731E+04  0.7818609E-02  0.8529020E-01
        1   -1    0    0  501    0  0.00000000000E+00  0.00000000000E+00  0.90180427889E+03  0.90180427890E+03  0.50400001928E-02 0.  1.
       -1   -1    0    0    0  501  0.00000000000E+00  0.00000000000E+00 -0.13111086273E+04  0.13111086273E+04  0.50400001928E-02 0. -1.
    10030    2    1    2    0    0  0.00000000000E+00  0.00000000000E+00 -0.40930434838E+03  0.22129129062E+04  0.21747306686E+04 0.  0.
        4    1    3    3  502    0 -0.77790984328E+03  0.75640569889E+03 -0.13220916215E+03  0.10930572634E+04  0.12699999809E+01 0.  1.
       -4    1    3    3    0  502  0.77790984328E+03 -0.75640569889E+03 -0.27709518623E+03  0.11198556428E+04  0.12699999809E+01 0. -1.
</event>
<event>
 5   0  0.6628798E-05  0.2204270E+04  0.7818609E-02  0.8516653E-01
        2   -1    0    0  501    0  0.00000000000E+00  0.00000000000E+00  0.15850200769E+04  0.15850200769E+04  0.25500000920E-02 0.  1.
       -2   -1    0    0    0  501  0.00000000000E+00  0.00000000000E+00 -0.76636337315E+03  0.76636337315E+03  0.25500000920E-02 0. -1.
    10030    2    1    2    0    0  0.00000000000E+00  0.00000000000E+00  0.81865670374E+03  0.23513834500E+04  0.22042697953E+04 0.  0.
        4    1    3    3  502    0  0.19637758742E+03 -0.79520863613E+03 -0.37730044078E+03  0.90181936513E+03  0.12699999809E+01 0. -1.
       -4    1    3    3    0  502 -0.19637758742E+03  0.79520863613E+03  0.11959571445E+04  0.14495640849E+04  0.12699999809E+01 0.  1.
</event>
<event>
 5   0  0.2908031E-05  0.2238844E+04  0.7818609E-02  0.8502432E-01
       -1   -1    0    0    0  501  0.00000000000E+00  0.00000000000E+00  0.78226950425E+03  0.78226950426E+03  0.50400001928E-02 0.  1.
        1   -1    0    0  501    0  0.00000000000E+00  0.00000000000E+00 -0.16018845122E+04  0.16018845122E+04  0.50400001928E-02 0. -1.
    10030    2    1    2    0    0  0.00000000000E+00  0.00000000000E+00 -0.81961500793E+03  0.23841540164E+04  0.22388438116E+04 0.  0.
        1    1    3    3  502    0  0.62472484354E+03  0.26146440362E+03 -0.13589834045E+04  0.15183809332E+04  0.50400001928E-02 0. -1.
       -1    1    3    3    0  502 -0.62472484354E+03 -0.26146440362E+03  0.53936839657E+03  0.86577308328E+03  0.50400001928E-02 0.  1.
</event>
<event>
 5   0  0.6445740E-05  0.2174912E+04  0.7818609E-02  0.8528943E-01
       -2   -1    0    0    0  501  0.00000000000E+00  0.00000000000E+00  0.65184215144E+03  0.65184215144E+03  0.25500000920E-02 0. -1.
        2   -1    0    0  501    0  0.00000000000E+00  0.00000000000E+00 -0.18141829977E+04  0.18141829977E+04  0.25500000920E-02 0.  1.
    10030    2    1    2    0    0  0.00000000000E+00  0.00000000000E+00 -0.11623408462E+04  0.24660251491E+04  0.21749123645E+04 0.  0.
        5    1    3    3  502    0  0.32281488860E+03  0.47343595903E+03 -0.16291007788E+04  0.17269460030E+04  0.46999998093E+01 0.  1.
       -5    1    3    3    0  502 -0.32281488860E+03 -0.47343595903E+03  0.46675993259E+03  0.73907914615E+03  0.46999998093E+01 0. -1.
</event>
<event>
 5   0  0.6445740E-05  0.2199146E+04  0.7818609E-02  0.8518783E-01
        2   -1    0    0  501    0  0.00000000000E+00  0.00000000000E+00  0.14443398146E+04  0.14443398146E+04  0.25500000920E-02 0. -1.
       -2   -1    0    0    0  501  0.00000000000E+00  0.00000000000E+00 -0.83710300989E+03  0.83710300989E+03  0.25500000920E-02 0.  1.
    10030    2    1    2    0    0  0.00000000000E+00  0.00000000000E+00  0.60723680470E+03  0.22814428245E+04  0.21991463854E+04 0.  0.
        5    1    3    3  502    0 -0.75890997339E+03  0.40457583618E+03 -0.40715813169E+03  0.95153864301E+03  0.46999998093E+01 0.  1.
       -5    1    3    3    0  502  0.75890997339E+03 -0.40457583618E+03  0.10143949364E+04  0.13299041815E+04  0.46999998093E+01 0. -1.
</event>
<event>
 5   0  0.6414768E-05  0.2208083E+04  0.7818609E-02  0.8515071E-01
        2   -1    0    0  501    0  0.00000000000E+00  0.00000000000E+00  0.12049035408E+04  0.12049035408E+04  0.25500000920E-02 0. -1.
       -2   -1    0    0    0  501  0.00000000000E+00  0.00000000000E+00 -0.10116222594E+04  0.10116222594E+04  0.25500000920E-02 0.  1.
    10030    2    1    2    0    0  0.00000000000E+00  0.00000000000E+00  0.19328128136E+03  0.22165258002E+04  0.22080826454E+04 0.  0.
        2    1    3    3  502    0  0.64972064150E+03 -0.43620564240E+03 -0.68511507882E+03  0.10400937197E+04  0.25500000920E-02 0.  1.
       -2    1    3    3    0  502 -0.64972064150E+03  0.43620564240E+03  0.87839636018E+03  0.11764320805E+04  0.25500000920E-02 0. -1.
</event>
<event>
 5   0  0.6414768E-05  0.2211605E+04  0.7818609E-02  0.8513613E-01
       -2   -1    0    0    0  501  0.00000000000E+00  0.00000000000E+00  0.71725673594E+03  0.71725673594E+03  0.25500000920E-02 0.  1.
        2   -1    0    0  501    0  0.00000000000E+00  0.00000000000E+00 -0.17048272625E+04  0.17048272625E+04  0.25500000920E-02 0. -1.
    10030    2    1    2    0    0  0.00000000000E+00  0.00000000000E+00 -0.98757052657E+03  0.24220839984E+04  0.22116047003E+04 0.  0.
        2    1    3    3  502    0  0.67587654958E+03 -0.41238670136E+03  0.35164580652E+03  0.86632942636E+03  0.25500000920E-02 0.  1.
       -2    1    3    3    0  502 -0.67587654958E+03  0.41238670136E+03 -0.13392163331E+04  0.15557545721E+04  0.25500000920E-02 0. -1.
</event>
<event>
 5   0  0.6293013E-05  0.2186970E+04  0.7818609E-02  0.8523871E-01
        2   -1    0    0  501    0  0.00000000000E+00  0.00000000000E+00  0.16854601693E+04  0.16854601693E+04  0.25500000920E-02 0. -1.
       -2   -1    0    0    0  501  0.00000000000E+00  0.00000000000E+00 -0.70942578230E+03  0.70942578231E+03  0.25500000920E-02 0.  1.
    10030    2    1    2    0    0  0.00000000000E+00  0.00000000000E+00  0.97603438704E+03  0.23948859517E+04  0.21869695006E+04 0.  0.
        1    1    3    3  502    0 -0.47373419167E+03 -0.89002576596E+03  0.24530657122E+02  0.10085493055E+04  0.50400001928E-02 0. -1.
       -1    1    3    3    0  502  0.47373419167E+03  0.89002576596E+03  0.95150372992E+03  0.13863366462E+04  0.50400001928E-02 0.  1.
</event>
<event>
 5   0  0.2820239E-05  0.2264509E+04  0.7818609E-02  0.8492048E-01
       -1   -1    0    0    0  501  0.00000000000E+00  0.00000000000E+00  0.17550210544E+04  0.17550210544E+04  0.50400001928E-02 0. -1.
        1   -1    0    0  501    0  0.00000000000E+00  0.00000000000E+00 -0.73047587978E+03  0.73047587980E+03  0.50400001928E-02 0.  1.
    10030    2    1    2    0    0  0.00000000000E+00  0.00000000000E+00  0.10245451746E+04  0.24854969342E+04  0.22645092614E+04 0.  0.
        3    1    3    3  502    0 -0.78788524551E+03  0.27732079667E+03  0.13512850821E+04  0.15885972956E+04  0.10100000352E+00 0. -1.
       -3    1    3    3    0  502  0.78788524551E+03 -0.27732079667E+03 -0.32673990748E+03  0.89689963858E+03  0.10100000352E+00 0.  1.
</event>
<event>
 5   0  0.2820239E-05  0.2157057E+04  0.7818609E-02  0.8536518E-01
       -1   -1    0    0    0  501  0.00000000000E+00  0.00000000000E+00  0.52857122202E+03  0.52857122204E+03  0.50400001928E-02 0.  1.
        1   -1    0    0  501    0  0.00000000000E+00  0.00000000000E+00 -0.22006941692E+04  0.22006941692E+04  0.50400001928E-02 0. -1.
    10030    2    1    2    0    0  0.00000000000E+00  0.00000000000E+00 -0.16721229472E+04  0.27292653913E+04  0.21570568897E+04 0.  0.
        3    1    3    3  502    0  0.97891369240E+03  0.11615773789E+03 -0.13896945329E+04  0.17038238002E+04  0.10100000352E+00 0. -1.
       -3    1    3    3    0  502 -0.97891369240E+03 -0.11615773789E+03 -0.28242841429E+03  0.10254415910E+04  0.10100000352E+00 0.  1.
</event>
<event>
 5   0  0.2245375E-05  0.2069731E+04  0.7818609E-02  0.8574695E-01
        3   -1    0    0  501    0  0.00000000000E+00  0.00000000000E+00  0.76130093029E+03  0.76130093699E+03  0.10100000352E+00 0. -1.
       -3   -1    0    0    0  501  0.00000000000E+00  0.00000000000E+00 -0.14067329295E+04  0.14067329332E+04  0.10100000352E+00 0.  1.
    10030    2    1    2    0    0  0.00000000000E+00  0.00000000000E+00 -0.64543199926E+03  0.21680338702E+04  0.20697314793E+04 0.  0.
        5    1    3    3  502    0  0.65400734657E+03  0.70655734590E+03 -0.72017952978E+03  0.12023433526E+04  0.46999998093E+01 0.  1.
       -5    1    3    3    0  502 -0.65400734657E+03 -0.70655734590E+03  0.74747530521E+02  0.96569051757E+03  0.46999998093E+01 0. -1.
</event>
<event>
 5   0  0.6306919E-05  0.2204822E+04  0.7818609E-02  0.8516424E-01
       -2   -1    0    0    0  501  0.00000000000E+00  0.00000000000E+00  0.12574389147E+04  0.12574389147E+04  0.25500000920E-02 0. -1.
        2   -1    0    0  501    0  0.00000000000E+00  0.00000000000E+00 -0.96649654023E+03  0.96649654024E+03  0.25500000920E-02 0.  1.
    10030    2    1    2    0    0  0.00000000000E+00  0.00000000000E+00  0.29094237444E+03  0.22239354549E+04  0.22048223154E+04 0.  0.
        3    1    3    3  502    0 -0.61158985347E+03  0.85971422220E+03 -0.17692381242E+03  0.10697909788E+04  0.10100000352E+00 0.  1.
       -3    1    3    3    0  502  0.61158985347E+03 -0.85971422220E+03  0.46786618685E+03  0.11541444761E+04  0.10100000352E+00 0. -1.
</event>
<event>
 5   0  0.2908031E-05  0.2188811E+04  0.7818609E-02  0.8523100E-01
        1   -1    0    0  501    0  0.00000000000E+00  0.00000000000E+00  0.10878849686E+04  0.10878849686E+04  0.50400001928E-02 0.  1.
       -1   -1    0    0    0  501  0.00000000000E+00  0.00000000000E+00 -0.11009649527E+04  0.11009649527E+04  0.50400001928E-02 0. -1.
    10030    2    1    2    0    0  0.00000000000E+00  0.00000000000E+00 -0.13079984141E+02  0.21888499213E+04  0.21888108397E+04 0.  0.
        1    1    3    3  502    0  0.88816497923E+03  0.43030026664E+03 -0.47954724643E+03  0.10972515260E+04  0.50400001928E-02 0. -1.
       -1    1    3    3    0  502 -0.88816497923E+03 -0.43030026664E+03  0.46646726229E+03  0.10915983953E+04  0.50400001928E-02 0.  1.
</event>
<event>
 5   0  0.6414768E-05  0.2147106E+04  0.7818609E-02  0.8540772E-01
        2   -1    0    0  501    0  0.00000000000E+00  0.00000000000E+00  0.18842410047E+04  0.18842410047E+04  0.25500000920E-02 0.  1.
       -2   -1    0    0    0  501  0.00000000000E+00  0.00000000000E+00 -0.61166065219E+03  0.61166065220E+03  0.25500000920E-02 0. -1.
    10030    2    1    2    0    0  0.00000000000E+00  0.00000000000E+00  0.12725803525E+04  0.24959016569E+04  0.21471060354E+04 0.  0.
        2    1    3    3  502    0  0.17064882014E+03  0.88228778868E+02  0.18640977862E+04  0.18739706224E+04  0.25500000920E-02 0.  1.
       -2    1    3    3    0  502 -0.17064882014E+03 -0.88228778868E+02 -0.59151743370E+03  0.62193103445E+03  0.25500000920E-02 0. -1.
</event>
<event>
 5   0  0.2753631E-05  0.2183382E+04  0.7818609E-02  0.8525377E-01
        1   -1    0    0  501    0  0.00000000000E+00  0.00000000000E+00  0.18292732217E+04  0.18292732217E+04  0.50400001928E-02 0. -1.
       -1   -1    0    0    0  501  0.00000000000E+00  0.00000000000E+00 -0.65150947327E+03  0.65150947329E+03  0.50400001928E-02 0.  1.
    10030    2    1    2    0    0  0.00000000000E+00  0.00000000000E+00  0.11777637484E+04  0.24807826950E+04  0.21833816278E+04 0.  0.
        4    1    3    3  502    0 -0.81735676654E+02 -0.79108990719E+03 -0.26083644573E+03  0.83698340869E+03  0.12699999809E+01 0.  1.
       -4    1    3    3    0  502  0.81735676654E+02  0.79108990719E+03  0.14386001942E+04  0.16437992863E+04  0.12699999809E+01 0. -1.
</event>
<event>
 5   0  0.2908031E-05  0.2308096E+04  0.7818609E-02  0.8474736E-01
       -1   -1    0    0    0  501  0.00000000000E+00  0.00000000000E+00  0.53857231466E+03  0.53857231468E+03  0.50400001928E-02 0.  1.
        1   -1    0    0  501    0  0.00000000000E+00  0.00000000000E+00 -0.24728830500E+04  0.24728830501E+04  0.50400001928E-02 0. -1.
    10030    2    1    2    0    0  0.00000000000E+00  0.00000000000E+00 -0.19343107354E+04  0.30114553647E+04  0.23080956204E+04 0.  0.
        1    1    3    3  502    0 -0.63039551583E+03  0.84324940082E+03 -0.35052675709E+03  0.11096562827E+04  0.50400001928E-02 0.  1.
       -1    1    3    3    0  502  0.63039551583E+03 -0.84324940082E+03 -0.15837839783E+04  0.19017990820E+04  0.50400001928E-02 0. -1.
</event>
<event>
 5   0  0.2929471E-05  0.2225053E+04  0.7818609E-02  0.8508072E-01
       -1   -1    0    0    0  501  0.00000000000E+00  0.00000000000E+00  0.12779700818E+04  0.12779700818E+04  0.50400001928E-02 0. -1.
        1   -1    0    0  501    0  0.00000000000E+00  0.00000000000E+00 -0.96850104304E+03  0.96850104305E+03  0.50400001928E-02 0.  1.
    10030    2    1    2    0    0  0.00000000000E+00  0.00000000000E+00  0.30946903875E+03  0.22464711249E+04  0.22250531295E+04 0.  0.
        2    1    3    3  502    0  0.74462599767E+02  0.85391999640E+03 -0.56131111261E+03  0.10245946536E+04  0.25500000920E-02 0.  1.
       -2    1    3    3    0  502 -0.74462599767E+02 -0.85391999640E+03  0.87078015137E+03  0.12218764713E+04  0.25500000920E-02 0. -1.
</event>
<event>
 5   0  0.2820239E-05  0.2216339E+04  0.7818609E-02  0.8511658E-01
       -1   -1    0    0    0  501  0.00000000000E+00  0.00000000000E+00  0.69664097386E+03  0.69664097388E+03  0.50400001928E-02 0.  1.
        1   -1    0    0  501    0  0.00000000000E+00  0.00000000000E+00 -0.17628016524E+04  0.17628016524E+04  0.50400001928E-02 0. -1.
    10030    2    1    2    0    0  0.00000000000E+00  0.00000000000E+00 -0.10661606786E+04  0.24594426263E+04  0.22163391978E+04 0.  0.
        3    1    3    3  502    0  0.57549658869E+03 -0.13799492517E+03  0.50659677910E+03  0.77902453733E+03  0.10100000352E+00 0.  1.
       -3    1    3    3    0  502 -0.57549658869E+03  0.13799492517E+03 -0.15727574577E+04  0.16804180890E+04  0.10100000352E+00 0. -1.
</event>
<event>
 5   0  0.6628798E-05  0.2202275E+04  0.7818609E-02  0.8517482E-01
        2   -1    0    0  501    0  0.00000000000E+00  0.00000000000E+00  0.11334022874E+04  0.11334022874E+04  0.25500000920E-02 0.  1.
       -2   -1    0    0    0  501  0.00000000000E+00  0.00000000000E+00 -0.10697915957E+04  0.10697915957E+04  0.25500000920E-02 0. -1.
    10030    2    1    2    0    0  0.00000000000E+00  0.00000000000E+00  0.63610691663E+02  0.22031938831E+04  0.22022754066E+04 0.  0.
        4    1    3    3  502    0 -0.55749050732E+03  0.55211734921E+03  0.80470337343E+03  0.11239120807E+04  0.12699999809E+01 0.  1.
       -4    1    3    3    0  502  0.55749050732E+03 -0.55211734921E+03 -0.74109268177E+03  0.10792818024E+04  0.12699999809E+01 0. -1.
</event>
<event>
 5   0  0.6628798E-05  0.2219821E+04  0.7818609E-02  0.8510223E-01
       -2   -1    0    0    0  501  0.00000000000E+00  0.00000000000E+00  0.77376031496E+03  0.77376031496E+03  0.25500000920E-02 0.  1.
        2   -1    0    0  501    0  0.00000000000E+00  0.00000000000E+00 -0.15920963206E+04  0.15920963206E+04  0.25500000920E-02 0. -1.
    10030    2    1    2    0    0  0.00000000000E+00  0.00000000000E+00 -0.81833600561E+03  0.23658566355E+04  0.22198206688E+04 0.  0.
        4    1    3    3  502    0  0.94100906721E+02  0.10947163881E+04 -0.57646736758E+03  0.12407961919E+04  0.12699999809E+01 0.  1.
       -4    1    3    3    0  502 -0.94100906721E+02 -0.10947163881E+04 -0.24186863803E+03  0.11250604437E+04  0.12699999809E+01 0. -1.
</event>
<event>
 5   0  0.2929471E-05  0.2214771E+04  0.7818609E-02  0.8512305E-01
        1   -1    0    0  501    0  0.00000000000E+00  0.00000000000E+00  0.65067008415E+03  0.65067008417E+03  0.50400001928E-02 0. -1.
       -1   -1    0    0    0  501  0.00000000000E+00  0.00000000000E+00 -0.18846762559E+04  0.18846762560E+04  0.50400001928E-02 0.  1.
    10030    2    1    2    0    0  0.00000000000E+00  0.00000000000E+00 -0.12340061718E+04  0.25353463401E+04  0.22147708307E+04 0.  0.
        2    1    3    3  502    0 -0.29955512699E+03  0.28567123245E+03  0.55877870124E+03  0.69539554509E+03  0.25500000920E-02 0. -1.
       -2    1    3    3    0  502  0.29955512699E+03 -0.28567123245E+03 -0.17927848730E+04  0.18399507950E+04  0.25500000920E-02 0.  1.
</event>
<event>
 5   0  0.6628798E-05  0.2189743E+04  0.7818609E-02  0.8522709E-01
        2   -1    0    0  501    0  0.00000000000E+00  0.00000000000E+00  0.10931264947E+04  0.10931264947E+04  0.25500000920E-02 0.  1.
       -2   -1    0    0    0  501  0.00000000000E+00  0.00000000000E+00 -0.10966192737E+04  0.10966192737E+04  0.25500000920E-02 0. -1.
    10030    2    1    2    0    0  0.00000000000E+00  0.00000000000E+00 -0.34927789886E+01  0.21897457683E+04  0.21897429827E+04 0.  0.
        4    1    3    3  502    0  0.44592991063E+03  0.96503618871E+03  0.26015781725E+03  0.10944551309E+04  0.12699999809E+01 0.  1.
       -4    1    3    3    0  502 -0.44592991063E+03 -0.96503618871E+03 -0.26365059624E+03  0.10952906375E+04  0.12699999809E+01 0. -1.
</event>
<event>
 5   0  0.6293013E-05  0.2192360E+04  0.7818609E-02  0.8521615E-01
        2   -1    0    0  501    0  0.00000000000E+00  0.00000000000E+00  0.10173940432E+04  0.10173940432E+04  0.25500000920E-02 0.  1.
       -2   -1    0    0    0  501  0.00000000000E+00  0.00000000000E+00 -0.11810668759E+04  0.11810668759E+04  0.25500000920E-02 0. -1.
    10030    2    1    2    0    0  0.00000000000E+00  0.00000000000E+00 -0.16367283265E+03  0.21984609191E+04  0.21923598283E+04 0.  0.
        1    1    3    3  502    0 -0.84072041573E+03  0.66796577675E+01  0.62350924034E+03  0.10467183041E+04  0.50400001928E-02 0.  1.
       -1    1    3    3    0  502  0.84072041573E+03 -0.66796577675E+01 -0.78718207299E+03  0.11517426150E+04  0.50400001928E-02 0. -1.
</event>
<event>
 5   0  0.6628798E-05  0.2163069E+04  0.7818609E-02  0.8533959E-01
        2   -1    0    0  501    0  0.00000000000E+00  0.00000000000E+00  0.16525021063E+04  0.16525021063E+04  0.25500000920E-02 0.  1.
       -2   -1    0    0    0  501  0.00000000000E+00  0.00000000000E+00 -0.70784578751E+03  0.70784578752E+03  0.25500000920E-02 0. -1.
    10030    2    1    2    0    0  0.00000000000E+00  0.00000000000E+00  0.94465631881E+03  0.23603478938E+04  0.21630687967E+04 0.  0.
        4    1    3    3  502    0 -0.18579080321E+03 -0.26834904199E+03 -0.65282134040E+03  0.72986762243E+03  0.12699999809E+01 0. -1.
       -4    1    3    3    0  502  0.18579080321E+03  0.26834904199E+03  0.15974776592E+04  0.16304802714E+04  0.12699999809E+01 0.  1.
</event>
<event>
 5   0  0.2820239E-05  0.2184802E+04  0.7818609E-02  0.8524781E-01
       -1   -1    0    0    0  501  0.00000000000E+00  0.00000000000E+00  0.56813337865E+03  0.56813337867E+03  0.50400001928E-02 0. -1.
        1   -1    0    0  501    0  0.00000000000E+00  0.00000000000E+00 -0.21004564494E+04  0.21004564495E+04  0.50400001928E-02 0.  1.
    10030    2    1    2    0    0  0.00000000000E+00  0.00000000000E+00 -0.15323230708E+04  0.26685898281E+04  0.21848015190E+04 0.  0.
        3    1    3    3  502    0  0.74063591296E+03 -0.42047942019E+03 -0.16017460876E+04  0.18140934479E+04  0.10100000352E+00 0.  1.
       -3    1    3    3    0  502 -0.74063591296E+03  0.42047942019E+03  0.69423016796E+02  0.85449638023E+03  0.10100000352E+00 0. -1.
</event>
<event>
 5   0  0.6445740E-05  0.2208444E+04  0.7818609E-02  0.8514922E-01
       -2   -1    0    0    0  501  0.00000000000E+00  0.00000000000E+00  0.73001222577E+03  0.73001222578E+03  0.25500000920E-02 0. -1.
        2   -1    0    0  501    0  0.00000000000E+00  0.00000000000E+00 -0.16702542537E+04  0.16702542537E+04  0.25500000920E-02 0.  1.
    10030    2    1    2    0    0  0.00000000000E+00  0.00000000000E+00 -0.94024202794E+03  0.24002664795E+04  0.22084438189E+04 0.  0.
        5    1    3    3  502    0 -0.51784553204E+03  0.92655457938E+02 -0.15252895342E+04  0.16134680914E+04  0.46999998093E+01 0.  1.
       -5    1    3    3    0  502  0.51784553204E+03 -0.92655457938E+02  0.58504750623E+03  0.78679838808E+03  0.46999998093E+01 0. -1.
</event>
<event>
 5   0  0.2910318E-05  0.2191919E+04  0.7818609E-02  0.8521799E-01
        1   -1    0    0  501    0  0.00000000000E+00  0.00000000000E+00  0.14409040456E+04  0.14409040456E+04  0.50400001928E-02 0.  1.
       -1   -1    0    0    0  501  0.00000000000E+00  0.00000000000E+00 -0.83359274964E+03  0.83359274965E+03  0.50400001928E-02 0. -1.
    10030    2    1    2    0    0  0.00000000000E+00  0.00000000000E+00  0.60731129593E+03  0.22744967952E+04  0.21919189450E+04 0.  0.
        5    1    3    3  502    0 -0.23803346677E+03  0.94980651030E+03  0.81445338022E+03  0.12736360300E+04  0.46999998093E+01 0.  1.
       -5    1    3    3    0  502  0.23803346677E+03 -0.94980651030E+03 -0.20714208430E+03  0.10008607652E+04  0.46999998093E+01 0. -1.
</event>
<event>
 5   0  0.2820239E-05  0.2196391E+04  0.7818609E-02  0.8519932E-01
        1   -1    0    0  501    0  0.00000000000E+00  0.00000000000E+00  0.84309565485E+03  0.84309565487E+03  0.50400001928E-02 0. -1.
       -1   -1    0    0    0  501  0.00000000000E+00  0.00000000000E+00 -0.14304820161E+04  0.14304820162E+04  0.50400001928E-02 0.  1.
    10030    2    1    2    0    0  0.00000000000E+00  0.00000000000E+00 -0.58738636130E+03  0.22735776710E+04  0.21963908324E+04 0.  0.
        3    1    3    3  502    0 -0.10282813704E+04 -0.19484872849E+03  0.50722507155E+02  0.10478078958E+04  0.10100000352E+00 0. -1.
       -3    1    3    3    0  502  0.10282813704E+04  0.19484872849E+03 -0.63810886845E+03  0.12257697752E+04  0.10100000352E+00 0.  1.
</event>
<event>
 5   0  0.6306919E-05  0.2215501E+04  0.7818609E-02  0.8512004E-01
       -2   -1    0    0    0  501  0.00000000000E+00  0.00000000000E+00  0.78659260383E+03  0.78659260383E+03  0.25500000920E-02 0.  1.
        2   -1    0    0  501    0  0.00000000000E+00  0.00000000000E+00 -0.15600344848E+04  0.15600344848E+04  0.25500000920E-02 0. -1.
    10030    2    1    2    0    0  0.00000000000E+00  0.00000000000E+00 -0.77344188099E+03  0.23466270886E+04  0.22155013766E+04 0.  0.
        3    1    3    3  502    0 -0.33833627035E+03  0.73228011664E+03 -0.11908695086E+04  0.14383587167E+04  0.10100000352E+00 0. -1.
       -3    1    3    3    0  502  0.33833627035E+03 -0.73228011664E+03  0.41742762761E+03  0.90826837199E+03  0.10100000352E+00 0.  1.
</event>
<event>
 5   0  0.2908031E-05  0.2190060E+04  0.7818609E-02  0.8522577E-01
       -1   -1    0    0    0  501  0.00000000000E+00  0.00000000000E+00  0.92338564541E+03  0.92338564542E+03  0.50400001928E-02 0. -1.
        1   -1    0    0  501    0  0.00000000000E+00  0.00000000000E+00 -0.12985804110E+04  0.12985804110E+04  0.50400001928E-02 0.  1.
    10030    2    1    2    0    0  0.00000000000E+00  0.00000000000E+00 -0.37519476556E+03  0.22219660564E+04  0.21900598265E+04 0.  0.
        1    1    3    3  502    0 -0.13246655146E+03 -0.10154969323E+04  0.20574802546E+03  0.10445638596E+04  0.50400001928E-02 0. -1.
       -1    1    3    3    0  502  0.13246655146E+03  0.10154969323E+04 -0.58094279103E+03  0.11774021969E+04  0.50400001928E-02 0.  1.
</event>
<event>
 5   0  0.2753631E-05  0.2236495E+04  0.7818609E-02  0.8503390E-01
        1   -1    0    0  501    0  0.00000000000E+00  0.00000000000E+00  0.20424505763E+04  0.20424505763E+04  0.50400001928E-02 0.  1.
       -1   -1    0    0    0  501  0.00000000000E+00  0.00000000000E+00 -0.61224392998E+03  0.61224393000E+03  0.50400001928E-02 0. -1.
    10030    2    1    2    0    0  0.00000000000E+00  0.00000000000E+00  0.14302066464E+04  0.26546945063E+04  0.22364954439E+04 0.  0.
        4    1    3    3  502    0 -0.67307291266E+03  0.88718812948E+03  0.59436591859E+03  0.12623004321E+04  0.12699999809E+01 0. -1.
       -4    1    3    3    0  502  0.67307291266E+03 -0.88718812948E+03  0.83584072776E+03  0.13923940742E+04  0.12699999809E+01 0.  1.
</event>
<event>
 5   0  0.2910318E-05  0.2211571E+04  0.7818609E-02  0.8513627E-01
       -1   -1    0    0    0  501  0.00000000000E+00  0.00000000000E+00  0.57229604336E+03  0.57229604339E+03  0.50400001928E-02 0. -1.
        1   -1    0    0  501    0  0.00000000000E+00  0.00000000000E+00 -0.21365901806E+04  0.21365901806E+04  0.50400001928E-02 0.  1.
    10030    2    1    2    0    0  0.00000000000E+00  0.00000000000E+00 -0.15642941372E+04  0.27088862239E+04  0.22115714835E+04 0.  0.
        5    1    3    3  502    0 -0.96269396474E+03  0.52439950048E+03 -0.95950168908E+03  0.14568596663E+04  0.46999998093E+01 0. -1.
       -5    1    3    3    0  502  0.96269396474E+03 -0.52439950048E+03 -0.60479244811E+03  0.12520265577E+04  0.46999998093E+01 0.  1.
</event>
<event>
 5   0  0.2753631E-05  0.2107127E+04  0.7818609E-02  0.8558110E-01
        1   -1    0    0  501    0  0.00000000000E+00  0.00000000000E+00  0.13666583624E+04  0.13666583624E+04  0.50400001928E-02 0.  1.
       -1   -1    0    0    0  501  0.00000000000E+00  0.00000000000E+00 -0.81219742885E+03  0.81219742887E+03  0.50400001928E-02 0. -1.
    10030    2    1    2    0    0  0.00000000000E+00  0.00000000000E+00  0.55446093355E+03  0.21788557913E+04  0.21071273413E+04 0.  0.
        4    1    3    3  502    0  0.21902497045E+03 -0.74107449538E+03 -0.46326947755E+03  0.90099032576E+03  0.12699999809E+01 0. -1.
       -4    1    3    3    0  502 -0.21902497045E+03  0.74107449538E+03  0.10177304111E+04  0.12778654655E+04  0.12699999809E+01 0.  1.
</event>
<event>
 5   0  0.2908031E-05  0.2214139E+04  0.7818609E-02  0.8512566E-01
        1   -1    0    0  501    0  0.00000000000E+00  0.00000000000E+00  0.55993831255E+03  0.55993831257E+03  0.50400001928E-02 0. -1.
       -1   -1    0    0    0  501  0.00000000000E+00  0.00000000000E+00 -0.21888171254E+04  0.21888171254E+04  0.50400001928E-02 0.  1.
    10030    2    1    2    0    0  0.00000000000E+00  0.00000000000E+00 -0.16288788128E+04  0.27487554379E+04  0.22141387199E+04 0.  0.
        1    1    3    3  502    0  0.10628724884E+04 -0.15022699577E+03 -0.11506344740E+04  0.15736027992E+04  0.50400001928E-02 0.  1.
       -1    1    3    3    0  502 -0.10628724884E+04  0.15022699577E+03 -0.47824433881E+03  0.11751526388E+04  0.50400001928E-02 0. -1.
</event>
<event>
 5   0  0.6628798E-05  0.2184418E+04  0.7818609E-02  0.8524942E-01
       -2   -1    0    0    0  501  0.00000000000E+00  0.00000000000E+00  0.56870212964E+03  0.56870212965E+03  0.25500000920E-02 0.  1.
        2   -1    0    0  501    0  0.00000000000E+00  0.00000000000E+00 -0.20976197818E+04  0.20976197818E+04  0.25500000920E-02 0. -1.
    10030    2    1    2    0    0  0.00000000000E+00  0.00000000000E+00 -0.15289176522E+04  0.26663219115E+04  0.21844183089E+04 0.  0.
        4    1    3    3  502    0  0.93503475927E+02  0.40828939447E+03 -0.19956879527E+04  0.20391702105E+04  0.12699999809E+01 0. -1.
       -4    1    3    3    0  502 -0.93503475927E+02 -0.40828939447E+03  0.46677030058E+03  0.62715170099E+03  0.12699999809E+01 0.  1.
</event>
<event>
 5   0  0.2753631E-05  0.1774290E+04  0.7818609E-02  0.8720093E-01
        1   -1    0    0  501    0  0.00000000000E+00  0.00000000000E+00  0.15143322564E+04  0.15143322564E+04  0.50400001928E-02 0.  1.
       -1   -1    0    0    0  501  0.00000000000E+00  0.00000000000E+00 -0.51971820793E+03  0.51971820796E+03  0.50400001928E-02 0. -1.
    10030    2    1    2    0    0  0.00000000000E+00  0.00000000000E+00  0.99461404844E+03  0.20340504643E+04  0.17742897695E+04 0.  0.
        4    1    3    3  502    0 -0.21258018790E+02 -0.32359842550E+03 -0.44933045694E+03  0.55413655067E+03  0.12699999809E+01 0. -1.
       -4    1    3    3    0  502  0.21258018790E+02  0.32359842550E+03  0.14439445054E+04  0.14799139137E+04  0.12699999809E+01 0.  1.
</event>
<event>
 5   0  0.2908031E-05  0.2200025E+04  0.7818609E-02  0.8518418E-01
       -1   -1    0    0    0  501  0.00000000000E+00  0.00000000000E+00  0.55091137187E+03  0.55091137190E+03  0.50400001928E-02 0.  1.
        1   -1    0    0  501    0  0.00000000000E+00  0.00000000000E+00 -0.21964111147E+04  0.21964111147E+04  0.50400001928E-02 0. -1.
    10030    2    1    2    0    0  0.00000000000E+00  0.00000000000E+00 -0.16454997428E+04  0.27473224866E+04  0.22000253275E+04 0.  0.
        1    1    3    3  502    0 -0.10412642513E+04 -0.19643326520E+03 -0.11915292061E+04  0.15945404096E+04  0.50400001928E-02 0. -1.
       -1    1    3    3    0  502  0.10412642513E+04  0.19643326520E+03 -0.45397053666E+03  0.11527820770E+04  0.50400001928E-02 0.  1.
</event>
<event>
 5   0  0.2820239E-05  0.2194113E+04  0.7818609E-02  0.8520882E-01
       -1   -1    0    0    0  501  0.00000000000E+00  0.00000000000E+00  0.11713169705E+04  0.11713169706E+04  0.50400001928E-02 0. -1.
        1   -1    0    0  501    0  0.00000000000E+00  0.00000000000E+00 -0.10275041422E+04  0.10275041422E+04  0.50400001928E-02 0.  1.
    10030    2    1    2    0    0  0.00000000000E+00  0.00000000000E+00  0.14381282833E+03  0.21988211128E+04  0.21941130683E+04 0.  0.
        3    1    3    3  502    0 -0.28693628653E+03  0.10528181372E+04  0.18517356522E+03  0.11068187395E+04  0.10100000352E+00 0. -1.
       -3    1    3    3    0  502  0.28693628653E+03 -0.10528181372E+04 -0.41360736888E+02  0.10920023733E+04  0.10100000352E+00 0.  1.
</event>
<event>
 5   0  0.2820239E-05  0.2312116E+04  0.7818609E-02  0.8473159E-01
       -1   -1    0    0    0  501  0.00000000000E+00  0.00000000000E+00  0.71959016549E+03  0.71959016551E+03  0.50400001928E-02 0. -1.
        1   -1    0    0  501    0  0.00000000000E+00  0.00000000000E+00 -0.18572649241E+04  0.18572649242E+04  0.50400001928E-02 0.  1.
    10030    2    1    2    0    0  0.00000000000E+00  0.00000000000E+00 -0.11376747587E+04  0.25768550897E+04  0.23121155457E+04 0.  0.
        3    1    3    3  502    0  0.46336993694E+03  0.33093687369E+03  0.55246287578E+03  0.79337642525E+03  0.10100000352E+00 0. -1.
       -3    1    3    3    0  502 -0.46336993694E+03 -0.33093687369E+03 -0.16901376344E+04  0.17834786644E+04  0.10100000352E+00 0.  1.
</event>
<event>
 5   0  0.6628798E-05  0.2230768E+04  0.7818609E-02  0.8505730E-01
        2   -1    0    0  501    0  0.00000000000E+00  0.00000000000E+00  0.10478589661E+04  0.10478589661E+04  0.25500000920E-02 0. -1.
       -2   -1    0    0    0  501  0.00000000000E+00  0.00000000000E+00 -0.11872602416E+04  0.11872602416E+04  0.25500000920E-02 0.  1.
    10030    2    1    2    0    0  0.00000000000E+00  0.00000000000E+00 -0.13940127549E+03  0.22351192078E+04  0.22307678403E+04 0.  0.
        4    1    3    3  502    0  0.88668302550E+03  0.14781213332E+03  0.59190887854E+03  0.10762959388E+04  0.12699999809E+01 0. -1.
       -4    1    3    3    0  502 -0.88668302550E+03 -0.14781213332E+03 -0.73131015403E+03  0.11588232690E+04  0.12699999809E+01 0.  1.
</event>
<event>
 5   0  0.2929471E-05  0.2215886E+04  0.7818609E-02  0.8511845E-01
       -1   -1    0    0    0  501  0.00000000000E+00  0.00000000000E+00  0.84248069561E+03  0.84248069563E+03  0.50400001928E-02 0. -1.
        1   -1    0    0  501    0  0.00000000000E+00  0.00000000000E+00 -0.14570508496E+04  0.14570508496E+04  0.50400001928E-02 0.  1.
    10030    2    1    2    0    0  0.00000000000E+00  0.00000000000E+00 -0.61457015399E+03  0.22995315452E+04  0.22158855687E+04 0.  0.
        2    1    3    3  502    0  0.12535053374E+03 -0.81012371314E+03 -0.10807550633E+04  0.13564824709E+04  0.25500000920E-02 0.  1.
       -2    1    3    3    0  502 -0.12535053374E+03  0.81012371314E+03  0.46618490935E+03  0.94304907434E+03  0.25500000920E-02 0. -1.
</event>
<event>
 5   0  0.2753631E-05  0.2165794E+04  0.7818609E-02  0.8532802E-01
       -1   -1    0    0    0  501  0.00000000000E+00  0.00000000000E+00  0.12749614360E+04  0.12749614360E+04  0.50400001928E-02 0. -1.
        1   -1    0    0  501    0  0.00000000000E+00  0.00000000000E+00 -0.91976559616E+03  0.91976559617E+03  0.50400001928E-02 0.  1.
    10030    2    1    2    0    0  0.00000000000E+00  0.00000000000E+00  0.35519583981E+03  0.21947270322E+04  0.21657937716E+04 0.  0.
        4    1    3    3  502    0  0.30198083015E+03  0.44152492485E+03 -0.77653633249E+03  0.94294589962E+03  0.12699999809E+01 0.  1.
       -4    1    3    3    0  502 -0.30198083015E+03 -0.44152492485E+03  0.11317321723E+04  0.12517811325E+04  0.12699999809E+01 0. -1.
</event>
<event>
 5   0  0.6628798E-05  0.2202009E+04  0.7818609E-02  0.8517592E-01
        2   -1    0    0  501    0  0.00000000000E+00  0.00000000000E+00  0.17675055548E+04  0.17675055548E+04  0.25500000920E-02 0. -1.
       -2   -1    0    0    0  501  0.00000000000E+00  0.00000000000E+00 -0.68583132542E+03  0.68583132542E+03  0.25500000920E-02 0.  1.
    10030    2    1    2    0    0  0.00000000000E+00  0.00000000000E+00  0.10816742294E+04  0.24533368802E+04  0.22020087896E+04 0.  0.
        4    1    3    3  502    0 -0.11463626351E+03 -0.49253903983E+03 -0.54878139184E+03  0.74625652935E+03  0.12699999809E+01 0.  1.
       -4    1    3    3    0  502  0.11463626351E+03  0.49253903983E+03  0.16304556212E+04  0.17070803509E+04  0.12699999809E+01 0. -1.
</event>
<event>
 5   0  0.6445740E-05  0.2208382E+04  0.7818609E-02  0.8514947E-01
       -2   -1    0    0    0  501  0.00000000000E+00  0.00000000000E+00  0.84377698508E+03  0.84377698509E+03  0.25500000920E-02 0. -1.
        2   -1    0    0  501    0  0.00000000000E+00  0.00000000000E+00 -0.14449763466E+04  0.14449763466E+04  0.25500000920E-02 0.  1.
    10030    2    1    2    0    0  0.00000000000E+00  0.00000000000E+00 -0.60119936155E+03  0.22887533317E+04  0.22083820188E+04 0.  0.
        5    1    3    3  502    0 -0.47302964339E+03  0.98755005064E+03 -0.15328751236E+03  0.11056813725E+04  0.46999998093E+01 0. -1.
       -5    1    3    3    0  502  0.47302964339E+03 -0.98755005064E+03 -0.44791184919E+03  0.11830719592E+04  0.46999998093E+01 0.  1.
</event>
<event>
 5   0  0.2753631E-05  0.2239011E+04  0.7818609E-02  0.8502364E-01
       -1   -1    0    0    0  501  0.00000000000E+00  0.00000000000E+00  0.16094541169E+04  0.16094541169E+04  0.50400001928E-02 0. -1.
        1   -1    0    0  501    0  0.00000000000E+00  0.00000000000E+00 -0.77870634584E+03  0.77870634585E+03  0.50400001928E-02 0.  1.
    10030    2    1    2    0    0  0.00000000000E+00  0.00000000000E+00  0.83074777103E+03  0.23881604627E+04  0.22390106156E+04 0.  0.
        4    1    3    3  502    0 -0.52950661095E+02  0.22112529525E+03  0.15845651659E+04  0.16007962227E+04  0.12699999809E+01 0. -1.
       -4    1    3    3    0  502  0.52950661095E+02 -0.22112529525E+03 -0.75381739489E+03  0.78736424001E+03  0.12699999809E+01 0.  1.
</event>
<event>
 5   0  0.6628798E-05  0.2265701E+04  0.7818609E-02  0.8491569E-01
        2   -1    0    0  501    0  0.00000000000E+00  0.00000000000E+00  0.14696444132E+04  0.14696444132E+04  0.25500000920E-02 0. -1.
       -2   -1    0    0    0  501  0.00000000000E+00  0.00000000000E+00 -0.87323825888E+03  0.87323825888E+03  0.25500000920E-02 0.  1.
    10030    2    1    2    0    0  0.00000000000E+00  0.00000000000E+00  0.59640615432E+03  0.23428826721E+04  0.22657005350E+04 0.  0.
        4    1    3    3  502    0  0.58595195889E+03  0.63551421799E+03  0.10553551696E+04  0.13641826001E+04  0.12699999809E+01 0. -1.
       -4    1    3    3    0  502 -0.58595195889E+03 -0.63551421799E+03 -0.45894901531E+03  0.97870007201E+03  0.12699999809E+01 0.  1.
</event>
<event>
 5   0  0.6306919E-05  0.2219563E+04  0.7818609E-02  0.8510329E-01
        2   -1    0    0  501    0  0.00000000000E+00  0.00000000000E+00  0.68467501738E+03  0.68467501738E+03  0.25500000920E-02 0. -1.
       -2   -1    0    0    0  501  0.00000000000E+00  0.00000000000E+00 -0.17988320716E+04  0.17988320716E+04  0.25500000920E-02 0.  1.
    10030    2    1    2    0    0  0.00000000000E+00  0.00000000000E+00 -0.11141570543E+04  0.24835070890E+04  0.22195633624E+04 0.  0.
        3    1    3    3  502    0 -0.21943443888E+03  0.19074577687E+03  0.64130188029E+03  0.70413318074E+03  0.10100000352E+00 0. -1.
       -3    1    3    3    0  502  0.21943443888E+03 -0.19074577687E+03 -0.17554589345E+04  0.17793739083E+04  0.10100000352E+00 0.  1.
</event>
<event>
 5   0  0.2910318E-05  0.2222319E+04  0.7818609E-02  0.8509196E-01
       -1   -1    0    0    0  501  0.00000000000E+00  0.00000000000E+00  0.10219278483E+04  0.10219278483E+04  0.50400001928E-02 0.  1.
        1   -1    0    0  501    0  0.00000000000E+00  0.00000000000E+00 -0.12081825138E+04  0.12081825139E+04  0.50400001928E-02 0. -1.
    10030    2    1    2    0    0  0.00000000000E+00  0.00000000000E+00 -0.18625466551E+03  0.22301103622E+04  0.22223189301E+04 0.  0.
        5    1    3    3  502    0 -0.13515254849E+03 -0.56586308929E+03 -0.10431173734E+04  0.11943965806E+04  0.46999998093E+01 0. -1.
       -5    1    3    3    0  502  0.13515254849E+03  0.56586308929E+03  0.85686270787E+03  0.10357137816E+04  0.46999998093E+01 0.  1.
</event>
<event>
 5   0  0.6414768E-05  0.2054852E+04  0.7818609E-02  0.8581396E-01
        2   -1    0    0  501    0  0.00000000000E+00  0.00000000000E+00  0.76884909735E+03  0.76884909735E+03  0.25500000920E-02 0. -1.
       -2   -1    0    0    0  501  0.00000000000E+00  0.00000000000E+00 -0.13729672519E+04  0.13729672519E+04  0.25500000920E-02 0.  1.
    10030    2    1    2    0    0  0.00000000000E+00  0.00000000000E+00 -0.60411815460E+03  0.21418163493E+04  0.20548524349E+04 0.  0.
        2    1    3    3  502    0 -0.28834046278E+03 -0.97821632388E+03 -0.43206638833E+03  0.11075778811E+04  0.25500000920E-02 0.  1.
       -2    1    3    3    0  502  0.28834046278E+03  0.97821632388E+03 -0.17205176627E+03  0.10342384682E+04  0.25500000920E-02 0. -1.
</event>
<event>
 5   0  0.2910318E-05  0.2215544E+04  0.7818609E-02  0.8511986E-01
        1   -1    0    0  501    0  0.00000000000E+00  0.00000000000E+00  0.75418393694E+03  0.75418393696E+03  0.50400001928E-02 0. -1.
       -1   -1    0    0    0  501  0.00000000000E+00  0.00000000000E+00 -0.16271349381E+04  0.16271349381E+04  0.50400001928E-02 0.  1.
    10030    2    1    2    0    0  0.00000000000E+00  0.00000000000E+00 -0.87295100114E+03  0.23813188750E+04  0.22155442072E+04 0.  0.
        5    1    3    3  502    0 -0.97288979022E+03 -0.20812117368E+03 -0.96006786258E+03  0.13825994928E+04  0.46999998093E+01 0.  1.
       -5    1    3    3    0  502  0.97288979022E+03  0.20812117368E+03  0.87116861433E+02  0.99871938221E+03  0.46999998093E+01 0. -1.
</event>
<event>
 5   0  0.6414768E-05  0.2183693E+04  0.7818609E-02  0.8525246E-01
       -2   -1    0    0    0  501  0.00000000000E+00  0.00000000000E+00  0.90369707851E+03  0.90369707851E+03  0.25500000920E-02 0. -1.
        2   -1    0    0  501    0  0.00000000000E+00  0.00000000000E+00 -0.13191691292E+04  0.13191691292E+04  0.25500000920E-02 0.  1.
    10030    2    1    2    0    0  0.00000000000E+00  0.00000000000E+00 -0.41547205074E+03  0.22228662078E+04  0.21836934658E+04 0.  0.
        2    1    3    3  502    0 -0.28901418801E+03  0.35113270087E+03  0.80269621219E+03  0.92257497450E+03  0.25500000920E-02 0. -1.
       -2    1    3    3    0  502  0.28901418801E+03 -0.35113270087E+03 -0.12181682629E+04  0.13002912333E+04  0.25500000920E-02 0.  1.
</event>
<event>
 5   0  0.2820239E-05  0.2186588E+04  0.7818609E-02  0.8524031E-01
       -1   -1    0    0    0  501  0.00000000000E+00  0.00000000000E+00  0.70888253922E+03  0.70888253924E+03  0.50400001928E-02 0. -1.
        1   -1    0    0  501    0  0.00000000000E+00  0.00000000000E+00 -0.16861634312E+04  0.16861634312E+04  0.50400001928E-02 0.  1.
    10030    2    1    2    0    0  0.00000000000E+00  0.00000000000E+00 -0.97728089194E+03  0.23950459704E+04  0.21865880404E+04 0.  0.
        3    1    3    3  502    0  0.94253112157E+03  0.54734673049E+03 -0.58247200551E+03  0.12358102629E+04  0.10100000352E+00 0. -1.
       -3    1    3    3    0  502 -0.94253112157E+03 -0.54734673049E+03 -0.39480888643E+03  0.11592357075E+04  0.10100000352E+00 0.  1.
</event>
<event>
 5   0  0.6306919E-05  0.1985783E+04  0.7818609E-02  0.8613297E-01
        2   -1    0    0  501    0  0.00000000000E+00  0.00000000000E+00  0.13708956000E+04  0.13708956000E+04  0.25500000920E-02 0.  1.
       -2   -1    0    0    0  501  0.00000000000E+00  0.00000000000E+00 -0.71911629018E+03  0.71911629018E+03  0.25500000920E-02 0. -1.
    10030    2    1    2    0    0  0.00000000000E+00  0.00000000000E+00  0.65177930978E+03  0.20900118901E+04  0.19857828261E+04 0.  0.
        3    1    3    3  502    0 -0.49092137906E+03  0.14301651632E+02  0.12340986856E+04  0.13282348865E+04  0.10100000352E+00 0.  1.
       -3    1    3    3    0  502  0.49092137906E+03 -0.14301651632E+02 -0.58231937581E+03  0.76177700366E+03  0.10100000352E+00 0. -1.
</event>
<event>
 5   0  0.2753631E-05  0.2237044E+04  0.7818609E-02  0.8503166E-01
        1   -1    0    0  501    0  0.00000000000E+00  0.00000000000E+00  0.20289796058E+04  0.20289796058E+04  0.50400001928E-02 0. -1.
       -1   -1    0    0    0  501  0.00000000000E+00  0.00000000000E+00 -0.61661121414E+03  0.61661121416E+03  0.50400001928E-02 0.  1.
    10030    2    1    2    0    0  0.00000000000E+00  0.00000000000E+00  0.14123683916E+04  0.26455908199E+04  0.22370441017E+04 0.  0.
        4    1    3    3  502    0 -0.72151261458E+03  0.28420500021E+03  0.16594564188E+04  0.18317068963E+04  0.12699999809E+01 0. -1.
       -4    1    3    3    0  502  0.72151261458E+03 -0.28420500021E+03 -0.24708802714E+03  0.81388392366E+03  0.12699999809E+01 0.  1.
</event>
<event>
 5   0  0.2908031E-05  0.2192752E+04  0.7818609E-02  0.8521451E-01
       -1   -1    0    0    0  501  0.00000000000E+00  0.00000000000E+00  0.66449102487E+03  0.66449102488E+03  0.50400001928E-02 0.  1.
        1   -1    0    0  501    0  0.00000000000E+00  0.00000000000E+00 -0.18089636072E+04  0.18089636072E+04  0.50400001928E-02 0. -1.
    10030    2    1    2    0    0  0.00000000000E+00  0.00000000000E+00 -0.11444725824E+04  0.24734546321E+04  0.21927517701E+04 0.  0.
        1    1    3    3  502    0 -0.12107886349E+03 -0.74625915107E+03  0.32343611676E+03  0.82229783740E+03  0.50400001928E-02 0.  1.
       -1    1    3    3    0  502  0.12107886349E+03  0.74625915107E+03 -0.14679086991E+04  0.16511567947E+04  0.50400001928E-02 0. -1.
</event>
<event>
 5   0  0.6414768E-05  0.2104535E+04  0.7818609E-02  0.8559248E-01
        2   -1    0    0  501    0  0.00000000000E+00  0.00000000000E+00  0.16325649151E+04  0.16325649151E+04  0.25500000920E-02 0.  1.
       -2   -1    0    0    0  501  0.00000000000E+00  0.00000000000E+00 -0.67823757334E+03  0.67823757335E+03  0.25500000920E-02 0. -1.
    10030    2    1    2    0    0  0.00000000000E+00  0.00000000000E+00  0.95432734173E+03  0.23108024884E+04  0.21045349760E+04 0.  0.
        2    1    3    3  502    0 -0.51092110966E+03 -0.36569115800E+03 -0.44966195917E+03  0.77263593035E+03  0.25500000920E-02 0. -1.
       -2    1    3    3    0  502  0.51092110966E+03  0.36569115800E+03  0.14039893009E+04  0.15381665581E+04  0.25500000920E-02 0.  1.
</event>
<event>
 5   0  0.2820239E-05  0.2196239E+04  0.7818609E-02  0.8519995E-01
       -1   -1    0    0    0  501  0.00000000000E+00  0.00000000000E+00  0.17409542383E+04  0.17409542383E+04  0.50400001928E-02 0. -1.
        1   -1    0    0  501    0  0.00000000000E+00  0.00000000000E+00 -0.69264694275E+03  0.69264694277E+03  0.50400001928E-02 0.  1.
    10030    2    1    2    0    0  0.00000000000E+00  0.00000000000E+00  0.10483072955E+04  0.24336011811E+04  0.21962391770E+04 0.  0.
        3    1    3    3  502    0  0.89723587496E+03  0.54982496911E+03  0.17633953392E+03  0.10669748607E+04  0.10100000352E+00 0.  1.
       -3    1    3    3    0  502 -0.89723587496E+03 -0.54982496911E+03  0.87196776162E+03  0.13666263204E+04  0.10100000352E+00 0. -1.
</event>
<event>
 5   0  0.6628798E-05  0.2195015E+04  0.7818609E-02  0.8520506E-01
       -2   -1    0    0    0  501  0.00000000000E+00  0.00000000000E+00  0.53095119362E+03  0.53095119363E+03  0.25500000920E-02 0.  1.
        2   -1    0    0  501    0  0.00000000000E+00  0.00000000000E+00 -0.22686120867E+04  0.22686120867E+04  0.25500000920E-02 0. -1.
    10030    2    1    2    0    0  0.00000000000E+00  0.00000000000E+00 -0.17376608931E+04  0.27995632803E+04  0.21950146198E+04 0.  0.
        4    1    3    3  502    0  0.29779059334E+03  0.66609141194E+03 -0.19144901959E+04  0.20488121753E+04  0.12699999809E+01 0. -1.
       -4    1    3    3    0  502 -0.29779059334E+03 -0.66609141194E+03  0.17682930278E+03  0.75075110507E+03  0.12699999809E+01 0.  1.
</event>
<event>
 5   0  0.6306919E-05  0.2198426E+04  0.7818609E-02  0.8519084E-01
        2   -1    0    0  501    0  0.00000000000E+00  0.00000000000E+00  0.13846801804E+04  0.13846801804E+04  0.25500000920E-02 0. -1.
       -2   -1    0    0    0  501  0.00000000000E+00  0.00000000000E+00 -0.87259774386E+03  0.87259774386E+03  0.25500000920E-02 0.  1.
    10030    2    1    2    0    0  0.00000000000E+00  0.00000000000E+00  0.51208243656E+03  0.22572779243E+04  0.21984256198E+04 0.  0.
        3    1    3    3  502    0  0.55340429696E+03 -0.56084309471E+03 -0.53094147158E+03  0.95010533586E+03  0.10100000352E+00 0.  1.
       -3    1    3    3    0  502 -0.55340429696E+03  0.56084309471E+03  0.10430239081E+04  0.13071725884E+04  0.10100000352E+00 0. -1.
</event>
<event>
 5   0  0.6445740E-05  0.2375135E+04  0.7818609E-02  0.8448872E-01
       -2   -1    0    0    0  501  0.00000000000E+00  0.00000000000E+00  0.75377862854E+03  0.75377862855E+03  0.25500000920E-02 0. -1.
        2   -1    0    0  501    0  0.00000000000E+00  0.00000000000E+00 -0.18709955546E+04  0.18709955546E+04  0.25500000920E-02 0.  1.
    10030    2    1    2    0    0  0.00000000000E+00  0.00000000000E+00 -0.11172169261E+04  0.26247741831E+04  0.23751349125E+04 0.  0.
        5    1    3    3  502    0  0.37722598718E+03  0.11062648966E+04 -0.79087232852E+03  0.14112485950E+04  0.46999998093E+01 0.  1.
       -5    1    3    3    0  502 -0.37722598718E+03 -0.11062648966E+04 -0.32634459753E+03  0.12135255882E+04  0.46999998093E+01 0. -1.
</event>
<event>
 5   0  0.2753631E-05  0.2209720E+04  0.7818609E-02  0.8514393E-01
       -1   -1    0    0    0  501  0.00000000000E+00  0.00000000000E+00  0.55350002653E+03  0.55350002656E+03  0.50400001928E-02 0.  1.
        1   -1    0    0  501    0  0.00000000000E+00  0.00000000000E+00 -0.22054486148E+04  0.22054486148E+04  0.50400001928E-02 0. -1.
    10030    2    1    2    0    0  0.00000000000E+00  0.00000000000E+00 -0.16519485882E+04  0.27589486413E+04  0.22097202238E+04 0.  0.
        4    1    3    3  502    0  0.50262962447E+03  0.76479526274E+02  0.39877008620E+03  0.64614615366E+03  0.12699999809E+01 0.  1.
       -4    1    3    3    0  502 -0.50262962447E+03 -0.76479526274E+02 -0.20507186744E+04  0.21128024877E+04  0.12699999809E+01 0. -1.
</event>
<event>
 5   0  0.2820239E-05  0.2195199E+04  0.7818609E-02  0.8520429E-01
        1   -1    0    0  501    0  0.00000000000E+00  0.00000000000E+00  0.16627743548E+04  0.16627743548E+04  0.50400001928E-02 0. -1.
       -1   -1    0    0    0  501  0.00000000000E+00  0.00000000000E+00 -0.72452682159E+03  0.72452682160E+03  0.50400001928E-02 0.  1.
    10030    2    1    2    0    0  0.00000000000E+00  0.00000000000E+00  0.93824753322E+03  0.23873011764E+04  0.21951989598E+04 0.  0.
        3    1    3    3  502    0 -0.81555524522E+03  0.57388679946E+03  0.96777794011E+03  0.13896296514E+04  0.10100000352E+00 0. -1.
       -3    1    3    3    0  502  0.81555524522E+03 -0.57388679946E+03 -0.29530406891E+02  0.99767152497E+03  0.10100000352E+00 0.  1.
</event>
<event>
 5   0  0.2910318E-05  0.2183380E+04  0.7818609E-02  0.8525378E-01
       -1   -1    0    0    0  501  0.00000000000E+00  0.00000000000E+00  0.59491815287E+03  0.59491815289E+03  0.50400001928E-02 0. -1.
        1   -1    0    0  501    0  0.00000000000E+00  0.00000000000E+00 -0.20032783909E+04  0.20032783909E+04  0.50400001928E-02 0.  1.
    10030    2    1    2    0    0  0.00000000000E+00  0.00000000000E+00 -0.14083602380E+04  0.25981965438E+04  0.21833796555E+04 0.  0.
        5    1    3    3  502    0 -0.55663627314E+03 -0.23824469935E+03  0.37678543431E+03  0.71315764797E+03  0.46999998093E+01 0. -1.
       -5    1    3    3    0  502  0.55663627314E+03  0.23824469935E+03 -0.17851456723E+04  0.18850388958E+04  0.46999998093E+01 0.  1.
</event>
<event>
 5   0  0.6628798E-05  0.2214466E+04  0.7818609E-02  0.8512431E-01
        2   -1    0    0  501    0  0.00000000000E+00  0.00000000000E+00  0.17623020160E+04  0.17623020160E+04  0.25500000920E-02 0.  1.
       -2   -1    0    0    0  501  0.00000000000E+00  0.00000000000E+00 -0.69566110122E+03  0.69566110122E+03  0.25500000920E-02 0. -1.
    10030    2    1    2    0    0  0.00000000000E+00  0.00000000000E+00  0.10666409148E+04  0.24579631172E+04  0.22144660405E+04 0.  0.
        4    1    3    3  502    0  0.62254991905E+03 -0.62163136835E+03  0.12795300847E+04  0.15528016005E+04  0.12699999809E+01 0.  1.
       -4    1    3    3    0  502 -0.62254991905E+03  0.62163136835E+03 -0.21288916994E+03  0.90516151675E+03  0.12699999809E+01 0. -1.
</event>
<event>
 5   0  0.6293013E-05  0.2213590E+04  0.7818609E-02  0.8512793E-01
       -2   -1    0    0    0  501  0.00000000000E+00  0.00000000000E+00  0.11050967647E+04  0.11050967647E+04  0.25500000920E-02 0. -1.
        2   -1    0    0  501    0  0.00000000000E+00  0.00000000000E+00 -0.11084958923E+04  0.11084958923E+04  0.25500000920E-02 0.  1.
    10030    2    1    2    0    0  0.00000000000E+00  0.00000000000E+00 -0.33991276387E+01  0.22135926569E+04  0.22135900471E+04 0.  0.
        1    1    3    3  502    0 -0.86300162831E+03 -0.60177887800E+03 -0.34533581649E+03  0.11073240062E+04  0.50400001928E-02 0. -1.
       -1    1    3    3    0  502  0.86300162831E+03  0.60177887800E+03  0.34193668886E+03  0.11062686508E+04  0.50400001928E-02 0.  1.
</event>
<event>
 5   0  0.6445740E-05  0.2202509E+04  0.7818609E-02  0.8517385E-01
        2   -1    0    0  501    0  0.00000000000E+00  0.00000000000E+00  0.95307744256E+03  0.95307744257E+03  0.25500000920E-02 0. -1.
       -2   -1    0    0    0  501  0.00000000000E+00  0.00000000000E+00 -0.12724690309E+04  0.12724690309E+04  0.25500000920E-02 0.  1.
    10030    2    1    2    0    0  0.00000000000E+00  0.00000000000E+00 -0.31939158830E+03  0.22255464734E+04  0.22025090508E+04 0.  0.
        5    1    3    3  502    0 -0.72473622017E+03 -0.78476471999E+03  0.11076252625E+03  0.10739593483E+04  0.46999998093E+01 0. -1.
       -5    1    3    3    0  502  0.72473622017E+03  0.78476471999E+03 -0.43015411455E+03  0.11515871252E+04  0.46999998093E+01 0.  1.
</event>
<event>
 5   0  0.6628798E-05  0.2185270E+04  0.7818609E-02  0.8524584E-01
        2   -1    0    0  501    0  0.00000000000E+00  0.00000000000E+00  0.94374326670E+03  0.94374326670E+03  0.25500000920E-02 0.  1.
       -2   -1    0    0    0  501  0.00000000000E+00  0.00000000000E+00 -0.12650174646E+04  0.12650174646E+04  0.25500000920E-02 0. -1.
    10030    2    1    2    0    0  0.00000000000E+00  0.00000000000E+00 -0.32127419787E+03  0.22087607313E+04  0.21852704313E+04 0.  0.
        4    1    3    3  502    0 -0.99543043969E+03 -0.44760732946E+03 -0.21233393979E+03  0.11118999040E+04  0.12699999809E+01 0. -1.
       -4    1    3    3    0  502  0.99543043969E+03  0.44760732946E+03 -0.10894025808E+03  0.10968608273E+04  0.12699999809E+01 0.  1.
</event>
<event>
 5   0  0.6414768E-05  0.2194218E+04  0.7818609E-02  0.8520838E-01
        2   -1    0    0  501    0  0.00000000000E+00  0.00000000000E+00  0.13709352288E+04  0.13709352288E+04  0.25500000920E-02 0. -1.
       -2   -1    0    0    0  501  0.00000000000E+00  0.00000000000E+00 -0.87797633391E+03  0.87797633391E+03  0.25500000920E-02 0.  1.
    10030    2    1    2    0    0  0.00000000000E+00  0.00000000000E+00  0.49295889492E+03  0.22489115627E+04  0.21942184816E+04 0.  0.
        2    1    3    3  502    0  0.99945759761E+03  0.35495897396E+03  0.53407544180E+03  0.11874965011E+04  0.25500000920E-02 0. -1.
       -2    1    3    3    0  502 -0.99945759761E+03 -0.35495897396E+03 -0.41116546886E+02  0.10614150616E+04  0.25500000920E-02 0.  1.
</event>
<event>
 5   0  0.6445740E-05  0.2147950E+04  0.7818609E-02  0.8540410E-01
       -2   -1    0    0    0  501  0.00000000000E+00  0.00000000000E+00  0.82748565765E+03  0.82748565766E+03  0.25500000920E-02 0. -1.
        2   -1    0    0  501    0  0.00000000000E+00  0.00000000000E+00 -0.13938884249E+04  0.13938884249E+04  0.25500000920E-02 0.  1.
    10030    2    1    2    0    0  0.00000000000E+00  0.00000000000E+00 -0.56640276721E+03  0.22213740825E+04  0.21479503532E+04 0.  0.
        5    1    3    3  502    0  0.30931742016E+02  0.41886838403E+03  0.73901587344E+03  0.85004355594E+03  0.46999998093E+01 0. -1.
       -5    1    3    3    0  502 -0.30931742016E+02 -0.41886838403E+03 -0.13054186406E+04  0.13713305266E+04  0.46999998093E+01 0.  1.
</event>
<event>
 5   0  0.6445740E-05  0.2192362E+04  0.7818609E-02  0.8521614E-01
       -2   -1    0    0    0  501  0.00000000000E+00  0.00000000000E+00  0.11500267130E+04  0.11500267130E+04  0.25500000920E-02 0.  1.
        2   -1    0    0  501    0  0.00000000000E+00  0.00000000000E+00 -0.10448562027E+04  0.10448562027E+04  0.25500000920E-02 0. -1.
    10030    2    1    2    0    0  0.00000000000E+00  0.00000000000E+00  0.10517051033E+03  0.21948829157E+04  0.21923617807E+04 0.  0.
        5    1    3    3  502    0 -0.26044502408E+03  0.31151011066E+03  0.10719507665E+04  0.11462856082E+04  0.46999998093E+01 0.  1.
       -5    1    3    3    0  502  0.26044502408E+03 -0.31151011066E+03 -0.96678025620E+03  0.10485973075E+04  0.46999998093E+01 0. -1.
</event>
<event>
 5   0  0.2929471E-05  0.2202647E+04  0.7818609E-02  0.8517327E-01
        1   -1    0    0  501    0  0.00000000000E+00  0.00000000000E+00  0.20930970848E+04  0.20930970848E+04  0.50400001928E-02 0. -1.
       -1   -1    0    0    0  501  0.00000000000E+00  0.00000000000E+00 -0.57948242447E+03  0.57948242449E+03  0.50400001928E-02 0.  1.
    10030    2    1    2    0    0  0.00000000000E+00  0.00000000000E+00  0.15136146603E+04  0.26725795093E+04  0.22026465657E+04 0.  0.
        2    1    3    3  502    0 -0.26438303263E+03  0.11339432687E+03 -0.53308979700E+03  0.60575687613E+03  0.25500000920E-02 0.  1.
       -2    1    3    3    0  502  0.26438303263E+03 -0.11339432687E+03  0.20467044573E+04  0.20668226332E+04  0.25500000920E-02 0. -1.
</event>
<event>
 5   0  0.2929471E-05  0.2169683E+04  0.7818609E-02  0.8531154E-01
        1   -1    0    0  501    0  0.00000000000E+00  0.00000000000E+00  0.10312115231E+04  0.10312115231E+04  0.50400001928E-02 0. -1.
       -1   -1    0    0    0  501  0.00000000000E+00  0.00000000000E+00 -0.11412604478E+04  0.11412604478E+04  0.50400001928E-02 0.  1.
    10030    2    1    2    0    0  0.00000000000E+00  0.00000000000E+00 -0.11004892465E+03  0.21724719709E+04  0.21696828567E+04 0.  0.
        2    1    3    3  502    0  0.43196499440E+03 -0.88964352888E+03  0.39144284460E+03  0.10636196996E+04  0.25500000920E-02 0. -1.
       -2    1    3    3    0  502 -0.43196499440E+03  0.88964352888E+03 -0.50149176925E+03  0.11088522713E+04  0.25500000920E-02 0.  1.
</event>
<event>
 5   0  0.2929471E-05  0.2097857E+04  0.7818609E-02  0.8562188E-01
        1   -1    0    0  501    0  0.00000000000E+00  0.00000000000E+00  0.16331141757E+04  0.16331141757E+04  0.50400001928E-02 0. -1.
       -1   -1    0    0    0  501  0.00000000000E+00  0.00000000000E+00 -0.67371368627E+03  0.67371368629E+03  0.50400001928E-02 0.  1.
    10030    2    1    2    0    0  0.00000000000E+00  0.00000000000E+00  0.95940048942E+03  0.23068278620E+04  0.20978573559E+04 0.  0.
        2    1    3    3  502    0 -0.67934248464E+02 -0.67641290387E+03  0.13580839075E+04  0.15187301862E+04  0.25500000920E-02 0. -1.
       -2    1    3    3    0  502  0.67934248464E+02  0.67641290387E+03 -0.39868341813E+03  0.78809767576E+03  0.25500000920E-02 0.  1.
</event>
<event>
 5   0  0.2910318E-05  0.2148989E+04  0.7818609E-02  0.8539965E-01
        1   -1    0    0  501    0  0.00000000000E+00  0.00000000000E+00  0.17086323017E+04  0.17086323017E+04  0.50400001928E-02 0.  1.
       -1   -1    0    0    0  501  0.00000000000E+00  0.00000000000E+00 -0.67570917175E+03  0.67570917177E+03  0.50400001928E-02 0. -1.
    10030    2    1    2    0    0  0.00000000000E+00  0.00000000000E+00  0.10329231299E+04  0.23843414735E+04  0.21489890809E+04 0.  0.
        5    1    3    3  502    0  0.52888521191E+03  0.89605247444E+03  0.21898079984E+03  0.10632987751E+04  0.46999998093E+01 0. -1.
       -5    1    3    3    0  502 -0.52888521191E+03 -0.89605247444E+03  0.81394233010E+03  0.13210426984E+04  0.46999998093E+01 0.  1.
</event>
<event>
 5   0  0.6306919E-05  0.2196366E+04  0.7818609E-02  0.8519942E-01
       -2   -1    0    0    0  501  0.00000000000E+00  0.00000000000E+00  0.12056765585E+04  0.12056765585E+04  0.25500000920E-02 0.  1.
        2   -1    0    0  501    0  0.00000000000E+00  0.00000000000E+00 -0.10002731134E+04  0.10002731134E+04  0.25500000920E-02 0. -1.
    10030    2    1    2    0    0  0.00000000000E+00  0.00000000000E+00  0.20540344513E+03  0.22059496718E+04  0.21963659484E+04 0.  0.
        3    1    3    3  502    0  0.47926675550E+03  0.64088162592E+03  0.85803375318E+03  0.11733063595E+04  0.10100000352E+00 0.  1.
       -3    1    3    3    0  502 -0.47926675550E+03 -0.64088162592E+03 -0.65263030806E+03  0.10326433124E+04  0.10100000352E+00 0. -1.
</event>
<event>
 5   0  0.2908031E-05  0.2202421E+04  0.7818609E-02  0.8517421E-01
       -1   -1    0    0    0  501  0.00000000000E+00  0.00000000000E+00  0.77521510362E+03  0.77521510364E+03  0.50400001928E-02 0.  1.
        1   -1    0    0  501    0  0.00000000000E+00  0.00000000000E+00 -0.15642939378E+04  0.15642939378E+04  0.50400001928E-02 0. -1.
    10030    2    1    2    0    0  0.00000000000E+00  0.00000000000E+00 -0.78907883414E+03  0.23395090414E+04  0.22024207473E+04 0.  0.
        1    1    3    3  502    0  0.66282507010E+03 -0.64731542337E+03  0.23775029644E+03  0.95649335302E+03  0.50400001928E-02 0.  1.
       -1    1    3    3    0  502 -0.66282507010E+03  0.64731542337E+03 -0.10268291306E+04  0.13830156884E+04  0.50400001928E-02 0. -1.
</event>
<event>
 5   0  0.2929471E-05  0.2104318E+04  0.7818609E-02  0.8559344E-01
       -1   -1    0    0    0  501  0.00000000000E+00  0.00000000000E+00  0.70866447954E+03  0.70866447955E+03  0.50400001928E-02 0. -1.
        1   -1    0    0  501    0  0.00000000000E+00  0.00000000000E+00 -0.15621476649E+04  0.15621476649E+04  0.50400001928E-02 0.  1.
    10030    2    1    2    0    0  0.00000000000E+00  0.00000000000E+00 -0.85348318536E+03  0.22708121445E+04  0.21043180006E+04 0.  0.
        2    1    3    3  502    0  0.66348112610E+03 -0.61920438863E+03 -0.10012322927E+04  0.13513280074E+04  0.25500000920E-02 0.  1.
       -2    1    3    3    0  502 -0.66348112610E+03  0.61920438863E+03  0.14774910735E+03  0.91948413707E+03  0.25500000920E-02 0. -1.
</event>
<event>
 5   0  0.2910318E-05  0.2209401E+04  0.7818609E-02  0.8514525E-01
        1   -1    0    0  501    0  0.00000000000E+00  0.00000000000E+00  0.11570169269E+04  0.11570169269E+04  0.50400001928E-02 0. -1.
       -1   -1    0    0    0  501  0.00000000000E+00  0.00000000000E+00 -0.10547495677E+04  0.10547495677E+04  0.50400001928E-02 0.  1.
    10030    2    1    2    0    0  0.00000000000E+00  0.00000000000E+00  0.10226735927E+03  0.22117664946E+04  0.22094009174E+04 0.  0.
        5    1    3    3  502    0  0.58036357280E+03  0.76527824046E+03 -0.49522384128E+03  0.10806208423E+04  0.46999998093E+01 0. -1.
       -5    1    3    3    0  502 -0.58036357280E+03 -0.76527824046E+03  0.59749120055E+03  0.11311456523E+04  0.46999998093E+01 0.  1.
</event>
<event>
 5   0  0.6414768E-05  0.2237981E+04  0.7818609E-02  0.8502784E-01
        2   -1    0    0  501    0  0.00000000000E+00  0.00000000000E+00  0.19824296292E+04  0.19824296292E+04  0.25500000920E-02 0.  1.
       -2   -1    0    0    0  501  0.00000000000E+00  0.00000000000E+00 -0.63161888552E+03  0.63161888552E+03  0.25500000920E-02 0. -1.
    10030    2    1    2    0    0  0.00000000000E+00  0.00000000000E+00  0.13508107437E+04  0.26140485147E+04  0.22379812269E+04 0.  0.
        2    1    3    3  502    0 -0.10852357502E+04  0.14202809419E+02  0.35723190845E+03  0.11426079773E+04  0.25500000920E-02 0. -1.
       -2    1    3    3    0  502  0.10852357502E+04 -0.14202809419E+02  0.99357883526E+03  0.14714405374E+04  0.25500000920E-02 0.  1.
</event>
<event>
 5   0  0.6628798E-05  0.2149446E+04  0.7818609E-02  0.8539769E-01
       -2   -1    0    0    0  501  0.00000000000E+00  0.00000000000E+00  0.10091866825E+04  0.10091866825E+04  0.25500000920E-02 0.  1.
        2   -1    0    0  501    0  0.00000000000E+00  0.00000000000E+00 -0.11445154910E+04  0.11445154910E+04  0.25500000920E-02 0. -1.
    10030    2    1    2    0    0  0.00000000000E+00  0.00000000000E+00 -0.13532880852E+03  0.21537021735E+04  0.21494462463E+04 0.  0.
        4    1    3    3  502    0  0.76318615830E+03 -0.43662753177E+03  0.55156529391E+03  0.10379415205E+04  0.12699999809E+01 0.  1.
       -4    1    3    3    0  502 -0.76318615830E+03  0.43662753177E+03 -0.68689410244E+03  0.11157606529E+04  0.12699999809E+01 0. -1.
</event>
<event>
 5   0  0.2820239E-05  0.2199504E+04  0.7818609E-02  0.8518635E-01
        1   -1    0    0  501    0  0.00000000000E+00  0.00000000000E+00  0.88051127747E+03  0.88051127749E+03  0.50400001928E-02 0.  1.
       -1   -1    0    0    0  501  0.00000000000E+00  0.00000000000E+00 -0.13735815841E+04  0.13735815841E+04  0.50400001928E-02 0. -1.
    10030    2    1    2    0    0  0.00000000000E+00  0.00000000000E+00 -0.49307030663E+03  0.22540928616E+04  0.21995036489E+04 0.  0.
        3    1    3    3  502    0 -0.89566530871E+03  0.41998228329E+03 -0.73893113887E+03  0.12347553206E+04  0.10100000352E+00 0. -1.
       -3    1    3    3    0  502  0.89566530871E+03 -0.41998228329E+03  0.24586083224E+03  0.10193375410E+04  0.10100000352E+00 0.  1.
</event>
<event>
 5   0  0.6414768E-05  0.2209971E+04  0.7818609E-02  0.8514290E-01
        2   -1    0    0  501    0  0.00000000000E+00  0.00000000000E+00  0.17994940458E+04  0.17994940458E+04  0.25500000920E-02 0. -1.
       -2   -1    0    0    0  501  0.00000000000E+00  0.00000000000E+00 -0.67851988328E+03  0.67851988329E+03  0.25500000920E-02 0.  1.
    10030    2    1    2    0    0  0.00000000000E+00  0.00000000000E+00  0.11209741625E+04  0.24780139291E+04  0.22099705789E+04 0.  0.
        2    1    3    3  502    0 -0.58315592337E+03 -0.18846507526E+03 -0.47049005520E+03  0.77262591699E+03  0.25500000920E-02 0.  1.
       -2    1    3    3    0  502  0.58315592337E+03  0.18846507526E+03  0.15914642178E+04  0.17053880121E+04  0.25500000920E-02 0. -1.
</event>
<event>
 5   0  0.2910318E-05  0.2171981E+04  0.7818609E-02  0.8530182E-01
        1   -1    0    0  501    0  0.00000000000E+00  0.00000000000E+00  0.89201376185E+03  0.89201376187E+03  0.50400001928E-02 0. -1.
       -1   -1    0    0    0  501  0.00000000000E+00  0.00000000000E+00 -0.13221489669E+04  0.13221489669E+04  0.50400001928E-02 0.  1.
    10030    2    1    2    0    0  0.00000000000E+00  0.00000000000E+00 -0.43013520500E+03  0.22141627287E+04  0.21719807307E+04 0.  0.
        5    1    3    3  502    0  0.93488981559E+03 -0.43770119854E+03 -0.55888866046E+03  0.11738738992E+04  0.46999998093E+01 0.  1.
       -5    1    3    3    0  502 -0.93488981559E+03  0.43770119854E+03  0.12875345547E+03  0.10402888295E+04  0.46999998093E+01 0. -1.
</event>
<event>
 5   0  0.2753631E-05  0.2216017E+04  0.7818609E-02  0.8511791E-01
       -1   -1    0    0    0  501  0.00000000000E+00  0.00000000000E+00  0.13314967087E+04  0.13314967087E+04  0.50400001928E-02 0.  1.
        1   -1    0    0  501    0  0.00000000000E+00  0.00000000000E+00 -0.92203228652E+03  0.92203228653E+03  0.50400001928E-02 0. -1.
    10030    2    1    2    0    0  0.00000000000E+00  0.00000000000E+00  0.40946442214E+03  0.22535289952E+04  0.22160171072E+04 0.  0.
        4    1    3    3  502    0  0.90253383954E+03 -0.10625578552E+03 -0.43989380020E+03  0.10096364652E+04  0.12699999809E+01 0.  1.
       -4    1    3    3    0  502 -0.90253383954E+03  0.10625578552E+03  0.84935822234E+03  0.12438925300E+04  0.12699999809E+01 0. -1.
</event>
<event>
 5   0  0.2929471E-05  0.2197635E+04  0.7818609E-02  0.8519413E-01
       -1   -1    0    0    0  501  0.00000000000E+00  0.00000000000E+00  0.10532946735E+04  0.10532946736E+04  0.50400001928E-02 0. -1.
        1   -1    0    0  501    0  0.00000000000E+00  0.00000000000E+00 -0.11463077114E+04  0.11463077115E+04  0.50400001928E-02 0.  1.
    10030    2    1    2    0    0  0.00000000000E+00  0.00000000000E+00 -0.93013037905E+02  0.21996023850E+04  0.21976349167E+04 0.  0.
        2    1    3    3  502    0 -0.19901389947E+03  0.97570305806E+03  0.41844872750E+03  0.10801399572E+04  0.25500000920E-02 0. -1.
       -2    1    3    3    0  502  0.19901389947E+03 -0.97570305806E+03 -0.51146176540E+03  0.11194624278E+04  0.25500000920E-02 0.  1.
</event>
<event>
 5   0  0.2910318E-05  0.2188510E+04  0.7818609E-02  0.8523226E-01
        1   -1    0    0  501    0  0.00000000000E+00  0.00000000000E+00  0.15904556957E+04  0.15904556957E+04  0.50400001928E-02 0.  1.
       -1   -1    0    0    0  501  0.00000000000E+00  0.00000000000E+00 -0.75286247016E+03  0.75286247018E+03  0.50400001928E-02 0. -1.
    10030    2    1    2    0    0  0.00000000000E+00  0.00000000000E+00  0.83759322551E+03  0.23433181659E+04  0.21885103644E+04 0.  0.
        5    1    3    3  502    0  0.10218432473E+04 -0.22781955742E+03  0.75959870509E+03  0.12934750309E+04  0.46999998093E+01 0. -1.
       -5    1    3    3    0  502 -0.10218432473E+04  0.22781955742E+03  0.77994520421E+02  0.10498431350E+04  0.46999998093E+01 0.  1.
</event>
<event>
 5   0  0.2908031E-05  0.2187861E+04  0.7818609E-02  0.8523498E-01
       -1   -1    0    0    0  501  0.00000000000E+00  0.00000000000E+00  0.15927643336E+04  0.15927643336E+04  0.50400001928E-02 0. -1.
        1   -1    0    0  501    0  0.00000000000E+00  0.00000000000E+00 -0.75132497955E+03  0.75132497957E+03  0.50400001928E-02 0.  1.
    10030    2    1    2    0    0  0.00000000000E+00  0.00000000000E+00  0.84143935404E+03  0.23440893132E+04  0.21878607180E+04 0.  0.
        1    1    3    3  502    0 -0.61255818833E+03 -0.72181754323E+03  0.10079792843E+04  0.13828486314E+04  0.50400001928E-02 0. -1.
       -1    1    3    3    0  502  0.61255818833E+03  0.72181754323E+03 -0.16653993029E+03  0.96124068173E+03  0.50400001928E-02 0.  1.
</event>
<event>
 5   0  0.6306919E-05  0.2204023E+04  0.7818609E-02  0.8516755E-01
       -2   -1    0    0    0  501  0.00000000000E+00  0.00000000000E+00  0.66756140032E+03  0.66756140032E+03  0.25500000920E-02 0.  1.
        2   -1    0    0  501    0  0.00000000000E+00  0.00000000000E+00 -0.18192028403E+04  0.18192028403E+04  0.25500000920E-02 0. -1.
    10030    2    1    2    0    0  0.00000000000E+00  0.00000000000E+00 -0.11516414399E+04  0.24867642406E+04  0.22040232263E+04 0.  0.
        3    1    3    3  502    0  0.98315041580E+03 -0.45416318857E+03 -0.80589286903E+03  0.13499304680E+04  0.10100000352E+00 0. -1.
       -3    1    3    3    0  502 -0.98315041580E+03  0.45416318857E+03 -0.34574857090E+03  0.11368337726E+04  0.10100000352E+00 0.  1.
</event>
<event>
 5   0  0.6306919E-05  0.2200780E+04  0.7818609E-02  0.8518104E-01
        2   -1    0    0  501    0  0.00000000000E+00  0.00000000000E+00  0.15878400507E+04  0.15878400507E+04  0.25500000920E-02 0. -1.
       -2   -1    0    0    0  501  0.00000000000E+00  0.00000000000E+00 -0.76258190886E+03  0.76258190887E+03  0.25500000920E-02 0.  1.
    10030    2    1    2    0    0  0.00000000000E+00  0.00000000000E+00  0.82525814185E+03  0.23504219596E+04  0.22007799498E+04 0.  0.
        3    1    3    3  502    0 -0.29647068233E+00 -0.21056683751E+03 -0.74086465442E+03  0.77020706782E+03  0.10100000352E+00 0.  1.
       -3    1    3    3    0  502  0.29647068233E+00  0.21056683751E+03  0.15661227963E+04  0.15802148918E+04  0.10100000352E+00 0. -1.
</event>
<event>
 5   0  0.2910318E-05  0.2012235E+04  0.7818609E-02  0.8600922E-01
       -1   -1    0    0    0  501  0.00000000000E+00  0.00000000000E+00  0.39037848139E+03  0.39037848142E+03  0.50400001928E-02 0. -1.
        1   -1    0    0  501    0  0.00000000000E+00  0.00000000000E+00 -0.25930541854E+04  0.25930541854E+04  0.50400001928E-02 0.  1.
    10030    2    1    2    0    0  0.00000000000E+00  0.00000000000E+00 -0.22026757040E+04  0.29834326668E+04  0.20122351305E+04 0.  0.
        5    1    3    3  502    0  0.35628535857E+03 -0.64628071065E+03 -0.21152255057E+04  0.22402720914E+04  0.46999998093E+01 0. -1.
       -5    1    3    3    0  502 -0.35628535857E+03  0.64628071065E+03 -0.87450198350E+02  0.74316057544E+03  0.46999998093E+01 0.  1.
</event>
<event>
 5   0  0.2820239E-05  0.2228538E+04  0.7818609E-02  0.8506643E-01
       -1   -1    0    0    0  501  0.00000000000E+00  0.00000000000E+00  0.83314342436E+03  0.83314342438E+03  0.50400001928E-02 0. -1.
        1   -1    0    0  501    0  0.00000000000E+00  0.00000000000E+00 -0.14902545915E+04  0.14902545915E+04  0.50400001928E-02 0.  1.
    10030    2    1    2    0    0  0.00000000000E+00  0.00000000000E+00 -0.65711116715E+03  0.23233980159E+04  0.22285383673E+04 0.  0.
        3    1    3    3  502    0 -0.26691480941E+03  0.69152632018E+03 -0.11959200252E+04  0.14070099089E+04  0.10100000352E+00 0.  1.
       -3    1    3    3    0  502  0.26691480941E+03 -0.69152632018E+03  0.53880885800E+03  0.91638810700E+03  0.10100000352E+00 0. -1.
</event>
<event>
 5   0  0.2820239E-05  0.2192289E+04  0.7818609E-02  0.8521645E-01
       -1   -1    0    0    0  501  0.00000000000E+00  0.00000000000E+00  0.57043688834E+03  0.57043688836E+03  0.50400001928E-02 0.  1.
        1   -1    0    0  501    0  0.00000000000E+00  0.00000000000E+00 -0.21063370271E+04  0.21063370272E+04  0.50400001928E-02 0. -1.
    10030    2    1    2    0    0  0.00000000000E+00  0.00000000000E+00 -0.15359001388E+04  0.26767739155E+04  0.21922886120E+04 0.  0.
        3    1    3    3  502    0  0.42373433536E+03 -0.48797721679E+03 -0.18489686379E+04  0.19586621927E+04  0.10100000352E+00 0. -1.
       -3    1    3    3    0  502 -0.42373433536E+03  0.48797721679E+03  0.31306849910E+03  0.71811172279E+03  0.10100000352E+00 0.  1.
</event>
<event>
 5   0  0.6414768E-05  0.2174115E+04  0.7818609E-02  0.8529280E-01
       -2   -1    0    0    0  501  0.00000000000E+00  0.00000000000E+00  0.79473194856E+03  0.79473194856E+03  0.25500000920E-02 0. -1.
        2   -1    0    0  501    0  0.00000000000E+00  0.00000000000E+00 -0.14869095574E+04  0.14869095574E+04  0.25500000920E-02 0.  1.
    10030    2    1    2    0    0  0.00000000000E+00  0.00000000000E+00 -0.69217760879E+03  0.22816415059E+04  0.21741154798E+04 0.  0.
        2    1    3    3  502    0  0.87936484477E+03 -0.63795523934E+03 -0.30647109762E+03  0.11288019983E+04  0.25500000920E-02 0. -1.
       -2    1    3    3    0  502 -0.87936484477E+03  0.63795523934E+03 -0.38570651118E+03  0.11528395076E+04  0.25500000920E-02 0.  1.
</event>
<event>
 5   0  0.6414768E-05  0.2188235E+04  0.7818609E-02  0.8523341E-01
       -2   -1    0    0    0  501  0.00000000000E+00  0.00000000000E+00  0.69857860140E+03  0.69857860141E+03  0.25500000920E-02 0.  1.
        2   -1    0    0  501    0  0.00000000000E+00  0.00000000000E+00 -0.17136124415E+04  0.17136124415E+04  0.25500000920E-02 0. -1.
    10030    2    1    2    0    0  0.00000000000E+00  0.00000000000E+00 -0.10150338401E+04  0.24121910429E+04  0.21882348893E+04 0.  0.
        2    1    3    3  502    0  0.37946478624E+03 -0.47036438128E+03  0.49789041613E+03  0.78302684607E+03  0.25500000920E-02 0.  1.
       -2    1    3    3    0  502 -0.37946478624E+03  0.47036438128E+03 -0.15129242562E+04  0.16291641968E+04  0.25500000920E-02 0. -1.
</event>
<event>
 5   0  0.2753631E-05  0.2204769E+04  0.7818609E-02  0.8516446E-01
        1   -1    0    0  501    0  0.00000000000E+00  0.00000000000E+00  0.15068653340E+04  0.15068653340E+04  0.50400001928E-02 0.  1.
       -1   -1    0    0    0  501  0.00000000000E+00  0.00000000000E+00 -0.80647686099E+03  0.80647686101E+03  0.50400001928E-02 0. -1.
    10030    2    1    2    0    0  0.00000000000E+00  0.00000000000E+00  0.70038847297E+03  0.23133421950E+04  0.22047693979E+04 0.  0.
        4    1    3    3  502    0 -0.46087402677E+02 -0.95791038876E+02 -0.80108590074E+03  0.80810903044E+03  0.12699999809E+01 0. -1.
       -4    1    3    3    0  502  0.46087402677E+02  0.95791038876E+02  0.15014743737E+04  0.15052331645E+04  0.12699999809E+01 0.  1.
</event>
<event>
 5   0  0.6293013E-05  0.2183693E+04  0.7818609E-02  0.8525246E-01
       -2   -1    0    0    0  501  0.00000000000E+00  0.00000000000E+00  0.46915735008E+03  0.46915735009E+03  0.25500000920E-02 0. -1.
        2   -1    0    0  501    0  0.00000000000E+00  0.00000000000E+00 -0.25410002562E+04  0.25410002562E+04  0.25500000920E-02 0.  1.
    10030    2    1    2    0    0  0.00000000000E+00  0.00000000000E+00 -0.20718429061E+04  0.30101576063E+04  0.21836931531E+04 0.  0.
        1    1    3    3  502    0  0.58198222994E+03 -0.59407653723E+03 -0.20111335930E+04  0.21763015823E+04  0.50400001928E-02 0.  1.
       -1    1    3    3    0  502 -0.58198222994E+03  0.59407653723E+03 -0.60709313111E+02  0.83385602401E+03  0.50400001928E-02 0. -1.
</event>
<event>
 5   0  0.2245375E-05  0.2229871E+04  0.7818609E-02  0.8506097E-01
       -3   -1    0    0    0  501  0.00000000000E+00  0.00000000000E+00  0.82725888809E+03  0.82725889425E+03  0.10100000352E+00 0.  1.
        3   -1    0    0  501    0  0.00000000000E+00  0.00000000000E+00 -0.15026507874E+04  0.15026507908E+04  0.10100000352E+00 0. -1.
    10030    2    1    2    0    0  0.00000000000E+00  0.00000000000E+00 -0.67539189936E+03  0.23299096851E+04  0.22298710552E+04 0.  0.
        5    1    3    3  502    0  0.72057978848E+03  0.83157574280E+03 -0.14989453109E+03  0.11105151543E+04  0.46999998093E+01 0. -1.
       -5    1    3    3    0  502 -0.72057978848E+03 -0.83157574280E+03 -0.52549736827E+03  0.12193945308E+04  0.46999998093E+01 0.  1.
</event>
<event>
 5   0  0.6445740E-05  0.2229715E+04  0.7818609E-02  0.8506161E-01
       -2   -1    0    0    0  501  0.00000000000E+00  0.00000000000E+00  0.38727717628E+03  0.38727717629E+03  0.25500000920E-02 0.  1.
        2   -1    0    0  501    0  0.00000000000E+00  0.00000000000E+00 -0.32093470970E+04  0.32093470970E+04  0.25500000920E-02 0. -1.
    10030    2    1    2    0    0  0.00000000000E+00  0.00000000000E+00 -0.28220699208E+04  0.35966242733E+04  0.22297146736E+04 0.  0.
        5    1    3    3  502    0 -0.34647561585E+03 -0.20087015925E+03  0.26721965254E+03  0.48147960077E+03  0.46999998093E+01 0.  1.
       -5    1    3    3    0  502  0.34647561585E+03  0.20087015925E+03 -0.30892895733E+04  0.31151446725E+04  0.46999998093E+01 0. -1.
</event>
<event>
 5   0  0.6445740E-05  0.2196052E+04  0.7818609E-02  0.8520073E-01
       -2   -1    0    0    0  501  0.00000000000E+00  0.00000000000E+00  0.91661896103E+03  0.91661896103E+03  0.25500000920E-02 0.  1.
        2   -1    0    0  501    0  0.00000000000E+00  0.00000000000E+00 -0.13153353062E+04  0.13153353062E+04  0.25500000920E-02 0. -1.
    10030    2    1    2    0    0  0.00000000000E+00  0.00000000000E+00 -0.39871634513E+03  0.22319542672E+04  0.21960521685E+04 0.  0.
        5    1    3    3  502    0  0.48440038652E+03 -0.97767850351E+03 -0.32441530327E+03  0.11383173414E+04  0.46999998093E+01 0.  1.
       -5    1    3    3    0  502 -0.48440038652E+03  0.97767850351E+03 -0.74301041862E+02  0.10936369258E+04  0.46999998093E+01 0. -1.
</event>
<event>
 5   0  0.6414768E-05  0.2223393E+04  0.7818609E-02  0.8508754E-01
        2   -1    0    0  501    0  0.00000000000E+00  0.00000000000E+00  0.79229804853E+03  0.79229804853E+03  0.25500000920E-02 0.  1.
       -2   -1    0    0    0  501  0.00000000000E+00  0.00000000000E+00 -0.15598535034E+04  0.15598535034E+04  0.25500000920E-02 0. -1.
    10030    2    1    2    0    0  0.00000000000E+00  0.00000000000E+00 -0.76755545488E+03  0.23521515519E+04  0.22233928009E+04 0.  0.
        2    1    3    3  502    0  0.28982614653E+03 -0.10698727013E+04 -0.47380647266E+03  0.12054540082E+04  0.25500000920E-02 0.  1.
       -2    1    3    3    0  502 -0.28982614653E+03  0.10698727013E+04 -0.29374898222E+03  0.11466975438E+04  0.25500000920E-02 0. -1.
</event>
<event>
 5   0  0.2910318E-05  0.2211079E+04  0.7818609E-02  0.8513831E-01
        1   -1    0    0  501    0  0.00000000000E+00  0.00000000000E+00  0.98581982646E+03  0.98581982647E+03  0.50400001928E-02 0.  1.
       -1   -1    0    0    0  501  0.00000000000E+00  0.00000000000E+00 -0.12397977225E+04  0.12397977225E+04  0.50400001928E-02 0. -1.
    10030    2    1    2    0    0  0.00000000000E+00  0.00000000000E+00 -0.25397789603E+03  0.22256175490E+04  0.22110786288E+04 0.  0.
        5    1    3    3  502    0  0.69236768463E+03  0.35317006574E+03  0.66436952297E+03  0.10225023516E+04  0.46999998093E+01 0.  1.
       -5    1    3    3    0  502 -0.69236768463E+03 -0.35317006574E+03 -0.91834741900E+03  0.12031151973E+04  0.46999998093E+01 0. -1.
</event>
<event>
 5   0  0.6306919E-05  0.2199923E+04  0.7818609E-02  0.8518460E-01
        2   -1    0    0  501    0  0.00000000000E+00  0.00000000000E+00  0.94999832863E+03  0.94999832863E+03  0.25500000920E-02 0.  1.
       -2   -1    0    0    0  501  0.00000000000E+00  0.00000000000E+00 -0.12735967938E+04  0.12735967938E+04  0.25500000920E-02 0. -1.
    10030    2    1    2    0    0  0.00000000000E+00  0.00000000000E+00 -0.32359846514E+03  0.22235951224E+04  0.21999225672E+04 0.  0.
        3    1    3    3  502    0  0.21994449619E+03  0.66808610525E+03 -0.10165945382E+04  0.12361954096E+04  0.10100000352E+00 0. -1.
       -3    1    3    3    0  502 -0.21994449619E+03 -0.66808610525E+03  0.69299607304E+03  0.98739971282E+03  0.10100000352E+00 0.  1.
</event>
<event>
 5   0  0.2820239E-05  0.2274259E+04  0.7818609E-02  0.8488140E-01
        1   -1    0    0  501    0  0.00000000000E+00  0.00000000000E+00  0.17407140429E+04  0.17407140429E+04  0.50400001928E-02 0. -1.
       -1   -1    0    0    0  501  0.00000000000E+00  0.00000000000E+00 -0.74283506117E+03  0.74283506119E+03  0.50400001928E-02 0.  1.
    10030    2    1    2    0    0  0.00000000000E+00  0.00000000000E+00  0.99787898168E+03  0.24835491041E+04  0.22742589321E+04 0.  0.
        3    1    3    3  502    0 -0.56855606919E+03 -0.27712496436E+03 -0.53301560412E+03  0.82713958563E+03  0.10100000352E+00 0.  1.
       -3    1    3    3    0  502  0.56855606919E+03  0.27712496436E+03  0.15308945858E+04  0.16564095184E+04  0.10100000352E+00 0. -1.
</event>
<event>
 5   0  0.6628798E-05  0.2209839E+04  0.7818609E-02  0.8514344E-01
       -2   -1    0    0    0  501  0.00000000000E+00  0.00000000000E+00  0.58494134891E+03  0.58494134891E+03  0.25500000920E-02 0.  1.
        2   -1    0    0  501    0  0.00000000000E+00  0.00000000000E+00 -0.20871270668E+04  0.20871270668E+04  0.25500000920E-02 0. -1.
    10030    2    1    2    0    0  0.00000000000E+00  0.00000000000E+00 -0.15021857179E+04  0.26720684157E+04  0.22098388374E+04 0.  0.
        4    1    3    3  502    0  0.56173880519E+03 -0.69251458806E+03 -0.15400404719E+04  0.17795654548E+04  0.12699999809E+01 0. -1.
       -4    1    3    3    0  502 -0.56173880519E+03  0.69251458806E+03  0.37854754015E+02  0.89250296091E+03  0.12699999809E+01 0.  1.
</event>
<event>
 5   0  0.2929471E-05  0.2199907E+04  0.7818609E-02  0.8518467E-01
       -1   -1    0    0    0  501  0.00000000000E+00  0.00000000000E+00  0.90402763576E+03  0.90402763577E+03  0.50400001928E-02 0.  1.
        1   -1    0    0  501    0  0.00000000000E+00  0.00000000000E+00 -0.13383409290E+04  0.13383409290E+04  0.50400001928E-02 0. -1.
    10030    2    1    2    0    0  0.00000000000E+00  0.00000000000E+00 -0.43431329326E+03  0.22423685648E+04  0.21999065307E+04 0.  0.
        2    1    3    3  502    0  0.85864605661E+03  0.85068290571E+02 -0.91251733511E+03  0.12558652601E+04  0.25500000920E-02 0. -1.
       -2    1    3    3    0  502 -0.85864605661E+03 -0.85068290571E+02  0.47820404184E+03  0.98650330473E+03  0.25500000920E-02 0.  1.
</event>
<event>
 5   0  0.2908031E-05  0.1925983E+04  0.7818609E-02  0.8642030E-01
        1   -1    0    0  501    0  0.00000000000E+00  0.00000000000E+00  0.12381554800E+04  0.12381554800E+04  0.50400001928E-02 0.  1.
       -1   -1    0    0    0  501  0.00000000000E+00  0.00000000000E+00 -0.74897895610E+03  0.74897895612E+03  0.50400001928E-02 0. -1.
    10030    2    1    2    0    0  0.00000000000E+00  0.00000000000E+00  0.48917652390E+03  0.19871344361E+04  0.19259827610E+04 0.  0.
        1    1    3    3  502    0 -0.30199380814E+03  0.86066147458E+03  0.56328735359E+03  0.10720219572E+04  0.50400001928E-02 0. -1.
       -1    1    3    3    0  502  0.30199380814E+03 -0.86066147458E+03 -0.74110829686E+02  0.91511247893E+03  0.50400001928E-02 0.  1.
</event>
<event>
 5   0  0.6445740E-05  0.2205247E+04  0.7818609E-02  0.8516247E-01
       -2   -1    0    0    0  501  0.00000000000E+00  0.00000000000E+00  0.16296673954E+04  0.16296673954E+04  0.25500000920E-02 0.  1.
        2   -1    0    0  501    0  0.00000000000E+00  0.00000000000E+00 -0.74602869114E+03  0.74602869114E+03  0.25500000920E-02 0. -1.
    10030    2    1    2    0    0  0.00000000000E+00  0.00000000000E+00  0.88363870430E+03  0.23756960866E+04  0.22052470465E+04 0.  0.
        5    1    3    3  502    0 -0.13435157096E+03  0.43926788459E+03  0.15216673426E+04  0.15894968419E+04  0.46999998093E+01 0.  1.
       -5    1    3    3    0  502  0.13435157096E+03 -0.43926788459E+03 -0.63802863826E+03  0.78619924466E+03  0.46999998093E+01 0. -1.
</event>
<event>
 5   0  0.2910318E-05  0.2198132E+04  0.7818609E-02  0.8519206E-01
        1   -1    0    0  501    0  0.00000000000E+00  0.00000000000E+00  0.15449884978E+04  0.15449884978E+04  0.50400001928E-02 0.  1.
       -1   -1    0    0    0  501  0.00000000000E+00  0.00000000000E+00 -0.78184798599E+03  0.78184798601E+03  0.50400001928E-02 0. -1.
    10030    2    1    2    0    0  0.00000000000E+00  0.00000000000E+00  0.76314051184E+03  0.23268364838E+04  0.21981320665E+04 0.  0.
        5    1    3    3  502    0  0.89420493356E+03 -0.60362553845E+03  0.15963307513E+03  0.10906287464E+04  0.46999998093E+01 0.  1.
       -5    1    3    3    0  502 -0.89420493356E+03  0.60362553845E+03  0.60350743672E+03  0.12362077374E+04  0.46999998093E+01 0. -1.
</event>
<event>
 5   0  0.6306919E-05  0.2203475E+04  0.7818609E-02  0.8516983E-01
       -2   -1    0    0    0  501  0.00000000000E+00  0.00000000000E+00  0.94890369114E+03  0.94890369114E+03  0.25500000920E-02 0.  1.
        2   -1    0    0  501    0  0.00000000000E+00  0.00000000000E+00 -0.12791873934E+04  0.12791873934E+04  0.25500000920E-02 0. -1.
    10030    2    1    2    0    0  0.00000000000E+00  0.00000000000E+00 -0.33028370226E+03  0.22280910845E+04  0.22034751092E+04 0.  0.
        3    1    3    3  502    0 -0.78917987566E+03  0.37425007959E+03 -0.84417763589E+03  0.12147032104E+04  0.10100000352E+00 0. -1.
       -3    1    3    3    0  502  0.78917987566E+03 -0.37425007959E+03  0.51389393364E+03  0.10133878741E+04  0.10100000352E+00 0.  1.
</event>
<event>
 5   0  0.6293013E-05  0.1846183E+04  0.7818609E-02  0.8682118E-01
        2   -1    0    0  501    0  0.00000000000E+00  0.00000000000E+00  0.22728662603E+04  0.22728662603E+04  0.25500000920E-02 0.  1.
       -2   -1    0    0    0  501  0.00000000000E+00  0.00000000000E+00 -0.37490032440E+03  0.37490032440E+03  0.25500000920E-02 0. -1.
    10030    2    1    2    0    0  0.00000000000E+00  0.00000000000E+00  0.18979659359E+04  0.26477665847E+04  0.18461834127E+04 0.  0.
        1    1    3    3  502    0 -0.87280364999E+03  0.20824051437E+03  0.12597345045E+04  0.15466354920E+04  0.50400001928E-02 0.  1.
       -1    1    3    3    0  502  0.87280364999E+03 -0.20824051437E+03  0.63823143140E+03  0.11011310927E+04  0.50400001928E-02 0. -1.
</event>
<event>
 5   0  0.2929471E-05  0.2213812E+04  0.7818609E-02  0.8512701E-01
       -1   -1    0    0    0  501  0.00000000000E+00  0.00000000000E+00  0.10427872033E+04  0.10427872033E+04  0.50400001928E-02 0.  1.
        1   -1    0    0  501    0  0.00000000000E+00  0.00000000000E+00 -0.11749676680E+04  0.11749676680E+04  0.50400001928E-02 0. -1.
    10030    2    1    2    0    0  0.00000000000E+00  0.00000000000E+00 -0.13218046465E+03  0.22177548713E+04  0.22138123213E+04 0.  0.
        2    1    3    3  502    0  0.42686633959E+03 -0.59065900679E+03  0.76854916018E+03  0.10591320719E+04  0.25500000920E-02 0.  1.
       -2    1    3    3    0  502 -0.42686633959E+03  0.59065900679E+03 -0.90072962483E+03  0.11586227994E+04  0.25500000920E-02 0. -1.
</event>
<event>
 5   0  0.2929471E-05  0.2200992E+04  0.7818609E-02  0.8518015E-01
        1   -1    0    0  501    0  0.00000000000E+00  0.00000000000E+00  0.15491908604E+04  0.15491908604E+04  0.50400001928E-02 0.  1.
       -1   -1    0    0    0  501  0.00000000000E+00  0.00000000000E+00 -0.78175765045E+03  0.78175765046E+03  0.50400001928E-02 0. -1.
    10030    2    1    2    0    0  0.00000000000E+00  0.00000000000E+00  0.76743320991E+03  0.23309485108E+04  0.22009923281E+04 0.  0.
        2    1    3    3  502    0 -0.54834126594E+02  0.90488681556E+03 -0.27703277028E+03  0.94793147760E+03  0.25500000920E-02 0. -1.
       -2    1    3    3    0  502  0.54834126594E+02 -0.90488681556E+03  0.10444659802E+04  0.13830170332E+04  0.25500000920E-02 0.  1.
</event>
<event>
 5   0  0.6306919E-05  0.2237624E+04  0.7818609E-02  0.8502929E-01
       -2   -1    0    0    0  501  0.00000000000E+00  0.00000000000E+00  0.55902563078E+03  0.55902563079E+03  0.25500000920E-02 0.  1.
        2   -1    0    0  501    0  0.00000000000E+00  0.00000000000E+00 -0.22391468343E+04  0.22391468343E+04  0.25500000920E-02 0. -1.
    10030    2    1    2    0    0  0.00000000000E+00  0.00000000000E+00 -0.16801212035E+04  0.27981724651E+04  0.22376241610E+04 0.  0.
        3    1    3    3  502    0 -0.34588120112E+03  0.30416892447E+03 -0.21150833944E+04  0.21646547797E+04  0.10100000352E+00 0. -1.
       -3    1    3    3    0  502  0.34588120112E+03 -0.30416892447E+03  0.43496219091E+03  0.63351768533E+03  0.10100000352E+00 0.  1.
</event>
<event>
 5   0  0.6306919E-05  0.2201573E+04  0.7818609E-02  0.8517774E-01
       -2   -1    0    0    0  501  0.00000000000E+00  0.00000000000E+00  0.81565408468E+03  0.81565408469E+03  0.25500000920E-02 0.  1.
        2   -1    0    0  501    0  0.00000000000E+00  0.00000000000E+00 -0.14855936719E+04  0.14855936719E+04  0.25500000920E-02 0. -1.
    10030    2    1    2    0    0  0.00000000000E+00  0.00000000000E+00 -0.66993958726E+03  0.23012477566E+04  0.22015726622E+04 0.  0.
        3    1    3    3  502    0 -0.59635424099E+03  0.60118872851E+03  0.40019656381E+03  0.93660213961E+03  0.10100000352E+00 0.  1.
       -3    1    3    3    0  502  0.59635424099E+03 -0.60118872851E+03 -0.10701361511E+04  0.13646456170E+04  0.10100000352E+00 0. -1.
</event>
<event>
 5   0  0.2753631E-05  0.2217822E+04  0.7818609E-02  0.8511046E-01
        1   -1    0    0  501    0  0.00000000000E+00  0.00000000000E+00  0.16166317220E+04  0.16166317220E+04  0.50400001928E-02 0.  1.
       -1   -1    0    0    0  501  0.00000000000E+00  0.00000000000E+00 -0.76064570709E+03  0.76064570711E+03  0.50400001928E-02 0. -1.
    10030    2    1    2    0    0  0.00000000000E+00  0.00000000000E+00  0.85598601490E+03  0.23772774291E+04  0.22178223367E+04 0.  0.
        4    1    3    3  502    0 -0.20842154019E+03 -0.44613505758E+03 -0.63702531996E+03  0.80515768591E+03  0.12699999809E+01 0. -1.
       -4    1    3    3    0  502  0.20842154019E+03  0.44613505758E+03  0.14930113349E+04  0.15721197432E+04  0.12699999809E+01 0.  1.
</event>
<event>
 5   0  0.2753631E-05  0.2209452E+04  0.7818609E-02  0.8514504E-01
       -1   -1    0    0    0  501  0.00000000000E+00  0.00000000000E+00  0.11646027050E+04  0.11646027050E+04  0.50400001928E-02 0. -1.
        1   -1    0    0  501    0  0.00000000000E+00  0.00000000000E+00 -0.10479276673E+04  0.10479276674E+04  0.50400001928E-02 0.  1.
    10030    2    1    2    0    0  0.00000000000E+00  0.00000000000E+00  0.11667503770E+03  0.22125303724E+04  0.22094518742E+04 0.  0.
        4    1    3    3  502    0 -0.87772880585E+03 -0.52482977772E+03 -0.36005275326E+03  0.10842018955E+04  0.12699999809E+01 0. -1.
       -4    1    3    3    0  502  0.87772880585E+03  0.52482977772E+03  0.47672779096E+03  0.11283284769E+04  0.12699999809E+01 0.  1.
</event>
<event>
 5   0  0.2908031E-05  0.2185842E+04  0.7818609E-02  0.8524344E-01
       -1   -1    0    0    0  501  0.00000000000E+00  0.00000000000E+00  0.50833833964E+03  0.50833833966E+03  0.50400001928E-02 0. -1.
        1   -1    0    0  501    0  0.00000000000E+00  0.00000000000E+00 -0.23497658833E+04  0.23497658833E+04  0.50400001928E-02 0.  1.
    10030    2    1    2    0    0  0.00000000000E+00  0.00000000000E+00 -0.18414275437E+04  0.28581042230E+04  0.21858417945E+04 0.  0.
        1    1    3    3  502    0  0.10743629375E+04 -0.56491727249E+02 -0.66910219066E+03  0.12669430841E+04  0.50400001928E-02 0. -1.
       -1    1    3    3    0  502 -0.10743629375E+04  0.56491727249E+02 -0.11723253530E+04  0.15911611389E+04  0.50400001928E-02 0.  1.
</event>
<event>
 5   0  0.2908031E-05  0.2143907E+04  0.7818609E-02  0.8542145E-01
       -1   -1    0    0    0  501  0.00000000000E+00  0.00000000000E+00  0.11099038352E+04  0.11099038352E+04  0.50400001928E-02 0. -1.
        1   -1    0    0  501    0  0.00000000000E+00  0.00000000000E+00 -0.10353012061E+04  0.10353012061E+04  0.50400001928E-02 0.  1.
    10030    2    1    2    0    0  0.00000000000E+00  0.00000000000E+00  0.74602629018E+02  0.21452050413E+04  0.21439074413E+04 0.  0.
        1    1    3    3  502    0 -0.96099575217E+03  0.47453043550E+03  0.57132728258E+02  0.10732921869E+04  0.50400001928E-02 0.  1.
       -1    1    3    3    0  502  0.96099575217E+03 -0.47453043550E+03  0.17469900759E+02  0.10719128544E+04  0.50400001928E-02 0. -1.
</event>
<event>
 5   0  0.2929471E-05  0.2173051E+04  0.7818609E-02  0.8529729E-01
        1   -1    0    0  501    0  0.00000000000E+00  0.00000000000E+00  0.13169339707E+04  0.13169339707E+04  0.50400001928E-02 0.  1.
       -1   -1    0    0    0  501  0.00000000000E+00  0.00000000000E+00 -0.89642897231E+03  0.89642897232E+03  0.50400001928E-02 0. -1.
    10030    2    1    2    0    0  0.00000000000E+00  0.00000000000E+00  0.42050499841E+03  0.22133629430E+04  0.21730510956E+04 0.  0.
        2    1    3    3  502    0  0.24882254263E+03  0.94772951063E+03 -0.26796104452E+03  0.10158282357E+04  0.25500000920E-02 0. -1.
       -2    1    3    3    0  502 -0.24882254263E+03 -0.94772951063E+03  0.68846604294E+03  0.11975347074E+04  0.25500000920E-02 0.  1.
</event>
<event>
 5   0  0.2910318E-05  0.2325204E+04  0.7818609E-02  0.8468049E-01
        1   -1    0    0  501    0  0.00000000000E+00  0.00000000000E+00  0.14367631629E+04  0.14367631629E+04  0.50400001928E-02 0. -1.
       -1   -1    0    0    0  501  0.00000000000E+00  0.00000000000E+00 -0.94075557729E+03  0.94075557730E+03  0.50400001928E-02 0.  1.
    10030    2    1    2    0    0  0.00000000000E+00  0.00000000000E+00  0.49600758565E+03  0.23775187403E+04  0.23252036116E+04 0.  0.
        5    1    3    3  502    0 -0.26245280948E+02  0.74874941133E+03 -0.66098954889E+03  0.99912149886E+03  0.46999998093E+01 0.  1.
       -5    1    3    3    0  502  0.26245280948E+02 -0.74874941133E+03  0.11569971345E+04  0.13783972414E+04  0.46999998093E+01 0. -1.
</event>
<event>
 5   0  0.2929471E-05  0.2188971E+04  0.7818609E-02  0.8523033E-01
        1   -1    0    0  501    0  0.00000000000E+00  0.00000000000E+00  0.12032764755E+04  0.12032764755E+04  0.50400001928E-02 0.  1.
       -1   -1    0    0    0  501  0.00000000000E+00  0.00000000000E+00 -0.99553034877E+03  0.99553034878E+03  0.50400001928E-02 0. -1.
    10030    2    1    2    0    0  0.00000000000E+00  0.00000000000E+00  0.20774612672E+03  0.21988068243E+04  0.21889707621E+04 0.  0.
        2    1    3    3  502    0 -0.45995654636E+02  0.73923638448E+03  0.91329300999E+03  0.11758784608E+04  0.25500000920E-02 0.  1.
       -2    1    3    3    0  502  0.45995654636E+02 -0.73923638448E+03 -0.70554688327E+03  0.10229283635E+04  0.25500000920E-02 0. -1.
</event>
<event>
 5   0  0.6293013E-05  0.2225670E+04  0.7818609E-02  0.8507819E-01
       -2   -1    0    0    0  501  0.00000000000E+00  0.00000000000E+00  0.12699392104E+04  0.12699392104E+04  0.25500000920E-02 0.  1.
        2   -1    0    0  501    0  0.00000000000E+00  0.00000000000E+00 -0.97516645515E+03  0.97516645515E+03  0.25500000920E-02 0. -1.
    10030    2    1    2    0    0  0.00000000000E+00  0.00000000000E+00  0.29477275523E+03  0.22451056655E+04  0.22256703422E+04 0.  0.
        1    1    3    3  502    0  0.24841010677E+03 -0.10502113644E+04  0.42132849319E+03  0.11585202589E+04  0.50400001928E-02 0.  1.
       -1    1    3    3    0  502 -0.24841010677E+03  0.10502113644E+04 -0.12655573796E+03  0.10865854066E+04  0.50400001928E-02 0. -1.
</event>
<event>
 5   0  0.6293013E-05  0.2192356E+04  0.7818609E-02  0.8521617E-01
       -2   -1    0    0    0  501  0.00000000000E+00  0.00000000000E+00  0.95895029701E+03  0.95895029702E+03  0.25500000920E-02 0.  1.
        2   -1    0    0  501    0  0.00000000000E+00  0.00000000000E+00 -0.12530428061E+04  0.12530428061E+04  0.25500000920E-02 0. -1.
    10030    2    1    2    0    0  0.00000000000E+00  0.00000000000E+00 -0.29409250913E+03  0.22119931032E+04  0.21923556018E+04 0.  0.
        1    1    3    3  502    0  0.77243316705E+03  0.53301762257E+03 -0.71855173520E+03  0.11819802789E+04  0.50400001928E-02 0. -1.
       -1    1    3    3    0  502 -0.77243316705E+03 -0.53301762257E+03  0.42445922607E+03  0.10300128243E+04  0.50400001928E-02 0.  1.
</event>
<event>
 5   0  0.6414768E-05  0.2190942E+04  0.7818609E-02  0.8522208E-01
        2   -1    0    0  501    0  0.00000000000E+00  0.00000000000E+00  0.16389080339E+04  0.16389080339E+04  0.25500000920E-02 0. -1.
       -2   -1    0    0    0  501  0.00000000000E+00  0.00000000000E+00 -0.73222962777E+03  0.73222962778E+03  0.25500000920E-02 0.  1.
    10030    2    1    2    0    0  0.00000000000E+00  0.00000000000E+00  0.90667840609E+03  0.23711376616E+04  0.21909422809E+04 0.  0.
        2    1    3    3  502    0 -0.41260526374E+03 -0.33638465256E+03  0.14895063117E+04  0.15817796277E+04  0.25500000920E-02 0. -1.
       -2    1    3    3    0  502  0.41260526374E+03  0.33638465256E+03 -0.58282790560E+03  0.78935803391E+03  0.25500000920E-02 0.  1.
</event>
<event>
 5   0  0.2753631E-05  0.2159559E+04  0.7818609E-02  0.8535451E-01
       -1   -1    0    0    0  501  0.00000000000E+00  0.00000000000E+00  0.66172037199E+03  0.66172037201E+03  0.50400001928E-02 0. -1.
        1   -1    0    0  501    0  0.00000000000E+00  0.00000000000E+00 -0.17619588753E+04  0.17619588753E+04  0.50400001928E-02 0.  1.
    10030    2    1    2    0    0  0.00000000000E+00  0.00000000000E+00 -0.11002385033E+04  0.24236792473E+04  0.21595592906E+04 0.  0.
        4    1    3    3  502    0  0.28350399349E+03 -0.32774169093E+02  0.61862515673E+03  0.68128361049E+03  0.12699999809E+01 0. -1.
       -4    1    3    3    0  502 -0.28350399349E+03  0.32774169093E+02 -0.17188636601E+04  0.17423956368E+04  0.12699999809E+01 0.  1.
</event>
<event>
 5   0  0.2753631E-05  0.2193834E+04  0.7818609E-02  0.8520999E-01
       -1   -1    0    0    0  501  0.00000000000E+00  0.00000000000E+00  0.15087107514E+04  0.15087107514E+04  0.50400001928E-02 0. -1.
        1   -1    0    0  501    0  0.00000000000E+00  0.00000000000E+00 -0.79752003672E+03  0.79752003674E+03  0.50400001928E-02 0.  1.
    10030    2    1    2    0    0  0.00000000000E+00  0.00000000000E+00  0.71119071471E+03  0.23062307882E+04  0.21938341359E+04 0.  0.
        4    1    3    3  502    0 -0.82221522100E+03 -0.72309893121E+03  0.42465349965E+03  0.11744114022E+04  0.12699999809E+01 0. -1.
       -4    1    3    3    0  502  0.82221522100E+03  0.72309893121E+03  0.28653721506E+03  0.11318193860E+04  0.12699999809E+01 0.  1.
</event>
<event>
 5   0  0.2908031E-05  0.2154577E+04  0.7818609E-02  0.8537575E-01
        1   -1    0    0  501    0  0.00000000000E+00  0.00000000000E+00  0.69797751470E+03  0.69797751471E+03  0.50400001928E-02 0. -1.
       -1   -1    0    0    0  501  0.00000000000E+00  0.00000000000E+00 -0.16627340414E+04  0.16627340414E+04  0.50400001928E-02 0.  1.
    10030    2    1    2    0    0  0.00000000000E+00  0.00000000000E+00 -0.96475652667E+03  0.23607115561E+04  0.21545774285E+04 0.  0.
        1    1    3    3  502    0  0.18849887035E+03  0.78065617725E+03 -0.12691254589E+04  0.15018772658E+04  0.50400001928E-02 0.  1.
       -1    1    3    3    0  502 -0.18849887035E+03 -0.78065617725E+03  0.30436893221E+03  0.85883429026E+03  0.50400001928E-02 0. -1.
</event>
<event>
 5   0  0.2929471E-05  0.2319364E+04  0.7818609E-02  0.8470325E-01
        1   -1    0    0  501    0  0.00000000000E+00  0.00000000000E+00  0.13914716135E+04  0.13914716135E+04  0.50400001928E-02 0. -1.
       -1   -1    0    0    0  501  0.00000000000E+00  0.00000000000E+00 -0.96650336384E+03  0.96650336386E+03  0.50400001928E-02 0.  1.
    10030    2    1    2    0    0  0.00000000000E+00  0.00000000000E+00  0.42496824965E+03  0.23579749774E+04  0.23193637017E+04 0.  0.
        2    1    3    3  502    0 -0.78904956274E+03  0.50085664264E+03 -0.48553547171E+03  0.10531862529E+04  0.25500000920E-02 0.  1.
       -2    1    3    3    0  502  0.78904956274E+03 -0.50085664264E+03  0.91050372136E+03  0.13047887245E+04  0.25500000920E-02 0. -1.
</event>
<event>
 5   0  0.2929471E-05  0.2216229E+04  0.7818609E-02  0.8511704E-01
       -1   -1    0    0    0  501  0.00000000000E+00  0.00000000000E+00  0.93366028493E+03  0.93366028495E+03  0.50400001928E-02 0.  1.
        1   -1    0    0  501    0  0.00000000000E+00  0.00000000000E+00 -0.13151649892E+04  0.13151649892E+04  0.50400001928E-02 0. -1.
    10030    2    1    2    0    0  0.00000000000E+00  0.00000000000E+00 -0.38150470425E+03  0.22488252741E+04  0.22162286151E+04 0.  0.
        2    1    3    3  502    0 -0.79856897122E+02  0.80309781374E+02  0.92777207836E+03  0.93465919693E+03  0.25500000920E-02 0.  1.
       -2    1    3    3    0  502  0.79856897122E+02 -0.80309781374E+02 -0.13092767826E+04  0.13141660772E+04  0.25500000920E-02 0. -1.
</event>
<event>
 5   0  0.6306919E-05  0.2041236E+04  0.7818609E-02  0.8587581E-01
        2   -1    0    0  501    0  0.00000000000E+00  0.00000000000E+00  0.12861767042E+04  0.12861767042E+04  0.25500000920E-02 0.  1.
       -2   -1    0    0    0  501  0.00000000000E+00  0.00000000000E+00 -0.80988956148E+03  0.80988956149E+03  0.25500000920E-02 0. -1.
    10030    2    1    2    0    0  0.00000000000E+00  0.00000000000E+00  0.47628714273E+03  0.20960662657E+04  0.20412359854E+04 0.  0.
        3    1    3    3  502    0 -0.19710209113E+03  0.83675987752E+03 -0.32676526051E+03  0.91966943661E+03  0.10100000352E+00 0. -1.
       -3    1    3    3    0  502  0.19710209113E+03 -0.83675987752E+03  0.80305240325E+03  0.11763968291E+04  0.10100000352E+00 0.  1.
</event>
<event>
 5   0  0.6293013E-05  0.2144272E+04  0.7818609E-02  0.8541988E-01
       -2   -1    0    0    0  501  0.00000000000E+00  0.00000000000E+00  0.12286309106E+04  0.12286309106E+04  0.25500000920E-02 0.  1.
        2   -1    0    0  501    0  0.00000000000E+00  0.00000000000E+00 -0.93557428033E+03  0.93557428033E+03  0.25500000920E-02 0. -1.
    10030    2    1    2    0    0  0.00000000000E+00  0.00000000000E+00  0.29305663025E+03  0.21642051909E+04  0.21442718857E+04 0.  0.
        1    1    3    3  502    0  0.36608260675E+03  0.80184086376E+03  0.76253820877E+03  0.11655169521E+04  0.50400001928E-02 0.  1.
       -1    1    3    3    0  502 -0.36608260675E+03 -0.80184086376E+03 -0.46948157852E+03  0.99868823882E+03  0.50400001928E-02 0. -1.
</event>
<event>
 5   0  0.6306919E-05  0.2194169E+04  0.7818609E-02  0.8520859E-01
       -2   -1    0    0    0  501  0.00000000000E+00  0.00000000000E+00  0.10619751101E+04  0.10619751101E+04  0.25500000920E-02 0. -1.
        2   -1    0    0  501    0  0.00000000000E+00  0.00000000000E+00 -0.11333549450E+04  0.11333549450E+04  0.25500000920E-02 0.  1.
    10030    2    1    2    0    0  0.00000000000E+00  0.00000000000E+00 -0.71379834881E+02  0.21953300551E+04  0.21941693120E+04 0.  0.
        3    1    3    3  502    0  0.22899460038E+03 -0.82132216586E+03  0.65502744773E+03  0.10752067683E+04  0.10100000352E+00 0. -1.
       -3    1    3    3    0  502 -0.22899460038E+03  0.82132216586E+03 -0.72640728261E+03  0.11201232868E+04  0.10100000352E+00 0.  1.
</event>
<event>
 5   0  0.2908031E-05  0.2211570E+04  0.7818609E-02  0.8513628E-01
       -1   -1    0    0    0  501  0.00000000000E+00  0.00000000000E+00  0.11666686232E+04  0.11666686232E+04  0.50400001928E-02 0.  1.
        1   -1    0    0  501    0  0.00000000000E+00  0.00000000000E+00 -0.10480784370E+04  0.10480784370E+04  0.50400001928E-02 0. -1.
    10030    2    1    2    0    0  0.00000000000E+00  0.00000000000E+00  0.11859018627E+03  0.22147470602E+04  0.22115697838E+04 0.  0.
        1    1    3    3  502    0 -0.47164029965E+03 -0.52992098603E+02 -0.94089274509E+03  0.10538177701E+04  0.50400001928E-02 0. -1.
       -1    1    3    3    0  502  0.47164029965E+03  0.52992098603E+02  0.10594829314E+04  0.11609292901E+04  0.50400001928E-02 0.  1.
</event>
<event>
 5   0  0.6414768E-05  0.2204827E+04  0.7818609E-02  0.8516422E-01
       -2   -1    0    0    0  501  0.00000000000E+00  0.00000000000E+00  0.68989991845E+03  0.68989991845E+03  0.25500000920E-02 0. -1.
        2   -1    0    0  501    0  0.00000000000E+00  0.00000000000E+00 -0.17615830439E+04  0.17615830439E+04  0.25500000920E-02 0.  1.
    10030    2    1    2    0    0  0.00000000000E+00  0.00000000000E+00 -0.10716831254E+04  0.24514829623E+04  0.22048274294E+04 0.  0.
        2    1    3    3  502    0 -0.65063673081E+03  0.65727019310E+03  0.13126577269E+03  0.93411078856E+03  0.25500000920E-02 0. -1.
       -2    1    3    3    0  502  0.65063673081E+03 -0.65727019310E+03 -0.12029488981E+04  0.15173721738E+04  0.25500000920E-02 0.  1.
</event>
<event>
 5   0  0.6414768E-05  0.2184413E+04  0.7818609E-02  0.8524944E-01
        2   -1    0    0  501    0  0.00000000000E+00  0.00000000000E+00  0.13936303205E+04  0.13936303205E+04  0.25500000920E-02 0.  1.
       -2   -1    0    0    0  501  0.00000000000E+00  0.00000000000E+00 -0.85597658800E+03  0.85597658800E+03  0.25500000920E-02 0. -1.
    10030    2    1    2    0    0  0.00000000000E+00  0.00000000000E+00  0.53765373251E+03  0.22496069085E+04  0.21844128975E+04 0.  0.
        2    1    3    3  502    0  0.91737940966E+02 -0.10835315078E+04  0.16350765158E+03  0.10996322705E+04  0.25500000920E-02 0.  1.
       -2    1    3    3    0  502 -0.91737940966E+02  0.10835315078E+04  0.37414608093E+03  0.11499746380E+04  0.25500000920E-02 0. -1.
</event>
<event>
 5   0  0.2908031E-05  0.2154154E+04  0.7818609E-02  0.8537756E-01
       -1   -1    0    0    0  501  0.00000000000E+00  0.00000000000E+00  0.56591097014E+03  0.56591097016E+03  0.50400001928E-02 0. -1.
        1   -1    0    0  501    0  0.00000000000E+00  0.00000000000E+00 -0.20499605417E+04  0.20499605418E+04  0.50400001928E-02 0.  1.
    10030    2    1    2    0    0  0.00000000000E+00  0.00000000000E+00 -0.14840495716E+04  0.26158715119E+04  0.21541542739E+04 0.  0.
        1    1    3    3  502    0  0.41550118593E+03  0.24469015109E+03 -0.19115657724E+04  0.19714457152E+04  0.50400001928E-02 0.  1.
       -1    1    3    3    0  502 -0.41550118593E+03 -0.24469015109E+03  0.42751620080E+03  0.64442579675E+03  0.50400001928E-02 0. -1.
</event>
<event>
 5   0  0.2753631E-05  0.2182154E+04  0.7818609E-02  0.8525893E-01
       -1   -1    0    0    0  501  0.00000000000E+00  0.00000000000E+00  0.18341267500E+04  0.18341267500E+04  0.50400001928E-02 0.  1.
        1   -1    0    0  501    0  0.00000000000E+00  0.00000000000E+00 -0.64905488656E+03  0.64905488658E+03  0.50400001928E-02 0. -1.
    10030    2    1    2    0    0  0.00000000000E+00  0.00000000000E+00  0.11850718634E+04  0.24831816366E+04  0.21821539173E+04 0.  0.
        4    1    3    3  502    0  0.83583103211E+03  0.68266847420E+03  0.77530908193E+03  0.13288173484E+04  0.12699999809E+01 0. -1.
       -4    1    3    3    0  502 -0.83583103211E+03 -0.68266847420E+03  0.40976278152E+03  0.11543642882E+04  0.12699999809E+01 0.  1.
</event>
<event>
 5   0  0.2910318E-05  0.1840207E+04  0.7818609E-02  0.8685205E-01
       -1   -1    0    0    0  501  0.00000000000E+00  0.00000000000E+00  0.10465441229E+04  0.10465441230E+04  0.50400001928E-02 0. -1.
        1   -1    0    0  501    0  0.00000000000E+00  0.00000000000E+00 -0.80893929125E+03  0.80893929126E+03  0.50400001928E-02 0.  1.
    10030    2    1    2    0    0  0.00000000000E+00  0.00000000000E+00  0.23760483170E+03  0.18554834142E+04  0.18402072287E+04 0.  0.
        5    1    3    3  502    0 -0.26753641761E+03  0.87859550548E+03  0.17460416698E+03  0.93488742751E+03  0.46999998093E+01 0. -1.
       -5    1    3    3    0  502  0.26753641761E+03 -0.87859550548E+03  0.63000664718E+02  0.92059598671E+03  0.46999998093E+01 0.  1.
</event>
<event>
 5   0  0.6628798E-05  0.2194906E+04  0.7818609E-02  0.8520551E-01
        2   -1    0    0  501    0  0.00000000000E+00  0.00000000000E+00  0.15186227875E+04  0.15186227875E+04  0.25500000920E-02 0. -1.
       -2   -1    0    0    0  501  0.00000000000E+00  0.00000000000E+00 -0.79308893148E+03  0.79308893148E+03  0.25500000920E-02 0.  1.
    10030    2    1    2    0    0  0.00000000000E+00  0.00000000000E+00  0.72553385603E+03  0.23117117190E+04  0.21949058512E+04 0.  0.
        4    1    3    3  502    0  0.59806392947E+03 -0.74965367636E+03  0.92477451824E+03  0.13322427034E+04  0.12699999809E+01 0. -1.
       -4    1    3    3    0  502 -0.59806392947E+03  0.74965367636E+03 -0.19924066220E+03  0.97946901563E+03  0.12699999809E+01 0.  1.
</event>
<event>
 5   0  0.2910318E-05  0.2152667E+04  0.7818609E-02  0.8538391E-01
       -1   -1    0    0    0  501  0.00000000000E+00  0.00000000000E+00  0.70073271649E+03  0.70073271651E+03  0.50400001928E-02 0. -1.
        1   -1    0    0  501    0  0.00000000000E+00  0.00000000000E+00 -0.16532608293E+04  0.16532608293E+04  0.50400001928E-02 0.  1.
    10030    2    1    2    0    0  0.00000000000E+00  0.00000000000E+00 -0.95252811282E+03  0.23539935458E+04  0.21526671382E+04 0.  0.
        5    1    3    3  502    0 -0.20607837843E+02  0.72192654650E+03  0.39641293072E+03  0.82387373011E+03  0.46999998093E+01 0. -1.
       -5    1    3    3    0  502  0.20607837843E+02 -0.72192654650E+03 -0.13489410435E+04  0.15301198157E+04  0.46999998093E+01 0.  1.
</event>
<event>
 5   0  0.6293013E-05  0.2206031E+04  0.7818609E-02  0.8515922E-01
       -2   -1    0    0    0  501  0.00000000000E+00  0.00000000000E+00  0.70786385300E+03  0.70786385301E+03  0.25500000920E-02 0.  1.
        2   -1    0    0  501    0  0.00000000000E+00  0.00000000000E+00 -0.17187523371E+04  0.17187523371E+04  0.25500000920E-02 0. -1.
    10030    2    1    2    0    0  0.00000000000E+00  0.00000000000E+00 -0.10108884841E+04  0.24266161901E+04  0.22060305091E+04 0.  0.
        1    1    3    3  502    0  0.87007501508E+03  0.49318786779E+03 -0.10171213342E+04  0.14264643750E+04  0.50400001928E-02 0. -1.
       -1    1    3    3    0  502 -0.87007501508E+03 -0.49318786779E+03  0.62328500413E+01  0.10001518151E+04  0.50400001928E-02 0.  1.
</event>
<event>
 5   0  0.2910318E-05  0.2150884E+04  0.7818609E-02  0.8539154E-01
       -1   -1    0    0    0  501  0.00000000000E+00  0.00000000000E+00  0.61809102854E+03  0.61809102856E+03  0.50400001928E-02 0.  1.
        1   -1    0    0  501    0  0.00000000000E+00  0.00000000000E+00 -0.18712058191E+04  0.18712058191E+04  0.50400001928E-02 0. -1.
    10030    2    1    2    0    0  0.00000000000E+00  0.00000000000E+00 -0.12531147906E+04  0.24892968477E+04  0.21508840316E+04 0.  0.
        5    1    3    3  502    0 -0.19635432528E+03  0.91950356000E+03 -0.12307177284E+04  0.15487834048E+04  0.46999998093E+01 0. -1.
       -5    1    3    3    0  502  0.19635432528E+03 -0.91950356000E+03 -0.22397062185E+02  0.94051344291E+03  0.46999998093E+01 0.  1.
</event>
<event>
 5   0  0.2820239E-05  0.2149481E+04  0.7818609E-02  0.8539754E-01
        1   -1    0    0  501    0  0.00000000000E+00  0.00000000000E+00  0.14083708953E+04  0.14083708953E+04  0.50400001928E-02 0.  1.
       -1   -1    0    0    0  501  0.00000000000E+00  0.00000000000E+00 -0.82014440933E+03  0.82014440935E+03  0.50400001928E-02 0. -1.
    10030    2    1    2    0    0  0.00000000000E+00  0.00000000000E+00  0.58822648593E+03  0.22285153046E+04  0.21494813477E+04 0.  0.
        3    1    3    3  502    0  0.78825300484E+03 -0.54899187029E+03 -0.20561862676E+03  0.98235121172E+03  0.10100000352E+00 0. -1.
       -3    1    3    3    0  502 -0.78825300484E+03  0.54899187029E+03  0.79384511269E+03  0.12461640929E+04  0.10100000352E+00 0.  1.
</event>
<event>
 5   0  0.2820239E-05  0.1957576E+04  0.7818609E-02  0.8626716E-01
        1   -1    0    0  501    0  0.00000000000E+00  0.00000000000E+00  0.17021205823E+04  0.17021205823E+04  0.50400001928E-02 0.  1.
       -1   -1    0    0    0  501  0.00000000000E+00  0.00000000000E+00 -0.56284234549E+03  0.56284234552E+03  0.50400001928E-02 0. -1.
    10030    2    1    2    0    0  0.00000000000E+00  0.00000000000E+00  0.11392782368E+04  0.22649629278E+04  0.19575755831E+04 0.  0.
        3    1    3    3  502    0  0.94569370310E+03 -0.23007004950E+03  0.68963947850E+03  0.11928417449E+04  0.10100000352E+00 0.  1.
       -3    1    3    3    0  502 -0.94569370310E+03  0.23007004950E+03  0.44963875828E+03  0.10721211829E+04  0.10100000352E+00 0. -1.
</event>
<event>
 5   0  0.2910318E-05  0.2251316E+04  0.7818609E-02  0.8497368E-01
        1   -1    0    0  501    0  0.00000000000E+00  0.00000000000E+00  0.90106986602E+03  0.90106986604E+03  0.50400001928E-02 0. -1.
       -1   -1    0    0    0  501  0.00000000000E+00  0.00000000000E+00 -0.14062237164E+04  0.14062237164E+04  0.50400001928E-02 0.  1.
    10030    2    1    2    0    0  0.00000000000E+00  0.00000000000E+00 -0.50515385036E+03  0.23072935824E+04  0.22513158959E+04 0.  0.
        5    1    3    3  502    0 -0.26781730499E+03  0.30683073459E+03  0.82290221170E+03  0.91818372266E+03  0.46999998093E+01 0. -1.
       -5    1    3    3    0  502  0.26781730499E+03 -0.30683073459E+03 -0.13280560621E+04  0.13891098598E+04  0.46999998093E+01 0.  1.
</event>
<event>
 5   0  0.6628798E-05  0.2203360E+04  0.7818609E-02  0.8517031E-01
        2   -1    0    0  501    0  0.00000000000E+00  0.00000000000E+00  0.63334125584E+03  0.63334125585E+03  0.25500000920E-02 0. -1.
       -2   -1    0    0    0  501  0.00000000000E+00  0.00000000000E+00 -0.19163423774E+04  0.19163423774E+04  0.25500000920E-02 0.  1.
    10030    2    1    2    0    0  0.00000000000E+00  0.00000000000E+00 -0.12830011216E+04  0.25496836333E+04  0.22033598780E+04 0.  0.
        4    1    3    3  502    0 -0.62203434163E+03  0.68136890540E+03  0.55220467805E+02  0.92425170834E+03  0.12699999809E+01 0. -1.
       -4    1    3    3    0  502  0.62203434163E+03 -0.68136890540E+03 -0.13382215894E+04  0.16254319249E+04  0.12699999809E+01 0.  1.
</event>
<event>
 5   0  0.6306919E-05  0.2224677E+04  0.7818609E-02  0.8508226E-01
       -2   -1    0    0    0  501  0.00000000000E+00  0.00000000000E+00  0.98861775713E+03  0.98861775714E+03  0.25500000920E-02 0. -1.
        2   -1    0    0  501    0  0.00000000000E+00  0.00000000000E+00 -0.12515428143E+04  0.12515428143E+04  0.25500000920E-02 0.  1.
    10030    2    1    2    0    0  0.00000000000E+00  0.00000000000E+00 -0.26292505719E+03  0.22401605715E+04  0.22246774598E+04 0.  0.
        3    1    3    3  502    0 -0.13320997919E+03 -0.88115892342E+03 -0.80176157520E+03  0.11987525101E+04  0.10100000352E+00 0. -1.
       -3    1    3    3    0  502  0.13320997919E+03  0.88115892342E+03  0.53883651800E+03  0.10414080613E+04  0.10100000352E+00 0.  1.
</event>
<event>
 5   0  0.6414768E-05  0.2227012E+04  0.7818609E-02  0.8507269E-01
       -2   -1    0    0    0  501  0.00000000000E+00  0.00000000000E+00  0.10359710814E+04  0.10359710814E+04  0.25500000920E-02 0.  1.
        2   -1    0    0  501    0  0.00000000000E+00  0.00000000000E+00 -0.11968438953E+04  0.11968438953E+04  0.25500000920E-02 0. -1.
    10030    2    1    2    0    0  0.00000000000E+00  0.00000000000E+00 -0.16087281388E+03  0.22328149767E+04  0.22270120471E+04 0.  0.
        2    1    3    3  502    0 -0.10111403459E+04  0.11826012001E+03 -0.53272761851E+03  0.11489947653E+04  0.25500000920E-02 0. -1.
       -2    1    3    3    0  502  0.10111403459E+04 -0.11826012001E+03  0.37185480462E+03  0.10838202115E+04  0.25500000920E-02 0.  1.
</event>
<event>
 5   0  0.6293013E-05  0.2204301E+04  0.7818609E-02  0.8516640E-01
       -2   -1    0    0    0  501  0.00000000000E+00  0.00000000000E+00  0.71475906846E+03  0.71475906846E+03  0.25500000920E-02 0. -1.
        2   -1    0    0  501    0  0.00000000000E+00  0.00000000000E+00 -0.16995031821E+04  0.16995031821E+04  0.25500000920E-02 0.  1.
    10030    2    1    2    0    0  0.00000000000E+00  0.00000000000E+00 -0.98474411364E+03  0.24142622506E+04  0.22043006249E+04 0.  0.
        1    1    3    3  502    0  0.74125898655E+03  0.53730118970E+03  0.17973895395E+03  0.93298635852E+03  0.50400001928E-02 0. -1.
       -1    1    3    3    0  502 -0.74125898655E+03 -0.53730118970E+03 -0.11644830676E+04  0.14812758920E+04  0.50400001928E-02 0.  1.
</event>
<event>
 5   0  0.6445740E-05  0.2179121E+04  0.7818609E-02  0.8527169E-01
       -2   -1    0    0    0  501  0.00000000000E+00  0.00000000000E+00  0.15973299678E+04  0.15973299678E+04  0.25500000920E-02 0.  1.
        2   -1    0    0  501    0  0.00000000000E+00  0.00000000000E+00 -0.74320395760E+03  0.74320395760E+03  0.25500000920E-02 0. -1.
    10030    2    1    2    0    0  0.00000000000E+00  0.00000000000E+00  0.85412601024E+03  0.23405339254E+04  0.21791208812E+04 0.  0.
        5    1    3    3  502    0 -0.10485779119E+04  0.77770834301E+01  0.74485735734E+03  0.12862389720E+04  0.46999998093E+01 0.  1.
       -5    1    3    3    0  502  0.10485779119E+04 -0.77770834301E+01  0.10926865290E+03  0.10542949534E+04  0.46999998093E+01 0. -1.
</event>
<event>
 5   0  0.6306919E-05  0.2183944E+04  0.7818609E-02  0.8525141E-01
        2   -1    0    0  501    0  0.00000000000E+00  0.00000000000E+00  0.95105502909E+03  0.95105502910E+03  0.25500000920E-02 0.  1.
       -2   -1    0    0    0  501  0.00000000000E+00  0.00000000000E+00 -0.12537686439E+04  0.12537686439E+04  0.25500000920E-02 0. -1.
    10030    2    1    2    0    0  0.00000000000E+00  0.00000000000E+00 -0.30271361485E+03  0.22048236730E+04  0.21839441148E+04 0.  0.
        3    1    3    3  502    0 -0.15792889070E+03  0.67901828854E+03  0.69715195765E+03  0.98591492176E+03  0.10100000352E+00 0.  1.
       -3    1    3    3    0  502  0.15792889070E+03 -0.67901828854E+03 -0.99986557250E+03  0.12189087513E+04  0.10100000352E+00 0. -1.
</event>
<event>
 5   0  0.2908031E-05  0.2203980E+04  0.7818609E-02  0.8516774E-01
        1   -1    0    0  501    0  0.00000000000E+00  0.00000000000E+00  0.15739509019E+04  0.15739509019E+04  0.50400001928E-02 0. -1.
       -1   -1    0    0    0  501  0.00000000000E+00  0.00000000000E+00 -0.77154974320E+03  0.77154974321E+03  0.50400001928E-02 0.  1.
    10030    2    1    2    0    0  0.00000000000E+00  0.00000000000E+00  0.80240115872E+03  0.23455006451E+04  0.22039795046E+04 0.  0.
        1    1    3    3  502    0 -0.52960658082E+03  0.66284216280E+03  0.11495907609E+04  0.14287763228E+04  0.50400001928E-02 0. -1.
       -1    1    3    3    0  502  0.52960658082E+03 -0.66284216280E+03 -0.34718960214E+03  0.91672432230E+03  0.50400001928E-02 0.  1.
</event>
<event>
 5   0  0.2820239E-05  0.2210243E+04  0.7818609E-02  0.8514177E-01
        1   -1    0    0  501    0  0.00000000000E+00  0.00000000000E+00  0.10281872110E+04  0.10281872110E+04  0.50400001928E-02 0. -1.
       -1   -1    0    0    0  501  0.00000000000E+00  0.00000000000E+00 -0.11878123783E+04  0.11878123783E+04  0.50400001928E-02 0.  1.
    10030    2    1    2    0    0  0.00000000000E+00  0.00000000000E+00 -0.15962516731E+03  0.22159995893E+04  0.22102429699E+04 0.  0.
        3    1    3    3  502    0  0.49519434032E+02 -0.48928212631E+03  0.91243381679E+03  0.10365252788E+04  0.10100000352E+00 0. -1.
       -3    1    3    3    0  502 -0.49519434032E+02  0.48928212631E+03 -0.10720589841E+04  0.11794743105E+04  0.10100000352E+00 0.  1.
</event>
<event>
 5   0  0.2910318E-05  0.2194770E+04  0.7818609E-02  0.8520608E-01
       -1   -1    0    0    0  501  0.00000000000E+00  0.00000000000E+00  0.11699377361E+04  0.11699377361E+04  0.50400001928E-02 0.  1.
        1   -1    0    0  501    0  0.00000000000E+00  0.00000000000E+00 -0.10293314982E+04  0.10293314982E+04  0.50400001928E-02 0. -1.
    10030    2    1    2    0    0  0.00000000000E+00  0.00000000000E+00  0.14060623790E+03  0.21992692342E+04  0.21947699311E+04 0.  0.
        5    1    3    3  502    0  0.12004179480E+03 -0.50631856642E+03  0.10384427227E+04  0.11615308440E+04  0.46999998093E+01 0.  1.
       -5    1    3    3    0  502 -0.12004179480E+03  0.50631856642E+03 -0.89783648480E+03  0.10377383903E+04  0.46999998093E+01 0. -1.
</event>
<event>
 5   0  0.2820239E-05  0.2177619E+04  0.7818609E-02  0.8527802E-01
        1   -1    0    0  501    0  0.00000000000E+00  0.00000000000E+00  0.25337973364E+04  0.25337973364E+04  0.50400001928E-02 0. -1.
       -1   -1    0    0    0  501  0.00000000000E+00  0.00000000000E+00 -0.46787713033E+03  0.46787713035E+03  0.50400001928E-02 0.  1.
    10030    2    1    2    0    0  0.00000000000E+00  0.00000000000E+00  0.20659202061E+04  0.30016744668E+04  0.21776187239E+04 0.  0.
        3    1    3    3  502    0 -0.92969662058E+03  0.53578730085E+03  0.12875091856E+04  0.16760321451E+04  0.10100000352E+00 0.  1.
       -3    1    3    3    0  502  0.92969662058E+03 -0.53578730085E+03  0.77841102047E+03  0.13256423217E+04  0.10100000352E+00 0. -1.
</event>
<event>
 5   0  0.6414768E-05  0.2221879E+04  0.7818609E-02  0.8509377E-01
       -2   -1    0    0    0  501  0.00000000000E+00  0.00000000000E+00  0.14336465389E+04  0.14336465389E+04  0.25500000920E-02 0.  1.
        2   -1    0    0  501    0  0.00000000000E+00  0.00000000000E+00 -0.86087199190E+03  0.86087199191E+03  0.25500000920E-02 0. -1.
    10030    2    1    2    0    0  0.00000000000E+00  0.00000000000E+00  0.57277454702E+03  0.22945185308E+04  0.22218786210E+04 0.  0.
        2    1    3    3  502    0 -0.29896555106E+03 -0.10690546111E+04  0.24104288334E+03  0.11359400661E+04  0.25500000920E-02 0.  1.
       -2    1    3    3    0  502  0.29896555106E+03  0.10690546111E+04  0.33173166368E+03  0.11585784647E+04  0.25500000920E-02 0. -1.
</event>
<event>
 5   0  0.6306919E-05  0.2205344E+04  0.7818609E-02  0.8516207E-01
       -2   -1    0    0    0  501  0.00000000000E+00  0.00000000000E+00  0.83330149713E+03  0.83330149713E+03  0.25500000920E-02 0. -1.
        2   -1    0    0  501    0  0.00000000000E+00  0.00000000000E+00 -0.14591186952E+04  0.14591186952E+04  0.25500000920E-02 0.  1.
    10030    2    1    2    0    0  0.00000000000E+00  0.00000000000E+00 -0.62581719807E+03  0.22924201923E+04  0.22053442300E+04 0.  0.
        3    1    3    3  502    0  0.99689782408E+03 -0.31074337725E+03 -0.68118397790E+03  0.12467471035E+04  0.10100000352E+00 0.  1.
       -3    1    3    3    0  502 -0.99689782408E+03  0.31074337725E+03  0.55366779835E+02  0.10456730888E+04  0.10100000352E+00 0. -1.
</event>
<event>
 5   0  0.2820239E-05  0.2209739E+04  0.7818609E-02  0.8514385E-01
       -1   -1    0    0    0  501  0.00000000000E+00  0.00000000000E+00  0.10962266816E+04  0.10962266816E+04  0.50400001928E-02 0. -1.
        1   -1    0    0  501    0  0.00000000000E+00  0.00000000000E+00 -0.11135808903E+04  0.11135808903E+04  0.50400001928E-02 0.  1.
    10030    2    1    2    0    0  0.00000000000E+00  0.00000000000E+00 -0.17354208722E+02  0.22098075719E+04  0.22097394272E+04 0.  0.
        3    1    3    3  502    0 -0.53203473302E+03 -0.12238898006E+02 -0.97696639504E+03  0.11125080202E+04  0.10100000352E+00 0.  1.
       -3    1    3    3    0  502  0.53203473302E+03  0.12238898006E+02  0.95961218632E+03  0.10972995517E+04  0.10100000352E+00 0. -1.
</event>
<event>
 5   0  0.2929471E-05  0.2192025E+04  0.7818609E-02  0.8521755E-01
       -1   -1    0    0    0  501  0.00000000000E+00  0.00000000000E+00  0.49109750711E+03  0.49109750713E+03  0.50400001928E-02 0.  1.
        1   -1    0    0  501    0  0.00000000000E+00  0.00000000000E+00 -0.24460395606E+04  0.24460395606E+04  0.50400001928E-02 0. -1.
    10030    2    1    2    0    0  0.00000000000E+00  0.00000000000E+00 -0.19549420535E+04  0.29371370677E+04  0.21920254839E+04 0.  0.
        2    1    3    3  502    0  0.33644460090E+03  0.57320118091E+03 -0.21451930323E+04  0.22457977890E+04  0.25500000920E-02 0. -1.
       -2    1    3    3    0  502 -0.33644460090E+03 -0.57320118091E+03  0.19025097887E+03  0.69133927867E+03  0.25500000920E-02 0.  1.
</event>
<event>
 5   0  0.6414768E-05  0.2203636E+04  0.7818609E-02  0.8516916E-01
        2   -1    0    0  501    0  0.00000000000E+00  0.00000000000E+00  0.23298366095E+04  0.23298366095E+04  0.25500000920E-02 0.  1.
       -2   -1    0    0    0  501  0.00000000000E+00  0.00000000000E+00 -0.52106805929E+03  0.52106805930E+03  0.25500000920E-02 0. -1.
    10030    2    1    2    0    0  0.00000000000E+00  0.00000000000E+00  0.18087685502E+04  0.28509046688E+04  0.22036364860E+04 0.  0.
        2    1    3    3  502    0 -0.10624128768E+04 -0.28780529732E+03  0.96842613681E+03  0.14660839650E+04  0.25500000920E-02 0.  1.
       -2    1    3    3    0  502  0.10624128768E+04  0.28780529732E+03  0.84034241336E+03  0.13848207038E+04  0.25500000920E-02 0. -1.
</event>
<event>
 5   0  0.2753631E-05  0.2100502E+04  0.7818609E-02  0.8561022E-01
        1   -1    0    0  501    0  0.00000000000E+00  0.00000000000E+00  0.20275639561E+04  0.20275639561E+04  0.50400001928E-02 0.  1.
       -1   -1    0    0    0  501  0.00000000000E+00  0.00000000000E+00 -0.54401591536E+03  0.54401591538E+03  0.50400001928E-02 0. -1.
    10030    2    1    2    0    0  0.00000000000E+00  0.00000000000E+00  0.14835480407E+04  0.25715798715E+04  0.21005019034E+04 0.  0.
        4    1    3    3  502    0 -0.57193727480E+03 -0.73134019535E+03  0.13428574546E+04  0.16325558134E+04  0.12699999809E+01 0.  1.
       -4    1    3    3    0  502  0.57193727480E+03  0.73134019535E+03  0.14069058609E+03  0.93902405803E+03  0.12699999809E+01 0. -1.
</event>
<event>
 5   0  0.6293013E-05  0.2205784E+04  0.7818609E-02  0.8516024E-01
       -2   -1    0    0    0  501  0.00000000000E+00  0.00000000000E+00  0.10414256469E+04  0.10414256469E+04  0.25500000920E-02 0.  1.
        2   -1    0    0  501    0  0.00000000000E+00  0.00000000000E+00 -0.11679866600E+04  0.11679866600E+04  0.25500000920E-02 0. -1.
    10030    2    1    2    0    0  0.00000000000E+00  0.00000000000E+00 -0.12656101310E+03  0.22094123070E+04  0.22057844528E+04 0.  0.
        1    1    3    3  502    0 -0.37395001983E+03  0.73893949185E+03 -0.79283347830E+03  0.11464968880E+04  0.50400001928E-02 0. -1.
       -1    1    3    3    0  502  0.37395001983E+03 -0.73893949185E+03  0.66627246519E+03  0.10629154190E+04  0.50400001928E-02 0.  1.
</event>
<event>
 5   0  0.2753631E-05  0.2204443E+04  0.7818609E-02  0.8516581E-01
       -1   -1    0    0    0  501  0.00000000000E+00  0.00000000000E+00  0.10966866301E+04  0.10966866301E+04  0.50400001928E-02 0.  1.
        1   -1    0    0  501    0  0.00000000000E+00  0.00000000000E+00 -0.11077844532E+04  0.11077844532E+04  0.50400001928E-02 0. -1.
    10030    2    1    2    0    0  0.00000000000E+00  0.00000000000E+00 -0.11097823075E+02  0.22044710833E+04  0.22044431486E+04 0.  0.
        4    1    3    3  502    0  0.81249849222E+03 -0.74179367270E+03 -0.72476086195E+02  0.11025724687E+04  0.12699999809E+01 0. -1.
       -4    1    3    3    0  502 -0.81249849222E+03  0.74179367270E+03  0.61378263121E+02  0.11018986146E+04  0.12699999809E+01 0.  1.
</event>
<event>
 5   0  0.2820239E-05  0.2088456E+04  0.7818609E-02  0.8566346E-01
       -1   -1    0    0    0  501  0.00000000000E+00  0.00000000000E+00  0.47548595353E+03  0.47548595356E+03  0.50400001928E-02 0. -1.
        1   -1    0    0  501    0  0.00000000000E+00  0.00000000000E+00 -0.22932576240E+04  0.22932576240E+04  0.50400001928E-02 0.  1.
    10030    2    1    2    0    0  0.00000000000E+00  0.00000000000E+00 -0.18177716705E+04  0.27687435776E+04  0.20884556860E+04 0.  0.
        3    1    3    3  502    0 -0.40640588372E+03  0.42261288713E+03 -0.20544366875E+04  0.21364637858E+04  0.10100000352E+00 0.  1.
       -3    1    3    3    0  502  0.40640588372E+03 -0.42261288713E+03  0.23666501700E+03  0.63227979183E+03  0.10100000352E+00 0. -1.
</event>
<event>
 5   0  0.2929471E-05  0.2195363E+04  0.7818609E-02  0.8520361E-01
       -1   -1    0    0    0  501  0.00000000000E+00  0.00000000000E+00  0.11815154950E+04  0.11815154950E+04  0.50400001928E-02 0.  1.
        1   -1    0    0  501    0  0.00000000000E+00  0.00000000000E+00 -0.10197957628E+04  0.10197957628E+04  0.50400001928E-02 0. -1.
    10030    2    1    2    0    0  0.00000000000E+00  0.00000000000E+00  0.16171973223E+03  0.22013112579E+04  0.21953628361E+04 0.  0.
        2    1    3    3  502    0 -0.85364569156E+03 -0.54028273502E+03  0.51131093151E+03  0.11322787948E+04  0.25500000920E-02 0.  1.
       -2    1    3    3    0  502  0.85364569156E+03  0.54028273502E+03 -0.34959119928E+03  0.10690324631E+04  0.25500000920E-02 0. -1.
</event>
<event>
 5   0  0.6293013E-05  0.2259768E+04  0.7818609E-02  0.8493955E-01
       -2   -1    0    0    0  501  0.00000000000E+00  0.00000000000E+00  0.10075834335E+04  0.10075834335E+04  0.25500000920E-02 0.  1.
        2   -1    0    0  501    0  0.00000000000E+00  0.00000000000E+00 -0.12670290035E+04  0.12670290035E+04  0.25500000920E-02 0. -1.
    10030    2    1    2    0    0  0.00000000000E+00  0.00000000000E+00 -0.25944556996E+03  0.22746124371E+04  0.22597676285E+04 0.  0.
        1    1    3    3  502    0 -0.84606655882E+03 -0.65294457714E+03 -0.49883623182E+03  0.11794078298E+04  0.50400001928E-02 0.  1.
       -1    1    3    3    0  502  0.84606655882E+03  0.65294457714E+03  0.23939066187E+03  0.10952046073E+04  0.50400001928E-02 0. -1.
</event>
<event>
 5   0  0.6445740E-05  0.2107274E+04  0.7818609E-02  0.8558046E-01
       -2   -1    0    0    0  501  0.00000000000E+00  0.00000000000E+00  0.10521363075E+04  0.10521363075E+04  0.25500000920E-02 0. -1.
        2   -1    0    0  501    0  0.00000000000E+00  0.00000000000E+00 -0.10551398118E+04  0.10551398118E+04  0.25500000920E-02 0.  1.
    10030    2    1    2    0    0  0.00000000000E+00  0.00000000000E+00 -0.30035043002E+01  0.21072761194E+04  0.21072739789E+04 0.  0.
        5    1    3    3  502    0  0.10044354194E+04  0.30783261655E+03  0.78980525778E+02  0.10535233482E+04  0.46999998093E+01 0. -1.
       -5    1    3    3    0  502 -0.10044354194E+04 -0.30783261655E+03 -0.81984030078E+02  0.10537527712E+04  0.46999998093E+01 0.  1.
</event>
<event>
 5   0  0.2910318E-05  0.2202292E+04  0.7818609E-02  0.8517475E-01
        1   -1    0    0  501    0  0.00000000000E+00  0.00000000000E+00  0.10329567841E+04  0.10329567841E+04  0.50400001928E-02 0.  1.
       -1   -1    0    0    0  501  0.00000000000E+00  0.00000000000E+00 -0.11738362915E+04  0.11738362915E+04  0.50400001928E-02 0. -1.
    10030    2    1    2    0    0  0.00000000000E+00  0.00000000000E+00 -0.14087950744E+03  0.22067930757E+04  0.22022916799E+04 0.  0.
        5    1    3    3  502    0  0.85124230532E+03  0.68613037655E+03  0.60639373516E+02  0.10950285748E+04  0.46999998093E+01 0.  1.
       -5    1    3    3    0  502 -0.85124230532E+03 -0.68613037655E+03 -0.20151888095E+03  0.11117645009E+04  0.46999998093E+01 0. -1.
</event>
<event>
 5   0  0.6628798E-05  0.2246826E+04  0.7818609E-02  0.8499187E-01
       -2   -1    0    0    0  501  0.00000000000E+00  0.00000000000E+00  0.10357894867E+04  0.10357894867E+04  0.25500000920E-02 0.  1.
        2   -1    0    0  501    0  0.00000000000E+00  0.00000000000E+00 -0.12184492733E+04  0.12184492733E+04  0.25500000920E-02 0. -1.
    10030    2    1    2    0    0  0.00000000000E+00  0.00000000000E+00 -0.18265978667E+03  0.22542387600E+04  0.22468261592E+04 0.  0.
        4    1    3    3  502    0  0.49992771938E+03  0.49364485020E+03 -0.97083039834E+03  0.11983848455E+04  0.12699999809E+01 0. -1.
       -4    1    3    3    0  502 -0.49992771938E+03 -0.49364485020E+03  0.78817061167E+03  0.10558539145E+04  0.12699999809E+01 0.  1.
</event>
<event>
 5   0  0.2908031E-05  0.2201224E+04  0.7818609E-02  0.8517919E-01
        1   -1    0    0  501    0  0.00000000000E+00  0.00000000000E+00  0.16042580337E+04  0.16042580337E+04  0.50400001928E-02 0.  1.
       -1   -1    0    0    0  501  0.00000000000E+00  0.00000000000E+00 -0.75508215435E+03  0.75508215437E+03  0.50400001928E-02 0. -1.
    10030    2    1    2    0    0  0.00000000000E+00  0.00000000000E+00  0.84917587935E+03  0.23593401881E+04  0.22012238526E+04 0.  0.
        1    1    3    3  502    0  0.93152027347E+03 -0.32071641538E+03 -0.10132799995E+03  0.99038194783E+03  0.50400001928E-02 0. -1.
       -1    1    3    3    0  502 -0.93152027347E+03  0.32071641538E+03  0.95050387930E+03  0.13689582403E+04  0.50400001928E-02 0.  1.
</event>
<event>
 5   0  0.2910318E-05  0.2225438E+04  0.7818609E-02  0.8507914E-01
        1   -1    0    0  501    0  0.00000000000E+00  0.00000000000E+00  0.10048215378E+04  0.10048215378E+04  0.50400001928E-02 0.  1.
       -1   -1    0    0    0  501  0.00000000000E+00  0.00000000000E+00 -0.12322023515E+04  0.12322023515E+04  0.50400001928E-02 0. -1.
    10030    2    1    2    0    0  0.00000000000E+00  0.00000000000E+00 -0.22738081373E+03  0.22370238893E+04  0.22254379000E+04 0.  0.
        5    1    3    3  502    0  0.47171873203E+03  0.78901631573E+03  0.51651538748E+03  0.10544550935E+04  0.46999998093E+01 0.  1.
       -5    1    3    3    0  502 -0.47171873203E+03 -0.78901631573E+03 -0.74389620122E+03  0.11825687958E+04  0.46999998093E+01 0. -1.
</event>
<event>
 5   0  0.2929471E-05  0.2201612E+04  0.7818609E-02  0.8517757E-01
       -1   -1    0    0    0  501  0.00000000000E+00  0.00000000000E+00  0.63505250335E+03  0.63505250337E+03  0.50400001928E-02 0.  1.
        1   -1    0    0  501    0  0.00000000000E+00  0.00000000000E+00 -0.19081477947E+04  0.19081477947E+04  0.50400001928E-02 0. -1.
    10030    2    1    2    0    0  0.00000000000E+00  0.00000000000E+00 -0.12730952913E+04  0.25432002980E+04  0.22016121673E+04 0.  0.
        2    1    3    3  502    0 -0.22194845666E+03  0.42548539650E+03  0.50785641657E+03  0.69872532508E+03  0.25500000920E-02 0.  1.
       -2    1    3    3    0  502  0.22194845666E+03 -0.42548539650E+03 -0.17809517079E+04  0.18444749730E+04  0.25500000920E-02 0. -1.
</event>
<event>
 5   0  0.2929471E-05  0.2206581E+04  0.7818609E-02  0.8515694E-01
        1   -1    0    0  501    0  0.00000000000E+00  0.00000000000E+00  0.10943616845E+04  0.10943616845E+04  0.50400001928E-02 0.  1.
       -1   -1    0    0    0  501  0.00000000000E+00  0.00000000000E+00 -0.11122920488E+04  0.11122920488E+04  0.50400001928E-02 0. -1.
    10030    2    1    2    0    0  0.00000000000E+00  0.00000000000E+00 -0.17930364270E+02  0.22066537333E+04  0.22065808847E+04 0.  0.
        2    1    3    3  502    0  0.17792269138E+03  0.10886876883E+04  0.98086499614E+01  0.11031743182E+04  0.25500000920E-02 0.  1.
       -2    1    3    3    0  502 -0.17792269138E+03 -0.10886876883E+04 -0.27739014231E+02  0.11034794151E+04  0.25500000920E-02 0. -1.
</event>
<event>
 5   0  0.2910318E-05  0.2201661E+04  0.7818609E-02  0.8517737E-01
        1   -1    0    0  501    0  0.00000000000E+00  0.00000000000E+00  0.10554226896E+04  0.10554226896E+04  0.50400001928E-02 0. -1.
       -1   -1    0    0    0  501  0.00000000000E+00  0.00000000000E+00 -0.11481915462E+04  0.11481915462E+04  0.50400001928E-02 0.  1.
    10030    2    1    2    0    0  0.00000000000E+00  0.00000000000E+00 -0.92768856587E+02  0.22036142358E+04  0.22016606549E+04 0.  0.
        5    1    3    3  502    0 -0.87339803246E+03 -0.96860915200E+02 -0.70999548722E+03  0.11297441488E+04  0.46999998093E+01 0.  1.
       -5    1    3    3    0  502  0.87339803246E+03  0.96860915200E+02  0.61722663063E+03  0.10738700869E+04  0.46999998093E+01 0. -1.
</event>
<event>
 5   0  0.2910318E-05  0.2138173E+04  0.7818609E-02  0.8544612E-01
        1   -1    0    0  501    0  0.00000000000E+00  0.00000000000E+00  0.15390139117E+04  0.15390139117E+04  0.50400001928E-02 0. -1.
       -1   -1    0    0    0  501  0.00000000000E+00  0.00000000000E+00 -0.74264799488E+03  0.74264799489E+03  0.50400001928E-02 0.  1.
    10030    2    1    2    0    0  0.00000000000E+00  0.00000000000E+00  0.79636591685E+03  0.22816619066E+04  0.21381726737E+04 0.  0.
        5    1    3    3  502    0  0.80906856943E+03 -0.71513515686E+02 -0.34360501302E+03  0.88192552290E+03  0.46999998093E+01 0.  1.
       -5    1    3    3    0  502 -0.80906856943E+03  0.71513515686E+02  0.11399709299E+04  0.13997363837E+04  0.46999998093E+01 0. -1.
</event>
<event>
 5   0  0.2929471E-05  0.2186977E+04  0.7818609E-02  0.8523868E-01
       -1   -1    0    0    0  501  0.00000000000E+00  0.00000000000E+00  0.88498487270E+03  0.88498487271E+03  0.50400001928E-02 0. -1.
        1   -1    0    0  501    0  0.00000000000E+00  0.00000000000E+00 -0.13511154064E+04  0.13511154064E+04  0.50400001928E-02 0.  1.
    10030    2    1    2    0    0  0.00000000000E+00  0.00000000000E+00 -0.46613053368E+03  0.22361002791E+04  0.21869766308E+04 0.  0.
        2    1    3    3  502    0  0.30932422965E+03 -0.76623210777E+03  0.49920847831E+03  0.96540262422E+03  0.25500000920E-02 0.  1.
       -2    1    3    3    0  502 -0.30932422965E+03  0.76623210777E+03 -0.96533901200E+03  0.12706976549E+04  0.25500000920E-02 0. -1.
</event>
<event>
 5   0  0.2929471E-05  0.2209221E+04  0.7818609E-02  0.8514600E-01
        1   -1    0    0  501    0  0.00000000000E+00  0.00000000000E+00  0.93291281550E+03  0.93291281551E+03  0.50400001928E-02 0.  1.
       -1   -1    0    0    0  501  0.00000000000E+00  0.00000000000E+00 -0.13079082182E+04  0.13079082182E+04  0.50400001928E-02 0. -1.
    10030    2    1    2    0    0  0.00000000000E+00  0.00000000000E+00 -0.37499540267E+03  0.22408210337E+04  0.22092209833E+04 0.  0.
        2    1    3    3  502    0  0.75565915606E+03  0.53238943666E+02 -0.10029305069E+04  0.12568710144E+04  0.25500000920E-02 0. -1.
       -2    1    3    3    0  502 -0.75565915606E+03 -0.53238943666E+02  0.62793510423E+03  0.98395001926E+03  0.25500000920E-02 0.  1.
</event>
<event>
 5   0  0.2929471E-05  0.2203511E+04  0.7818609E-02  0.8516968E-01
       -1   -1    0    0    0  501  0.00000000000E+00  0.00000000000E+00  0.67204336347E+03  0.67204336349E+03  0.50400001928E-02 0. -1.
        1   -1    0    0  501    0  0.00000000000E+00  0.00000000000E+00 -0.18062304726E+04  0.18062304727E+04  0.50400001928E-02 0.  1.
    10030    2    1    2    0    0  0.00000000000E+00  0.00000000000E+00 -0.11341871092E+04  0.24782738361E+04  0.22035110184E+04 0.  0.
        2    1    3    3  502    0  0.22835852085E+03 -0.10758455848E+04 -0.64062015816E+03  0.12727865192E+04  0.25500000920E-02 0. -1.
       -2    1    3    3    0  502 -0.22835852085E+03  0.10758455848E+04 -0.49356695101E+03  0.12054873170E+04  0.25500000920E-02 0.  1.
</event>
<event>
 5   0  0.6293013E-05  0.2211108E+04  0.7818609E-02  0.8513819E-01
        2   -1    0    0  501    0  0.00000000000E+00  0.00000000000E+00  0.16142440535E+04  0.16142440535E+04  0.25500000920E-02 0. -1.
       -2   -1    0    0    0  501  0.00000000000E+00  0.00000000000E+00 -0.75716509262E+03  0.75716509262E+03  0.25500000920E-02 0.  1.
    10030    2    1    2    0    0  0.00000000000E+00  0.00000000000E+00  0.85707896087E+03  0.23714091461E+04  0.22111076394E+04 0.  0.
        1    1    3    3  502    0  0.10412364632E+04  0.32304359104E+03  0.62547865250E+03  0.12568826830E+04  0.50400001928E-02 0.  1.
       -1    1    3    3    0  502 -0.10412364632E+04 -0.32304359104E+03  0.23160030837E+03  0.11145264631E+04  0.50400001928E-02 0. -1.
</event>
<event>
 5   0  0.2910318E-05  0.2195981E+04  0.7818609E-02  0.8520103E-01
        1   -1    0    0  501    0  0.00000000000E+00  0.00000000000E+00  0.10951586124E+04  0.10951586125E+04  0.50400001928E-02 0.  1.
       -1   -1    0    0    0  501  0.00000000000E+00  0.00000000000E+00 -0.11008297713E+04  0.11008297713E+04  0.50400001928E-02 0. -1.
    10030    2    1    2    0    0  0.00000000000E+00  0.00000000000E+00 -0.56711588283E+01  0.21959883837E+04  0.21959810608E+04 0.  0.
        5    1    3    3  502    0 -0.10081704521E+04 -0.43156059965E+03  0.51098849137E+02  0.10978549057E+04  0.46999998093E+01 0.  1.
       -5    1    3    3    0  502  0.10081704521E+04  0.43156059965E+03 -0.56770007965E+02  0.10981334780E+04  0.46999998093E+01 0. -1.
</event>
<event>
 5   0  0.2929471E-05  0.2221874E+04  0.7818609E-02  0.8509379E-01
       -1   -1    0    0    0  501  0.00000000000E+00  0.00000000000E+00  0.16678877031E+04  0.16678877031E+04  0.50400001928E-02 0.  1.
        1   -1    0    0  501    0  0.00000000000E+00  0.00000000000E+00 -0.73996636511E+03  0.73996636513E+03  0.50400001928E-02 0. -1.
    10030    2    1    2    0    0  0.00000000000E+00  0.00000000000E+00  0.92792133798E+03  0.24078540682E+04  0.22218738048E+04 0.  0.
        2    1    3    3  502    0 -0.82195493749E+03  0.44914508636E+02  0.12724313211E+04  0.15154895906E+04  0.25500000920E-02 0.  1.
       -2    1    3    3    0  502  0.82195493749E+03 -0.44914508636E+02 -0.34450998316E+03  0.89236447758E+03  0.25500000920E-02 0. -1.
</event>
<event>
 5   0  0.2908031E-05  0.2203979E+04  0.7818609E-02  0.8516774E-01
        1   -1    0    0  501    0  0.00000000000E+00  0.00000000000E+00  0.10842736406E+04  0.10842736406E+04  0.50400001928E-02 0.  1.
       -1   -1    0    0    0  501  0.00000000000E+00  0.00000000000E+00 -0.11199946310E+04  0.11199946310E+04  0.50400001928E-02 0. -1.
    10030    2    1    2    0    0  0.00000000000E+00  0.00000000000E+00 -0.35720990448E+02  0.22042682716E+04  0.22039788166E+04 0.  0.
        1    1    3    3  502    0  0.86564007562E+03  0.60172678052E+03  0.30307539605E+03  0.10969332499E+04  0.50400001928E-02 0.  1.
       -1    1    3    3    0  502 -0.86564007562E+03 -0.60172678052E+03 -0.33879638650E+03  0.11073350218E+04  0.50400001928E-02 0. -1.
</event>
<event>
 5   0  0.6445740E-05  0.1963659E+04  0.7818609E-02  0.8623802E-01
        2   -1    0    0  501    0  0.00000000000E+00  0.00000000000E+00  0.26418499451E+04  0.26418499451E+04  0.25500000920E-02 0.  1.
       -2   -1    0    0    0  501  0.00000000000E+00  0.00000000000E+00 -0.36489188888E+03  0.36489188889E+03  0.25500000920E-02 0. -1.
    10030    2    1    2    0    0  0.00000000000E+00  0.00000000000E+00  0.22769580562E+04  0.30067418340E+04  0.19636594579E+04 0.  0.
        5    1    3    3  502    0 -0.80289031570E+03  0.22579468891E+03  0.19316775938E+04  0.21040476508E+04  0.46999998093E+01 0.  1.
       -5    1    3    3    0  502  0.80289031570E+03 -0.22579468891E+03  0.34528046244E+03  0.90269418317E+03  0.46999998093E+01 0. -1.
</event>
<event>
 5   0  0.6445740E-05  0.2393469E+04  0.7818609E-02  0.8441953E-01
        2   -1    0    0  501    0  0.00000000000E+00  0.00000000000E+00  0.12501959826E+04  0.12501959826E+04  0.25500000920E-02 0. -1.
       -2   -1    0    0    0  501  0.00000000000E+00  0.00000000000E+00 -0.11455595752E+04  0.11455595752E+04  0.25500000920E-02 0.  1.
    10030    2    1    2    0    0  0.00000000000E+00  0.00000000000E+00  0.10463640739E+03  0.23957555579E+04  0.23934694306E+04 0.  0.
        5    1    3    3  502    0  0.81438693120E+03  0.34142834236E+03  0.86077308123E+03  0.12331876475E+04  0.46999998093E+01 0. -1.
       -5    1    3    3    0  502 -0.81438693120E+03 -0.34142834236E+03 -0.75613667384E+03  0.11625679104E+04  0.46999998093E+01 0.  1.
</event>
<event>
 5   0  0.6628798E-05  0.2245806E+04  0.7818609E-02  0.8499601E-01
        2   -1    0    0  501    0  0.00000000000E+00  0.00000000000E+00  0.17770009438E+04  0.17770009438E+04  0.25500000920E-02 0. -1.
       -2   -1    0    0    0  501  0.00000000000E+00  0.00000000000E+00 -0.70957253518E+03  0.70957253518E+03  0.25500000920E-02 0.  1.
    10030    2    1    2    0    0  0.00000000000E+00  0.00000000000E+00  0.10674284086E+04  0.24865734789E+04  0.22458059263E+04 0.  0.
        4    1    3    3  502    0 -0.51716197007E+03 -0.44407504232E+03 -0.45427882320E+03  0.81916421346E+03  0.12699999809E+01 0.  1.
       -4    1    3    3    0  502  0.51716197007E+03  0.44407504232E+03  0.15217072318E+04  0.16674092655E+04  0.12699999809E+01 0. -1.
</event>
<event>
 5   0  0.2910318E-05  0.2216950E+04  0.7818609E-02  0.8511406E-01
       -1   -1    0    0    0  501  0.00000000000E+00  0.00000000000E+00  0.58887180052E+03  0.58887180055E+03  0.50400001928E-02 0. -1.
        1   -1    0    0  501    0  0.00000000000E+00  0.00000000000E+00 -0.20865616833E+04  0.20865616833E+04  0.50400001928E-02 0.  1.
    10030    2    1    2    0    0  0.00000000000E+00  0.00000000000E+00 -0.14976898828E+04  0.26754334839E+04  0.22169504599E+04 0.  0.
        5    1    3    3  502    0 -0.54675355037E+03 -0.87801025798E+03 -0.12298359484E+04  0.16069723109E+04  0.46999998093E+01 0.  1.
       -5    1    3    3    0  502  0.54675355037E+03  0.87801025798E+03 -0.26785393434E+03  0.10684611729E+04  0.46999998093E+01 0. -1.
</event>
<event>
 5   0  0.6414768E-05  0.2200982E+04  0.7818609E-02  0.8518019E-01
       -2   -1    0    0    0  501  0.00000000000E+00  0.00000000000E+00  0.19820201165E+04  0.19820201165E+04  0.25500000920E-02 0.  1.
        2   -1    0    0  501    0  0.00000000000E+00  0.00000000000E+00 -0.61103363775E+03  0.61103363776E+03  0.25500000920E-02 0. -1.
    10030    2    1    2    0    0  0.00000000000E+00  0.00000000000E+00  0.13709864788E+04  0.25930537543E+04  0.22009824733E+04 0.  0.
        2    1    3    3  502    0 -0.42069200990E+03 -0.37949184358E+03 -0.42600994114E+03  0.70885844602E+03  0.25500000920E-02 0. -1.
       -2    1    3    3    0  502  0.42069200990E+03  0.37949184358E+03  0.17969964199E+04  0.18841953083E+04  0.25500000920E-02 0.  1.
</event>
<event>
 5   0  0.2929471E-05  0.2227558E+04  0.7818609E-02  0.8507045E-01
       -1   -1    0    0    0  501  0.00000000000E+00  0.00000000000E+00  0.59035330677E+03  0.59035330679E+03  0.50400001928E-02 0. -1.
        1   -1    0    0  501    0  0.00000000000E+00  0.00000000000E+00 -0.21012906737E+04  0.21012906737E+04  0.50400001928E-02 0.  1.
    10030    2    1    2    0    0  0.00000000000E+00  0.00000000000E+00 -0.15109373670E+04  0.26916439805E+04  0.22275582127E+04 0.  0.
        2    1    3    3  502    0  0.15376895085E+03 -0.29013591491E+03 -0.20414723301E+04  0.20677120239E+04  0.25500000920E-02 0.  1.
       -2    1    3    3    0  502 -0.15376895085E+03  0.29013591491E+03  0.53053496313E+03  0.62393195661E+03  0.25500000920E-02 0. -1.
</event>
<event>
 5   0  0.6414768E-05  0.2196503E+04  0.7818609E-02  0.8519885E-01
        2   -1    0    0  501    0  0.00000000000E+00  0.00000000000E+00  0.11642039767E+04  0.11642039767E+04  0.25500000920E-02 0. -1.
       -2   -1    0    0    0  501  0.00000000000E+00  0.00000000000E+00 -0.10360356790E+04  0.10360356790E+04  0.25500000920E-02 0.  1.
    10030    2    1    2    0    0  0.00000000000E+00  0.00000000000E+00  0.12816829775E+03  0.22002396558E+04  0.21965034555E+04 0.  0.
        2    1    3    3  502    0  0.90759847938E+03 -0.60445763426E+03  0.19489274337E+03  0.11077396864E+04  0.25500000920E-02 0.  1.
       -2    1    3    3    0  502 -0.90759847938E+03  0.60445763426E+03 -0.66724445629E+02  0.10924999694E+04  0.25500000920E-02 0. -1.
</event>
<event>
 5   0  0.2910318E-05  0.1951279E+04  0.7818609E-02  0.8629744E-01
       -1   -1    0    0    0  501  0.00000000000E+00  0.00000000000E+00  0.48254819151E+03  0.48254819154E+03  0.50400001928E-02 0.  1.
        1   -1    0    0  501    0  0.00000000000E+00  0.00000000000E+00 -0.19725947994E+04  0.19725947994E+04  0.50400001928E-02 0. -1.
    10030    2    1    2    0    0  0.00000000000E+00  0.00000000000E+00 -0.14900466078E+04  0.24551429909E+04  0.19512786096E+04 0.  0.
        5    1    3    3  502    0  0.44309137914E+03  0.15943947009E+03  0.33007554903E+03  0.57508510062E+03  0.46999998093E+01 0.  1.
       -5    1    3    3    0  502 -0.44309137914E+03 -0.15943947009E+03 -0.18201221569E+04  0.18800578903E+04  0.46999998093E+01 0. -1.
</event>
<event>
 5   0  0.6628798E-05  0.2192667E+04  0.7818609E-02  0.8521486E-01
        2   -1    0    0  501    0  0.00000000000E+00  0.00000000000E+00  0.14504194244E+04  0.14504194244E+04  0.25500000920E-02 0. -1.
       -2   -1    0    0    0  501  0.00000000000E+00  0.00000000000E+00 -0.82868939205E+03  0.82868939206E+03  0.25500000920E-02 0.  1.
    10030    2    1    2    0    0  0.00000000000E+00  0.00000000000E+00  0.62173003238E+03  0.22791088165E+04  0.21926670436E+04 0.  0.
        4    1    3    3  502    0 -0.49605854632E+03  0.16617001152E+03  0.13123096921E+04  0.14127437471E+04  0.12699999809E+01 0. -1.
       -4    1    3    3    0  502  0.49605854632E+03 -0.16617001152E+03 -0.69057965973E+03  0.86636506938E+03  0.12699999809E+01 0.  1.
</event>
<event>
 5   0  0.2908031E-05  0.2359063E+04  0.7818609E-02  0.8454991E-01
        1   -1    0    0  501    0  0.00000000000E+00  0.00000000000E+00  0.15563669875E+04  0.15563669875E+04  0.50400001928E-02 0.  1.
       -1   -1    0    0    0  501  0.00000000000E+00  0.00000000000E+00 -0.89393749638E+03  0.89393749639E+03  0.50400001928E-02 0. -1.
    10030    2    1    2    0    0  0.00000000000E+00  0.00000000000E+00  0.66242949113E+03  0.24503044839E+04  0.23590632109E+04 0.  0.
        1    1    3    3  502    0  0.36135949706E+03 -0.52457704461E+03  0.13623510374E+04  0.15039155930E+04  0.50400001928E-02 0.  1.
       -1    1    3    3    0  502 -0.36135949706E+03  0.52457704461E+03 -0.69992154626E+03  0.94638889089E+03  0.50400001928E-02 0. -1.
</event>
<event>
 5   0  0.2910318E-05  0.2191525E+04  0.7818609E-02  0.8521964E-01
       -1   -1    0    0    0  501  0.00000000000E+00  0.00000000000E+00  0.89818161151E+03  0.89818161153E+03  0.50400001928E-02 0.  1.
        1   -1    0    0  501    0  0.00000000000E+00  0.00000000000E+00 -0.13368069389E+04  0.13368069390E+04  0.50400001928E-02 0. -1.
    10030    2    1    2    0    0  0.00000000000E+00  0.00000000000E+00 -0.43862532743E+03  0.22349885505E+04  0.21915249583E+04 0.  0.
        5    1    3    3  502    0 -0.83316896017E+03 -0.55365848066E+03 -0.67535585338E+03  0.12069945518E+04  0.46999998093E+01 0. -1.
       -5    1    3    3    0  502  0.83316896017E+03  0.55365848066E+03  0.23673052595E+03  0.10279939987E+04  0.46999998093E+01 0.  1.
</event>
<event>
 5   0  0.2908031E-05  0.1895725E+04  0.7818609E-02  0.8656987E-01
       -1   -1    0    0    0  501  0.00000000000E+00  0.00000000000E+00  0.11289483089E+04  0.11289483089E+04  0.50400001928E-02 0. -1.
        1   -1    0    0  501    0  0.00000000000E+00  0.00000000000E+00 -0.79582296105E+03  0.79582296107E+03  0.50400001928E-02 0.  1.
    10030    2    1    2    0    0  0.00000000000E+00  0.00000000000E+00  0.33312534782E+03  0.19247712700E+04  0.18957246489E+04 0.  0.
        1    1    3    3  502    0  0.91182004709E+03  0.95075498421E+02 -0.77933646038E+02  0.92006999836E+03  0.50400001928E-02 0.  1.
       -1    1    3    3    0  502 -0.91182004709E+03 -0.95075498421E+02  0.41105899386E+03  0.10047012716E+04  0.50400001928E-02 0. -1.
</event>
<event>
 5   0  0.6414768E-05  0.2228327E+04  0.7818609E-02  0.8506729E-01
        2   -1    0    0  501    0  0.00000000000E+00  0.00000000000E+00  0.10355951053E+04  0.10355951053E+04  0.25500000920E-02 0. -1.
       -2   -1    0    0    0  501  0.00000000000E+00  0.00000000000E+00 -0.11986932092E+04  0.11986932092E+04  0.25500000920E-02 0.  1.
    10030    2    1    2    0    0  0.00000000000E+00  0.00000000000E+00 -0.16309810390E+03  0.22342883146E+04  0.22283274628E+04 0.  0.
        2    1    3    3  502    0 -0.22746489988E+02  0.90628006636E+03 -0.73096972724E+03  0.11645504298E+04  0.25500000920E-02 0.  1.
       -2    1    3    3    0  502  0.22746489988E+02 -0.90628006636E+03  0.56787162334E+03  0.10697378848E+04  0.25500000920E-02 0. -1.
</event>
<event>
 5   0  0.6306919E-05  0.2194622E+04  0.7818609E-02  0.8520670E-01
        2   -1    0    0  501    0  0.00000000000E+00  0.00000000000E+00  0.11639139260E+04  0.11639139260E+04  0.25500000920E-02 0. -1.
       -2   -1    0    0    0  501  0.00000000000E+00  0.00000000000E+00 -0.10345196921E+04  0.10345196921E+04  0.25500000920E-02 0.  1.
    10030    2    1    2    0    0  0.00000000000E+00  0.00000000000E+00  0.12939423384E+03  0.21984336181E+04  0.21946224061E+04 0.  0.
        3    1    3    3  502    0 -0.64430751983E+03  0.83200781332E+03  0.37623991700E+03  0.11175534291E+04  0.10100000352E+00 0. -1.
       -3    1    3    3    0  502  0.64430751983E+03 -0.83200781332E+03 -0.24684568316E+03  0.10808801890E+04  0.10100000352E+00 0.  1.
</event>
<event>
 5   0  0.2910318E-05  0.2183291E+04  0.7818609E-02  0.8525415E-01
        1   -1    0    0  501    0  0.00000000000E+00  0.00000000000E+00  0.13359775247E+04  0.13359775247E+04  0.50400001928E-02 0.  1.
       -1   -1    0    0    0  501  0.00000000000E+00  0.00000000000E+00 -0.89199883563E+03  0.89199883565E+03  0.50400001928E-02 0. -1.
    10030    2    1    2    0    0  0.00000000000E+00  0.00000000000E+00  0.44397868905E+03  0.22279763603E+04  0.21832914569E+04 0.  0.
        5    1    3    3  502    0 -0.45760876614E+02 -0.71043104713E+03 -0.62251208750E+03  0.94570065012E+03  0.46999998093E+01 0.  1.
       -5    1    3    3    0  502  0.45760876614E+02  0.71043104713E+03  0.10664907766E+04  0.12822757102E+04  0.46999998093E+01 0. -1.
</event>
<event>
 5   0  0.6445740E-05  0.2204164E+04  0.7818609E-02  0.8516697E-01
       -2   -1    0    0    0  501  0.00000000000E+00  0.00000000000E+00  0.12195716959E+04  0.12195716959E+04  0.25500000920E-02 0. -1.
        2   -1    0    0  501    0  0.00000000000E+00  0.00000000000E+00 -0.99591121467E+03  0.99591121468E+03  0.25500000920E-02 0.  1.
    10030    2    1    2    0    0  0.00000000000E+00  0.00000000000E+00  0.22366048124E+03  0.22154829106E+04  0.22041643578E+04 0.  0.
        5    1    3    3  502    0  0.74343326604E+03  0.21727078341E+03 -0.67620041886E+03  0.10281870991E+04  0.46999998093E+01 0.  1.
       -5    1    3    3    0  502 -0.74343326604E+03 -0.21727078341E+03  0.89986090010E+03  0.11872958115E+04  0.46999998093E+01 0. -1.
</event>
<event>
 5   0  0.6445740E-05  0.2122185E+04  0.7818609E-02  0.8551533E-01
        2   -1    0    0  501    0  0.00000000000E+00  0.00000000000E+00  0.58153528041E+03  0.58153528041E+03  0.25500000920E-02 0.  1.
       -2   -1    0    0    0  501  0.00000000000E+00  0.00000000000E+00 -0.19361111372E+04  0.19361111372E+04  0.25500000920E-02 0. -1.
    10030    2    1    2    0    0  0.00000000000E+00  0.00000000000E+00 -0.13545758568E+04  0.25176464176E+04  0.21221846603E+04 0.  0.
        5    1    3    3  502    0  0.38647880934E+03  0.91982357667E+02 -0.18445397151E+04  0.18868427265E+04  0.46999998093E+01 0. -1.
       -5    1    3    3    0  502 -0.38647880934E+03 -0.91982357667E+02  0.48996385831E+03  0.63080369105E+03  0.46999998093E+01 0.  1.
</event>
<event>
 5   0  0.6445740E-05  0.2224403E+04  0.7818609E-02  0.8508339E-01
        2   -1    0    0  501    0  0.00000000000E+00  0.00000000000E+00  0.28460611365E+04  0.28460611365E+04  0.25500000920E-02 0. -1.
       -2   -1    0    0    0  501  0.00000000000E+00  0.00000000000E+00 -0.43463294629E+03  0.43463294630E+03  0.25500000920E-02 0.  1.
    10030    2    1    2    0    0  0.00000000000E+00  0.00000000000E+00  0.24114281902E+04  0.32806940828E+04  0.22244027846E+04 0.  0.
        5    1    3    3  502    0 -0.15910397668E+03  0.55040270732E+03 -0.20022202212E+03  0.60693340966E+03  0.46999998093E+01 0.  1.
       -5    1    3    3    0  502  0.15910397668E+03 -0.55040270732E+03  0.26116502123E+04  0.26737606731E+04  0.46999998093E+01 0. -1.
</event>
<event>
 5   0  0.2908031E-05  0.2198099E+04  0.7818609E-02  0.8519220E-01
        1   -1    0    0  501    0  0.00000000000E+00  0.00000000000E+00  0.58333036662E+03  0.58333036664E+03  0.50400001928E-02 0. -1.
       -1   -1    0    0    0  501  0.00000000000E+00  0.00000000000E+00 -0.20707121216E+04  0.20707121216E+04  0.50400001928E-02 0.  1.
    10030    2    1    2    0    0  0.00000000000E+00  0.00000000000E+00 -0.14873817550E+04  0.26540424882E+04  0.21980985065E+04 0.  0.
        1    1    3    3  502    0  0.86049995564E+03  0.17820250255E+03  0.53295666529E+02  0.88037306505E+03  0.50400001928E-02 0. -1.
       -1    1    3    3    0  502 -0.86049995564E+03 -0.17820250255E+03 -0.15406774215E+04  0.17736694232E+04  0.50400001928E-02 0.  1.
</event>
<event>
 5   0  0.6628798E-05  0.2216531E+04  0.7818609E-02  0.8511579E-01
        2   -1    0    0  501    0  0.00000000000E+00  0.00000000000E+00  0.86096926834E+03  0.86096926834E+03  0.25500000920E-02 0. -1.
       -2   -1    0    0    0  501  0.00000000000E+00  0.00000000000E+00 -0.14265922598E+04  0.14265922598E+04  0.25500000920E-02 0.  1.
    10030    2    1    2    0    0  0.00000000000E+00  0.00000000000E+00 -0.56562299145E+03  0.22875615281E+04  0.22165307073E+04 0.  0.
        4    1    3    3  502    0 -0.90279164832E+03 -0.31035592732E+03  0.29816430126E+03  0.10001285544E+04  0.12699999809E+01 0. -1.
       -4    1    3    3    0  502  0.90279164832E+03  0.31035592732E+03 -0.86378729272E+03  0.12874329737E+04  0.12699999809E+01 0.  1.
</event>
<event>
 5   0  0.2908031E-05  0.2240942E+04  0.7818609E-02  0.8501578E-01
        1   -1    0    0  501    0  0.00000000000E+00  0.00000000000E+00  0.99439064738E+03  0.99439064739E+03  0.50400001928E-02 0. -1.
       -1   -1    0    0    0  501  0.00000000000E+00  0.00000000000E+00 -0.12625368906E+04  0.12625368906E+04  0.50400001928E-02 0.  1.
    10030    2    1    2    0    0  0.00000000000E+00  0.00000000000E+00 -0.26814624324E+03  0.22569275380E+04  0.22409416557E+04 0.  0.
        1    1    3    3  502    0  0.77088615642E+03  0.23780454224E+03  0.64905880967E+03  0.10354196275E+04  0.50400001928E-02 0. -1.
       -1    1    3    3    0  502 -0.77088615642E+03 -0.23780454224E+03 -0.91720505291E+03  0.12215079106E+04  0.50400001928E-02 0.  1.
</event>
<event>
 5   0  0.2908031E-05  0.2214702E+04  0.7818609E-02  0.8512334E-01
        1   -1    0    0  501    0  0.00000000000E+00  0.00000000000E+00  0.12959618997E+04  0.12959618997E+04  0.50400001928E-02 0. -1.
       -1   -1    0    0    0  501  0.00000000000E+00  0.00000000000E+00 -0.94619000808E+03  0.94619000809E+03  0.50400001928E-02 0.  1.
    10030    2    1    2    0    0  0.00000000000E+00  0.00000000000E+00  0.34977189161E+03  0.22421519078E+04  0.22147019667E+04 0.  0.
        1    1    3    3  502    0  0.38725939403E+03  0.37013596618E+03  0.11560500881E+04  0.12741358946E+04  0.50400001928E-02 0. -1.
       -1    1    3    3    0  502 -0.38725939403E+03 -0.37013596618E+03 -0.80627819645E+03  0.96801601321E+03  0.50400001928E-02 0.  1.
</event>
<event>
 5   0  0.2929471E-05  0.2231351E+04  0.7818609E-02  0.8505491E-01
       -1   -1    0    0    0  501  0.00000000000E+00  0.00000000000E+00  0.66442251760E+03  0.66442251761E+03  0.50400001928E-02 0.  1.
        1   -1    0    0  501    0  0.00000000000E+00  0.00000000000E+00 -0.18734041017E+04  0.18734041017E+04  0.50400001928E-02 0. -1.
    10030    2    1    2    0    0  0.00000000000E+00  0.00000000000E+00 -0.12089815841E+04  0.25378266193E+04  0.22313510434E+04 0.  0.
        2    1    3    3  502    0 -0.37518260083E+03  0.96272569407E+03 -0.12581767758E+03  0.10408807972E+04  0.25500000920E-02 0.  1.
       -2    1    3    3    0  502  0.37518260083E+03 -0.96272569407E+03 -0.10831639065E+04  0.14969458221E+04  0.25500000920E-02 0. -1.
</event>
<event>
 5   0  0.6628798E-05  0.2152392E+04  0.7818609E-02  0.8538509E-01
        2   -1    0    0  501    0  0.00000000000E+00  0.00000000000E+00  0.16160337439E+04  0.16160337439E+04  0.25500000920E-02 0.  1.
       -2   -1    0    0    0  501  0.00000000000E+00  0.00000000000E+00 -0.71669139240E+03  0.71669139240E+03  0.25500000920E-02 0. -1.
    10030    2    1    2    0    0  0.00000000000E+00  0.00000000000E+00  0.89934235154E+03  0.23327251363E+04  0.21523916689E+04 0.  0.
        4    1    3    3  502    0 -0.25838750328E+03  0.10357196949E+04  0.30140083989E+03  0.11091994715E+04  0.12699999809E+01 0. -1.
       -4    1    3    3    0  502  0.25838750328E+03 -0.10357196949E+04  0.59794151165E+03  0.12235256649E+04  0.12699999809E+01 0.  1.
</event>
<event>
 5   0  0.2753631E-05  0.2222771E+04  0.7818609E-02  0.8509010E-01
       -1   -1    0    0    0  501  0.00000000000E+00  0.00000000000E+00  0.56203125798E+03  0.56203125800E+03  0.50400001928E-02 0.  1.
        1   -1    0    0  501    0  0.00000000000E+00  0.00000000000E+00 -0.21977031569E+04  0.21977031569E+04  0.50400001928E-02 0. -1.
    10030    2    1    2    0    0  0.00000000000E+00  0.00000000000E+00 -0.16356718989E+04  0.27597344149E+04  0.22227711263E+04 0.  0.
        4    1    3    3  502    0  0.54534223214E+02  0.85450156454E+03 -0.16975410245E+04  0.19012611730E+04  0.12699999809E+01 0. -1.
       -4    1    3    3    0  502 -0.54534223214E+02 -0.85450156454E+03  0.61869125644E+02  0.85847324182E+03  0.12699999809E+01 0.  1.
</event>
<event>
 5   0  0.2820239E-05  0.2242658E+04  0.7818609E-02  0.8500880E-01
        1   -1    0    0  501    0  0.00000000000E+00  0.00000000000E+00  0.14058024063E+04  0.14058024063E+04  0.50400001928E-02 0. -1.
       -1   -1    0    0    0  501  0.00000000000E+00  0.00000000000E+00 -0.89442093718E+03  0.89442093719E+03  0.50400001928E-02 0.  1.
    10030    2    1    2    0    0  0.00000000000E+00  0.00000000000E+00  0.51138146910E+03  0.23002233435E+04  0.22426583384E+04 0.  0.
        3    1    3    3  502    0 -0.78247454724E+03 -0.20331641978E+03  0.10526653608E+04  0.13272936208E+04  0.10100000352E+00 0.  1.
       -3    1    3    3    0  502  0.78247454724E+03  0.20331641978E+03 -0.54128389175E+03  0.97292972269E+03  0.10100000352E+00 0. -1.
</event>
<event>
 5   0  0.6293013E-05  0.2192467E+04  0.7818609E-02  0.8521570E-01
       -2   -1    0    0    0  501  0.00000000000E+00  0.00000000000E+00  0.83811244773E+03  0.83811244774E+03  0.25500000920E-02 0.  1.
        2   -1    0    0  501    0  0.00000000000E+00  0.00000000000E+00 -0.14338504014E+04  0.14338504014E+04  0.25500000920E-02 0. -1.
    10030    2    1    2    0    0  0.00000000000E+00  0.00000000000E+00 -0.59573795365E+03  0.22719628491E+04  0.21924669846E+04 0.  0.
        1    1    3    3  502    0 -0.81238360135E+03  0.69996537770E+03 -0.61999520291E+02  0.10741334118E+04  0.50400001928E-02 0. -1.
       -1    1    3    3    0  502  0.81238360135E+03 -0.69996537770E+03 -0.53373843336E+03  0.11978294374E+04  0.50400001928E-02 0.  1.
</event>
<event>
 5   0  0.6445740E-05  0.2214991E+04  0.7818609E-02  0.8512214E-01
       -2   -1    0    0    0  501  0.00000000000E+00  0.00000000000E+00  0.95694893177E+03  0.95694893177E+03  0.25500000920E-02 0.  1.
        2   -1    0    0  501    0  0.00000000000E+00  0.00000000000E+00 -0.12817261376E+04  0.12817261376E+04  0.25500000920E-02 0. -1.
    10030    2    1    2    0    0  0.00000000000E+00  0.00000000000E+00 -0.32477720580E+03  0.22386750693E+04  0.22149911586E+04 0.  0.
        5    1    3    3  502    0  0.10299044524E+04  0.40714141080E+03 -0.15475410794E+03  0.11182299555E+04  0.46999998093E+01 0.  1.
       -5    1    3    3    0  502 -0.10299044524E+04 -0.40714141080E+03 -0.17002309786E+03  0.11204451139E+04  0.46999998093E+01 0. -1.
</event>
<event>
 5   0  0.2753631E-05  0.2202143E+04  0.7818609E-02  0.8517537E-01
       -1   -1    0    0    0  501  0.00000000000E+00  0.00000000000E+00  0.10153660044E+04  0.10153660045E+04  0.50400001928E-02 0.  1.
        1   -1    0    0  501    0  0.00000000000E+00  0.00000000000E+00 -0.11940108246E+04  0.11940108246E+04  0.50400001928E-02 0. -1.
    10030    2    1    2    0    0  0.00000000000E+00  0.00000000000E+00 -0.17864482018E+03  0.22093768291E+04  0.22021425933E+04 0.  0.
        4    1    3    3  502    0  0.10101782068E+04  0.22836064394E+03 -0.46437903292E+03  0.11350145780E+04  0.12699999809E+01 0. -1.
       -4    1    3    3    0  502 -0.10101782068E+04 -0.22836064394E+03  0.28573421273E+03  0.10743622511E+04  0.12699999809E+01 0.  1.
</event>
<event>
 5   0  0.6628798E-05  0.2206633E+04  0.7818609E-02  0.8515673E-01
       -2   -1    0    0    0  501  0.00000000000E+00  0.00000000000E+00  0.88171186464E+03  0.88171186464E+03  0.25500000920E-02 0. -1.
        2   -1    0    0  501    0  0.00000000000E+00  0.00000000000E+00 -0.13806175795E+04  0.13806175795E+04  0.25500000920E-02 0.  1.
    10030    2    1    2    0    0  0.00000000000E+00  0.00000000000E+00 -0.49890571484E+03  0.22623294441E+04  0.22066326385E+04 0.  0.
        4    1    3    3  502    0 -0.47250546508E+03  0.39299411919E+03 -0.11888773842E+04  0.13383336056E+04  0.12699999809E+01 0.  1.
       -4    1    3    3    0  502  0.47250546508E+03 -0.39299411919E+03  0.68997166936E+03  0.92399583855E+03  0.12699999809E+01 0. -1.
</event>
<event>
 5   0  0.6414768E-05  0.2197936E+04  0.7818609E-02  0.8519288E-01
        2   -1    0    0  501    0  0.00000000000E+00  0.00000000000E+00  0.20316773257E+04  0.20316773257E+04  0.25500000920E-02 0.  1.
       -2   -1    0    0    0  501  0.00000000000E+00  0.00000000000E+00 -0.59444980844E+03  0.59444980844E+03  0.25500000920E-02 0. -1.
    10030    2    1    2    0    0  0.00000000000E+00  0.00000000000E+00  0.14372275172E+04  0.26261271341E+04  0.21979355742E+04 0.  0.
        2    1    3    3  502    0  0.26713626315E+03  0.63739073429E+03  0.17395353739E+04  0.18717938050E+04  0.25500000920E-02 0.  1.
       -2    1    3    3    0  502 -0.26713626315E+03 -0.63739073429E+03 -0.30230785667E+03  0.75433332914E+03  0.25500000920E-02 0. -1.
</event>
<event>
 5   0  0.2908031E-05  0.2194157E+04  0.7818609E-02  0.8520864E-01
        1   -1    0    0  501    0  0.00000000000E+00  0.00000000000E+00  0.11566544888E+04  0.11566544888E+04  0.50400001928E-02 0.  1.
       -1   -1    0    0    0  501  0.00000000000E+00  0.00000000000E+00 -0.10405711938E+04  0.10405711938E+04  0.50400001928E-02 0. -1.
    10030    2    1    2    0    0  0.00000000000E+00  0.00000000000E+00  0.11608329495E+03  0.21972256826E+04  0.21941570976E+04 0.  0.
        1    1    3    3  502    0  0.81953456523E+03 -0.71972395364E+03  0.17628247189E+03  0.11048597119E+04  0.50400001928E-02 0. -1.
       -1    1    3    3    0  502 -0.81953456523E+03  0.71972395364E+03 -0.60199176934E+02  0.10923659707E+04  0.50400001928E-02 0.  1.
</event>
<event>
 5   0  0.6414768E-05  0.2208816E+04  0.7818609E-02  0.8514768E-01
        2   -1    0    0  501    0  0.00000000000E+00  0.00000000000E+00  0.14799444387E+04  0.14799444387E+04  0.25500000920E-02 0.  1.
       -2   -1    0    0    0  501  0.00000000000E+00  0.00000000000E+00 -0.82416426706E+03  0.82416426706E+03  0.25500000920E-02 0. -1.
    10030    2    1    2    0    0  0.00000000000E+00  0.00000000000E+00  0.65578017162E+03  0.23041087057E+04  0.22088162654E+04 0.  0.
        2    1    3    3  502    0  0.72478895577E+03  0.41177511293E+03  0.10836026630E+04  0.13671402654E+04  0.25500000920E-02 0.  1.
       -2    1    3    3    0  502 -0.72478895577E+03 -0.41177511293E+03 -0.42782249139E+03  0.93696844033E+03  0.25500000920E-02 0. -1.
</event>
<event>
 5   0  0.2929471E-05  0.2189280E+04  0.7818609E-02  0.8522903E-01
        1   -1    0    0  501    0  0.00000000000E+00  0.00000000000E+00  0.15744164054E+04  0.15744164054E+04  0.50400001928E-02 0. -1.
       -1   -1    0    0    0  501  0.00000000000E+00  0.00000000000E+00 -0.76106724294E+03  0.76106724296E+03  0.50400001928E-02 0.  1.
    10030    2    1    2    0    0  0.00000000000E+00  0.00000000000E+00  0.81334916244E+03  0.23354836483E+04  0.21892800213E+04 0.  0.
        2    1    3    3  502    0  0.24184587664E+03  0.10163095494E+04  0.57945935981E+02  0.10462945378E+04  0.25500000920E-02 0.  1.
       -2    1    3    3    0  502 -0.24184587664E+03 -0.10163095494E+04  0.75540322646E+03  0.12891891106E+04  0.25500000920E-02 0. -1.
</event>
<event>
 5   0  0.2753631E-05  0.2199026E+04  0.7818609E-02  0.8518834E-01
       -1   -1    0    0    0  501  0.00000000000E+00  0.00000000000E+00  0.77599940050E+03  0.77599940052E+03  0.50400001928E-02 0.  1.
        1   -1    0    0  501    0  0.00000000000E+00  0.00000000000E+00 -0.15578987938E+04  0.15578987938E+04  0.50400001928E-02 0. -1.
    10030    2    1    2    0    0  0.00000000000E+00  0.00000000000E+00 -0.78189939328E+03  0.23338981943E+04  0.21990257207E+04 0.  0.
        4    1    3    3  502    0 -0.57668235846E+03  0.13168913975E+03 -0.13746296693E+04  0.14965002214E+04  0.12699999809E+01 0. -1.
       -4    1    3    3    0  502  0.57668235846E+03 -0.13168913975E+03  0.59273027598E+03  0.83739797292E+03  0.12699999809E+01 0.  1.
</event>
<event>
 5   0  0.6293013E-05  0.2219747E+04  0.7818609E-02  0.8510254E-01
        2   -1    0    0  501    0  0.00000000000E+00  0.00000000000E+00  0.12639170083E+04  0.12639170083E+04  0.25500000920E-02 0. -1.
       -2   -1    0    0    0  501  0.00000000000E+00  0.00000000000E+00 -0.97460433072E+03  0.97460433072E+03  0.25500000920E-02 0.  1.
    10030    2    1    2    0    0  0.00000000000E+00  0.00000000000E+00  0.28931267761E+03  0.22385213391E+04  0.22197468234E+04 0.  0.
        1    1    3    3  502    0  0.88245348907E+03  0.46537137876E+03  0.63510740969E+03  0.11826479199E+04  0.50400001928E-02 0. -1.
       -1    1    3    3    0  502 -0.88245348907E+03 -0.46537137876E+03 -0.34579473208E+03  0.10558734192E+04  0.50400001928E-02 0.  1.
</event>
<event>
 5   0  0.6414768E-05  0.2176860E+04  0.7818609E-02  0.8528121E-01
       -2   -1    0    0    0  501  0.00000000000E+00  0.00000000000E+00  0.10171087356E+04  0.10171087356E+04  0.25500000920E-02 0. -1.
        2   -1    0    0  501    0  0.00000000000E+00  0.00000000000E+00 -0.11647527971E+04  0.11647527971E+04  0.25500000920E-02 0.  1.
    10030    2    1    2    0    0  0.00000000000E+00  0.00000000000E+00 -0.14764406149E+03  0.21818615326E+04  0.21768603489E+04 0.  0.
        2    1    3    3  502    0 -0.93705523490E+03  0.23202029275E+03  0.43009970108E+03  0.10568309621E+04  0.25500000920E-02 0. -1.
       -2    1    3    3    0  502  0.93705523490E+03 -0.23202029275E+03 -0.57774376257E+03  0.11250305706E+04  0.25500000920E-02 0.  1.
</event>
<event>
 5   0  0.2908031E-05  0.2188485E+04  0.7818609E-02  0.8523236E-01
       -1   -1    0    0    0  501  0.00000000000E+00  0.00000000000E+00  0.15651438227E+04  0.15651438227E+04  0.50400001928E-02 0.  1.
        1   -1    0    0  501    0  0.00000000000E+00  0.00000000000E+00 -0.76502041676E+03  0.76502041678E+03  0.50400001928E-02 0. -1.
    10030    2    1    2    0    0  0.00000000000E+00  0.00000000000E+00  0.80012340590E+03  0.23301642395E+04  0.21884853022E+04 0.  0.
        1    1    3    3  502    0  0.32351919741E+03  0.50291200598E+02  0.15117694452E+04  0.15468163211E+04  0.50400001928E-02 0.  1.
       -1    1    3    3    0  502 -0.32351919741E+03 -0.50291200598E+02 -0.71164603925E+03  0.78334791833E+03  0.50400001928E-02 0. -1.
</event>
<event>
 5   0  0.2929471E-05  0.2192353E+04  0.7818609E-02  0.8521618E-01
       -1   -1    0    0    0  501  0.00000000000E+00  0.00000000000E+00  0.13261963867E+04  0.13261963867E+04  0.50400001928E-02 0. -1.
        1   -1    0    0  501    0  0.00000000000E+00  0.00000000000E+00 -0.90605224723E+03  0.90605224725E+03  0.50400001928E-02 0.  1.
    10030    2    1    2    0    0  0.00000000000E+00  0.00000000000E+00  0.42014413945E+03  0.22322486339E+04  0.21923532712E+04 0.  0.
        2    1    3    3  502    0 -0.20656541270E+03  0.10207358182E+04 -0.13825318721E+03  0.10505640505E+04  0.25500000920E-02 0. -1.
       -2    1    3    3    0  502  0.20656541270E+03 -0.10207358182E+04  0.55839732666E+03  0.11816845835E+04  0.25500000920E-02 0.  1.
</event>
<event>
 5   0  0.6293013E-05  0.2217873E+04  0.7818609E-02  0.8511026E-01
        2   -1    0    0  501    0  0.00000000000E+00  0.00000000000E+00  0.13020205862E+04  0.13020205862E+04  0.25500000920E-02 0. -1.
       -2   -1    0    0    0  501  0.00000000000E+00  0.00000000000E+00 -0.94448571035E+03  0.94448571035E+03  0.25500000920E-02 0.  1.
    10030    2    1    2    0    0  0.00000000000E+00  0.00000000000E+00  0.35753487587E+03  0.22465062966E+04  0.22178727089E+04 0.  0.
        1    1    3    3  502    0 -0.54805720870E+03 -0.37771426408E+03 -0.71964756859E+03  0.98026904078E+03  0.50400001928E-02 0.  1.
       -1    1    3    3    0  502  0.54805720870E+03  0.37771426408E+03  0.10771824445E+04  0.12662372558E+04  0.50400001928E-02 0. -1.
</event>
<event>
 5   0  0.2929471E-05  0.2199140E+04  0.7818609E-02  0.8518786E-01
        1   -1    0    0  501    0  0.00000000000E+00  0.00000000000E+00  0.17462176336E+04  0.17462176336E+04  0.50400001928E-02 0.  1.
       -1   -1    0    0    0  501  0.00000000000E+00  0.00000000000E+00 -0.69238448113E+03  0.69238448115E+03  0.50400001928E-02 0. -1.
    10030    2    1    2    0    0  0.00000000000E+00  0.00000000000E+00  0.10538331524E+04  0.24386021147E+04  0.21991398229E+04 0.  0.
        2    1    3    3  502    0 -0.50385983013E+03 -0.76982308929E+03  0.11946037904E+04  0.15078396908E+04  0.25500000920E-02 0.  1.
       -2    1    3    3    0  502  0.50385983013E+03  0.76982308929E+03 -0.14077063796E+03  0.93076242389E+03  0.25500000920E-02 0. -1.
</event>
<event>
 5   0  0.2820239E-05  0.2188208E+04  0.7818609E-02  0.8523352E-01
        1   -1    0    0  501    0  0.00000000000E+00  0.00000000000E+00  0.13311819867E+04  0.13311819867E+04  0.50400001928E-02 0. -1.
       -1   -1    0    0    0  501  0.00000000000E+00  0.00000000000E+00 -0.89924880389E+03  0.89924880390E+03  0.50400001928E-02 0.  1.
    10030    2    1    2    0    0  0.00000000000E+00  0.00000000000E+00  0.43193318277E+03  0.22304307906E+04  0.21882082253E+04 0.  0.
        3    1    3    3  502    0 -0.75321128726E+03 -0.74467330704E+03  0.49548080079E+03  0.11693446077E+04  0.10100000352E+00 0. -1.
       -3    1    3    3    0  502  0.75321128726E+03  0.74467330704E+03 -0.63547618017E+02  0.10610861828E+04  0.10100000352E+00 0.  1.
</event>
<event>
 5   0  0.6293013E-05  0.2204825E+04  0.7818609E-02  0.8516422E-01
        2   -1    0    0  501    0  0.00000000000E+00  0.00000000000E+00  0.11847194534E+04  0.11847194534E+04  0.25500000920E-02 0.  1.
       -2   -1    0    0    0  501  0.00000000000E+00  0.00000000000E+00 -0.10258240513E+04  0.10258240513E+04  0.25500000920E-02 0. -1.
    10030    2    1    2    0    0  0.00000000000E+00  0.00000000000E+00  0.15889540209E+03  0.22105435048E+04  0.22048253531E+04 0.  0.
        1    1    3    3  502    0 -0.36283263300E+03 -0.21305890609E+03 -0.94215130738E+03  0.10318385063E+04  0.50400001928E-02 0. -1.
       -1    1    3    3    0  502  0.36283263300E+03  0.21305890609E+03  0.11010467095E+04  0.11787049985E+04  0.50400001928E-02 0.  1.
</event>
<event>
 5   0  0.6628798E-05  0.2157147E+04  0.7818609E-02  0.8536479E-01
       -2   -1    0    0    0  501  0.00000000000E+00  0.00000000000E+00  0.86888541622E+03  0.86888541623E+03  0.25500000920E-02 0.  1.
        2   -1    0    0  501    0  0.00000000000E+00  0.00000000000E+00 -0.13388650270E+04  0.13388650270E+04  0.25500000920E-02 0. -1.
    10030    2    1    2    0    0  0.00000000000E+00  0.00000000000E+00 -0.46997961078E+03  0.22077504432E+04  0.21571465377E+04 0.  0.
        4    1    3    3  502    0  0.69668649318E+03  0.74222347776E+03  0.12981390259E+03  0.10262168499E+04  0.12699999809E+01 0.  1.
       -4    1    3    3    0  502 -0.69668649318E+03 -0.74222347776E+03 -0.59979351337E+03  0.11815335934E+04  0.12699999809E+01 0. -1.
</event>
<event>
 5   0  0.6628798E-05  0.2157384E+04  0.7818609E-02  0.8536378E-01
       -2   -1    0    0    0  501  0.00000000000E+00  0.00000000000E+00  0.85128114236E+03  0.85128114237E+03  0.25500000920E-02 0. -1.
        2   -1    0    0  501    0  0.00000000000E+00  0.00000000000E+00 -0.13668527358E+04  0.13668527358E+04  0.25500000920E-02 0.  1.
    10030    2    1    2    0    0  0.00000000000E+00  0.00000000000E+00 -0.51557159343E+03  0.22181338782E+04  0.21573835620E+04 0.  0.
        4    1    3    3  502    0 -0.81073230673E+02  0.10754868702E+04 -0.23912339661E+03  0.11047291471E+04  0.12699999809E+01 0. -1.
       -4    1    3    3    0  502  0.81073230673E+02 -0.10754868702E+04 -0.27644819682E+03  0.11134047311E+04  0.12699999809E+01 0.  1.
</event>
<event>
 5   0  0.6306919E-05  0.2187672E+04  0.7818609E-02  0.8523577E-01
       -2   -1    0    0    0  501  0.00000000000E+00  0.00000000000E+00  0.86036918649E+03  0.86036918649E+03  0.25500000920E-02 0.  1.
        2   -1    0    0  501    0  0.00000000000E+00  0.00000000000E+00 -0.13906556301E+04  0.13906556301E+04  0.25500000920E-02 0. -1.
    10030    2    1    2    0    0  0.00000000000E+00  0.00000000000E+00 -0.53028644362E+03  0.22510248166E+04  0.21876720533E+04 0.  0.
        3    1    3    3  502    0 -0.10001388291E+04  0.31001638998E+03  0.60387599758E+02  0.10488253010E+04  0.10100000352E+00 0.  1.
       -3    1    3    3    0  502  0.10001388291E+04 -0.31001638998E+03 -0.59067404338E+03  0.12021995156E+04  0.10100000352E+00 0. -1.
</event>
<event>
 5   0  0.2908031E-05  0.2155013E+04  0.7818609E-02  0.8537390E-01
       -1   -1    0    0    0  501  0.00000000000E+00  0.00000000000E+00  0.11361258978E+04  0.11361258978E+04  0.50400001928E-02 0.  1.
        1   -1    0    0  501    0  0.00000000000E+00  0.00000000000E+00 -0.10219112076E+04  0.10219112076E+04  0.50400001928E-02 0. -1.
    10030    2    1    2    0    0  0.00000000000E+00  0.00000000000E+00  0.11421469024E+03  0.21580371054E+04  0.21550125645E+04 0.  0.
        1    1    3    3  502    0 -0.46848571882E+03  0.39996775228E+03 -0.82819604922E+03  0.10321636341E+04  0.50400001928E-02 0. -1.
       -1    1    3    3    0  502  0.46848571882E+03 -0.39996775228E+03  0.94241073946E+03  0.11258734713E+04  0.50400001928E-02 0.  1.
</event>
<event>
 5   0  0.6414768E-05  0.2203630E+04  0.7818609E-02  0.8516919E-01
        2   -1    0    0  501    0  0.00000000000E+00  0.00000000000E+00  0.20671817321E+04  0.20671817321E+04  0.25500000920E-02 0. -1.
       -2   -1    0    0    0  501  0.00000000000E+00  0.00000000000E+00 -0.58727116009E+03  0.58727116010E+03  0.25500000920E-02 0.  1.
    10030    2    1    2    0    0  0.00000000000E+00  0.00000000000E+00  0.14799105720E+04  0.26544528922E+04  0.22036299271E+04 0.  0.
        2    1    3    3  502    0 -0.48405190402E+03 -0.88817278201E+03  0.12661785146E+04  0.16206064196E+04  0.25500000920E-02 0. -1.
       -2    1    3    3    0  502  0.48405190402E+03  0.88817278201E+03  0.21373205741E+03  0.10338464726E+04  0.25500000920E-02 0.  1.
</event>
<event>
 5   0  0.6293013E-05  0.2194282E+04  0.7818609E-02  0.8520812E-01
        2   -1    0    0  501    0  0.00000000000E+00  0.00000000000E+00  0.17820822183E+04  0.17820822183E+04  0.25500000920E-02 0.  1.
       -2   -1    0    0    0  501  0.00000000000E+00  0.00000000000E+00 -0.67545594965E+03  0.67545594966E+03  0.25500000920E-02 0. -1.
    10030    2    1    2    0    0  0.00000000000E+00  0.00000000000E+00  0.11066262687E+04  0.24575381680E+04  0.21942816931E+04 0.  0.
        1    1    3    3  502    0  0.46676243016E+03  0.23468370903E+03  0.16338264250E+04  0.17153228257E+04  0.50400001928E-02 0.  1.
       -1    1    3    3    0  502 -0.46676243016E+03 -0.23468370903E+03 -0.52720015629E+03  0.74221534227E+03  0.50400001928E-02 0. -1.
</event>
<event>
 5   0  0.2929471E-05  0.2171501E+04  0.7818609E-02  0.8530385E-01
       -1   -1    0    0    0  501  0.00000000000E+00  0.00000000000E+00  0.70864169369E+03  0.70864169371E+03  0.50400001928E-02 0.  1.
        1   -1    0    0  501    0  0.00000000000E+00  0.00000000000E+00 -0.16635402731E+04  0.16635402731E+04  0.50400001928E-02 0. -1.
    10030    2    1    2    0    0  0.00000000000E+00  0.00000000000E+00 -0.95489857940E+03  0.23721819668E+04  0.21715008604E+04 0.  0.
        2    1    3    3  502    0 -0.47701138140E+03 -0.29372892497E+02 -0.15424574741E+04  0.16147995802E+04  0.25500000920E-02 0. -1.
       -2    1    3    3    0  502  0.47701138140E+03  0.29372892497E+02  0.58755889471E+03  0.75738238661E+03  0.25500000920E-02 0.  1.
</event>
<event>
 5   0  0.2929471E-05  0.2342992E+04  0.7818609E-02  0.8461160E-01
        1   -1    0    0  501    0  0.00000000000E+00  0.00000000000E+00  0.17824797577E+04  0.17824797577E+04  0.50400001928E-02 0.  1.
       -1   -1    0    0    0  501  0.00000000000E+00  0.00000000000E+00 -0.76994030612E+03  0.76994030613E+03  0.50400001928E-02 0. -1.
    10030    2    1    2    0    0  0.00000000000E+00  0.00000000000E+00  0.10125394516E+04  0.25524200638E+04  0.23429921129E+04 0.  0.
        2    1    3    3  502    0  0.11365355833E+04  0.20748553534E+03  0.29491887492E+03  0.11923676121E+04  0.25500000920E-02 0. -1.
       -2    1    3    3    0  502 -0.11365355833E+04 -0.20748553534E+03  0.71762057666E+03  0.13600524518E+04  0.25500000920E-02 0.  1.
</event>
<event>
 5   0  0.6293013E-05  0.2414941E+04  0.7818609E-02  0.8433931E-01
        2   -1    0    0  501    0  0.00000000000E+00  0.00000000000E+00  0.17504086354E+04  0.17504086354E+04  0.25500000920E-02 0.  1.
       -2   -1    0    0    0  501  0.00000000000E+00  0.00000000000E+00 -0.83293990676E+03  0.83293990677E+03  0.25500000920E-02 0. -1.
    10030    2    1    2    0    0  0.00000000000E+00  0.00000000000E+00  0.91746872861E+03  0.25833485421E+04  0.24149411633E+04 0.  0.
        1    1    3    3  502    0  0.11576511152E+04 -0.34161853770E+03  0.42284038109E+03  0.12789266272E+04  0.50400001928E-02 0.  1.
       -1    1    3    3    0  502 -0.11576511152E+04  0.34161853770E+03  0.49462834751E+03  0.13044219149E+04  0.50400001928E-02 0. -1.
</event>
<event>
 5   0  0.6628798E-05  0.2175520E+04  0.7818609E-02  0.8528687E-01
        2   -1    0    0  501    0  0.00000000000E+00  0.00000000000E+00  0.31242903651E+04  0.31242903651E+04  0.25500000920E-02 0. -1.
       -2   -1    0    0    0  501  0.00000000000E+00  0.00000000000E+00 -0.37871709055E+03  0.37871709056E+03  0.25500000920E-02 0.  1.
    10030    2    1    2    0    0  0.00000000000E+00  0.00000000000E+00  0.27455732745E+04  0.35030074556E+04  0.21755203121E+04 0.  0.
        4    1    3    3  502    0 -0.48976895566E+03  0.43998830802E+03 -0.21455623757E+02  0.65873006445E+03  0.12699999809E+01 0.  1.
       -4    1    3    3    0  502  0.48976895566E+03 -0.43998830802E+03  0.27670288983E+04  0.28442773912E+04  0.12699999809E+01 0. -1.
</event>
<event>
 5   0  0.6628798E-05  0.2187120E+04  0.7818609E-02  0.8523808E-01
       -2   -1    0    0    0  501  0.00000000000E+00  0.00000000000E+00  0.10562968406E+04  0.10562968406E+04  0.25500000920E-02 0. -1.
        2   -1    0    0  501    0  0.00000000000E+00  0.00000000000E+00 -0.11321373084E+04  0.11321373084E+04  0.25500000920E-02 0.  1.
    10030    2    1    2    0    0  0.00000000000E+00  0.00000000000E+00 -0.75840467802E+02  0.21884341490E+04  0.21871196236E+04 0.  0.
        4    1    3    3  502    0  0.19606700781E+03 -0.93188240500E+03  0.50001274527E+03  0.10755749377E+04  0.12699999809E+01 0. -1.
       -4    1    3    3    0  502 -0.19606700781E+03  0.93188240500E+03 -0.57585321307E+03  0.11128592113E+04  0.12699999809E+01 0.  1.
</event>
<event>
 5   0  0.2820239E-05  0.2241825E+04  0.7818609E-02  0.8501218E-01
       -1   -1    0    0    0  501  0.00000000000E+00  0.00000000000E+00  0.67803912350E+03  0.67803912351E+03  0.50400001928E-02 0.  1.
        1   -1    0    0  501    0  0.00000000000E+00  0.00000000000E+00 -0.18530572482E+04  0.18530572482E+04  0.50400001928E-02 0. -1.
    10030    2    1    2    0    0  0.00000000000E+00  0.00000000000E+00 -0.11750181247E+04  0.25310963717E+04  0.22418254280E+04 0.  0.
        3    1    3    3  502    0 -0.56223015734E+03 -0.43452663272E+03  0.39125904110E+03  0.81117186330E+03  0.10100000352E+00 0.  1.
       -3    1    3    3    0  502  0.56223015734E+03  0.43452663272E+03 -0.15662771658E+04  0.17199245084E+04  0.10100000352E+00 0. -1.
</event>
<event>
 5   0  0.2910318E-05  0.2189649E+04  0.7818609E-02  0.8522749E-01
       -1   -1    0    0    0  501  0.00000000000E+00  0.00000000000E+00  0.85115786424E+03  0.85115786426E+03  0.50400001928E-02 0. -1.
        1   -1    0    0  501    0  0.00000000000E+00  0.00000000000E+00 -0.14082469954E+04  0.14082469954E+04  0.50400001928E-02 0.  1.
    10030    2    1    2    0    0  0.00000000000E+00  0.00000000000E+00 -0.55708913113E+03  0.22594048596E+04  0.21896488348E+04 0.  0.
        5    1    3    3  502    0  0.68786376378E+03 -0.20902311837E+03  0.57345409447E+03  0.91962976789E+03  0.46999998093E+01 0. -1.
       -5    1    3    3    0  502 -0.68786376378E+03  0.20902311837E+03 -0.11305432256E+04  0.13397750917E+04  0.46999998093E+01 0.  1.
</event>
<event>
 5   0  0.6414768E-05  0.2185489E+04  0.7818609E-02  0.8524492E-01
        2   -1    0    0  501    0  0.00000000000E+00  0.00000000000E+00  0.13342916210E+04  0.13342916210E+04  0.25500000920E-02 0. -1.
       -2   -1    0    0    0  501  0.00000000000E+00  0.00000000000E+00 -0.89492452443E+03  0.89492452444E+03  0.25500000920E-02 0.  1.
    10030    2    1    2    0    0  0.00000000000E+00  0.00000000000E+00  0.43936709652E+03  0.22292161454E+04  0.21854887731E+04 0.  0.
        2    1    3    3  502    0 -0.67651723215E+03  0.49074387787E+03  0.93774688570E+03  0.12561346825E+04  0.25500000920E-02 0. -1.
       -2    1    3    3    0  502  0.67651723215E+03 -0.49074387787E+03 -0.49837978918E+03  0.97308146284E+03  0.25500000920E-02 0.  1.
</event>
<event>
 5   0  0.2929471E-05  0.2222129E+04  0.7818609E-02  0.8509274E-01
       -1   -1    0    0    0  501  0.00000000000E+00  0.00000000000E+00  0.16979102237E+04  0.16979102237E+04  0.50400001928E-02 0. -1.
        1   -1    0    0  501    0  0.00000000000E+00  0.00000000000E+00 -0.72704920416E+03  0.72704920418E+03  0.50400001928E-02 0.  1.
    10030    2    1    2    0    0  0.00000000000E+00  0.00000000000E+00  0.97086101953E+03  0.24249594279E+04  0.22221289584E+04 0.  0.
        2    1    3    3  502    0  0.56393657753E+03 -0.79783082044E+03  0.10627831591E+04  0.14436296356E+04  0.25500000920E-02 0. -1.
       -2    1    3    3    0  502 -0.56393657753E+03  0.79783082044E+03 -0.91922139530E+02  0.98132979230E+03  0.25500000920E-02 0.  1.
</event>
<event>
 5   0  0.2929471E-05  0.2181468E+04  0.7818609E-02  0.8526181E-01
        1   -1    0    0  501    0  0.00000000000E+00  0.00000000000E+00  0.97679793252E+03  0.97679793254E+03  0.50400001928E-02 0.  1.
       -1   -1    0    0    0  501  0.00000000000E+00  0.00000000000E+00 -0.12179599858E+04  0.12179599858E+04  0.50400001928E-02 0. -1.
    10030    2    1    2    0    0  0.00000000000E+00  0.00000000000E+00 -0.24116205329E+03  0.21947579184E+04  0.21814681259E+04 0.  0.
        2    1    3    3  502    0 -0.33269585238E+03  0.10384273432E+04 -0.94289106782E+02  0.10944899784E+04  0.25500000920E-02 0. -1.
       -2    1    3    3    0  502  0.33269585238E+03 -0.10384273432E+04 -0.14687294651E+03  0.11002679399E+04  0.25500000920E-02 0.  1.
</event>
<event>
 5   0  0.2908031E-05  0.2218332E+04  0.7818609E-02  0.8510837E-01
        1   -1    0    0  501    0  0.00000000000E+00  0.00000000000E+00  0.82579680874E+03  0.82579680875E+03  0.50400001928E-02 0.  1.
       -1   -1    0    0    0  501  0.00000000000E+00  0.00000000000E+00 -0.14897720889E+04  0.14897720890E+04  0.50400001928E-02 0. -1.
    10030    2    1    2    0    0  0.00000000000E+00  0.00000000000E+00 -0.66397528021E+03  0.23155688977E+04  0.22183318389E+04 0.  0.
        1    1    3    3  502    0 -0.73751539078E+02  0.26772964900E+03 -0.14528968569E+04  0.14791983407E+04  0.50400001928E-02 0. -1.
       -1    1    3    3    0  502  0.73751539078E+02 -0.26772964900E+03  0.78892157665E+03  0.83637055699E+03  0.50400001928E-02 0.  1.
</event>
<event>
 5   0  0.6414768E-05  0.2187455E+04  0.7818609E-02  0.8523668E-01
        2   -1    0    0  501    0  0.00000000000E+00  0.00000000000E+00  0.11903753998E+04  0.11903753998E+04  0.25500000920E-02 0.  1.
       -2   -1    0    0    0  501  0.00000000000E+00  0.00000000000E+00 -0.10049264119E+04  0.10049264119E+04  0.25500000920E-02 0. -1.
    10030    2    1    2    0    0  0.00000000000E+00  0.00000000000E+00  0.18544898796E+03  0.21953018117E+04  0.21874548492E+04 0.  0.
        2    1    3    3  502    0 -0.56145581877E+03  0.77876364706E+03  0.61856421036E+03  0.11420714237E+04  0.25500000920E-02 0.  1.
       -2    1    3    3    0  502  0.56145581877E+03 -0.77876364706E+03 -0.43311522241E+03  0.10532303880E+04  0.25500000920E-02 0. -1.
</event>
<event>
 5   0  0.6628798E-05  0.2209957E+04  0.7818609E-02  0.8514295E-01
        2   -1    0    0  501    0  0.00000000000E+00  0.00000000000E+00  0.10070864760E+04  0.10070864760E+04  0.25500000920E-02 0. -1.
       -2   -1    0    0    0  501  0.00000000000E+00  0.00000000000E+00 -0.12123861939E+04  0.12123861939E+04  0.25500000920E-02 0.  1.
    10030    2    1    2    0    0  0.00000000000E+00  0.00000000000E+00 -0.20529971785E+03  0.22194726699E+04  0.22099572300E+04 0.  0.
        4    1    3    3  502    0  0.67021833682E+03  0.72627042178E+02 -0.98192442564E+03  0.11910686365E+04  0.12699999809E+01 0.  1.
       -4    1    3    3    0  502 -0.67021833682E+03 -0.72627042178E+02  0.77662470779E+03  0.10284040334E+04  0.12699999809E+01 0. -1.
</event>
<event>
 5   0  0.2908031E-05  0.2155128E+04  0.7818609E-02  0.8537340E-01
        1   -1    0    0  501    0  0.00000000000E+00  0.00000000000E+00  0.10572059384E+04  0.10572059384E+04  0.50400001928E-02 0. -1.
       -1   -1    0    0    0  501  0.00000000000E+00  0.00000000000E+00 -0.10983141629E+04  0.10983141630E+04  0.50400001928E-02 0.  1.
    10030    2    1    2    0    0  0.00000000000E+00  0.00000000000E+00 -0.41108224541E+02  0.21555201014E+04  0.21551280754E+04 0.  0.
        1    1    3    3  502    0  0.43202661585E+03  0.41484545510E+03 -0.91648516589E+03  0.10948464768E+04  0.50400001928E-02 0.  1.
       -1    1    3    3    0  502 -0.43202661585E+03 -0.41484545510E+03  0.87537694135E+03  0.10606736246E+04  0.50400001928E-02 0. -1.
</event>
<event>
 5   0  0.6293013E-05  0.2202959E+04  0.7818609E-02  0.8517198E-01
        2   -1    0    0  501    0  0.00000000000E+00  0.00000000000E+00  0.15186602227E+04  0.15186602227E+04  0.25500000920E-02 0. -1.
       -2   -1    0    0    0  501  0.00000000000E+00  0.00000000000E+00 -0.79889929832E+03  0.79889929832E+03  0.25500000920E-02 0.  1.
    10030    2    1    2    0    0  0.00000000000E+00  0.00000000000E+00  0.71976092435E+03  0.23175595210E+04  0.22029585437E+04 0.  0.
        1    1    3    3  502    0 -0.10714500187E+04  0.62443581723E+02  0.99301233744E+02  0.10778520671E+04  0.50400001928E-02 0.  1.
       -1    1    3    3    0  502  0.10714500187E+04 -0.62443581723E+02  0.62045969061E+03  0.12397074539E+04  0.50400001928E-02 0. -1.
</event>
<event>
 5   0  0.2929471E-05  0.2141662E+04  0.7818609E-02  0.8543110E-01
        1   -1    0    0  501    0  0.00000000000E+00  0.00000000000E+00  0.28900674959E+04  0.28900674959E+04  0.50400001928E-02 0.  1.
       -1   -1    0    0    0  501  0.00000000000E+00  0.00000000000E+00 -0.39676559000E+03  0.39676559004E+03  0.50400001928E-02 0. -1.
    10030    2    1    2    0    0  0.00000000000E+00  0.00000000000E+00  0.24933019059E+04  0.32868330859E+04  0.21416622845E+04 0.  0.
        2    1    3    3  502    0  0.56538403240E+02  0.99407265145E+03  0.18514562916E+04  0.21022053723E+04  0.25500000920E-02 0.  1.
       -2    1    3    3    0  502 -0.56538403240E+02 -0.99407265145E+03  0.64184561426E+03  0.11846277137E+04  0.25500000920E-02 0. -1.
</event>
<event>
 5   0  0.2908031E-05  0.2186232E+04  0.7818609E-02  0.8524181E-01
       -1   -1    0    0    0  501  0.00000000000E+00  0.00000000000E+00  0.98401096767E+03  0.98401096768E+03  0.50400001928E-02 0. -1.
        1   -1    0    0  501    0  0.00000000000E+00  0.00000000000E+00 -0.12143178930E+04  0.12143178930E+04  0.50400001928E-02 0.  1.
    10030    2    1    2    0    0  0.00000000000E+00  0.00000000000E+00 -0.23030692533E+03  0.21983288607E+04  0.21862315751E+04 0.  0.
        1    1    3    3  502    0  0.74587818501E+03  0.70702468219E+03 -0.48961706534E+03  0.11383949397E+04  0.50400001928E-02 0.  1.
       -1    1    3    3    0  502 -0.74587818501E+03 -0.70702468219E+03  0.25931014001E+03  0.10599339210E+04  0.50400001928E-02 0. -1.
</event>
<event>
 5   0  0.2908031E-05  0.2154229E+04  0.7818609E-02  0.8537724E-01
        1   -1    0    0  501    0  0.00000000000E+00  0.00000000000E+00  0.20171827573E+04  0.20171827573E+04  0.50400001928E-02 0. -1.
       -1   -1    0    0    0  501  0.00000000000E+00  0.00000000000E+00 -0.57514636876E+03  0.57514636878E+03  0.50400001928E-02 0.  1.
    10030    2    1    2    0    0  0.00000000000E+00  0.00000000000E+00  0.14420363886E+04  0.25923291261E+04  0.21542287140E+04 0.  0.
        1    1    3    3  502    0  0.69036896264E+03 -0.52188835931E+03  0.14926748899E+04  0.17254144694E+04  0.50400001928E-02 0. -1.
       -1    1    3    3    0  502 -0.69036896264E+03  0.52188835931E+03 -0.50638501372E+02  0.86691465671E+03  0.50400001928E-02 0.  1.
</event>
<event>
 5   0  0.2908031E-05  0.2221364E+04  0.7818609E-02  0.8509588E-01
        1   -1    0    0  501    0  0.00000000000E+00  0.00000000000E+00  0.10213287552E+04  0.10213287553E+04  0.50400001928E-02 0. -1.
       -1   -1    0    0    0  501  0.00000000000E+00  0.00000000000E+00 -0.12078527345E+04  0.12078527346E+04  0.50400001928E-02 0.  1.
    10030    2    1    2    0    0  0.00000000000E+00  0.00000000000E+00 -0.18652397929E+03  0.22291814898E+04  0.22213642024E+04 0.  0.
        1    1    3    3  502    0 -0.44436632496E+03 -0.99538590149E+03  0.12046687053E+03  0.10967072492E+04  0.50400001928E-02 0. -1.
       -1    1    3    3    0  502  0.44436632496E+03  0.99538590149E+03 -0.30699084982E+03  0.11324742406E+04  0.50400001928E-02 0.  1.
</event>
<event>
 5   0  0.2908031E-05  0.2140264E+04  0.7818609E-02  0.8543711E-01
        1   -1    0    0  501    0  0.00000000000E+00  0.00000000000E+00  0.14755583816E+04  0.14755583816E+04  0.50400001928E-02 0. -1.
       -1   -1    0    0    0  501  0.00000000000E+00  0.00000000000E+00 -0.77610136634E+03  0.77610136636E+03  0.50400001928E-02 0.  1.
    10030    2    1    2    0    0  0.00000000000E+00  0.00000000000E+00  0.69945701527E+03  0.22516597480E+04  0.21402643539E+04 0.  0.
        1    1    3    3  502    0 -0.14312893321E+03 -0.94901433348E+03  0.84772469750E+03  0.12805277269E+04  0.50400001928E-02 0. -1.
       -1    1    3    3    0  502  0.14312893321E+03  0.94901433348E+03 -0.14826768223E+03  0.97113202105E+03  0.50400001928E-02 0.  1.
</event>
<event>
 5   0  0.2929471E-05  0.2169758E+04  0.7818609E-02  0.8531122E-01
       -1   -1    0    0    0  501  0.00000000000E+00  0.00000000000E+00  0.13807197109E+04  0.13807197109E+04  0.50400001928E-02 0. -1.
        1   -1    0    0  501    0  0.00000000000E+00  0.00000000000E+00 -0.85242680664E+03  0.85242680665E+03  0.50400001928E-02 0.  1.
    10030    2    1    2    0    0  0.00000000000E+00  0.00000000000E+00  0.52829290423E+03  0.22331465175E+04  0.21697580455E+04 0.  0.
        2    1    3    3  502    0 -0.10125079878E+04  0.30694960484E+03  0.51109791448E+03  0.11749942823E+04  0.25500000920E-02 0. -1.
       -2    1    3    3    0  502  0.10125079878E+04 -0.30694960484E+03  0.17194989755E+02  0.10581522352E+04  0.25500000920E-02 0.  1.
</event>
<event>
 5   0  0.2908031E-05  0.2150953E+04  0.7818609E-02  0.8539125E-01
        1   -1    0    0  501    0  0.00000000000E+00  0.00000000000E+00  0.14209395156E+04  0.14209395157E+04  0.50400001928E-02 0. -1.
       -1   -1    0    0    0  501  0.00000000000E+00  0.00000000000E+00 -0.81400333223E+03  0.81400333225E+03  0.50400001928E-02 0.  1.
    10030    2    1    2    0    0  0.00000000000E+00  0.00000000000E+00  0.60693618342E+03  0.22349428479E+04  0.21509528127E+04 0.  0.
        1    1    3    3  502    0 -0.27112277684E+03 -0.19936558855E+03  0.13648213986E+04  0.14056997005E+04  0.50400001928E-02 0. -1.
       -1    1    3    3    0  502  0.27112277684E+03  0.19936558855E+03 -0.75788521518E+03  0.82924314736E+03  0.50400001928E-02 0.  1.
</event>
<event>
 5   0  0.6414768E-05  0.2196211E+04  0.7818609E-02  0.8520007E-01
       -2   -1    0    0    0  501  0.00000000000E+00  0.00000000000E+00  0.96096829469E+03  0.96096829469E+03  0.25500000920E-02 0. -1.
        2   -1    0    0  501    0  0.00000000000E+00  0.00000000000E+00 -0.12548135940E+04  0.12548135940E+04  0.25500000920E-02 0.  1.
    10030    2    1    2    0    0  0.00000000000E+00  0.00000000000E+00 -0.29384529929E+03  0.22157818887E+04  0.21962113556E+04 0.  0.
        2    1    3    3  502    0 -0.89376758272E+03 -0.63526369406E+03 -0.87614239499E+02  0.11000257760E+04  0.25500000920E-02 0. -1.
       -2    1    3    3    0  502  0.89376758272E+03  0.63526369406E+03 -0.20623105979E+03  0.11157561127E+04  0.25500000920E-02 0.  1.
</event>
<event>
 5   0  0.2929471E-05  0.2237081E+04  0.7818609E-02  0.8503151E-01
       -1   -1    0    0    0  501  0.00000000000E+00  0.00000000000E+00  0.14644009889E+04  0.14644009889E+04  0.50400001928E-02 0.  1.
        1   -1    0    0  501    0  0.00000000000E+00  0.00000000000E+00 -0.85436496064E+03  0.85436496065E+03  0.50400001928E-02 0. -1.
    10030    2    1    2    0    0  0.00000000000E+00  0.00000000000E+00  0.61003602830E+03  0.23187659496E+04  0.22370810386E+04 0.  0.
        2    1    3    3  502    0 -0.54837640368E+03 -0.81370744540E+03 -0.25151997183E+03  0.10129653415E+04  0.25500000920E-02 0. -1.
       -2    1    3    3    0  502  0.54837640368E+03  0.81370744540E+03  0.86155600014E+03  0.13058006081E+04  0.25500000920E-02 0.  1.
</event>
<event>
 5   0  0.2910318E-05  0.2212598E+04  0.7818609E-02  0.8513203E-01
       -1   -1    0    0    0  501  0.00000000000E+00  0.00000000000E+00  0.70252817343E+03  0.70252817345E+03  0.50400001928E-02 0.  1.
        1   -1    0    0  501    0  0.00000000000E+00  0.00000000000E+00 -0.17421321928E+04  0.17421321928E+04  0.50400001928E-02 0. -1.
    10030    2    1    2    0    0  0.00000000000E+00  0.00000000000E+00 -0.10396040194E+04  0.24446603663E+04  0.22125975208E+04 0.  0.
        5    1    3    3  502    0  0.42579784696E+03  0.19278296142E+03  0.58806288041E+03  0.75120511047E+03  0.46999998093E+01 0.  1.
       -5    1    3    3    0  502 -0.42579784696E+03 -0.19278296142E+03 -0.16276668998E+04  0.16934552558E+04  0.46999998093E+01 0. -1.
</event>
<event>
 5   0  0.6293013E-05  0.2212524E+04  0.7818609E-02  0.8513233E-01
       -2   -1    0    0    0  501  0.00000000000E+00  0.00000000000E+00  0.73779964006E+03  0.73779964006E+03  0.25500000920E-02 0. -1.
        2   -1    0    0  501    0  0.00000000000E+00  0.00000000000E+00 -0.16587377762E+04  0.16587377762E+04  0.25500000920E-02 0.  1.
    10030    2    1    2    0    0  0.00000000000E+00  0.00000000000E+00 -0.92093813616E+03  0.23965374163E+04  0.22125244715E+04 0.  0.
        1    1    3    3  502    0  0.12634132588E+03  0.88548761684E+03  0.24464442199E+03  0.92730865597E+03  0.50400001928E-02 0. -1.
       -1    1    3    3    0  502 -0.12634132588E+03 -0.88548761684E+03 -0.11655825582E+04  0.14692287603E+04  0.50400001928E-02 0.  1.
</event>
<event>
 5   0  0.6293013E-05  0.2215293E+04  0.7818609E-02  0.8512090E-01
       -2   -1    0    0    0  501  0.00000000000E+00  0.00000000000E+00  0.79788987709E+03  0.79788987709E+03  0.25500000920E-02 0.  1.
        2   -1    0    0  501    0  0.00000000000E+00  0.00000000000E+00 -0.15376567587E+04  0.15376567587E+04  0.25500000920E-02 0. -1.
    10030    2    1    2    0    0  0.00000000000E+00  0.00000000000E+00 -0.73976688164E+03  0.23355466358E+04  0.22152929939E+04 0.  0.
        1    1    3    3  502    0 -0.73156020373E+02  0.19460857444E+03 -0.15169013695E+04  0.15310826448E+04  0.50400001928E-02 0. -1.
       -1    1    3    3    0  502  0.73156020373E+02 -0.19460857444E+03  0.77713448785E+03  0.80446399098E+03  0.50400001928E-02 0.  1.
</event>
<event>
 5   0  0.6414768E-05  0.2164685E+04  0.7818609E-02  0.8533272E-01
       -2   -1    0    0    0  501  0.00000000000E+00  0.00000000000E+00  0.58974202766E+03  0.58974202766E+03  0.25500000920E-02 0.  1.
        2   -1    0    0  501    0  0.00000000000E+00  0.00000000000E+00 -0.19864034915E+04  0.19864034915E+04  0.25500000920E-02 0. -1.
    10030    2    1    2    0    0  0.00000000000E+00  0.00000000000E+00 -0.13966614639E+04  0.25761455192E+04  0.21646853100E+04 0.  0.
        2    1    3    3  502    0  0.65440736679E+03  0.19453615941E+03  0.30117392773E+03  0.74618969021E+03  0.25500000920E-02 0.  1.
       -2    1    3    3    0  502 -0.65440736679E+03 -0.19453615941E+03 -0.16978353916E+04  0.18299558290E+04  0.25500000920E-02 0. -1.
</event>
<event>
 5   0  0.6445740E-05  0.2194041E+04  0.7818609E-02  0.8520913E-01
       -2   -1    0    0    0  501  0.00000000000E+00  0.00000000000E+00  0.64308519584E+03  0.64308519584E+03  0.25500000920E-02 0. -1.
        2   -1    0    0  501    0  0.00000000000E+00  0.00000000000E+00 -0.18713749151E+04  0.18713749151E+04  0.25500000920E-02 0.  1.
    10030    2    1    2    0    0  0.00000000000E+00  0.00000000000E+00 -0.12282897193E+04  0.25144601110E+04  0.21940405682E+04 0.  0.
        5    1    3    3  502    0  0.66947577777E+03 -0.63137969076E+03  0.70218383907E+02  0.92292515534E+03  0.46999998093E+01 0. -1.
       -5    1    3    3    0  502 -0.66947577777E+03  0.63137969076E+03 -0.12985081032E+04  0.15915349556E+04  0.46999998093E+01 0.  1.
</event>
<event>
 5   0  0.2753631E-05  0.2190001E+04  0.7818609E-02  0.8522601E-01
        1   -1    0    0  501    0  0.00000000000E+00  0.00000000000E+00  0.14262510899E+04  0.14262510899E+04  0.50400001928E-02 0.  1.
       -1   -1    0    0    0  501  0.00000000000E+00  0.00000000000E+00 -0.84068389408E+03  0.84068389410E+03  0.50400001928E-02 0. -1.
    10030    2    1    2    0    0  0.00000000000E+00  0.00000000000E+00  0.58556719580E+03  0.22669349840E+04  0.21900012057E+04 0.  0.
        4    1    3    3  502    0 -0.43414149190E+02 -0.76264052371E+02  0.14226044972E+04  0.14253091462E+04  0.12699999809E+01 0.  1.
       -4    1    3    3    0  502  0.43414149190E+02  0.76264052371E+02 -0.83703730136E+03  0.84162583777E+03  0.12699999809E+01 0. -1.
</event>
<event>
 5   0  0.6293013E-05  0.2234600E+04  0.7818609E-02  0.8504163E-01
       -2   -1    0    0    0  501  0.00000000000E+00  0.00000000000E+00  0.16374189190E+04  0.16374189190E+04  0.25500000920E-02 0.  1.
        2   -1    0    0  501    0  0.00000000000E+00  0.00000000000E+00 -0.76239487606E+03  0.76239487607E+03  0.25500000920E-02 0. -1.
    10030    2    1    2    0    0  0.00000000000E+00  0.00000000000E+00  0.87502404290E+03  0.23998137950E+04  0.22346004509E+04 0.  0.
        1    1    3    3  502    0 -0.18225462152E+03  0.76338140028E+03  0.12915374607E+04  0.15113030542E+04  0.50400001928E-02 0.  1.
       -1    1    3    3    0  502  0.18225462152E+03 -0.76338140028E+03 -0.41651341776E+03  0.88851074082E+03  0.50400001928E-02 0. -1.
</event>
<event>
 5   0  0.2908031E-05  0.2214748E+04  0.7818609E-02  0.8512315E-01
       -1   -1    0    0    0  501  0.00000000000E+00  0.00000000000E+00  0.76207031534E+03  0.76207031535E+03  0.50400001928E-02 0.  1.
        1   -1    0    0  501    0  0.00000000000E+00  0.00000000000E+00 -0.16091393582E+04  0.16091393582E+04  0.50400001928E-02 0. -1.
    10030    2    1    2    0    0  0.00000000000E+00  0.00000000000E+00 -0.84706904283E+03  0.23712096735E+04  0.22147481465E+04 0.  0.
        1    1    3    3  502    0 -0.86420136929E+03 -0.52808836725E+03 -0.90300674078E+03  0.13568870639E+04  0.50400001928E-02 0. -1.
       -1    1    3    3    0  502  0.86420136929E+03  0.52808836725E+03  0.55937697949E+02  0.10143226096E+04  0.50400001928E-02 0.  1.
</event>
<event>
 5   0  0.2929471E-05  0.2173803E+04  0.7818609E-02  0.8529411E-01
       -1   -1    0    0    0  501  0.00000000000E+00  0.00000000000E+00  0.15906487002E+04  0.15906487002E+04  0.50400001928E-02 0.  1.
        1   -1    0    0  501    0  0.00000000000E+00  0.00000000000E+00 -0.74268778358E+03  0.74268778360E+03  0.50400001928E-02 0. -1.
    10030    2    1    2    0    0  0.00000000000E+00  0.00000000000E+00  0.84796091664E+03  0.23333364838E+04  0.21738034480E+04 0.  0.
        2    1    3    3  502    0 -0.10495230658E+04 -0.27979944592E+03  0.38146338826E+03  0.11512170569E+04  0.25500000920E-02 0. -1.
       -2    1    3    3    0  502  0.10495230658E+04  0.27979944592E+03  0.46649752838E+03  0.11821194269E+04  0.25500000920E-02 0.  1.
</event>
<event>
 5   0  0.2908031E-05  0.2194251E+04  0.7818609E-02  0.8520825E-01
       -1   -1    0    0    0  501  0.00000000000E+00  0.00000000000E+00  0.92706059046E+03  0.92706059047E+03  0.50400001928E-02 0.  1.
        1   -1    0    0  501    0  0.00000000000E+00  0.00000000000E+00 -0.12983879690E+04  0.12983879690E+04  0.50400001928E-02 0. -1.
    10030    2    1    2    0    0  0.00000000000E+00  0.00000000000E+00 -0.37132737854E+03  0.22254485595E+04  0.21942509585E+04 0.  0.
        1    1    3    3  502    0 -0.64872180180E+03  0.86661620585E+03 -0.36658348097E+03  0.11429116645E+04  0.50400001928E-02 0. -1.
       -1    1    3    3    0  502  0.64872180180E+03 -0.86661620585E+03 -0.47438975728E+01  0.10825368950E+04  0.50400001928E-02 0.  1.
</event>
<event>
 5   0  0.2910318E-05  0.2216436E+04  0.7818609E-02  0.8511618E-01
       -1   -1    0    0    0  501  0.00000000000E+00  0.00000000000E+00  0.73519952233E+03  0.73519952235E+03  0.50400001928E-02 0.  1.
        1   -1    0    0  501    0  0.00000000000E+00  0.00000000000E+00 -0.16704950076E+04  0.16704950076E+04  0.50400001928E-02 0. -1.
    10030    2    1    2    0    0  0.00000000000E+00  0.00000000000E+00 -0.93529548526E+03  0.24056945300E+04  0.22164359965E+04 0.  0.
        5    1    3    3  502    0 -0.77216767826E+03  0.64295620558E+03 -0.97498938181E+03  0.14000935648E+04  0.46999998093E+01 0. -1.
       -5    1    3    3    0  502  0.77216767826E+03 -0.64295620558E+03  0.39693896550E+02  0.10056009651E+04  0.46999998093E+01 0.  1.
</event>
<event>
 5   0  0.2929471E-05  0.2375627E+04  0.7818609E-02  0.8448685E-01
       -1   -1    0    0    0  501  0.00000000000E+00  0.00000000000E+00  0.14645914777E+04  0.14645914777E+04  0.50400001928E-02 0. -1.
        1   -1    0    0  501    0  0.00000000000E+00  0.00000000000E+00 -0.96334118819E+03  0.96334118821E+03  0.50400001928E-02 0.  1.
    10030    2    1    2    0    0  0.00000000000E+00  0.00000000000E+00  0.50125028951E+03  0.24279326659E+04  0.23756273229E+04 0.  0.
        2    1    3    3  502    0  0.83341298362E+02  0.68988296679E+03  0.12351717884E+04  0.14172274436E+04  0.25500000920E-02 0. -1.
       -2    1    3    3    0  502 -0.83341298362E+02 -0.68988296679E+03 -0.73392149892E+03  0.10107052223E+04  0.25500000920E-02 0.  1.
</event>
<event>
 5   0  0.6293013E-05  0.2201031E+04  0.7818609E-02  0.8517999E-01
        2   -1    0    0  501    0  0.00000000000E+00  0.00000000000E+00  0.18026968670E+04  0.18026968670E+04  0.25500000920E-02 0.  1.
       -2   -1    0    0    0  501  0.00000000000E+00  0.00000000000E+00 -0.67184604305E+03  0.67184604306E+03  0.25500000920E-02 0. -1.
    10030    2    1    2    0    0  0.00000000000E+00  0.00000000000E+00  0.11308508240E+04  0.24745429101E+04  0.22010313555E+04 0.  0.
        1    1    3    3  502    0 -0.86530587384E+03  0.27885965358E+03 -0.13181643823E+03  0.91863623655E+03  0.50400001928E-02 0. -1.
       -1    1    3    3    0  502  0.86530587384E+03 -0.27885965358E+03  0.12626672622E+04  0.15559066736E+04  0.50400001928E-02 0.  1.
</event>
<event>
 5   0  0.6306919E-05  0.2223566E+04  0.7818609E-02  0.8508683E-01
        2   -1    0    0  501    0  0.00000000000E+00  0.00000000000E+00  0.18937230382E+04  0.18937230382E+04  0.25500000920E-02 0. -1.
       -2   -1    0    0    0  501  0.00000000000E+00  0.00000000000E+00 -0.65271502644E+03  0.65271502644E+03  0.25500000920E-02 0.  1.
    10030    2    1    2    0    0  0.00000000000E+00  0.00000000000E+00  0.12410080118E+04  0.25464380646E+04  0.22235660395E+04 0.  0.
        3    1    3    3  502    0 -0.63272754158E+03  0.17399731871E+02 -0.42622464181E+03  0.76309524178E+03  0.10100000352E+00 0.  1.
       -3    1    3    3    0  502  0.63272754158E+03 -0.17399731871E+02  0.16672326536E+04  0.17833428229E+04  0.10100000352E+00 0. -1.
</event>
<event>
 5   0  0.2908031E-05  0.2030139E+04  0.7818609E-02  0.8592658E-01
       -1   -1    0    0    0  501  0.00000000000E+00  0.00000000000E+00  0.50287358985E+03  0.50287358987E+03  0.50400001928E-02 0.  1.
        1   -1    0    0  501    0  0.00000000000E+00  0.00000000000E+00 -0.20489572224E+04  0.20489572224E+04  0.50400001928E-02 0. -1.
    10030    2    1    2    0    0  0.00000000000E+00  0.00000000000E+00 -0.15460836326E+04  0.25518308123E+04  0.20301393784E+04 0.  0.
        1    1    3    3  502    0 -0.57166034850E+03  0.70916014155E+03 -0.13361080323E+04  0.16170616359E+04  0.50400001928E-02 0. -1.
       -1    1    3    3    0  502  0.57166034850E+03 -0.70916014155E+03 -0.20997560032E+03  0.93476917641E+03  0.50400001928E-02 0.  1.
</event>
<event>
 5   0  0.2929471E-05  0.2192608E+04  0.7818609E-02  0.8521511E-01
       -1   -1    0    0    0  501  0.00000000000E+00  0.00000000000E+00  0.11880056305E+04  0.11880056305E+04  0.50400001928E-02 0.  1.
        1   -1    0    0  501    0  0.00000000000E+00  0.00000000000E+00 -0.10116803731E+04  0.10116803731E+04  0.50400001928E-02 0. -1.
    10030    2    1    2    0    0  0.00000000000E+00  0.00000000000E+00  0.17632525735E+03  0.21996860036E+04  0.21926075613E+04 0.  0.
        2    1    3    3  502    0 -0.57209977720E+03 -0.84026990268E+03  0.50001237264E+03  0.11328565828E+04  0.25500000920E-02 0.  1.
       -2    1    3    3    0  502  0.57209977720E+03  0.84026990268E+03 -0.32368711529E+03  0.10668294208E+04  0.25500000920E-02 0. -1.
</event>
<event>
 5   0  0.2908031E-05  0.2273368E+04  0.7818609E-02  0.8488496E-01
       -1   -1    0    0    0  501  0.00000000000E+00  0.00000000000E+00  0.78741419238E+03  0.78741419240E+03  0.50400001928E-02 0.  1.
        1   -1    0    0  501    0  0.00000000000E+00  0.00000000000E+00 -0.16408779376E+04  0.16408779376E+04  0.50400001928E-02 0. -1.
    10030    2    1    2    0    0  0.00000000000E+00  0.00000000000E+00 -0.85346374521E+03  0.24282921300E+04  0.22733680530E+04 0.  0.
        1    1    3    3  502    0  0.84861221666E+02  0.55405558365E+03  0.62953117640E+03  0.84290481005E+03  0.50400001928E-02 0.  1.
       -1    1    3    3    0  502 -0.84861221666E+02 -0.55405558365E+03 -0.14829949216E+04  0.15853873200E+04  0.50400001928E-02 0. -1.
</event>
<event>
 5   0  0.2753631E-05  0.2213577E+04  0.7818609E-02  0.8512798E-01
       -1   -1    0    0    0  501  0.00000000000E+00  0.00000000000E+00  0.21107743969E+04  0.21107743969E+04  0.50400001928E-02 0.  1.
        1   -1    0    0  501    0  0.00000000000E+00  0.00000000000E+00 -0.58034668585E+03  0.58034668587E+03  0.50400001928E-02 0. -1.
    10030    2    1    2    0    0  0.00000000000E+00  0.00000000000E+00  0.15304277110E+04  0.26911210828E+04  0.22135771284E+04 0.  0.
        4    1    3    3  502    0  0.10117128893E+04  0.39477038353E+03  0.50568186537E+03  0.11979659377E+04  0.12699999809E+01 0.  1.
       -4    1    3    3    0  502 -0.10117128893E+04 -0.39477038353E+03  0.10247458457E+04  0.14931551450E+04  0.12699999809E+01 0. -1.
</event>
<event>
 5   0  0.2820239E-05  0.2215080E+04  0.7818609E-02  0.8512178E-01
       -1   -1    0    0    0  501  0.00000000000E+00  0.00000000000E+00  0.66841305143E+03  0.66841305145E+03  0.50400001928E-02 0.  1.
        1   -1    0    0  501    0  0.00000000000E+00  0.00000000000E+00 -0.18351599598E+04  0.18351599599E+04  0.50400001928E-02 0. -1.
    10030    2    1    2    0    0  0.00000000000E+00  0.00000000000E+00 -0.11667469084E+04  0.25035730113E+04  0.22150800154E+04 0.  0.
        3    1    3    3  502    0  0.10269268230E+04 -0.38269285170E+03 -0.40249140425E+03  0.11674895542E+04  0.10100000352E+00 0. -1.
       -3    1    3    3    0  502 -0.10269268230E+04  0.38269285170E+03 -0.76425550417E+03  0.13360834571E+04  0.10100000352E+00 0.  1.
</event>
<event>
 5   0  0.6293013E-05  0.2196409E+04  0.7818609E-02  0.8519924E-01
        2   -1    0    0  501    0  0.00000000000E+00  0.00000000000E+00  0.19933490509E+04  0.19933490509E+04  0.25500000920E-02 0.  1.
       -2   -1    0    0    0  501  0.00000000000E+00  0.00000000000E+00 -0.60503872040E+03  0.60503872040E+03  0.25500000920E-02 0. -1.
    10030    2    1    2    0    0  0.00000000000E+00  0.00000000000E+00  0.13883103305E+04  0.25983877713E+04  0.21964092142E+04 0.  0.
        1    1    3    3  502    0  0.53418197856E+02 -0.10742157976E+04  0.43158878056E+03  0.11589055005E+04  0.50400001928E-02 0. -1.
       -1    1    3    3    0  502 -0.53418197856E+02  0.10742157976E+04  0.95672154989E+03  0.14394822707E+04  0.50400001928E-02 0.  1.
</event>
<event>
 5   0  0.2910318E-05  0.1966510E+04  0.7818609E-02  0.8622440E-01
       -1   -1    0    0    0  501  0.00000000000E+00  0.00000000000E+00  0.11940560451E+04  0.11940560451E+04  0.50400001928E-02 0. -1.
        1   -1    0    0  501    0  0.00000000000E+00  0.00000000000E+00 -0.80966896203E+03  0.80966896205E+03  0.50400001928E-02 0.  1.
    10030    2    1    2    0    0  0.00000000000E+00  0.00000000000E+00  0.38438708302E+03  0.20037250071E+04  0.19665097189E+04 0.  0.
        5    1    3    3  502    0 -0.13585787525E+03  0.70478387916E+03  0.87691564528E+03  0.11332170214E+04  0.46999998093E+01 0. -1.
       -5    1    3    3    0  502  0.13585787525E+03 -0.70478387916E+03 -0.49252856226E+03  0.87050798574E+03  0.46999998093E+01 0.  1.
</event>
<event>
 5   0  0.6414768E-05  0.2203376E+04  0.7818609E-02  0.8517024E-01
        2   -1    0    0  501    0  0.00000000000E+00  0.00000000000E+00  0.15771401386E+04  0.15771401386E+04  0.25500000920E-02 0.  1.
       -2   -1    0    0    0  501  0.00000000000E+00  0.00000000000E+00 -0.76956797627E+03  0.76956797628E+03  0.25500000920E-02 0. -1.
    10030    2    1    2    0    0  0.00000000000E+00  0.00000000000E+00  0.80757216232E+03  0.23467081149E+04  0.22033760866E+04 0.  0.
        2    1    3    3  502    0 -0.47346482635E+03 -0.78311037789E+02 -0.65239614346E+03  0.80989029408E+03  0.25500000920E-02 0. -1.
       -2    1    3    3    0  502  0.47346482635E+03  0.78311037789E+02  0.14599683058E+04  0.15368178208E+04  0.25500000920E-02 0.  1.
</event>
<event>
 5   0  0.2753631E-05  0.2218287E+04  0.7818609E-02  0.8510855E-01
       -1   -1    0    0    0  501  0.00000000000E+00  0.00000000000E+00  0.75277083156E+03  0.75277083157E+03  0.50400001928E-02 0.  1.
        1   -1    0    0  501    0  0.00000000000E+00  0.00000000000E+00 -0.16342283814E+04  0.16342283814E+04  0.50400001928E-02 0. -1.
    10030    2    1    2    0    0  0.00000000000E+00  0.00000000000E+00 -0.88145754986E+03  0.23869992130E+04  0.22182871389E+04 0.  0.
        4    1    3    3  502    0 -0.71463194093E+03  0.78394847317E+03 -0.92173570226E+02  0.10647871147E+04  0.12699999809E+01 0.  1.
       -4    1    3    3    0  502  0.71463194093E+03 -0.78394847317E+03 -0.78928397963E+03  0.13222120983E+04  0.12699999809E+01 0. -1.
</event>
<event>
 5   0  0.6306919E-05  0.2208815E+04  0.7818609E-02  0.8514768E-01
       -2   -1    0    0    0  501  0.00000000000E+00  0.00000000000E+00  0.46918451910E+03  0.46918451911E+03  0.25500000920E-02 0. -1.
        2   -1    0    0  501    0  0.00000000000E+00  0.00000000000E+00 -0.25996504267E+04  0.25996504267E+04  0.25500000920E-02 0.  1.
    10030    2    1    2    0    0  0.00000000000E+00  0.00000000000E+00 -0.21304659076E+04  0.30688349458E+04  0.22088148273E+04 0.  0.
        3    1    3    3  502    0 -0.13665536332E+03 -0.10932623246E+04 -0.95925373214E+03  0.14608439107E+04  0.10100000352E+00 0.  1.
       -3    1    3    3    0  502  0.13665536332E+03  0.10932623246E+04 -0.11712121755E+04  0.16079910351E+04  0.10100000352E+00 0. -1.
</event>
<event>
 5   0  0.2908031E-05  0.2199194E+04  0.7818609E-02  0.8518763E-01
        1   -1    0    0  501    0  0.00000000000E+00  0.00000000000E+00  0.88791697550E+03  0.88791697551E+03  0.50400001928E-02 0. -1.
       -1   -1    0    0    0  501  0.00000000000E+00  0.00000000000E+00 -0.13617422545E+04  0.13617422545E+04  0.50400001928E-02 0.  1.
    10030    2    1    2    0    0  0.00000000000E+00  0.00000000000E+00 -0.47382527901E+03  0.22496592300E+04  0.21991944562E+04 0.  0.
        1    1    3    3  502    0  0.26473290628E+03 -0.53585849158E+03 -0.11810689599E+04  0.13236886804E+04  0.50400001928E-02 0.  1.
       -1    1    3    3    0  502 -0.26473290628E+03  0.53585849158E+03  0.70724368084E+03  0.92597054963E+03  0.50400001928E-02 0. -1.
</event>
<event>
 5   0  0.6306919E-05  0.2134293E+04  0.7818609E-02  0.8546286E-01
        2   -1    0    0  501    0  0.00000000000E+00  0.00000000000E+00  0.20669517206E+04  0.20669517206E+04  0.25500000920E-02 0. -1.
       -2   -1    0    0    0  501  0.00000000000E+00  0.00000000000E+00 -0.55095697621E+03  0.55095697621E+03  0.25500000920E-02 0.  1.
    10030    2    1    2    0    0  0.00000000000E+00  0.00000000000E+00  0.15159947444E+04  0.26179086968E+04  0.21342928290E+04 0.  0.
        3    1    3    3  502    0 -0.53156281708E+03  0.28777136615E+03  0.18367230524E+04  0.19336294808E+04  0.10100000352E+00 0. -1.
       -3    1    3    3    0  502  0.53156281708E+03 -0.28777136615E+03 -0.32072830801E+03  0.68427921599E+03  0.10100000352E+00 0.  1.
</event>
<event>
 5   0  0.2820239E-05  0.2196841E+04  0.7818609E-02  0.8519744E-01
        1   -1    0    0  501    0  0.00000000000E+00  0.00000000000E+00  0.14091858943E+04  0.14091858943E+04  0.50400001928E-02 0. -1.
       -1   -1    0    0    0  501  0.00000000000E+00  0.00000000000E+00 -0.85618787269E+03  0.85618787271E+03  0.50400001928E-02 0.  1.
    10030    2    1    2    0    0  0.00000000000E+00  0.00000000000E+00  0.55299802165E+03  0.22653737671E+04  0.21968412534E+04 0.  0.
        3    1    3    3  502    0 -0.12240181496E+02 -0.84418165798E+03 -0.44808427438E+03  0.95580961539E+03  0.10100000352E+00 0.  1.
       -3    1    3    3    0  502  0.12240181496E+02  0.84418165798E+03  0.10010822960E+04  0.13095641517E+04  0.10100000352E+00 0. -1.
</event>
<event>
 5   0  0.2910318E-05  0.2214330E+04  0.7818609E-02  0.8512487E-01
        1   -1    0    0  501    0  0.00000000000E+00  0.00000000000E+00  0.15257889617E+04  0.15257889617E+04  0.50400001928E-02 0.  1.
       -1   -1    0    0    0  501  0.00000000000E+00  0.00000000000E+00 -0.80339700957E+03  0.80339700959E+03  0.50400001928E-02 0. -1.
    10030    2    1    2    0    0  0.00000000000E+00  0.00000000000E+00  0.72239195215E+03  0.23291859713E+04  0.22143299565E+04 0.  0.
        5    1    3    3  502    0  0.74641932851E+03 -0.70831504145E+03 -0.68580141511E+02  0.10312988596E+04  0.46999998093E+01 0.  1.
       -5    1    3    3    0  502 -0.74641932851E+03  0.70831504145E+03  0.79097209366E+03  0.12978871118E+04  0.46999998093E+01 0. -1.
</event>
<event>
 5   0  0.2820239E-05  0.2131808E+04  0.7818609E-02  0.8547360E-01
       -1   -1    0    0    0  501  0.00000000000E+00  0.00000000000E+00  0.80976128662E+03  0.80976128664E+03  0.50400001928E-02 0. -1.
        1   -1    0    0  501    0  0.00000000000E+00  0.00000000000E+00 -0.14030691971E+04  0.14030691971E+04  0.50400001928E-02 0.  1.
    10030    2    1    2    0    0  0.00000000000E+00  0.00000000000E+00 -0.59330791046E+03  0.22128304837E+04  0.21318077946E+04 0.  0.
        3    1    3    3  502    0 -0.62749499053E+03  0.78141305132E+03  0.80179296564E+02  0.10053780631E+04  0.10100000352E+00 0.  1.
       -3    1    3    3    0  502  0.62749499053E+03 -0.78141305132E+03 -0.67348720702E+03  0.12074524207E+04  0.10100000352E+00 0. -1.
</event>
<event>
 5   0  0.6445740E-05  0.2192533E+04  0.7818609E-02  0.8521542E-01
       -2   -1    0    0    0  501  0.00000000000E+00  0.00000000000E+00  0.97527008439E+03  0.97527008440E+03  0.25500000920E-02 0.  1.
        2   -1    0    0  501    0  0.00000000000E+00  0.00000000000E+00 -0.12322742020E+04  0.12322742020E+04  0.25500000920E-02 0. -1.
    10030    2    1    2    0    0  0.00000000000E+00  0.00000000000E+00 -0.25700411756E+03  0.22075442864E+04  0.21925329324E+04 0.  0.
        5    1    3    3  502    0 -0.28833736314E+03 -0.31108045110E+03  0.88929414160E+03  0.98527947422E+03  0.46999998093E+01 0.  1.
       -5    1    3    3    0  502  0.28833736314E+03  0.31108045110E+03 -0.11462982592E+04  0.12222648121E+04  0.46999998093E+01 0. -1.
</event>
<event>
 5   0  0.6293013E-05  0.2197196E+04  0.7818609E-02  0.8519596E-01
       -2   -1    0    0    0  501  0.00000000000E+00  0.00000000000E+00  0.83371911138E+03  0.83371911138E+03  0.25500000920E-02 0.  1.
        2   -1    0    0  501    0  0.00000000000E+00  0.00000000000E+00 -0.14476314973E+04  0.14476314973E+04  0.25500000920E-02 0. -1.
    10030    2    1    2    0    0  0.00000000000E+00  0.00000000000E+00 -0.61391238593E+03  0.22813506087E+04  0.21971964369E+04 0.  0.
        1    1    3    3  502    0 -0.96350152725E+03  0.49307110458E+03 -0.50248709586E+03  0.11932927506E+04  0.50400001928E-02 0.  1.
       -1    1    3    3    0  502  0.96350152725E+03 -0.49307110458E+03 -0.11142529008E+03  0.10880578581E+04  0.50400001928E-02 0. -1.
</event>
<event>
 5   0  0.6293013E-05  0.2202557E+04  0.7818609E-02  0.8517365E-01
       -2   -1    0    0    0  501  0.00000000000E+00  0.00000000000E+00  0.80996506060E+03  0.80996506060E+03  0.25500000920E-02 0. -1.
        2   -1    0    0  501    0  0.00000000000E+00  0.00000000000E+00 -0.14973664163E+04  0.14973664163E+04  0.25500000920E-02 0.  1.
    10030    2    1    2    0    0  0.00000000000E+00  0.00000000000E+00 -0.68740135571E+03  0.23073314769E+04  0.22025571322E+04 0.  0.
        1    1    3    3  502    0 -0.76928944386E+03 -0.41999718417E+03  0.35480945927E+03  0.94556524659E+03  0.50400001928E-02 0. -1.
       -1    1    3    3    0  502  0.76928944386E+03  0.41999718417E+03 -0.10422108150E+04  0.13617662303E+04  0.50400001928E-02 0.  1.
</event>
<event>
 5   0  0.2929471E-05  0.2192677E+04  0.7818609E-02  0.8521482E-01
        1   -1    0    0  501    0  0.00000000000E+00  0.00000000000E+00  0.10666433581E+04  0.10666433582E+04  0.50400001928E-02 0.  1.
       -1   -1    0    0    0  501  0.00000000000E+00  0.00000000000E+00 -0.11268603862E+04  0.11268603862E+04  0.50400001928E-02 0. -1.
    10030    2    1    2    0    0  0.00000000000E+00  0.00000000000E+00 -0.60217028029E+02  0.21935037443E+04  0.21926770364E+04 0.  0.
        2    1    3    3  502    0 -0.80071350253E+03  0.70416900507E+03 -0.28508114064E+03  0.11037514927E+04  0.25500000920E-02 0. -1.
       -2    1    3    3    0  502  0.80071350253E+03 -0.70416900507E+03  0.22486411261E+03  0.10897522517E+04  0.25500000920E-02 0.  1.
</event>
<event>
 5   0  0.2245375E-05  0.2238292E+04  0.7818609E-02  0.8502657E-01
       -4   -1    0    0    0  501  0.00000000000E+00  0.00000000000E+00  0.74273078988E+03  0.74273187567E+03  0.12699999809E+01 0. -1.
        4   -1    0    0  501    0  0.00000000000E+00  0.00000000000E+00 -0.16863250008E+04  0.16863254790E+04  0.12699999809E+01 0.  1.
    10030    2    1    2    0    0  0.00000000000E+00  0.00000000000E+00 -0.94359421087E+03  0.24290573547E+04  0.22382916694E+04 0.  0.
        5    1    3    3  502    0  0.67854869927E+03  0.34059164642E+02  0.49331007983E+03  0.83962211074E+03  0.46999998093E+01 0. -1.
       -5    1    3    3    0  502 -0.67854869927E+03 -0.34059164642E+02 -0.14369042907E+04  0.15894352439E+04  0.46999998093E+01 0.  1.
</event>
<event>
 5   0  0.6414768E-05  0.2194075E+04  0.7818609E-02  0.8520898E-01
        2   -1    0    0  501    0  0.00000000000E+00  0.00000000000E+00  0.21585302723E+04  0.21585302723E+04  0.25500000920E-02 0. -1.
       -2   -1    0    0    0  501  0.00000000000E+00  0.00000000000E+00 -0.55755140376E+03  0.55755140376E+03  0.25500000920E-02 0.  1.
    10030    2    1    2    0    0  0.00000000000E+00  0.00000000000E+00  0.16009788686E+04  0.27160816761E+04  0.21940752798E+04 0.  0.
        2    1    3    3  502    0  0.79688031762E+03 -0.64786075348E+03  0.32304869124E+03  0.10766161124E+04  0.25500000920E-02 0.  1.
       -2    1    3    3    0  502 -0.79688031762E+03  0.64786075348E+03  0.12779301773E+04  0.16394655637E+04  0.25500000920E-02 0. -1.
</event>
<event>
 5   0  0.2910318E-05  0.2204102E+04  0.7818609E-02  0.8516723E-01
       -1   -1    0    0    0  501  0.00000000000E+00  0.00000000000E+00  0.14765719854E+04  0.14765719855E+04  0.50400001928E-02 0. -1.
        1   -1    0    0  501    0  0.00000000000E+00  0.00000000000E+00 -0.82252429390E+03  0.82252429392E+03  0.50400001928E-02 0.  1.
    10030    2    1    2    0    0  0.00000000000E+00  0.00000000000E+00  0.65404769154E+03  0.22990962794E+04  0.22041019303E+04 0.  0.
        5    1    3    3  502    0  0.12085031794E+03  0.95562576773E+03  0.88551425887E+03  0.13084276824E+04  0.46999998093E+01 0. -1.
       -5    1    3    3    0  502 -0.12085031794E+03 -0.95562576773E+03 -0.23146656733E+03  0.99066859701E+03  0.46999998093E+01 0.  1.
</event>
<event>
 5   0  0.2753631E-05  0.2187201E+04  0.7818609E-02  0.8523774E-01
        1   -1    0    0  501    0  0.00000000000E+00  0.00000000000E+00  0.13541399429E+04  0.13541399429E+04  0.50400001928E-02 0. -1.
       -1   -1    0    0    0  501  0.00000000000E+00  0.00000000000E+00 -0.88318924871E+03  0.88318924872E+03  0.50400001928E-02 0.  1.
    10030    2    1    2    0    0  0.00000000000E+00  0.00000000000E+00  0.47095069416E+03  0.22373291916E+04  0.21872008036E+04 0.  0.
        4    1    3    3  502    0 -0.31252501350E+03 -0.93128464272E+03  0.72711244103E+03  0.12221526438E+04  0.12699999809E+01 0.  1.
       -4    1    3    3    0  502  0.31252501350E+03  0.93128464272E+03 -0.25616174687E+03  0.10151765478E+04  0.12699999809E+01 0. -1.
</event>
<event>
 5   0  0.2820239E-05  0.2199333E+04  0.7818609E-02  0.8518706E-01
       -1   -1    0    0    0  501  0.00000000000E+00  0.00000000000E+00  0.97465875913E+03  0.97465875914E+03  0.50400001928E-02 0.  1.
        1   -1    0    0  501    0  0.00000000000E+00  0.00000000000E+00 -0.12407079709E+04  0.12407079709E+04  0.50400001928E-02 0. -1.
    10030    2    1    2    0    0  0.00000000000E+00  0.00000000000E+00 -0.26604921178E+03  0.22153667301E+04  0.21993334367E+04 0.  0.
        3    1    3    3  502    0 -0.84726856620E+03 -0.66112777947E+03  0.10172567307E+03  0.10794915872E+04  0.10100000352E+00 0.  1.
       -3    1    3    3    0  502  0.84726856620E+03  0.66112777947E+03 -0.36777488485E+03  0.11358751429E+04  0.10100000352E+00 0. -1.
</event>
<event>
 5   0  0.2910318E-05  0.2200667E+04  0.7818609E-02  0.8518150E-01
        1   -1    0    0  501    0  0.00000000000E+00  0.00000000000E+00  0.74758920212E+03  0.74758920214E+03  0.50400001928E-02 0.  1.
       -1   -1    0    0    0  501  0.00000000000E+00  0.00000000000E+00 -0.16195180094E+04  0.16195180094E+04  0.50400001928E-02 0. -1.
    10030    2    1    2    0    0  0.00000000000E+00  0.00000000000E+00 -0.87192880723E+03  0.23671072115E+04  0.22006673319E+04 0.  0.
        5    1    3    3  502    0  0.10896486316E+04  0.13092359397E+02 -0.59982279772E+03  0.12439111820E+04  0.46999998093E+01 0. -1.
       -5    1    3    3    0  502 -0.10896486316E+04 -0.13092359397E+02 -0.27210600951E+03  0.11231960295E+04  0.46999998093E+01 0.  1.
</event>
<event>
 5   0  0.6414768E-05  0.1917011E+04  0.7818609E-02  0.8646435E-01
       -2   -1    0    0    0  501  0.00000000000E+00  0.00000000000E+00  0.95872390533E+03  0.95872390534E+03  0.25500000920E-02 0.  1.
        2   -1    0    0  501    0  0.00000000000E+00  0.00000000000E+00 -0.95828736522E+03  0.95828736522E+03  0.25500000920E-02 0. -1.
    10030    2    1    2    0    0  0.00000000000E+00  0.00000000000E+00  0.43654011680E+00  0.19170112706E+04  0.19170112209E+04 0.  0.
        2    1    3    3  502    0  0.39450533844E+03 -0.59269853837E+02 -0.87132384997E+03  0.95830716848E+03  0.25500000920E-02 0. -1.
       -2    1    3    3    0  502 -0.39450533844E+03  0.59269853837E+02  0.87176039008E+03  0.95870410208E+03  0.25500000920E-02 0.  1.
</event>
<event>
 5   0  0.6414768E-05  0.2220952E+04  0.7818609E-02  0.8509758E-01
       -2   -1    0    0    0  501  0.00000000000E+00  0.00000000000E+00  0.18718514667E+04  0.18718514667E+04  0.25500000920E-02 0. -1.
        2   -1    0    0  501    0  0.00000000000E+00  0.00000000000E+00 -0.65879017253E+03  0.65879017254E+03  0.25500000920E-02 0.  1.
    10030    2    1    2    0    0  0.00000000000E+00  0.00000000000E+00  0.12130612942E+04  0.25306416392E+04  0.22209523639E+04 0.  0.
        2    1    3    3  502    0  0.38684606094E+03  0.31378388746E+03 -0.52435818398E+03  0.72323005193E+03  0.25500000920E-02 0.  1.
       -2    1    3    3    0  502 -0.38684606094E+03 -0.31378388746E+03  0.17374194782E+04  0.18074115873E+04  0.25500000920E-02 0. -1.
</event>
<event>
 5   0  0.2753631E-05  0.2199961E+04  0.7818609E-02  0.8518444E-01
       -1   -1    0    0    0  501  0.00000000000E+00  0.00000000000E+00  0.86381717083E+03  0.86381717085E+03  0.50400001928E-02 0.  1.
        1   -1    0    0  501    0  0.00000000000E+00  0.00000000000E+00 -0.14007094450E+04  0.14007094450E+04  0.50400001928E-02 0. -1.
    10030    2    1    2    0    0  0.00000000000E+00  0.00000000000E+00 -0.53689227414E+03  0.22645266158E+04  0.21999607905E+04 0.  0.
        4    1    3    3  502    0  0.64488603167E+03 -0.88355343461E+03 -0.38764893631E+03  0.11605248711E+04  0.12699999809E+01 0. -1.
       -4    1    3    3    0  502 -0.64488603167E+03  0.88355343461E+03 -0.14924333783E+03  0.11040017448E+04  0.12699999809E+01 0.  1.
</event>
<event>
 5   0  0.2908031E-05  0.2196312E+04  0.7818609E-02  0.8519965E-01
        1   -1    0    0  501    0  0.00000000000E+00  0.00000000000E+00  0.10501260838E+04  0.10501260838E+04  0.50400001928E-02 0.  1.
       -1   -1    0    0    0  501  0.00000000000E+00  0.00000000000E+00 -0.11483827229E+04  0.11483827229E+04  0.50400001928E-02 0. -1.
    10030    2    1    2    0    0  0.00000000000E+00  0.00000000000E+00 -0.98256639125E+02  0.21985088067E+04  0.21963120465E+04 0.  0.
        1    1    3    3  502    0  0.91176726771E+03  0.12331066716E+03  0.55098911036E+03  0.10724337140E+04  0.50400001928E-02 0.  1.
       -1    1    3    3    0  502 -0.91176726771E+03 -0.12331066716E+03 -0.64924574948E+03  0.11260750927E+04  0.50400001928E-02 0. -1.
</event>
<event>
 5   0  0.2908031E-05  0.2210039E+04  0.7818609E-02  0.8514261E-01
        1   -1    0    0  501    0  0.00000000000E+00  0.00000000000E+00  0.14684800775E+04  0.14684800775E+04  0.50400001928E-02 0.  1.
       -1   -1    0    0    0  501  0.00000000000E+00  0.00000000000E+00 -0.83151852740E+03  0.83151852741E+03  0.50400001928E-02 0. -1.
    10030    2    1    2    0    0  0.00000000000E+00  0.00000000000E+00  0.63696155009E+03  0.22999986049E+04  0.22100392680E+04 0.  0.
        1    1    3    3  502    0  0.16001538944E+03 -0.50074667721E+03  0.13300096183E+04  0.14301320723E+04  0.50400001928E-02 0.  1.
       -1    1    3    3    0  502 -0.16001538944E+03  0.50074667721E+03 -0.69304806820E+03  0.86986653255E+03  0.50400001928E-02 0. -1.
</event>
<event>
 5   0  0.2910318E-05  0.2193640E+04  0.7818609E-02  0.8521080E-01
        1   -1    0    0  501    0  0.00000000000E+00  0.00000000000E+00  0.14585367832E+04  0.14585367832E+04  0.50400001928E-02 0.  1.
       -1   -1    0    0    0  501  0.00000000000E+00  0.00000000000E+00 -0.82480868935E+03  0.82480868936E+03  0.50400001928E-02 0. -1.
    10030    2    1    2    0    0  0.00000000000E+00  0.00000000000E+00  0.63372809382E+03  0.22833454725E+04  0.21936397266E+04 0.  0.
        5    1    3    3  502    0  0.41115531487E+03 -0.75006901746E+03 -0.39775278438E+03  0.94333535468E+03  0.46999998093E+01 0. -1.
       -5    1    3    3    0  502 -0.41115531487E+03  0.75006901746E+03  0.10314808782E+04  0.13400101179E+04  0.46999998093E+01 0.  1.
</event>
<event>
 5   0  0.6293013E-05  0.2200784E+04  0.7818609E-02  0.8518102E-01
       -2   -1    0    0    0  501  0.00000000000E+00  0.00000000000E+00  0.10684474892E+04  0.10684474892E+04  0.25500000920E-02 0. -1.
        2   -1    0    0  501    0  0.00000000000E+00  0.00000000000E+00 -0.11332916139E+04  0.11332916139E+04  0.25500000920E-02 0.  1.
    10030    2    1    2    0    0  0.00000000000E+00  0.00000000000E+00 -0.64844124685E+02  0.22017391031E+04  0.22007840234E+04 0.  0.
        1    1    3    3  502    0  0.37867793878E+03  0.68589079218E+03 -0.80542769732E+03  0.11236355885E+04  0.50400001928E-02 0.  1.
       -1    1    3    3    0  502 -0.37867793878E+03 -0.68589079218E+03  0.74058357264E+03  0.10781035146E+04  0.50400001928E-02 0. -1.
</event>
<event>
 5   0  0.6306919E-05  0.2159461E+04  0.7818609E-02  0.8535493E-01
       -2   -1    0    0    0  501  0.00000000000E+00  0.00000000000E+00  0.68951445631E+03  0.68951445632E+03  0.25500000920E-02 0.  1.
        2   -1    0    0  501    0  0.00000000000E+00  0.00000000000E+00 -0.16907807506E+04  0.16907807506E+04  0.25500000920E-02 0. -1.
    10030    2    1    2    0    0  0.00000000000E+00  0.00000000000E+00 -0.10012662943E+04  0.23802952069E+04  0.21594608309E+04 0.  0.
        3    1    3    3  502    0  0.17376470009E+03  0.10654517543E+04 -0.52365299483E+03  0.11998308551E+04  0.10100000352E+00 0.  1.
       -3    1    3    3    0  502 -0.17376470009E+03 -0.10654517543E+04 -0.47761329946E+03  0.11804643518E+04  0.10100000352E+00 0. -1.
</event>
<event>
 5   0  0.6293013E-05  0.2196891E+04  0.7818609E-02  0.8519723E-01
        2   -1    0    0  501    0  0.00000000000E+00  0.00000000000E+00  0.17784420865E+04  0.17784420865E+04  0.25500000920E-02 0.  1.
       -2   -1    0    0    0  501  0.00000000000E+00  0.00000000000E+00 -0.67844889081E+03  0.67844889081E+03  0.25500000920E-02 0. -1.
    10030    2    1    2    0    0  0.00000000000E+00  0.00000000000E+00  0.10999931957E+04  0.24568909773E+04  0.21968905853E+04 0.  0.
        1    1    3    3  502    0 -0.10007009660E+04  0.16330630743E+03  0.77488159350E+02  0.10168951708E+04  0.50400001928E-02 0. -1.
       -1    1    3    3    0  502  0.10007009660E+04 -0.16330630743E+03  0.10225050363E+04  0.14399958065E+04  0.50400001928E-02 0.  1.
</event>
<event>
 5   0  0.6306919E-05  0.2193393E+04  0.7818609E-02  0.8521183E-01
        2   -1    0    0  501    0  0.00000000000E+00  0.00000000000E+00  0.17204464253E+04  0.17204464253E+04  0.25500000920E-02 0.  1.
       -2   -1    0    0    0  501  0.00000000000E+00  0.00000000000E+00 -0.69908813862E+03  0.69908813862E+03  0.25500000920E-02 0. -1.
    10030    2    1    2    0    0  0.00000000000E+00  0.00000000000E+00  0.10213582867E+04  0.24195345640E+04  0.21933934340E+04 0.  0.
        3    1    3    3  502    0 -0.64614198731E+03  0.88598757247E+03  0.52881274699E+03  0.12174220213E+04  0.10100000352E+00 0.  1.
       -3    1    3    3    0  502  0.64614198731E+03 -0.88598757247E+03  0.49254553972E+03  0.12021125427E+04  0.10100000352E+00 0. -1.
</event>
<event>
 5   0  0.6445740E-05  0.2205992E+04  0.7818609E-02  0.8515938E-01
       -2   -1    0    0    0  501  0.00000000000E+00  0.00000000000E+00  0.13361460480E+04  0.13361460480E+04  0.25500000920E-02 0. -1.
        2   -1    0    0  501    0  0.00000000000E+00  0.00000000000E+00 -0.91052912362E+03  0.91052912363E+03  0.25500000920E-02 0.  1.
    10030    2    1    2    0    0  0.00000000000E+00  0.00000000000E+00  0.42561692440E+03  0.22466751717E+04  0.22059917408E+04 0.  0.
        5    1    3    3  502    0  0.30452796573E+03 -0.34022771941E+03  0.12353597806E+04  0.13170527934E+04  0.46999998093E+01 0. -1.
       -5    1    3    3    0  502 -0.30452796573E+03  0.34022771941E+03 -0.80974285623E+03  0.92962237827E+03  0.46999998093E+01 0.  1.
</event>
<event>
 5   0  0.2245375E-05  0.2210400E+04  0.7818609E-02  0.8514112E-01
       -4   -1    0    0    0  501  0.00000000000E+00  0.00000000000E+00  0.67470574482E+03  0.67470694009E+03  0.12699999809E+01 0.  1.
        4   -1    0    0  501    0  0.00000000000E+00  0.00000000000E+00 -0.18103661917E+04  0.18103666371E+04  0.12699999809E+01 0. -1.
    10030    2    1    2    0    0  0.00000000000E+00  0.00000000000E+00 -0.11356604468E+04  0.24850735772E+04  0.22103995190E+04 0.  0.
        3    1    3    3  502    0 -0.53989657207E+03 -0.31668399775E+02 -0.16514341205E+04  0.17377358432E+04  0.10100000352E+00 0. -1.
       -3    1    3    3    0  502  0.53989657207E+03  0.31668399775E+02  0.51577367366E+03  0.74733773404E+03  0.10100000352E+00 0.  1.
</event>
<event>
 5   0  0.2820239E-05  0.2192394E+04  0.7818609E-02  0.8521601E-01
       -1   -1    0    0    0  501  0.00000000000E+00  0.00000000000E+00  0.94662029315E+03  0.94662029316E+03  0.50400001928E-02 0. -1.
        1   -1    0    0  501    0  0.00000000000E+00  0.00000000000E+00 -0.12694086857E+04  0.12694086857E+04  0.50400001928E-02 0.  1.
    10030    2    1    2    0    0  0.00000000000E+00  0.00000000000E+00 -0.32278839256E+03  0.22160289789E+04  0.21923941454E+04 0.  0.
        3    1    3    3  502    0 -0.68232618422E+03 -0.63930112763E+03  0.41693919728E+03  0.10237740268E+04  0.10100000352E+00 0. -1.
       -3    1    3    3    0  502  0.68232618422E+03  0.63930112763E+03 -0.73972758984E+03  0.11922549521E+04  0.10100000352E+00 0.  1.
</event>
<event>
 5   0  0.6293013E-05  0.2208083E+04  0.7818609E-02  0.8515071E-01
       -2   -1    0    0    0  501  0.00000000000E+00  0.00000000000E+00  0.11999567864E+04  0.11999567864E+04  0.25500000920E-02 0. -1.
        2   -1    0    0  501    0  0.00000000000E+00  0.00000000000E+00 -0.10157932965E+04  0.10157932965E+04  0.25500000920E-02 0.  1.
    10030    2    1    2    0    0  0.00000000000E+00  0.00000000000E+00  0.18416348995E+03  0.22157500829E+04  0.22080833858E+04 0.  0.
        1    1    3    3  502    0 -0.54069763049E+01 -0.23680009309E+03 -0.98999649480E+03  0.10179374142E+04  0.50400001928E-02 0.  1.
       -1    1    3    3    0  502  0.54069763049E+01  0.23680009309E+03  0.11741599848E+04  0.11978126687E+04  0.50400001928E-02 0. -1.
</event>
<event>
 5   0  0.2820239E-05  0.2178225E+04  0.7818609E-02  0.8527546E-01
       -1   -1    0    0    0  501  0.00000000000E+00  0.00000000000E+00  0.55508574781E+03  0.55508574783E+03  0.50400001928E-02 0.  1.
        1   -1    0    0  501    0  0.00000000000E+00  0.00000000000E+00 -0.21369068459E+04  0.21369068459E+04  0.50400001928E-02 0. -1.
    10030    2    1    2    0    0  0.00000000000E+00  0.00000000000E+00 -0.15818210981E+04  0.26919925937E+04  0.21782254563E+04 0.  0.
        3    1    3    3  502    0 -0.13497801048E+02  0.13698090854E+03  0.54429305749E+03  0.56142755772E+03  0.10100000352E+00 0.  1.
       -3    1    3    3    0  502  0.13497801048E+02 -0.13698090854E+03 -0.21261141555E+04  0.21305650360E+04  0.10100000352E+00 0. -1.
</event>
<event>
 5   0  0.2929471E-05  0.2197754E+04  0.7818609E-02  0.8519364E-01
        1   -1    0    0  501    0  0.00000000000E+00  0.00000000000E+00  0.79694078897E+03  0.79694078899E+03  0.50400001928E-02 0.  1.
       -1   -1    0    0    0  501  0.00000000000E+00  0.00000000000E+00 -0.15152070094E+04  0.15152070094E+04  0.50400001928E-02 0. -1.
    10030    2    1    2    0    0  0.00000000000E+00  0.00000000000E+00 -0.71826622044E+03  0.23121477984E+04  0.21977536437E+04 0.  0.
        2    1    3    3  502    0 -0.63275584463E+03 -0.48472769345E+02  0.58466859175E+03  0.86288291817E+03  0.25500000920E-02 0.  1.
       -2    1    3    3    0  502  0.63275584463E+03  0.48472769345E+02 -0.13029348122E+04  0.14492648802E+04  0.25500000920E-02 0. -1.
</event>
<event>
 5   0  0.2753631E-05  0.2194825E+04  0.7818609E-02  0.8520585E-01
        1   -1    0    0  501    0  0.00000000000E+00  0.00000000000E+00  0.11877976059E+04  0.11877976059E+04  0.50400001928E-02 0.  1.
       -1   -1    0    0    0  501  0.00000000000E+00  0.00000000000E+00 -0.10139048000E+04  0.10139048000E+04  0.50400001928E-02 0. -1.
    10030    2    1    2    0    0  0.00000000000E+00  0.00000000000E+00  0.17389280598E+03  0.22017024059E+04  0.21948245434E+04 0.  0.
        4    1    3    3  502    0 -0.25891864924E+03 -0.12693047706E+03  0.11491138038E+04  0.11847423180E+04  0.12699999809E+01 0.  1.
       -4    1    3    3    0  502  0.25891864924E+03  0.12693047706E+03 -0.97522099785E+03  0.10169600879E+04  0.12699999809E+01 0. -1.
</event>
<event>
 5   0  0.6628798E-05  0.2198252E+04  0.7818609E-02  0.8519156E-01
        2   -1    0    0  501    0  0.00000000000E+00  0.00000000000E+00  0.15742901053E+04  0.15742901053E+04  0.25500000920E-02 0. -1.
       -2   -1    0    0    0  501  0.00000000000E+00  0.00000000000E+00 -0.76737928405E+03  0.76737928406E+03  0.25500000920E-02 0.  1.
    10030    2    1    2    0    0  0.00000000000E+00  0.00000000000E+00  0.80691082123E+03  0.23416693893E+04  0.21982516816E+04 0.  0.
        4    1    3    3  502    0  0.59622635921E+03  0.78534142508E+03 -0.11384967388E+03  0.99257764760E+03  0.12699999809E+01 0.  1.
       -4    1    3    3    0  502 -0.59622635921E+03 -0.78534142508E+03  0.92076049511E+03  0.13490917417E+04  0.12699999809E+01 0. -1.
</event>
<event>
 5   0  0.2910318E-05  0.2202066E+04  0.7818609E-02  0.8517569E-01
        1   -1    0    0  501    0  0.00000000000E+00  0.00000000000E+00  0.14322341600E+04  0.14322341601E+04  0.50400001928E-02 0. -1.
       -1   -1    0    0    0  501  0.00000000000E+00  0.00000000000E+00 -0.84642138029E+03  0.84642138031E+03  0.50400001928E-02 0.  1.
    10030    2    1    2    0    0  0.00000000000E+00  0.00000000000E+00  0.58581277975E+03  0.22786555404E+04  0.22020659524E+04 0.  0.
        5    1    3    3  502    0  0.55120128456E+03  0.61050079247E+03 -0.46447783213E+03  0.94461411181E+03  0.46999998093E+01 0.  1.
       -5    1    3    3    0  502 -0.55120128456E+03 -0.61050079247E+03  0.10502906119E+04  0.13340414286E+04  0.46999998093E+01 0. -1.
</event>
<event>
 5   0  0.2910318E-05  0.2188198E+04  0.7818609E-02  0.8523356E-01
       -1   -1    0    0    0  501  0.00000000000E+00  0.00000000000E+00  0.60601021537E+03  0.60601021539E+03  0.50400001928E-02 0.  1.
        1   -1    0    0  501    0  0.00000000000E+00  0.00000000000E+00 -0.19753013904E+04  0.19753013904E+04  0.50400001928E-02 0. -1.
    10030    2    1    2    0    0  0.00000000000E+00  0.00000000000E+00 -0.13692911750E+04  0.25813116058E+04  0.21881981821E+04 0.  0.
        5    1    3    3  502    0  0.17856988354E+03  0.95908899305E+03 -0.10040015778E+03  0.98073502109E+03  0.46999998093E+01 0. -1.
       -5    1    3    3    0  502 -0.17856988354E+03 -0.95908899305E+03 -0.12688910173E+04  0.16005765847E+04  0.46999998093E+01 0.  1.
</event>
<event>
 5   0  0.2910318E-05  0.2215796E+04  0.7818609E-02  0.8511882E-01
       -1   -1    0    0    0  501  0.00000000000E+00  0.00000000000E+00  0.75103722476E+03  0.75103722478E+03  0.50400001928E-02 0. -1.
        1   -1    0    0  501    0  0.00000000000E+00  0.00000000000E+00 -0.16343235279E+04  0.16343235279E+04  0.50400001928E-02 0.  1.
    10030    2    1    2    0    0  0.00000000000E+00  0.00000000000E+00 -0.88328630313E+03  0.23853607527E+04  0.22157958451E+04 0.  0.
        5    1    3    3  502    0  0.11487618678E+03 -0.10976609075E+04 -0.54579225534E+03  0.12312462313E+04  0.46999998093E+01 0.  1.
       -5    1    3    3    0  502 -0.11487618678E+03  0.10976609075E+04 -0.33749404778E+03  0.11541145214E+04  0.46999998093E+01 0. -1.
</event>
<event>
 5   0  0.6445740E-05  0.2209937E+04  0.7818609E-02  0.8514304E-01
       -2   -1    0    0    0  501  0.00000000000E+00  0.00000000000E+00  0.10850838585E+04  0.10850838585E+04  0.25500000920E-02 0. -1.
        2   -1    0    0  501    0  0.00000000000E+00  0.00000000000E+00 -0.11252172117E+04  0.11252172117E+04  0.25500000920E-02 0.  1.
    10030    2    1    2    0    0  0.00000000000E+00  0.00000000000E+00 -0.40133353248E+02  0.22103010702E+04  0.22099366812E+04 0.  0.
        5    1    3    3  502    0  0.10769897118E+04  0.15653970956E+03 -0.21120397959E+03  0.11086210944E+04  0.46999998093E+01 0. -1.
       -5    1    3    3    0  502 -0.10769897118E+04 -0.15653970956E+03  0.17107062634E+03  0.11016799758E+04  0.46999998093E+01 0.  1.
</event>
<event>
 5   0  0.6293013E-05  0.2219296E+04  0.7818609E-02  0.8510439E-01
       -2   -1    0    0    0  501  0.00000000000E+00  0.00000000000E+00  0.68815406440E+03  0.68815406440E+03  0.25500000920E-02 0. -1.
        2   -1    0    0  501    0  0.00000000000E+00  0.00000000000E+00 -0.17893074571E+04  0.17893074571E+04  0.25500000920E-02 0.  1.
    10030    2    1    2    0    0  0.00000000000E+00  0.00000000000E+00 -0.11011533928E+04  0.24774615216E+04  0.22192964643E+04 0.  0.
        1    1    3    3  502    0  0.43283837620E+03 -0.88296587202E+03 -0.11245268761E+04  0.14938334868E+04  0.50400001928E-02 0.  1.
       -1    1    3    3    0  502 -0.43283837620E+03  0.88296587202E+03  0.23373483359E+02  0.98362803479E+03  0.50400001928E-02 0. -1.
</event>
<event>
 5   0  0.2929471E-05  0.2202582E+04  0.7818609E-02  0.8517354E-01
        1   -1    0    0  501    0  0.00000000000E+00  0.00000000000E+00  0.14020480088E+04  0.14020480088E+04  0.50400001928E-02 0.  1.
       -1   -1    0    0    0  501  0.00000000000E+00  0.00000000000E+00 -0.86504995197E+03  0.86504995198E+03  0.50400001928E-02 0. -1.
    10030    2    1    2    0    0  0.00000000000E+00  0.00000000000E+00  0.53699805684E+03  0.22670979608E+04  0.22025817240E+04 0.  0.
        2    1    3    3  502    0  0.86658222371E+02 -0.86126122639E+03 -0.43229712210E+03  0.96755431339E+03  0.25500000920E-02 0. -1.
       -2    1    3    3    0  502 -0.86658222371E+02  0.86126122639E+03  0.96929517893E+03  0.12995436474E+04  0.25500000920E-02 0.  1.
</event>
<event>
 5   0  0.2245375E-05  0.2065041E+04  0.7818609E-02  0.8576802E-01
       -4   -1    0    0    0  501  0.00000000000E+00  0.00000000000E+00  0.11915267634E+04  0.11915274403E+04  0.12699999809E+01 0. -1.
        4   -1    0    0  501    0  0.00000000000E+00  0.00000000000E+00 -0.89473159595E+03  0.89473249728E+03  0.12699999809E+01 0.  1.
    10030    2    1    2    0    0  0.00000000000E+00  0.00000000000E+00  0.29679516750E+03  0.20862599375E+04  0.20650407152E+04 0.  0.
        1    1    3    3  502    0  0.46931347660E+03 -0.29409733245E+03 -0.73196336964E+03  0.91788820387E+03  0.50400001928E-02 0.  1.
       -1    1    3    3    0  502 -0.46931347660E+03  0.29409733245E+03  0.10287585371E+04  0.11683717337E+04  0.50400001928E-02 0. -1.
</event>
<event>
 5   0  0.6293013E-05  0.2201898E+04  0.7818609E-02  0.8517639E-01
        2   -1    0    0  501    0  0.00000000000E+00  0.00000000000E+00  0.14585526717E+04  0.14585526717E+04  0.25500000920E-02 0. -1.
       -2   -1    0    0    0  501  0.00000000000E+00  0.00000000000E+00 -0.83102140037E+03  0.83102140037E+03  0.25500000920E-02 0.  1.
    10030    2    1    2    0    0  0.00000000000E+00  0.00000000000E+00  0.62753127132E+03  0.22895740721E+04  0.22018978030E+04 0.  0.
        1    1    3    3  502    0  0.59196179909E+03  0.35859313507E+02 -0.65073753125E+03  0.88043398194E+03  0.50400001928E-02 0.  1.
       -1    1    3    3    0  502 -0.59196179909E+03 -0.35859313507E+02  0.12782688026E+04  0.14091400901E+04  0.50400001928E-02 0. -1.
</event>
<event>
 5   0  0.2245375E-05  0.2194257E+04  0.7818609E-02  0.8520822E-01
       -3   -1    0    0    0  501  0.00000000000E+00  0.00000000000E+00  0.10480672877E+04  0.10480672925E+04  0.10100000352E+00 0.  1.
        3   -1    0    0  501    0  0.00000000000E+00  0.00000000000E+00 -0.11484862674E+04  0.11484862718E+04  0.10100000352E+00 0. -1.
    10030    2    1    2    0    0  0.00000000000E+00  0.00000000000E+00 -0.10041897971E+03  0.21965535644E+04  0.21942569561E+04 0.  0.
        5    1    3    3  502    0 -0.64765036567E+03 -0.65897258899E+03 -0.64241377596E+03  0.11253503538E+04  0.46999998093E+01 0. -1.
       -5    1    3    3    0  502  0.64765036567E+03  0.65897258899E+03  0.54199479625E+03  0.10712032106E+04  0.46999998093E+01 0.  1.
</event>
<event>
 5   0  0.6293013E-05  0.2186153E+04  0.7818609E-02  0.8524214E-01
       -2   -1    0    0    0  501  0.00000000000E+00  0.00000000000E+00  0.80994479301E+03  0.80994479301E+03  0.25500000920E-02 0. -1.
        2   -1    0    0  501    0  0.00000000000E+00  0.00000000000E+00 -0.14751824024E+04  0.14751824024E+04  0.25500000920E-02 0.  1.
    10030    2    1    2    0    0  0.00000000000E+00  0.00000000000E+00 -0.66523760934E+03  0.22851271954E+04  0.21861530647E+04 0.  0.
        1    1    3    3  502    0 -0.63919431759E+03 -0.12842267740E+03 -0.12496961054E+04  0.14095396821E+04  0.50400001928E-02 0.  1.
       -1    1    3    3    0  502  0.63919431759E+03  0.12842267740E+03  0.58445849603E+03  0.87558751323E+03  0.50400001928E-02 0. -1.
</event>
<event>
 5   0  0.6306919E-05  0.2124148E+04  0.7818609E-02  0.8550680E-01
        2   -1    0    0  501    0  0.00000000000E+00  0.00000000000E+00  0.12776570874E+04  0.12776570874E+04  0.25500000920E-02 0.  1.
       -2   -1    0    0    0  501  0.00000000000E+00  0.00000000000E+00 -0.88286683935E+03  0.88286683936E+03  0.25500000920E-02 0. -1.
    10030    2    1    2    0    0  0.00000000000E+00  0.00000000000E+00  0.39479024808E+03  0.21605239268E+04  0.21241478993E+04 0.  0.
        3    1    3    3  502    0 -0.39892383379E+03 -0.65950343440E+03 -0.54581363583E+03  0.94445621413E+03  0.10100000352E+00 0. -1.
       -3    1    3    3    0  502  0.39892383379E+03  0.65950343440E+03  0.94060388391E+03  0.12160677127E+04  0.10100000352E+00 0.  1.
</event>
<event>
 5   0  0.2753631E-05  0.2163817E+04  0.7818609E-02  0.8533641E-01
        1   -1    0    0  501    0  0.00000000000E+00  0.00000000000E+00  0.97024564243E+03  0.97024564245E+03  0.50400001928E-02 0. -1.
       -1   -1    0    0    0  501  0.00000000000E+00  0.00000000000E+00 -0.12064223113E+04  0.12064223113E+04  0.50400001928E-02 0.  1.
    10030    2    1    2    0    0  0.00000000000E+00  0.00000000000E+00 -0.23617666883E+03  0.21766679537E+04  0.21638169890E+04 0.  0.
        4    1    3    3  502    0  0.71795692766E+03 -0.26975378664E+03  0.64952627743E+03  0.10050449012E+04  0.12699999809E+01 0. -1.
       -4    1    3    3    0  502 -0.71795692766E+03  0.26975378664E+03 -0.88570294626E+03  0.11716230526E+04  0.12699999809E+01 0.  1.
</event>
<event>
 5   0  0.2753631E-05  0.2068490E+04  0.7818609E-02  0.8575252E-01
        1   -1    0    0  501    0  0.00000000000E+00  0.00000000000E+00  0.19313329724E+04  0.19313329724E+04  0.50400001928E-02 0.  1.
       -1   -1    0    0    0  501  0.00000000000E+00  0.00000000000E+00 -0.55384690749E+03  0.55384690751E+03  0.50400001928E-02 0. -1.
    10030    2    1    2    0    0  0.00000000000E+00  0.00000000000E+00  0.13774860649E+04  0.24851798799E+04  0.20684900716E+04 0.  0.
        4    1    3    3  502    0 -0.18895395254E+03  0.56524056463E+03 -0.32678883762E+03  0.67970070573E+03  0.12699999809E+01 0. -1.
       -4    1    3    3    0  502  0.18895395254E+03 -0.56524056463E+03  0.17042749025E+04  0.18054791742E+04  0.12699999809E+01 0.  1.
</event>
<event>
 5   0  0.2908031E-05  0.2205397E+04  0.7818609E-02  0.8516185E-01
        1   -1    0    0  501    0  0.00000000000E+00  0.00000000000E+00  0.18111951071E+04  0.18111951071E+04  0.50400001928E-02 0. -1.
       -1   -1    0    0    0  501  0.00000000000E+00  0.00000000000E+00 -0.67134882460E+03  0.67134882462E+03  0.50400001928E-02 0.  1.
    10030    2    1    2    0    0  0.00000000000E+00  0.00000000000E+00  0.11398462824E+04  0.24825439317E+04  0.22053967500E+04 0.  0.
        1    1    3    3  502    0 -0.26024858198E+03  0.28294477797E+03 -0.59347317284E+03  0.70710499837E+03  0.50400001928E-02 0.  1.
       -1    1    3    3    0  502  0.26024858198E+03 -0.28294477797E+03  0.17333194553E+04  0.17754389333E+04  0.50400001928E-02 0. -1.
</event>
<event>
 5   0  0.6445740E-05  0.2209436E+04  0.7818609E-02  0.8514511E-01
       -2   -1    0    0    0  501  0.00000000000E+00  0.00000000000E+00  0.84831841016E+03  0.84831841017E+03  0.25500000920E-02 0.  1.
        2   -1    0    0  501    0  0.00000000000E+00  0.00000000000E+00 -0.14386126889E+04  0.14386126889E+04  0.25500000920E-02 0. -1.
    10030    2    1    2    0    0  0.00000000000E+00  0.00000000000E+00 -0.59029427876E+03  0.22869310991E+04  0.22094357914E+04 0.  0.
        5    1    3    3  502    0  0.60726849423E+03  0.59296995541E+03  0.43675472365E+03  0.95454972146E+03  0.46999998093E+01 0.  1.
       -5    1    3    3    0  502 -0.60726849423E+03 -0.59296995541E+03 -0.10270490024E+04  0.13323813776E+04  0.46999998093E+01 0. -1.
</event>
<event>
 5   0  0.2908031E-05  0.2201279E+04  0.7818609E-02  0.8517896E-01
       -1   -1    0    0    0  501  0.00000000000E+00  0.00000000000E+00  0.13040998174E+04  0.13040998174E+04  0.50400001928E-02 0.  1.
        1   -1    0    0  501    0  0.00000000000E+00  0.00000000000E+00 -0.92892185599E+03  0.92892185600E+03  0.50400001928E-02 0. -1.
    10030    2    1    2    0    0  0.00000000000E+00  0.00000000000E+00  0.37517796142E+03  0.22330216734E+04  0.22012785583E+04 0.  0.
        1    1    3    3  502    0 -0.13805424024E+03 -0.81886833025E+03  0.92036460770E+03  0.12396270918E+04  0.50400001928E-02 0.  1.
       -1    1    3    3    0  502  0.13805424024E+03  0.81886833025E+03 -0.54518664627E+03  0.99339458164E+03  0.50400001928E-02 0. -1.
</event>
<event>
 5   0  0.6445740E-05  0.2185197E+04  0.7818609E-02  0.8524615E-01
        2   -1    0    0  501    0  0.00000000000E+00  0.00000000000E+00  0.17226852495E+04  0.17226852495E+04  0.25500000920E-02 0. -1.
       -2   -1    0    0    0  501  0.00000000000E+00  0.00000000000E+00 -0.69297151225E+03  0.69297151225E+03  0.25500000920E-02 0.  1.
    10030    2    1    2    0    0  0.00000000000E+00  0.00000000000E+00  0.10297137372E+04  0.24156567617E+04  0.21851972931E+04 0.  0.
        5    1    3    3  502    0 -0.10308486548E+04  0.25163236335E+03  0.22704977342E+03  0.10851458358E+04  0.46999998093E+01 0.  1.
       -5    1    3    3    0  502  0.10308486548E+04 -0.25163236335E+03  0.80266396381E+03  0.13305109260E+04  0.46999998093E+01 0. -1.
</event>
<event>
 5   0  0.6293013E-05  0.2160582E+04  0.7818609E-02  0.8535016E-01
        2   -1    0    0  501    0  0.00000000000E+00  0.00000000000E+00  0.14803150423E+04  0.14803150423E+04  0.25500000920E-02 0. -1.
       -2   -1    0    0    0  501  0.00000000000E+00  0.00000000000E+00 -0.78836530755E+03  0.78836530755E+03  0.25500000920E-02 0.  1.
    10030    2    1    2    0    0  0.00000000000E+00  0.00000000000E+00  0.69194973471E+03  0.22686803498E+04  0.21605823507E+04 0.  0.
        1    1    3    3  502    0  0.53724432192E+03  0.85757264380E+03  0.74300179787E+03  0.12554337786E+04  0.50400001928E-02 0. -1.
       -1    1    3    3    0  502 -0.53724432192E+03 -0.85757264380E+03 -0.51052063164E+02  0.10132465712E+04  0.50400001928E-02 0.  1.
</event>
<event>
 5   0  0.6628798E-05  0.2213621E+04  0.7818609E-02  0.8512780E-01
        2   -1    0    0  501    0  0.00000000000E+00  0.00000000000E+00  0.17226128131E+04  0.17226128131E+04  0.25500000920E-02 0.  1.
       -2   -1    0    0    0  501  0.00000000000E+00  0.00000000000E+00 -0.71114596963E+03  0.71114596963E+03  0.25500000920E-02 0. -1.
    10030    2    1    2    0    0  0.00000000000E+00  0.00000000000E+00  0.10114668435E+04  0.24337587828E+04  0.22136207076E+04 0.  0.
        4    1    3    3  502    0 -0.33491436609E+03  0.98143912724E+03  0.80434734925E+02  0.10401258350E+04  0.12699999809E+01 0. -1.
       -4    1    3    3    0  502  0.33491436609E+03 -0.98143912724E+03  0.93103210859E+03  0.13936329478E+04  0.12699999809E+01 0.  1.
</event>
<event>
 5   0  0.6445740E-05  0.2194142E+04  0.7818609E-02  0.8520870E-01
       -2   -1    0    0    0  501  0.00000000000E+00  0.00000000000E+00  0.45233630275E+03  0.45233630276E+03  0.25500000920E-02 0. -1.
        2   -1    0    0  501    0  0.00000000000E+00  0.00000000000E+00 -0.26607747693E+04  0.26607747693E+04  0.25500000920E-02 0.  1.
    10030    2    1    2    0    0  0.00000000000E+00  0.00000000000E+00 -0.22084384666E+04  0.31131110721E+04  0.21941422211E+04 0.  0.
        5    1    3    3  502    0  0.91687844036E+03 -0.58491324581E+03 -0.13086159751E+04  0.17015544187E+04  0.46999998093E+01 0.  1.
       -5    1    3    3    0  502 -0.91687844036E+03  0.58491324581E+03 -0.89982249143E+03  0.14115566533E+04  0.46999998093E+01 0. -1.
</event>
<event>
 5   0  0.2753631E-05  0.2196923E+04  0.7818609E-02  0.8519710E-01
        1   -1    0    0  501    0  0.00000000000E+00  0.00000000000E+00  0.14251913712E+04  0.14251913712E+04  0.50400001928E-02 0.  1.
       -1   -1    0    0    0  501  0.00000000000E+00  0.00000000000E+00 -0.84663582036E+03  0.84663582037E+03  0.50400001928E-02 0. -1.
    10030    2    1    2    0    0  0.00000000000E+00  0.00000000000E+00  0.57855555083E+03  0.22718271916E+04  0.21969233630E+04 0.  0.
        4    1    3    3  502    0 -0.17380404098E+03 -0.25228220427E+03  0.13801191130E+04  0.14137130311E+04  0.12699999809E+01 0.  1.
       -4    1    3    3    0  502  0.17380404098E+03  0.25228220427E+03 -0.80156356220E+03  0.85811416047E+03  0.12699999809E+01 0. -1.
</event>
<event>
 5   0  0.6293013E-05  0.2246694E+04  0.7818609E-02  0.8499241E-01
       -2   -1    0    0    0  501  0.00000000000E+00  0.00000000000E+00  0.10782213206E+04  0.10782213206E+04  0.25500000920E-02 0.  1.
        2   -1    0    0  501    0  0.00000000000E+00  0.00000000000E+00 -0.11703610376E+04  0.11703610376E+04  0.25500000920E-02 0. -1.
    10030    2    1    2    0    0  0.00000000000E+00  0.00000000000E+00 -0.92139716986E+02  0.22485823581E+04  0.22466937695E+04 0.  0.
        1    1    3    3  502    0  0.10337176190E+04  0.20845792538E+03  0.34140077249E+03  0.11084138712E+04  0.50400001928E-02 0.  1.
       -1    1    3    3    0  502 -0.10337176190E+04 -0.20845792538E+03 -0.43354048948E+03  0.11401684869E+04  0.50400001928E-02 0. -1.
</event>
<event>
 5   0  0.2753631E-05  0.2226535E+04  0.7818609E-02  0.8507464E-01
        1   -1    0    0  501    0  0.00000000000E+00  0.00000000000E+00  0.26267433658E+04  0.26267433659E+04  0.50400001928E-02 0. -1.
       -1   -1    0    0    0  501  0.00000000000E+00  0.00000000000E+00 -0.47182570542E+03  0.47182570545E+03  0.50400001928E-02 0.  1.
    10030    2    1    2    0    0  0.00000000000E+00  0.00000000000E+00  0.21549176604E+04  0.30985690713E+04  0.22265354626E+04 0.  0.
        4    1    3    3  502    0 -0.32044705489E+03 -0.74523363620E+03  0.16415307058E+02  0.81137572229E+03  0.12699999809E+01 0.  1.
       -4    1    3    3    0  502  0.32044705489E+03  0.74523363620E+03  0.21385023534E+04  0.22871933490E+04  0.12699999809E+01 0. -1.
</event>
<event>
 5   0  0.2929471E-05  0.2219198E+04  0.7818609E-02  0.8510480E-01
       -1   -1    0    0    0  501  0.00000000000E+00  0.00000000000E+00  0.87184897790E+03  0.87184897791E+03  0.50400001928E-02 0.  1.
        1   -1    0    0  501    0  0.00000000000E+00  0.00000000000E+00 -0.14121819557E+04  0.14121819557E+04  0.50400001928E-02 0. -1.
    10030    2    1    2    0    0  0.00000000000E+00  0.00000000000E+00 -0.54033297775E+03  0.22840309336E+04  0.22191975078E+04 0.  0.
        2    1    3    3  502    0  0.90677117672E+03 -0.34416550904E+03 -0.82491759467E+03  0.12732528824E+04  0.25500000920E-02 0. -1.
       -2    1    3    3    0  502 -0.90677117672E+03  0.34416550904E+03  0.28458461692E+03  0.10107780512E+04  0.25500000920E-02 0.  1.
</event>
<event>
 5   0  0.2929471E-05  0.2196589E+04  0.7818609E-02  0.8519849E-01
        1   -1    0    0  501    0  0.00000000000E+00  0.00000000000E+00  0.11338918626E+04  0.11338918626E+04  0.50400001928E-02 0.  1.
       -1   -1    0    0    0  501  0.00000000000E+00  0.00000000000E+00 -0.10638144652E+04  0.10638144652E+04  0.50400001928E-02 0. -1.
    10030    2    1    2    0    0  0.00000000000E+00  0.00000000000E+00  0.70077397389E+02  0.21977063278E+04  0.21965887785E+04 0.  0.
        2    1    3    3  502    0 -0.30059946639E+03  0.52152038709E+03  0.95415018957E+03  0.11281605106E+04  0.25500000920E-02 0.  1.
       -2    1    3    3    0  502  0.30059946639E+03 -0.52152038709E+03 -0.88407279218E+03  0.10695458173E+04  0.25500000920E-02 0. -1.
</event>
<event>
 5   0  0.2908031E-05  0.2195993E+04  0.7818609E-02  0.8520098E-01
        1   -1    0    0  501    0  0.00000000000E+00  0.00000000000E+00  0.28442588844E+04  0.28442588844E+04  0.50400001928E-02 0.  1.
       -1   -1    0    0    0  501  0.00000000000E+00  0.00000000000E+00 -0.42387022681E+03  0.42387022684E+03  0.50400001928E-02 0. -1.
    10030    2    1    2    0    0  0.00000000000E+00  0.00000000000E+00  0.24203886576E+04  0.32681291113E+04  0.21959933137E+04 0.  0.
        1    1    3    3  502    0 -0.37562303393E+03 -0.78163135695E+03  0.22124622947E+04  0.23763479642E+04  0.50400001928E-02 0.  1.
       -1    1    3    3    0  502  0.37562303393E+03  0.78163135695E+03  0.20792636298E+03  0.89178114705E+03  0.50400001928E-02 0. -1.
</event>
<event>
 5   0  0.2753631E-05  0.2172839E+04  0.7818609E-02  0.8529819E-01
       -1   -1    0    0    0  501  0.00000000000E+00  0.00000000000E+00  0.65670823750E+03  0.65670823752E+03  0.50400001928E-02 0.  1.
        1   -1    0    0  501    0  0.00000000000E+00  0.00000000000E+00 -0.17973086439E+04  0.17973086439E+04  0.50400001928E-02 0. -1.
    10030    2    1    2    0    0  0.00000000000E+00  0.00000000000E+00 -0.11406004064E+04  0.24540168814E+04  0.21728390569E+04 0.  0.
        4    1    3    3  502    0  0.89129795568E+03 -0.34065327788E+03 -0.11569925940E+04  0.14996966950E+04  0.12699999809E+01 0. -1.
       -4    1    3    3    0  502 -0.89129795568E+03  0.34065327788E+03  0.16392187589E+02  0.95432018644E+03  0.12699999809E+01 0.  1.
</event>
<event>
 5   0  0.6628798E-05  0.2200847E+04  0.7818609E-02  0.8518076E-01
       -2   -1    0    0    0  501  0.00000000000E+00  0.00000000000E+00  0.59833279595E+03  0.59833279596E+03  0.25500000920E-02 0. -1.
        2   -1    0    0  501    0  0.00000000000E+00  0.00000000000E+00 -0.20238428559E+04  0.20238428559E+04  0.25500000920E-02 0.  1.
    10030    2    1    2    0    0  0.00000000000E+00  0.00000000000E+00 -0.14255100600E+04  0.26221756519E+04  0.22008467048E+04 0.  0.
        4    1    3    3  502    0 -0.91643302395E+03  0.31166362270E+03 -0.13363529516E+04  0.16500983381E+04  0.12699999809E+01 0.  1.
       -4    1    3    3    0  502  0.91643302395E+03 -0.31166362270E+03 -0.89157108315E+02  0.97207731378E+03  0.12699999809E+01 0. -1.
</event>
<event>
 5   0  0.6628798E-05  0.2187329E+04  0.7818609E-02  0.8523721E-01
        2   -1    0    0  501    0  0.00000000000E+00  0.00000000000E+00  0.12021077572E+04  0.12021077572E+04  0.25500000920E-02 0. -1.
       -2   -1    0    0    0  501  0.00000000000E+00  0.00000000000E+00 -0.99500392139E+03  0.99500392140E+03  0.25500000920E-02 0.  1.
    10030    2    1    2    0    0  0.00000000000E+00  0.00000000000E+00  0.20710383584E+03  0.21971116786E+04  0.21873289029E+04 0.  0.
        4    1    3    3  502    0  0.33728298196E+02  0.55452681183E+03 -0.84271379510E+03  0.10093590721E+04  0.12699999809E+01 0.  1.
       -4    1    3    3    0  502 -0.33728298196E+02 -0.55452681183E+03  0.10498176309E+04  0.11877526065E+04  0.12699999809E+01 0. -1.
</event>
<event>
 5   0  0.2910318E-05  0.2189997E+04  0.7818609E-02  0.8522603E-01
        1   -1    0    0  501    0  0.00000000000E+00  0.00000000000E+00  0.16820528417E+04  0.16820528417E+04  0.50400001928E-02 0.  1.
       -1   -1    0    0    0  501  0.00000000000E+00  0.00000000000E+00 -0.71283262019E+03  0.71283262020E+03  0.50400001928E-02 0. -1.
    10030    2    1    2    0    0  0.00000000000E+00  0.00000000000E+00  0.96922022151E+03  0.23948854619E+04  0.21899973831E+04 0.  0.
        5    1    3    3  502    0 -0.55451827219E+03 -0.50041275066E+03 -0.39098412068E+03  0.84308606194E+03  0.46999998093E+01 0. -1.
       -5    1    3    3    0  502  0.55451827219E+03  0.50041275066E+03  0.13602043422E+04  0.15517994000E+04  0.46999998093E+01 0.  1.
</event>
<event>
 5   0  0.6414768E-05  0.2198108E+04  0.7818609E-02  0.8519216E-01
       -2   -1    0    0    0  501  0.00000000000E+00  0.00000000000E+00  0.77301526181E+03  0.77301526182E+03  0.25500000920E-02 0.  1.
        2   -1    0    0  501    0  0.00000000000E+00  0.00000000000E+00 -0.15626072867E+04  0.15626072867E+04  0.25500000920E-02 0. -1.
    10030    2    1    2    0    0  0.00000000000E+00  0.00000000000E+00 -0.78959202491E+03  0.23356225485E+04  0.21981076233E+04 0.  0.
        2    1    3    3  502    0  0.43418223901E+03 -0.23540569690E+03  0.64845735701E+03  0.81512391860E+03  0.25500000920E-02 0.  1.
       -2    1    3    3    0  502 -0.43418223901E+03  0.23540569690E+03 -0.14380493819E+04  0.15204986299E+04  0.25500000920E-02 0. -1.
</event>
<event>
 5   0  0.2910318E-05  0.2108649E+04  0.7818609E-02  0.8557443E-01
       -1   -1    0    0    0  501  0.00000000000E+00  0.00000000000E+00  0.10281216513E+04  0.10281216514E+04  0.50400001928E-02 0. -1.
        1   -1    0    0  501    0  0.00000000000E+00  0.00000000000E+00 -0.10811956595E+04  0.10811956595E+04  0.50400001928E-02 0.  1.
    10030    2    1    2    0    0  0.00000000000E+00  0.00000000000E+00 -0.53074008140E+02  0.21093173108E+04  0.21086494890E+04 0.  0.
        5    1    3    3  502    0  0.82923350765E+02  0.10459750172E+04 -0.12971305643E+03  0.10572547402E+04  0.46999998093E+01 0.  1.
       -5    1    3    3    0  502 -0.82923350765E+02 -0.10459750172E+04  0.76639048295E+02  0.10520625706E+04  0.46999998093E+01 0. -1.
</event>
<event>
 5   0  0.6293013E-05  0.2207411E+04  0.7818609E-02  0.8515350E-01
       -2   -1    0    0    0  501  0.00000000000E+00  0.00000000000E+00  0.64095803219E+03  0.64095803220E+03  0.25500000920E-02 0. -1.
        2   -1    0    0  501    0  0.00000000000E+00  0.00000000000E+00 -0.19005384632E+04  0.19005384632E+04  0.25500000920E-02 0.  1.
    10030    2    1    2    0    0  0.00000000000E+00  0.00000000000E+00 -0.12595804310E+04  0.25414964954E+04  0.22074106038E+04 0.  0.
        1    1    3    3  502    0 -0.71693474874E+03 -0.47177975028E+03  0.16920990786E+03  0.87475914381E+03  0.50400001928E-02 0. -1.
       -1    1    3    3    0  502  0.71693474874E+03  0.47177975028E+03 -0.14287903389E+04  0.16667373516E+04  0.50400001928E-02 0.  1.
</event>
<event>
 5   0  0.6628798E-05  0.2220779E+04  0.7818609E-02  0.8509829E-01
       -2   -1    0    0    0  501  0.00000000000E+00  0.00000000000E+00  0.16107010824E+04  0.16107010824E+04  0.25500000920E-02 0.  1.
        2   -1    0    0  501    0  0.00000000000E+00  0.00000000000E+00 -0.76548348644E+03  0.76548348644E+03  0.25500000920E-02 0. -1.
    10030    2    1    2    0    0  0.00000000000E+00  0.00000000000E+00  0.84521759592E+03  0.23761845688E+04  0.22207792147E+04 0.  0.
        4    1    3    3  502    0  0.94355022389E+03  0.43485962310E+03  0.33009416761E+01  0.10389429368E+04  0.12699999809E+01 0. -1.
       -4    1    3    3    0  502 -0.94355022389E+03 -0.43485962310E+03  0.84191665424E+03  0.13372416320E+04  0.12699999809E+01 0.  1.
</event>
<event>
 5   0  0.2820239E-05  0.1875621E+04  0.7818609E-02  0.8667088E-01
       -1   -1    0    0    0  501  0.00000000000E+00  0.00000000000E+00  0.39530869597E+03  0.39530869601E+03  0.50400001928E-02 0. -1.
        1   -1    0    0  501    0  0.00000000000E+00  0.00000000000E+00 -0.22248139371E+04  0.22248139371E+04  0.50400001928E-02 0.  1.
    10030    2    1    2    0    0  0.00000000000E+00  0.00000000000E+00 -0.18295052411E+04  0.26201226331E+04  0.18756207466E+04 0.  0.
        3    1    3    3  502    0  0.19039242364E+02 -0.93760559831E+03 -0.92123527192E+03  0.13145878393E+04  0.10100000352E+00 0.  1.
       -3    1    3    3    0  502 -0.19039242364E+02  0.93760559831E+03 -0.90826996917E+03  0.13055347938E+04  0.10100000352E+00 0. -1.
</event>
<event>
 5   0  0.6628798E-05  0.2190494E+04  0.7818609E-02  0.8522395E-01
        2   -1    0    0  501    0  0.00000000000E+00  0.00000000000E+00  0.15464850001E+04  0.15464850001E+04  0.25500000920E-02 0.  1.
       -2   -1    0    0    0  501  0.00000000000E+00  0.00000000000E+00 -0.77567221983E+03  0.77567221983E+03  0.25500000920E-02 0. -1.
    10030    2    1    2    0    0  0.00000000000E+00  0.00000000000E+00  0.77081278023E+03  0.23221572199E+04  0.21904935087E+04 0.  0.
        4    1    3    3  502    0  0.92597763629E+03 -0.18203803000E+03  0.97468795451E+03  0.13566836952E+04  0.12699999809E+01 0.  1.
       -4    1    3    3    0  502 -0.92597763629E+03  0.18203803000E+03 -0.20387517428E+03  0.96547352468E+03  0.12699999809E+01 0. -1.
</event>
<event>
 5   0  0.6445740E-05  0.2206038E+04  0.7818609E-02  0.8515919E-01
        2   -1    0    0  501    0  0.00000000000E+00  0.00000000000E+00  0.16070318168E+04  0.16070318168E+04  0.25500000920E-02 0.  1.
       -2   -1    0    0    0  501  0.00000000000E+00  0.00000000000E+00 -0.75707936555E+03  0.75707936555E+03  0.25500000920E-02 0. -1.
    10030    2    1    2    0    0  0.00000000000E+00  0.00000000000E+00  0.84995245130E+03  0.23641111824E+04  0.22060377407E+04 0.  0.
        5    1    3    3  502    0 -0.75464880482E+03 -0.78141070009E+03  0.22014981128E+03  0.11084157750E+04  0.46999998093E+01 0.  1.
       -5    1    3    3    0  502  0.75464880482E+03  0.78141070009E+03  0.62980264002E+03  0.12556954074E+04  0.46999998093E+01 0. -1.
</event>
<event>
 5   0  0.6293013E-05  0.2211660E+04  0.7818609E-02  0.8513590E-01
       -2   -1    0    0    0  501  0.00000000000E+00  0.00000000000E+00  0.13227590521E+04  0.13227590521E+04  0.25500000920E-02 0.  1.
        2   -1    0    0  501    0  0.00000000000E+00  0.00000000000E+00 -0.92447705301E+03  0.92447705301E+03  0.25500000920E-02 0. -1.
    10030    2    1    2    0    0  0.00000000000E+00  0.00000000000E+00  0.39828199908E+03  0.22472361051E+04  0.22116603630E+04 0.  0.
        1    1    3    3  502    0  0.61356547104E+03 -0.76754493920E+03  0.71452034671E+03  0.12149597305E+04  0.50400001928E-02 0.  1.
       -1    1    3    3    0  502 -0.61356547104E+03  0.76754493920E+03 -0.31623834763E+03  0.10322763746E+04  0.50400001928E-02 0. -1.
</event>
<event>
 5   0  0.2753631E-05  0.2163865E+04  0.7818609E-02  0.8533621E-01
        1   -1    0    0  501    0  0.00000000000E+00  0.00000000000E+00  0.93526465500E+03  0.93526465501E+03  0.50400001928E-02 0. -1.
       -1   -1    0    0    0  501  0.00000000000E+00  0.00000000000E+00 -0.12516008860E+04  0.12516008860E+04  0.50400001928E-02 0.  1.
    10030    2    1    2    0    0  0.00000000000E+00  0.00000000000E+00 -0.31633623104E+03  0.21868655411E+04  0.21638651260E+04 0.  0.
        4    1    3    3  502    0 -0.19746115485E+03 -0.80877546744E+02  0.91378729237E+03  0.93837141572E+03  0.12699999809E+01 0. -1.
       -4    1    3    3    0  502  0.19746115485E+03  0.80877546744E+02 -0.12301235234E+04  0.12484941253E+04  0.12699999809E+01 0.  1.
</event>
<event>
 5   0  0.6293013E-05  0.2193282E+04  0.7818609E-02  0.8521230E-01
       -2   -1    0    0    0  501  0.00000000000E+00  0.00000000000E+00  0.84623464791E+03  0.84623464791E+03  0.25500000920E-02 0.  1.
        2   -1    0    0  501    0  0.00000000000E+00  0.00000000000E+00 -0.14211436841E+04  0.14211436841E+04  0.25500000920E-02 0. -1.
    10030    2    1    2    0    0  0.00000000000E+00  0.00000000000E+00 -0.57490903624E+03  0.22673783321E+04  0.21932815826E+04 0.  0.
        1    1    3    3  502    0  0.11068935834E+03  0.47038131869E+03 -0.13051461566E+04  0.13917317304E+04  0.50400001928E-02 0. -1.
       -1    1    3    3    0  502 -0.11068935834E+03 -0.47038131869E+03  0.73023712041E+03  0.87564660171E+03  0.50400001928E-02 0.  1.
</event>
<event>
 5   0  0.2929471E-05  0.2185885E+04  0.7818609E-02  0.8524326E-01
       -1   -1    0    0    0  501  0.00000000000E+00  0.00000000000E+00  0.18052866008E+04  0.18052866008E+04  0.50400001928E-02 0.  1.
        1   -1    0    0  501    0  0.00000000000E+00  0.00000000000E+00 -0.66168080541E+03  0.66168080543E+03  0.50400001928E-02 0. -1.
    10030    2    1    2    0    0  0.00000000000E+00  0.00000000000E+00  0.11436057954E+04  0.24669674062E+04  0.21858851681E+04 0.  0.
        2    1    3    3  502    0 -0.83547927594E+03 -0.60062107081E+03  0.15597893972E+03  0.10407212503E+04  0.25500000920E-02 0. -1.
       -2    1    3    3    0  502  0.83547927594E+03  0.60062107081E+03  0.98762685566E+03  0.14262461559E+04  0.25500000920E-02 0.  1.
</event>
<event>
 5   0  0.6306919E-05  0.2485725E+04  0.7818609E-02  0.8408089E-01
        2   -1    0    0  501    0  0.00000000000E+00  0.00000000000E+00  0.95899615456E+03  0.95899615456E+03  0.25500000920E-02 0.  1.
       -2   -1    0    0    0  501  0.00000000000E+00  0.00000000000E+00 -0.16107543974E+04  0.16107543974E+04  0.25500000920E-02 0. -1.
    10030    2    1    2    0    0  0.00000000000E+00  0.00000000000E+00 -0.65175824286E+03  0.25697505520E+04  0.24857250637E+04 0.  0.
        3    1    3    3  502    0  0.12422980935E+04 -0.26451253580E+02 -0.29846791184E+03  0.12779230519E+04  0.10100000352E+00 0. -1.
       -3    1    3    3    0  502 -0.12422980935E+04  0.26451253580E+02 -0.35329033103E+03  0.12918275001E+04  0.10100000352E+00 0.  1.
</event>
<event>
 5   0  0.2753631E-05  0.2200418E+04  0.7818609E-02  0.8518254E-01
       -1   -1    0    0    0  501  0.00000000000E+00  0.00000000000E+00  0.80812424217E+03  0.80812424219E+03  0.50400001928E-02 0. -1.
        1   -1    0    0  501    0  0.00000000000E+00  0.00000000000E+00 -0.14978638699E+04  0.14978638699E+04  0.50400001928E-02 0.  1.
    10030    2    1    2    0    0  0.00000000000E+00  0.00000000000E+00 -0.68973962774E+03  0.23059881121E+04  0.22004182373E+04 0.  0.
        4    1    3    3  502    0 -0.53982472858E+03  0.80455662684E+03 -0.89116292987E+03  0.13163947295E+04  0.12699999809E+01 0.  1.
       -4    1    3    3    0  502  0.53982472858E+03 -0.80455662684E+03  0.20142330213E+03  0.98959338262E+03  0.12699999809E+01 0. -1.
</event>
<event>
 5   0  0.2753631E-05  0.2138310E+04  0.7818609E-02  0.8544553E-01
        1   -1    0    0  501    0  0.00000000000E+00  0.00000000000E+00  0.25001669797E+04  0.25001669797E+04  0.50400001928E-02 0. -1.
       -1   -1    0    0    0  501  0.00000000000E+00  0.00000000000E+00 -0.45720648683E+03  0.45720648685E+03  0.50400001928E-02 0.  1.
    10030    2    1    2    0    0  0.00000000000E+00  0.00000000000E+00  0.20429604929E+04  0.29573734666E+04  0.21383101378E+04 0.  0.
        4    1    3    3  502    0 -0.95768637449E+03  0.28812552497E+03  0.49864004617E+03  0.11175075027E+04  0.12699999809E+01 0.  1.
       -4    1    3    3    0  502  0.95768637449E+03 -0.28812552497E+03  0.15443204467E+04  0.18398659639E+04  0.12699999809E+01 0. -1.
</event>
<event>
 5   0  0.6293013E-05  0.2202393E+04  0.7818609E-02  0.8517433E-01
       -2   -1    0    0    0  501  0.00000000000E+00  0.00000000000E+00  0.92798108458E+03  0.92798108458E+03  0.25500000920E-02 0. -1.
        2   -1    0    0  501    0  0.00000000000E+00  0.00000000000E+00 -0.13067438855E+04  0.13067438855E+04  0.25500000920E-02 0.  1.
    10030    2    1    2    0    0  0.00000000000E+00  0.00000000000E+00 -0.37876280095E+03  0.22347249701E+04  0.22023928879E+04 0.  0.
        1    1    3    3  502    0  0.10936254955E+03 -0.35289897755E+03  0.86321726695E+03  0.93895788275E+03  0.50400001928E-02 0. -1.
       -1    1    3    3    0  502 -0.10936254955E+03  0.35289897755E+03 -0.12419800679E+04  0.12957670874E+04  0.50400001928E-02 0.  1.
</event>
<event>
 5   0  0.6628798E-05  0.2218988E+04  0.7818609E-02  0.8510566E-01
        2   -1    0    0  501    0  0.00000000000E+00  0.00000000000E+00  0.24170032168E+04  0.24170032168E+04  0.25500000920E-02 0.  1.
       -2   -1    0    0    0  501  0.00000000000E+00  0.00000000000E+00 -0.50929899566E+03  0.50929899567E+03  0.25500000920E-02 0. -1.
    10030    2    1    2    0    0  0.00000000000E+00  0.00000000000E+00  0.19077042211E+04  0.29263022125E+04  0.22189883378E+04 0.  0.
        4    1    3    3  502    0  0.56201815036E+02 -0.35836834499E+03  0.23365900711E+04  0.23645805733E+04  0.12699999809E+01 0.  1.
       -4    1    3    3    0  502 -0.56201815036E+02  0.35836834499E+03 -0.42888584993E+03  0.56172163913E+03  0.12699999809E+01 0. -1.
</event>
<event>
 5   0  0.2910318E-05  0.2171684E+04  0.7818609E-02  0.8530307E-01
        1   -1    0    0  501    0  0.00000000000E+00  0.00000000000E+00  0.24886411349E+04  0.24886411349E+04  0.50400001928E-02 0. -1.
       -1   -1    0    0    0  501  0.00000000000E+00  0.00000000000E+00 -0.47377359422E+03  0.47377359424E+03  0.50400001928E-02 0.  1.
    10030    2    1    2    0    0  0.00000000000E+00  0.00000000000E+00  0.20148675407E+04  0.29624147292E+04  0.21716836374E+04 0.  0.
        5    1    3    3  502    0  0.80492314902E+03 -0.69208806642E+03  0.69594088626E+03  0.12693474602E+04  0.46999998093E+01 0.  1.
       -5    1    3    3    0  502 -0.80492314902E+03  0.69208806642E+03  0.13189266544E+04  0.16930672690E+04  0.46999998093E+01 0. -1.
</event>
<event>
 5   0  0.6293013E-05  0.2210827E+04  0.7818609E-02  0.8513935E-01
       -2   -1    0    0    0  501  0.00000000000E+00  0.00000000000E+00  0.13122775157E+04  0.13122775157E+04  0.25500000920E-02 0. -1.
        2   -1    0    0  501    0  0.00000000000E+00  0.00000000000E+00 -0.93115879798E+03  0.93115879798E+03  0.25500000920E-02 0.  1.
    10030    2    1    2    0    0  0.00000000000E+00  0.00000000000E+00  0.38111871770E+03  0.22434363137E+04  0.22108267722E+04 0.  0.
        1    1    3    3  502    0  0.67411224177E+03  0.62994338115E+03 -0.42725818097E+03  0.10167622786E+04  0.50400001928E-02 0.  1.
       -1    1    3    3    0  502 -0.67411224177E+03 -0.62994338115E+03  0.80837689867E+03  0.12266740351E+04  0.50400001928E-02 0. -1.
</event>
<event>
 5   0  0.6306919E-05  0.2206879E+04  0.7818609E-02  0.8515571E-01
        2   -1    0    0  501    0  0.00000000000E+00  0.00000000000E+00  0.11295148518E+04  0.11295148518E+04  0.25500000920E-02 0.  1.
       -2   -1    0    0    0  501  0.00000000000E+00  0.00000000000E+00 -0.10779657564E+04  0.10779657564E+04  0.25500000920E-02 0. -1.
    10030    2    1    2    0    0  0.00000000000E+00  0.00000000000E+00  0.51549095325E+02  0.22074806082E+04  0.22068786388E+04 0.  0.
        3    1    3    3  502    0 -0.21629327799E+02 -0.31438352753E+03  0.10835475084E+04  0.11284414222E+04  0.10100000352E+00 0.  1.
       -3    1    3    3    0  502  0.21629327799E+02  0.31438352753E+03 -0.10319984131E+04  0.10790391860E+04  0.10100000352E+00 0. -1.
</event>
<event>
 5   0  0.2908031E-05  0.2190246E+04  0.7818609E-02  0.8522499E-01
        1   -1    0    0  501    0  0.00000000000E+00  0.00000000000E+00  0.21047402471E+04  0.21047402471E+04  0.50400001928E-02 0.  1.
       -1   -1    0    0    0  501  0.00000000000E+00  0.00000000000E+00 -0.56980611711E+03  0.56980611714E+03  0.50400001928E-02 0. -1.
    10030    2    1    2    0    0  0.00000000000E+00  0.00000000000E+00  0.15349341300E+04  0.26745463642E+04  0.21902455276E+04 0.  0.
        1    1    3    3  502    0  0.73814301139E+03  0.69101679291E+03  0.12811127654E+04  0.16320567487E+04  0.50400001928E-02 0.  1.
       -1    1    3    3    0  502 -0.73814301139E+03 -0.69101679291E+03  0.25382136463E+03  0.10424896155E+04  0.50400001928E-02 0. -1.
</event>
<event>
 5   0  0.2908031E-05  0.2190635E+04  0.7818609E-02  0.8522336E-01
        1   -1    0    0  501    0  0.00000000000E+00  0.00000000000E+00  0.17977101425E+04  0.17977101425E+04  0.50400001928E-02 0.  1.
       -1   -1    0    0    0  501  0.00000000000E+00  0.00000000000E+00 -0.66736039314E+03  0.66736039316E+03  0.50400001928E-02 0. -1.
    10030    2    1    2    0    0  0.00000000000E+00  0.00000000000E+00  0.11303497494E+04  0.24650705357E+04  0.21906351111E+04 0.  0.
        1    1    3    3  502    0 -0.60907123939E+03  0.87258452490E+03  0.85720317851E+03  0.13664438580E+04  0.50400001928E-02 0. -1.
       -1    1    3    3    0  502  0.60907123939E+03 -0.87258452490E+03  0.27314657087E+03  0.10986266777E+04  0.50400001928E-02 0.  1.
</event>
<event>
 5   0  0.2820239E-05  0.2189594E+04  0.7818609E-02  0.8522772E-01
       -1   -1    0    0    0  501  0.00000000000E+00  0.00000000000E+00  0.10832745347E+04  0.10832745347E+04  0.50400001928E-02 0.  1.
        1   -1    0    0  501    0  0.00000000000E+00  0.00000000000E+00 -0.11064415335E+04  0.11064415335E+04  0.50400001928E-02 0. -1.
    10030    2    1    2    0    0  0.00000000000E+00  0.00000000000E+00 -0.23166998798E+02  0.21897160683E+04  0.21895935124E+04 0.  0.
        3    1    3    3  502    0 -0.24899458500E+03 -0.71230254879E+03 -0.80485340346E+03  0.11032507583E+04  0.10100000352E+00 0. -1.
       -3    1    3    3    0  502  0.24899458500E+03  0.71230254879E+03  0.78168640466E+03  0.10864653100E+04  0.10100000352E+00 0.  1.
</event>
<event>
 5   0  0.2910318E-05  0.2197858E+04  0.7818609E-02  0.8519320E-01
       -1   -1    0    0    0  501  0.00000000000E+00  0.00000000000E+00  0.65078104728E+03  0.65078104729E+03  0.50400001928E-02 0.  1.
        1   -1    0    0  501    0  0.00000000000E+00  0.00000000000E+00 -0.18556861957E+04  0.18556861957E+04  0.50400001928E-02 0. -1.
    10030    2    1    2    0    0  0.00000000000E+00  0.00000000000E+00 -0.12049051484E+04  0.25064672430E+04  0.21978584175E+04 0.  0.
        5    1    3    3  502    0  0.13945179834E+03  0.93580615362E+03  0.35000128495E+02  0.94679832077E+03  0.46999998093E+01 0.  1.
       -5    1    3    3    0  502 -0.13945179834E+03 -0.93580615362E+03 -0.12399052769E+04  0.15596689222E+04  0.46999998093E+01 0. -1.
</event>
<event>
 5   0  0.2820239E-05  0.2194710E+04  0.7818609E-02  0.8520633E-01
        1   -1    0    0  501    0  0.00000000000E+00  0.00000000000E+00  0.10136454377E+04  0.10136454377E+04  0.50400001928E-02 0.  1.
       -1   -1    0    0    0  501  0.00000000000E+00  0.00000000000E+00 -0.11879771138E+04  0.11879771138E+04  0.50400001928E-02 0. -1.
    10030    2    1    2    0    0  0.00000000000E+00  0.00000000000E+00 -0.17433167610E+03  0.22016225514E+04  0.21947096222E+04 0.  0.
        3    1    3    3  502    0  0.10149900464E+04  0.12628420903E+03  0.31162258454E+03  0.10692339038E+04  0.10100000352E+00 0.  1.
       -3    1    3    3    0  502 -0.10149900464E+04 -0.12628420903E+03 -0.48595426064E+03  0.11323886476E+04  0.10100000352E+00 0. -1.
</event>
<event>
 5   0  0.6628798E-05  0.2221916E+04  0.7818609E-02  0.8509361E-01
       -2   -1    0    0    0  501  0.00000000000E+00  0.00000000000E+00  0.60451299708E+03  0.60451299708E+03  0.25500000920E-02 0.  1.
        2   -1    0    0  501    0  0.00000000000E+00  0.00000000000E+00 -0.20416890194E+04  0.20416890194E+04  0.25500000920E-02 0. -1.
    10030    2    1    2    0    0  0.00000000000E+00  0.00000000000E+00 -0.14371760223E+04  0.26462020164E+04  0.22219158834E+04 0.  0.
        4    1    3    3  502    0 -0.10433903650E+04  0.42391210893E+02 -0.11701555054E+04  0.15683513599E+04  0.12699999809E+01 0. -1.
       -4    1    3    3    0  502  0.10433903650E+04 -0.42391210893E+02 -0.26702051690E+03  0.10778506565E+04  0.12699999809E+01 0.  1.
</event>
<event>
 5   0  0.6293013E-05  0.2198493E+04  0.7818609E-02  0.8519056E-01
       -2   -1    0    0    0  501  0.00000000000E+00  0.00000000000E+00  0.10918735191E+04  0.10918735191E+04  0.25500000920E-02 0.  1.
        2   -1    0    0  501    0  0.00000000000E+00  0.00000000000E+00 -0.11066694731E+04  0.11066694731E+04  0.25500000920E-02 0. -1.
    10030    2    1    2    0    0  0.00000000000E+00  0.00000000000E+00 -0.14795954058E+02  0.21985429922E+04  0.21984932040E+04 0.  0.
        1    1    3    3  502    0 -0.15686260634E+03  0.28203688497E+03 -0.10582273747E+04  0.11063434631E+04  0.50400001928E-02 0. -1.
       -1    1    3    3    0  502  0.15686260634E+03 -0.28203688497E+03  0.10434314206E+04  0.10921995291E+04  0.50400001928E-02 0.  1.
</event>
<event>
 5   0  0.2929471E-05  0.2209607E+04  0.7818609E-02  0.8514440E-01
        1   -1    0    0  501    0  0.00000000000E+00  0.00000000000E+00  0.13499594529E+04  0.13499594529E+04  0.50400001928E-02 0.  1.
       -1   -1    0    0    0  501  0.00000000000E+00  0.00000000000E+00 -0.90416831810E+03  0.90416831812E+03  0.50400001928E-02 0. -1.
    10030    2    1    2    0    0  0.00000000000E+00  0.00000000000E+00  0.44579113476E+03  0.22541277710E+04  0.22096068139E+04 0.  0.
        2    1    3    3  502    0  0.11015721641E+04 -0.72050631495E+02  0.26780577866E+03  0.11359456243E+04  0.25500000920E-02 0.  1.
       -2    1    3    3    0  502 -0.11015721641E+04  0.72050631495E+02  0.17798535610E+03  0.11181821467E+04  0.25500000920E-02 0. -1.
</event>
<event>
 5   0  0.6445740E-05  0.2196062E+04  0.7818609E-02  0.8520069E-01
       -2   -1    0    0    0  501  0.00000000000E+00  0.00000000000E+00  0.10480596767E+04  0.10480596767E+04  0.25500000920E-02 0. -1.
        2   -1    0    0  501    0  0.00000000000E+00  0.00000000000E+00 -0.11503849908E+04  0.11503849908E+04  0.25500000920E-02 0.  1.
    10030    2    1    2    0    0  0.00000000000E+00  0.00000000000E+00 -0.10232531411E+03  0.21984446675E+04  0.21960620406E+04 0.  0.
        5    1    3    3  502    0 -0.73852102356E+03 -0.14197780611E+03  0.74975475336E+03  0.10619441039E+04  0.46999998093E+01 0. -1.
       -5    1    3    3    0  502  0.73852102356E+03  0.14197780611E+03 -0.85208006747E+03  0.11365005636E+04  0.46999998093E+01 0.  1.
</event>
<event>
 5   0  0.2929471E-05  0.2205360E+04  0.7818609E-02  0.8516200E-01
       -1   -1    0    0    0  501  0.00000000000E+00  0.00000000000E+00  0.60994255565E+03  0.60994255567E+03  0.50400001928E-02 0.  1.
        1   -1    0    0  501    0  0.00000000000E+00  0.00000000000E+00 -0.19934725058E+04  0.19934725058E+04  0.50400001928E-02 0. -1.
    10030    2    1    2    0    0  0.00000000000E+00  0.00000000000E+00 -0.13835299501E+04  0.26034150615E+04  0.22053604829E+04 0.  0.
        2    1    3    3  502    0 -0.86427669708E+03  0.51730580149E+03 -0.12214428472E+04  0.15831936491E+04  0.25500000920E-02 0.  1.
       -2    1    3    3    0  502  0.86427669708E+03 -0.51730580149E+03 -0.16208710290E+03  0.10202214124E+04  0.25500000920E-02 0. -1.
</event>
<event>
 5   0  0.6414768E-05  0.2227888E+04  0.7818609E-02  0.8506910E-01
       -2   -1    0    0    0  501  0.00000000000E+00  0.00000000000E+00  0.11333020965E+04  0.11333020965E+04  0.25500000920E-02 0. -1.
        2   -1    0    0  501    0  0.00000000000E+00  0.00000000000E+00 -0.10949162772E+04  0.10949162772E+04  0.25500000920E-02 0.  1.
    10030    2    1    2    0    0  0.00000000000E+00  0.00000000000E+00  0.38385819335E+02  0.22282183737E+04  0.22278877103E+04 0.  0.
        2    1    3    3  502    0 -0.29669792730E+03 -0.58493635500E+03  0.91971019240E+03  0.11296225199E+04  0.25500000920E-02 0. -1.
       -2    1    3    3    0  502  0.29669792730E+03  0.58493635500E+03 -0.88132437306E+03  0.10985958538E+04  0.25500000920E-02 0.  1.
</event>
<event>
 5   0  0.6306919E-05  0.2235405E+04  0.7818609E-02  0.8503835E-01
       -2   -1    0    0    0  501  0.00000000000E+00  0.00000000000E+00  0.10960814408E+04  0.10960814408E+04  0.25500000920E-02 0.  1.
        2   -1    0    0  501    0  0.00000000000E+00  0.00000000000E+00 -0.11397498717E+04  0.11397498717E+04  0.25500000920E-02 0. -1.
    10030    2    1    2    0    0  0.00000000000E+00  0.00000000000E+00 -0.43668430909E+02  0.22358313125E+04  0.22354048237E+04 0.  0.
        3    1    3    3  502    0 -0.60338190038E+03 -0.45681914605E+03  0.80082208238E+03  0.11018482054E+04  0.10100000352E+00 0.  1.
       -3    1    3    3    0  502  0.60338190038E+03  0.45681914605E+03 -0.84449051329E+03  0.11339831071E+04  0.10100000352E+00 0. -1.
</event>
<event>
 5   0  0.2245375E-05  0.2199315E+04  0.7818609E-02  0.8518713E-01
        3   -1    0    0  501    0  0.00000000000E+00  0.00000000000E+00  0.13678972391E+04  0.13678972428E+04  0.10100000352E+00 0. -1.
       -3   -1    0    0    0  501  0.00000000000E+00  0.00000000000E+00 -0.88401883016E+03  0.88401883593E+03  0.10100000352E+00 0.  1.
    10030    2    1    2    0    0  0.00000000000E+00  0.00000000000E+00  0.48387840891E+03  0.22519160787E+04  0.21993152823E+04 0.  0.
        5    1    3    3  502    0 -0.43227131686E+03 -0.76350438894E+03  0.92068675252E+03  0.12718032983E+04  0.46999998093E+01 0. -1.
       -5    1    3    3    0  502  0.43227131686E+03  0.76350438894E+03 -0.43680834361E+03  0.98011278043E+03  0.46999998093E+01 0.  1.
</event>
<event>
 5   0  0.6293013E-05  0.2252735E+04  0.7818609E-02  0.8496794E-01
        2   -1    0    0  501    0  0.00000000000E+00  0.00000000000E+00  0.11326843943E+04  0.11326843943E+04  0.25500000920E-02 0. -1.
       -2   -1    0    0    0  501  0.00000000000E+00  0.00000000000E+00 -0.11200862146E+04  0.11200862146E+04  0.25500000920E-02 0.  1.
    10030    2    1    2    0    0  0.00000000000E+00  0.00000000000E+00  0.12598179656E+02  0.22527706089E+04  0.22527353822E+04 0.  0.
        1    1    3    3  502    0 -0.67363365329E+03  0.71685119839E+01  0.90901497760E+03  0.11314335667E+04  0.50400001928E-02 0. -1.
       -1    1    3    3    0  502  0.67363365329E+03 -0.71685119839E+01 -0.89641679795E+03  0.11213370421E+04  0.50400001928E-02 0.  1.
</event>
<event>
 5   0  0.6628798E-05  0.2255276E+04  0.7818609E-02  0.8495767E-01
        2   -1    0    0  501    0  0.00000000000E+00  0.00000000000E+00  0.14782846408E+04  0.14782846408E+04  0.25500000920E-02 0. -1.
       -2   -1    0    0    0  501  0.00000000000E+00  0.00000000000E+00 -0.86016398662E+03  0.86016398662E+03  0.25500000920E-02 0.  1.
    10030    2    1    2    0    0  0.00000000000E+00  0.00000000000E+00  0.61812065421E+03  0.23384486275E+04  0.22552757792E+04 0.  0.
        4    1    3    3  502    0 -0.41523500436E+03 -0.10052013392E+04  0.22387378243E+00  0.10875897684E+04  0.12699999809E+01 0.  1.
       -4    1    3    3    0  502  0.41523500436E+03  0.10052013392E+04  0.61789678043E+03  0.12508588591E+04  0.12699999809E+01 0. -1.
</event>
<event>
 5   0  0.2910318E-05  0.2216968E+04  0.7818609E-02  0.8511399E-01
        1   -1    0    0  501    0  0.00000000000E+00  0.00000000000E+00  0.12166588175E+04  0.12166588175E+04  0.50400001928E-02 0. -1.
       -1   -1    0    0    0  501  0.00000000000E+00  0.00000000000E+00 -0.10099268972E+04  0.10099268972E+04  0.50400001928E-02 0.  1.
    10030    2    1    2    0    0  0.00000000000E+00  0.00000000000E+00  0.20673192031E+03  0.22265857148E+04  0.22169677170E+04 0.  0.
        5    1    3    3  502    0  0.49567616286E+03 -0.99057521965E+03  0.14574202194E+03  0.11172273498E+04  0.46999998093E+01 0. -1.
       -5    1    3    3    0  502 -0.49567616286E+03  0.99057521965E+03  0.60989898372E+02  0.11093583650E+04  0.46999998093E+01 0.  1.
</event>
<event>
 5   0  0.2753631E-05  0.2207558E+04  0.7818609E-02  0.8515289E-01
       -1   -1    0    0    0  501  0.00000000000E+00  0.00000000000E+00  0.85037344167E+03  0.85037344169E+03  0.50400001928E-02 0. -1.
        1   -1    0    0  501    0  0.00000000000E+00  0.00000000000E+00 -0.14326980922E+04  0.14326980922E+04  0.50400001928E-02 0.  1.
    10030    2    1    2    0    0  0.00000000000E+00  0.00000000000E+00 -0.58232465051E+03  0.22830715339E+04  0.22075582960E+04 0.  0.
        4    1    3    3  502    0  0.94310679685E+03  0.38093732894E+03  0.15217726047E+03  0.10284567129E+04  0.12699999809E+01 0. -1.
       -4    1    3    3    0  502 -0.94310679685E+03 -0.38093732894E+03 -0.73450191097E+03  0.12546148210E+04  0.12699999809E+01 0.  1.
</event>
<event>
 5   0  0.2910318E-05  0.2199589E+04  0.7818609E-02  0.8518599E-01
        1   -1    0    0  501    0  0.00000000000E+00  0.00000000000E+00  0.17332510373E+04  0.17332510373E+04  0.50400001928E-02 0.  1.
       -1   -1    0    0    0  501  0.00000000000E+00  0.00000000000E+00 -0.69784955588E+03  0.69784955589E+03  0.50400001928E-02 0. -1.
    10030    2    1    2    0    0  0.00000000000E+00  0.00000000000E+00  0.10354014814E+04  0.24311005932E+04  0.21995894768E+04 0.  0.
        5    1    3    3  502    0 -0.84430794913E+03  0.26443571636E+03  0.12397139075E+04  0.15230544388E+04  0.46999998093E+01 0.  1.
       -5    1    3    3    0  502  0.84430794913E+03 -0.26443571636E+03 -0.20431242610E+03  0.90804615439E+03  0.46999998093E+01 0. -1.
</event>
<event>
 5   0  0.6306919E-05  0.2228520E+04  0.7818609E-02  0.8506650E-01
       -2   -1    0    0    0  501  0.00000000000E+00  0.00000000000E+00  0.79979413856E+03  0.79979413857E+03  0.25500000920E-02 0. -1.
        2   -1    0    0  501    0  0.00000000000E+00  0.00000000000E+00 -0.15523687211E+04  0.15523687211E+04  0.25500000920E-02 0.  1.
    10030    2    1    2    0    0  0.00000000000E+00  0.00000000000E+00 -0.75257458250E+03  0.23521628596E+04  0.22285200506E+04 0.  0.
        3    1    3    3  502    0  0.88075796570E+03  0.42686881864E+03  0.18582384153E+03  0.99623395483E+03  0.10100000352E+00 0. -1.
       -3    1    3    3    0  502 -0.88075796570E+03 -0.42686881864E+03 -0.93839842403E+03  0.13559289048E+04  0.10100000352E+00 0.  1.
</event>
<event>
 5   0  0.6414768E-05  0.2129751E+04  0.7818609E-02  0.8548250E-01
       -2   -1    0    0    0  501  0.00000000000E+00  0.00000000000E+00  0.83404603812E+03  0.83404603813E+03  0.25500000920E-02 0. -1.
        2   -1    0    0  501    0  0.00000000000E+00  0.00000000000E+00 -0.13595890406E+04  0.13595890406E+04  0.25500000920E-02 0.  1.
    10030    2    1    2    0    0  0.00000000000E+00  0.00000000000E+00 -0.52554300246E+03  0.21936350787E+04  0.21297510209E+04 0.  0.
        2    1    3    3  502    0 -0.14361614216E+03  0.65293773680E+03 -0.11164925553E+04  0.13013488811E+04  0.25500000920E-02 0.  1.
       -2    1    3    3    0  502  0.14361614216E+03 -0.65293773680E+03  0.59094955281E+03  0.89228619759E+03  0.25500000920E-02 0. -1.
</event>
<event>
 5   0  0.6445740E-05  0.2210246E+04  0.7818609E-02  0.8514176E-01
        2   -1    0    0  501    0  0.00000000000E+00  0.00000000000E+00  0.24119784745E+04  0.24119784745E+04  0.25500000920E-02 0.  1.
       -2   -1    0    0    0  501  0.00000000000E+00  0.00000000000E+00 -0.50634650052E+03  0.50634650053E+03  0.25500000920E-02 0. -1.
    10030    2    1    2    0    0  0.00000000000E+00  0.00000000000E+00  0.19056319740E+04  0.29183249751E+04  0.22102460134E+04 0.  0.
        5    1    3    3  502    0 -0.24326510356E+03  0.23606470782E+03  0.23416274516E+04  0.23660400818E+04  0.46999998093E+01 0.  1.
       -5    1    3    3    0  502  0.24326510356E+03 -0.23606470782E+03 -0.43599547754E+03  0.55228489326E+03  0.46999998093E+01 0. -1.
</event>
<event>
 5   0  0.2753631E-05  0.2201064E+04  0.7818609E-02  0.8517985E-01
       -1   -1    0    0    0  501  0.00000000000E+00  0.00000000000E+00  0.12419990931E+04  0.12419990931E+04  0.50400001928E-02 0. -1.
        1   -1    0    0  501    0  0.00000000000E+00  0.00000000000E+00 -0.97517849470E+03  0.97517849471E+03  0.50400001928E-02 0.  1.
    10030    2    1    2    0    0  0.00000000000E+00  0.00000000000E+00  0.26682059844E+03  0.22171775879E+04  0.22010641118E+04 0.  0.
        4    1    3    3  502    0 -0.60809879689E+03 -0.28864284002E+03  0.10104566475E+04  0.12141347063E+04  0.12699999809E+01 0. -1.
       -4    1    3    3    0  502  0.60809879689E+03  0.28864284002E+03 -0.74363604901E+03  0.10030428815E+04  0.12699999809E+01 0.  1.
</event>
<event>
 5   0  0.2908031E-05  0.2193645E+04  0.7818609E-02  0.8521078E-01
        1   -1    0    0  501    0  0.00000000000E+00  0.00000000000E+00  0.64060419482E+03  0.64060419484E+03  0.50400001928E-02 0. -1.
       -1   -1    0    0    0  501  0.00000000000E+00  0.00000000000E+00 -0.18779460478E+04  0.18779460478E+04  0.50400001928E-02 0.  1.
    10030    2    1    2    0    0  0.00000000000E+00  0.00000000000E+00 -0.12373418529E+04  0.25185502426E+04  0.21936454735E+04 0.  0.
        1    1    3    3  502    0  0.49850041646E+03 -0.12873388505E+03  0.49324736268E+03  0.71299932622E+03  0.50400001928E-02 0. -1.
       -1    1    3    3    0  502 -0.49850041646E+03  0.12873388505E+03 -0.17305892156E+04  0.18055509164E+04  0.50400001928E-02 0.  1.
</event>
<event>
 5   0  0.6414768E-05  0.2224921E+04  0.7818609E-02  0.8508126E-01
       -2   -1    0    0    0  501  0.00000000000E+00  0.00000000000E+00  0.69331029784E+03  0.69331029785E+03  0.25500000920E-02 0.  1.
        2   -1    0    0  501    0  0.00000000000E+00  0.00000000000E+00 -0.17850139181E+04  0.17850139181E+04  0.25500000920E-02 0. -1.
    10030    2    1    2    0    0  0.00000000000E+00  0.00000000000E+00 -0.10917036203E+04  0.24783242160E+04  0.22249211503E+04 0.  0.
        2    1    3    3  502    0 -0.21354684350E+03  0.57093351332E+03 -0.15824316137E+04  0.16957762657E+04  0.25500000920E-02 0. -1.
       -2    1    3    3    0  502  0.21354684350E+03 -0.57093351332E+03  0.49072799345E+03  0.78254795033E+03  0.25500000920E-02 0.  1.
</event>
<event>
 5   0  0.2245375E-05  0.2193552E+04  0.7818609E-02  0.8521117E-01
       -3   -1    0    0    0  501  0.00000000000E+00  0.00000000000E+00  0.12308200689E+04  0.12308200731E+04  0.10100000352E+00 0. -1.
        3   -1    0    0  501    0  0.00000000000E+00  0.00000000000E+00 -0.97733050847E+03  0.97733051368E+03  0.10100000352E+00 0.  1.
    10030    2    1    2    0    0  0.00000000000E+00  0.00000000000E+00  0.25348956045E+03  0.22081505867E+04  0.21935523829E+04 0.  0.
        3    1    3    3  502    0  0.29789114523E+03 -0.58385401246E+01  0.11892999589E+04  0.12260536796E+04  0.10100000352E+00 0. -1.
       -3    1    3    3    0  502 -0.29789114523E+03  0.58385401246E+01 -0.93581039843E+03  0.98209690711E+03  0.10100000352E+00 0.  1.
</event>
<event>
 5   0  0.2753631E-05  0.2223238E+04  0.7818609E-02  0.8508818E-01
       -1   -1    0    0    0  501  0.00000000000E+00  0.00000000000E+00  0.68058518508E+03  0.68058518510E+03  0.50400001928E-02 0. -1.
        1   -1    0    0  501    0  0.00000000000E+00  0.00000000000E+00 -0.18156380726E+04  0.18156380726E+04  0.50400001928E-02 0.  1.
    10030    2    1    2    0    0  0.00000000000E+00  0.00000000000E+00 -0.11350528875E+04  0.24962232577E+04  0.22232376155E+04 0.  0.
        4    1    3    3  502    0 -0.82595806105E+03 -0.22479470254E+02  0.26740981578E+03  0.86845936443E+03  0.12699999809E+01 0. -1.
       -4    1    3    3    0  502  0.82595806105E+03  0.22479470254E+02 -0.14024627033E+04  0.16277638933E+04  0.12699999809E+01 0.  1.
</event>
<event>
 5   0  0.6628798E-05  0.2216417E+04  0.7818609E-02  0.8511626E-01
       -2   -1    0    0    0  501  0.00000000000E+00  0.00000000000E+00  0.88910872144E+03  0.88910872144E+03  0.25500000920E-02 0.  1.
        2   -1    0    0  501    0  0.00000000000E+00  0.00000000000E+00 -0.13813002641E+04  0.13813002641E+04  0.25500000920E-02 0. -1.
    10030    2    1    2    0    0  0.00000000000E+00  0.00000000000E+00 -0.49219154268E+03  0.22704089856E+04  0.22164170291E+04 0.  0.
        4    1    3    3  502    0 -0.64748920378E+03 -0.73272455337E+03  0.28814206486E+03  0.10193895245E+04  0.12699999809E+01 0.  1.
       -4    1    3    3    0  502  0.64748920378E+03  0.73272455337E+03 -0.78033360754E+03  0.12510194611E+04  0.12699999809E+01 0. -1.
</event>
<event>
 5   0  0.2910318E-05  0.2215444E+04  0.7818609E-02  0.8512027E-01
        1   -1    0    0  501    0  0.00000000000E+00  0.00000000000E+00  0.12015902880E+04  0.12015902881E+04  0.50400001928E-02 0. -1.
       -1   -1    0    0    0  501  0.00000000000E+00  0.00000000000E+00 -0.10211871026E+04  0.10211871026E+04  0.50400001928E-02 0.  1.
    10030    2    1    2    0    0  0.00000000000E+00  0.00000000000E+00  0.18040318548E+03  0.22227773906E+04  0.22154444292E+04 0.  0.
        5    1    3    3  502    0  0.10467558975E+04 -0.24483206457E+03 -0.17786390587E+03  0.10896321892E+04  0.46999998093E+01 0.  1.
       -5    1    3    3    0  502 -0.10467558975E+04  0.24483206457E+03  0.35826709135E+03  0.11331452014E+04  0.46999998093E+01 0. -1.
</event>
<event>
 5   0  0.6445740E-05  0.2210279E+04  0.7818609E-02  0.8514162E-01
       -2   -1    0    0    0  501  0.00000000000E+00  0.00000000000E+00  0.92156468643E+03  0.92156468644E+03  0.25500000920E-02 0.  1.
        2   -1    0    0  501    0  0.00000000000E+00  0.00000000000E+00 -0.13252827683E+04  0.13252827683E+04  0.25500000920E-02 0. -1.
    10030    2    1    2    0    0  0.00000000000E+00  0.00000000000E+00 -0.40371808189E+03  0.22468474548E+04  0.22102794383E+04 0.  0.
        5    1    3    3  502    0  0.57877978922E+03 -0.31107818310E+03  0.70141157221E+03  0.96112224198E+03  0.46999998093E+01 0.  1.
       -5    1    3    3    0  502 -0.57877978922E+03  0.31107818310E+03 -0.11051296541E+04  0.12857252128E+04  0.46999998093E+01 0. -1.
</event>
<event>
 5   0  0.6293013E-05  0.2100922E+04  0.7818609E-02  0.8560837E-01
       -2   -1    0    0    0  501  0.00000000000E+00  0.00000000000E+00  0.75261948471E+03  0.75261948472E+03  0.25500000920E-02 0. -1.
        2   -1    0    0  501    0  0.00000000000E+00  0.00000000000E+00 -0.14661709291E+04  0.14661709291E+04  0.25500000920E-02 0.  1.
    10030    2    1    2    0    0  0.00000000000E+00  0.00000000000E+00 -0.71355144440E+03  0.22187904138E+04  0.21009224728E+04 0.  0.
        1    1    3    3  502    0 -0.23739227754E+03  0.39773269881E+03  0.63894646238E+03  0.78917613684E+03  0.50400001928E-02 0. -1.
       -1    1    3    3    0  502  0.23739227754E+03 -0.39773269881E+03 -0.13524979068E+04  0.14296142770E+04  0.50400001928E-02 0.  1.
</event>
<event>
 5   0  0.2820239E-05  0.2200643E+04  0.7818609E-02  0.8518161E-01
       -1   -1    0    0    0  501  0.00000000000E+00  0.00000000000E+00  0.66778189024E+03  0.66778189026E+03  0.50400001928E-02 0. -1.
        1   -1    0    0  501    0  0.00000000000E+00  0.00000000000E+00 -0.18130278896E+04  0.18130278896E+04  0.50400001928E-02 0.  1.
    10030    2    1    2    0    0  0.00000000000E+00  0.00000000000E+00 -0.11452459994E+04  0.24808097799E+04  0.22006428072E+04 0.  0.
        3    1    3    3  502    0 -0.10785143834E+04  0.21240875835E+03 -0.51743739096E+03  0.12149288949E+04  0.10100000352E+00 0. -1.
       -3    1    3    3    0  502  0.10785143834E+04 -0.21240875835E+03 -0.62780860842E+03  0.12658808850E+04  0.10100000352E+00 0.  1.
</event>
<event>
 5   0  0.2753631E-05  0.2212890E+04  0.7818609E-02  0.8513082E-01
       -1   -1    0    0    0  501  0.00000000000E+00  0.00000000000E+00  0.11023106906E+04  0.11023106906E+04  0.50400001928E-02 0.  1.
        1   -1    0    0  501    0  0.00000000000E+00  0.00000000000E+00 -0.11105946011E+04  0.11105946011E+04  0.50400001928E-02 0. -1.
    10030    2    1    2    0    0  0.00000000000E+00  0.00000000000E+00 -0.82839104914E+01  0.22129052918E+04  0.22128897865E+04 0.  0.
        4    1    3    3  502    0 -0.10563928918E+04 -0.31099705292E+03  0.10325330436E+03  0.11060506166E+04  0.12699999809E+01 0.  1.
       -4    1    3    3    0  502  0.10563928918E+04  0.31099705292E+03 -0.11153721485E+03  0.11068546752E+04  0.12699999809E+01 0. -1.
</event>
<event>
 5   0  0.2753631E-05  0.2206348E+04  0.7818609E-02  0.8515791E-01
       -1   -1    0    0    0  501  0.00000000000E+00  0.00000000000E+00  0.95939470811E+03  0.95939470812E+03  0.50400001928E-02 0. -1.
        1   -1    0    0  501    0  0.00000000000E+00  0.00000000000E+00 -0.12685007787E+04  0.12685007787E+04  0.50400001928E-02 0.  1.
    10030    2    1    2    0    0  0.00000000000E+00  0.00000000000E+00 -0.30910607057E+03  0.22278954868E+04  0.22063480544E+04 0.  0.
        4    1    3    3  502    0  0.72404032272E+03  0.37760349337E+03  0.59442700202E+03  0.10100316137E+04  0.12699999809E+01 0. -1.
       -4    1    3    3    0  502 -0.72404032272E+03 -0.37760349337E+03 -0.90353307260E+03  0.12178638731E+04  0.12699999809E+01 0.  1.
</event>
<event>
 5   0  0.2753631E-05  0.2201071E+04  0.7818609E-02  0.8517982E-01
       -1   -1    0    0    0  501  0.00000000000E+00  0.00000000000E+00  0.94088831159E+03  0.94088831160E+03  0.50400001928E-02 0.  1.
        1   -1    0    0  501    0  0.00000000000E+00  0.00000000000E+00 -0.12872712220E+04  0.12872712220E+04  0.50400001928E-02 0. -1.
    10030    2    1    2    0    0  0.00000000000E+00  0.00000000000E+00 -0.34638291042E+03  0.22281595336E+04  0.22010710544E+04 0.  0.
        4    1    3    3  502    0  0.30534413087E+02 -0.30525268495E+03 -0.12431119264E+04  0.12804063521E+04  0.12699999809E+01 0. -1.
       -4    1    3    3    0  502 -0.30534413087E+02  0.30525268495E+03  0.89672901598E+03  0.94775318151E+03  0.12699999809E+01 0.  1.
</event>
<event>
 5   0  0.2820239E-05  0.2168951E+04  0.7818609E-02  0.8531463E-01
       -1   -1    0    0    0  501  0.00000000000E+00  0.00000000000E+00  0.14199156987E+04  0.14199156987E+04  0.50400001928E-02 0. -1.
        1   -1    0    0  501    0  0.00000000000E+00  0.00000000000E+00 -0.82827981336E+03  0.82827981338E+03  0.50400001928E-02 0.  1.
    10030    2    1    2    0    0  0.00000000000E+00  0.00000000000E+00  0.59163588530E+03  0.22481955120E+04  0.21689513687E+04 0.  0.
        3    1    3    3  502    0 -0.18187543601E+03 -0.42463618440E+03  0.13128348072E+04  0.13917362553E+04  0.10100000352E+00 0. -1.
       -3    1    3    3    0  502  0.18187543601E+03  0.42463618440E+03 -0.72119892186E+03  0.85645925672E+03  0.10100000352E+00 0.  1.
</event>
<event>
 5   0  0.6445740E-05  0.2180333E+04  0.7818609E-02  0.8526659E-01
        2   -1    0    0  501    0  0.00000000000E+00  0.00000000000E+00  0.28868934505E+04  0.28868934505E+04  0.25500000920E-02 0.  1.
       -2   -1    0    0    0  501  0.00000000000E+00  0.00000000000E+00 -0.41167543494E+03  0.41167543494E+03  0.25500000920E-02 0. -1.
    10030    2    1    2    0    0  0.00000000000E+00  0.00000000000E+00  0.24752180156E+04  0.32985688854E+04  0.21803331093E+04 0.  0.
        5    1    3    3  502    0  0.57992799664E+02  0.31127405264E+03 -0.34056301636E+03  0.46503758856E+03  0.46999998093E+01 0. -1.
       -5    1    3    3    0  502 -0.57992799664E+02 -0.31127405264E+03  0.28157810319E+04  0.28335312969E+04  0.46999998093E+01 0.  1.
</event>
<event>
 5   0  0.6414768E-05  0.2230666E+04  0.7818609E-02  0.8505772E-01
       -2   -1    0    0    0  501  0.00000000000E+00  0.00000000000E+00  0.89515596269E+03  0.89515596269E+03  0.25500000920E-02 0. -1.
        2   -1    0    0  501    0  0.00000000000E+00  0.00000000000E+00 -0.13896653146E+04  0.13896653146E+04  0.25500000920E-02 0.  1.
    10030    2    1    2    0    0  0.00000000000E+00  0.00000000000E+00 -0.49450935195E+03  0.22848212773E+04  0.22306655442E+04 0.  0.
        2    1    3    3  502    0 -0.89074579557E+03 -0.37504307819E+03 -0.81743971431E+03  0.12658171548E+04  0.25500000920E-02 0.  1.
       -2    1    3    3    0  502  0.89074579557E+03  0.37504307819E+03  0.32293036236E+03  0.10190041225E+04  0.25500000920E-02 0. -1.
</event>
<event>
 5   0  0.2929471E-05  0.2121872E+04  0.7818609E-02  0.8551669E-01
        1   -1    0    0  501    0  0.00000000000E+00  0.00000000000E+00  0.11356444554E+04  0.11356444554E+04  0.50400001928E-02 0.  1.
       -1   -1    0    0    0  501  0.00000000000E+00  0.00000000000E+00 -0.99114266959E+03  0.99114266960E+03  0.50400001928E-02 0. -1.
    10030    2    1    2    0    0  0.00000000000E+00  0.00000000000E+00  0.14450178581E+03  0.21267871250E+04  0.21218724535E+04 0.  0.
        2    1    3    3  502    0  0.27644455469E+03 -0.10221059414E+04  0.13921529188E+03  0.10679433715E+04  0.25500000920E-02 0. -1.
       -2    1    3    3    0  502 -0.27644455469E+03  0.10221059414E+04  0.52864939349E+01  0.10588437535E+04  0.25500000920E-02 0.  1.
</event>
<event>
 5   0  0.2908031E-05  0.2196924E+04  0.7818609E-02  0.8519709E-01
        1   -1    0    0  501    0  0.00000000000E+00  0.00000000000E+00  0.74891285899E+03  0.74891285901E+03  0.50400001928E-02 0. -1.
       -1   -1    0    0    0  501  0.00000000000E+00  0.00000000000E+00 -0.16111607819E+04  0.16111607819E+04  0.50400001928E-02 0.  1.
    10030    2    1    2    0    0  0.00000000000E+00  0.00000000000E+00 -0.86224792293E+03  0.23600736409E+04  0.21969242386E+04 0.  0.
        1    1    3    3  502    0  0.61686076419E+03 -0.51109713584E+03  0.37627682160E+03  0.88505464869E+03  0.50400001928E-02 0. -1.
       -1    1    3    3    0  502 -0.61686076419E+03  0.51109713584E+03 -0.12385247445E+04  0.14750189922E+04  0.50400001928E-02 0.  1.
</event>
<event>
 5   0  0.2820239E-05  0.2191495E+04  0.7818609E-02  0.8521977E-01
       -1   -1    0    0    0  501  0.00000000000E+00  0.00000000000E+00  0.14538433691E+04  0.14538433691E+04  0.50400001928E-02 0.  1.
        1   -1    0    0  501    0  0.00000000000E+00  0.00000000000E+00 -0.82585383324E+03  0.82585383326E+03  0.50400001928E-02 0. -1.
    10030    2    1    2    0    0  0.00000000000E+00  0.00000000000E+00  0.62798953589E+03  0.22796972024E+04  0.21914945762E+04 0.  0.
        3    1    3    3  502    0  0.52214067543E+03  0.33890200254E+03  0.12520517445E+04  0.13982557110E+04  0.10100000352E+00 0. -1.
       -3    1    3    3    0  502 -0.52214067543E+03 -0.33890200254E+03 -0.62406220863E+03  0.88144149137E+03  0.10100000352E+00 0.  1.
</event>
<event>
 5   0  0.2908031E-05  0.2235727E+04  0.7818609E-02  0.8503703E-01
        1   -1    0    0  501    0  0.00000000000E+00  0.00000000000E+00  0.86158009128E+03  0.86158009129E+03  0.50400001928E-02 0.  1.
       -1   -1    0    0    0  501  0.00000000000E+00  0.00000000000E+00 -0.14503798983E+04  0.14503798983E+04  0.50400001928E-02 0. -1.
    10030    2    1    2    0    0  0.00000000000E+00  0.00000000000E+00 -0.58879980702E+03  0.23119599896E+04  0.22357266785E+04 0.  0.
        1    1    3    3  502    0  0.63640541177E+03  0.43014282901E+03  0.54544013718E+03  0.94209322508E+03  0.50400001928E-02 0.  1.
       -1    1    3    3    0  502 -0.63640541177E+03 -0.43014282901E+03 -0.11342399442E+04  0.13698667645E+04  0.50400001928E-02 0. -1.
</event>
<event>
 5   0  0.2753631E-05  0.2196940E+04  0.7818609E-02  0.8519703E-01
       -1   -1    0    0    0  501  0.00000000000E+00  0.00000000000E+00  0.10206484104E+04  0.10206484104E+04  0.50400001928E-02 0.  1.
        1   -1    0    0  501    0  0.00000000000E+00  0.00000000000E+00 -0.11822248405E+04  0.11822248405E+04  0.50400001928E-02 0. -1.
    10030    2    1    2    0    0  0.00000000000E+00  0.00000000000E+00 -0.16157643010E+03  0.22028732509E+04  0.21969396024E+04 0.  0.
        4    1    3    3  502    0 -0.82627570889E+03  0.68259899409E+03  0.16061367478E+03  0.10837302705E+04  0.12699999809E+01 0.  1.
       -4    1    3    3    0  502  0.82627570889E+03 -0.68259899409E+03 -0.32219010487E+03  0.11191429803E+04  0.12699999809E+01 0. -1.
</event>
<event>
 5   0  0.2753631E-05  0.2258047E+04  0.7818609E-02  0.8494649E-01
        1   -1    0    0  501    0  0.00000000000E+00  0.00000000000E+00  0.14186809206E+04  0.14186809206E+04  0.50400001928E-02 0. -1.
       -1   -1    0    0    0  501  0.00000000000E+00  0.00000000000E+00 -0.89850613626E+03  0.89850613628E+03  0.50400001928E-02 0.  1.
    10030    2    1    2    0    0  0.00000000000E+00  0.00000000000E+00  0.52017478434E+03  0.23171870569E+04  0.22580465120E+04 0.  0.
        4    1    3    3  502    0 -0.35879765666E+03 -0.39029945883E+03  0.12830008996E+04  0.13882227297E+04  0.12699999809E+01 0. -1.
       -4    1    3    3    0  502  0.35879765666E+03  0.39029945883E+03 -0.76282611531E+03  0.92896432714E+03  0.12699999809E+01 0.  1.
</event>
<event>
 5   0  0.2820239E-05  0.2177202E+04  0.7818609E-02  0.8527977E-01
        1   -1    0    0  501    0  0.00000000000E+00  0.00000000000E+00  0.98987504784E+03  0.98987504785E+03  0.50400001928E-02 0.  1.
       -1   -1    0    0    0  501  0.00000000000E+00  0.00000000000E+00 -0.11971737824E+04  0.11971737824E+04  0.50400001928E-02 0. -1.
    10030    2    1    2    0    0  0.00000000000E+00  0.00000000000E+00 -0.20729873454E+03  0.21870488302E+04  0.21772022920E+04 0.  0.
        3    1    3    3  502    0 -0.19430298611E+03  0.10651876995E+04  0.94384576208E+01  0.10828054213E+04  0.10100000352E+00 0. -1.
       -3    1    3    3    0  502  0.19430298611E+03 -0.10651876995E+04 -0.21673719216E+03  0.11042434090E+04  0.10100000352E+00 0.  1.
</event>
<event>
 5   0  0.6414768E-05  0.2276485E+04  0.7818609E-02  0.8487251E-01
       -2   -1    0    0    0  501  0.00000000000E+00  0.00000000000E+00  0.11935450379E+04  0.11935450379E+04  0.25500000920E-02 0. -1.
        2   -1    0    0  501    0  0.00000000000E+00  0.00000000000E+00 -0.10855027521E+04  0.10855027521E+04  0.25500000920E-02 0.  1.
    10030    2    1    2    0    0  0.00000000000E+00  0.00000000000E+00  0.10804228582E+03  0.22790477900E+04  0.22764853818E+04 0.  0.
        2    1    3    3  502    0  0.59091438654E+03  0.60354423205E+03  0.81786814663E+03  0.11757354114E+04  0.25500000920E-02 0. -1.
       -2    1    3    3    0  502 -0.59091438654E+03 -0.60354423205E+03 -0.70982586080E+03  0.11033123787E+04  0.25500000920E-02 0.  1.
</event>
<event>
 5   0  0.2910318E-05  0.2194649E+04  0.7818609E-02  0.8520659E-01
        1   -1    0    0  501    0  0.00000000000E+00  0.00000000000E+00  0.13326116297E+04  0.13326116297E+04  0.50400001928E-02 0. -1.
       -1   -1    0    0    0  501  0.00000000000E+00  0.00000000000E+00 -0.90357985204E+03  0.90357985206E+03  0.50400001928E-02 0.  1.
    10030    2    1    2    0    0  0.00000000000E+00  0.00000000000E+00  0.42903177769E+03  0.22361914818E+04  0.21946489644E+04 0.  0.
        5    1    3    3  502    0 -0.69921561422E+03  0.74315756470E+03 -0.19674951626E+03  0.10391910812E+04  0.46999998093E+01 0.  1.
       -5    1    3    3    0  502  0.69921561422E+03 -0.74315756470E+03  0.62578129395E+03  0.11970004006E+04  0.46999998093E+01 0. -1.
</event>
<event>
 5   0  0.6293013E-05  0.2146709E+04  0.7818609E-02  0.8540942E-01
        2   -1    0    0  501    0  0.00000000000E+00  0.00000000000E+00  0.12538810836E+04  0.12538810836E+04  0.25500000920E-02 0.  1.
       -2   -1    0    0    0  501  0.00000000000E+00  0.00000000000E+00 -0.91881951579E+03  0.91881951579E+03  0.25500000920E-02 0. -1.
    10030    2    1    2    0    0  0.00000000000E+00  0.00000000000E+00  0.33506156777E+03  0.21727005994E+04  0.21467094914E+04 0.  0.
        1    1    3    3  502    0  0.10054096676E+04 -0.37580619973E+03  0.16409698031E+03  0.10858207580E+04  0.50400001928E-02 0. -1.
       -1    1    3    3    0  502 -0.10054096676E+04  0.37580619973E+03  0.17096458746E+03  0.10868798414E+04  0.50400001928E-02 0.  1.
</event>
<event>
 5   0  0.2820239E-05  0.2173359E+04  0.7818609E-02  0.8529599E-01
       -1   -1    0    0    0  501  0.00000000000E+00  0.00000000000E+00  0.12523763725E+04  0.12523763725E+04  0.50400001928E-02 0.  1.
        1   -1    0    0  501    0  0.00000000000E+00  0.00000000000E+00 -0.94290543813E+03  0.94290543815E+03  0.50400001928E-02 0. -1.
    10030    2    1    2    0    0  0.00000000000E+00  0.00000000000E+00  0.30947093434E+03  0.21952818106E+04  0.21733591440E+04 0.  0.
        3    1    3    3  502    0  0.95022189081E+03  0.49971004351E+03 -0.15009382608E+02  0.10737118147E+04  0.10100000352E+00 0.  1.
       -3    1    3    3    0  502 -0.95022189081E+03 -0.49971004351E+03  0.32448031695E+03  0.11215699959E+04  0.10100000352E+00 0. -1.
</event>
<event>
 5   0  0.6293013E-05  0.2190967E+04  0.7818609E-02  0.8522197E-01
       -2   -1    0    0    0  501  0.00000000000E+00  0.00000000000E+00  0.11773971386E+04  0.11773971386E+04  0.25500000920E-02 0.  1.
        2   -1    0    0  501    0  0.00000000000E+00  0.00000000000E+00 -0.10192685696E+04  0.10192685696E+04  0.25500000920E-02 0. -1.
    10030    2    1    2    0    0  0.00000000000E+00  0.00000000000E+00  0.15812856900E+03  0.21966657082E+04  0.21909668161E+04 0.  0.
        1    1    3    3  502    0 -0.48671589984E+03  0.85400192729E+03  0.56392556778E+03  0.11332359441E+04  0.50400001928E-02 0.  1.
       -1    1    3    3    0  502  0.48671589984E+03 -0.85400192729E+03 -0.40579699878E+03  0.10634297641E+04  0.50400001928E-02 0. -1.
</event>
<event>
 5   0  0.2908031E-05  0.2212464E+04  0.7818609E-02  0.8513258E-01
        1   -1    0    0  501    0  0.00000000000E+00  0.00000000000E+00  0.20805227698E+04  0.20805227698E+04  0.50400001928E-02 0. -1.
       -1   -1    0    0    0  501  0.00000000000E+00  0.00000000000E+00 -0.58819335364E+03  0.58819335366E+03  0.50400001928E-02 0.  1.
    10030    2    1    2    0    0  0.00000000000E+00  0.00000000000E+00  0.14923294162E+04  0.26687161235E+04  0.22124643864E+04 0.  0.
        1    1    3    3  502    0 -0.77659313030E+03  0.77121233516E+03  0.55210097488E+03  0.12258388322E+04  0.50400001928E-02 0.  1.
       -1    1    3    3    0  502  0.77659313030E+03 -0.77121233516E+03  0.94022844127E+03  0.14428772913E+04  0.50400001928E-02 0. -1.
</event>
<event>
 5   0  0.6445740E-05  0.2073174E+04  0.7818609E-02  0.8573153E-01
       -2   -1    0    0    0  501  0.00000000000E+00  0.00000000000E+00  0.62294541896E+03  0.62294541896E+03  0.25500000920E-02 0.  1.
        2   -1    0    0  501    0  0.00000000000E+00  0.00000000000E+00 -0.17248911279E+04  0.17248911279E+04  0.25500000920E-02 0. -1.
    10030    2    1    2    0    0  0.00000000000E+00  0.00000000000E+00 -0.11019457089E+04  0.23478365469E+04  0.20731744030E+04 0.  0.
        5    1    3    3  502    0 -0.86826672681E+03  0.25682707213E+03 -0.11224494826E+04  0.14421380603E+04  0.46999998093E+01 0. -1.
       -5    1    3    3    0  502  0.86826672681E+03 -0.25682707213E+03  0.20503773680E+02  0.90569848659E+03  0.46999998093E+01 0.  1.
</event>
<event>
 5   0  0.2929471E-05  0.2205176E+04  0.7818609E-02  0.8516277E-01
        1   -1    0    0  501    0  0.00000000000E+00  0.00000000000E+00  0.14253258113E+04  0.14253258113E+04  0.50400001928E-02 0.  1.
       -1   -1    0    0    0  501  0.00000000000E+00  0.00000000000E+00 -0.85292773468E+03  0.85292773470E+03  0.50400001928E-02 0. -1.
    10030    2    1    2    0    0  0.00000000000E+00  0.00000000000E+00  0.57239807658E+03  0.22782535460E+04  0.22051756532E+04 0.  0.
        2    1    3    3  502    0  0.45294832555E+02 -0.11090424882E+03 -0.84618406028E+03  0.85462204403E+03  0.25500000920E-02 0. -1.
       -2    1    3    3    0  502 -0.45294832555E+02  0.11090424882E+03  0.14185821369E+04  0.14236315019E+04  0.25500000920E-02 0.  1.
</event>
<event>
 5   0  0.6306919E-05  0.2161871E+04  0.7818609E-02  0.8534468E-01
        2   -1    0    0  501    0  0.00000000000E+00  0.00000000000E+00  0.15402015393E+04  0.15402015394E+04  0.25500000920E-02 0.  1.
       -2   -1    0    0    0  501  0.00000000000E+00  0.00000000000E+00 -0.75861593798E+03  0.75861593798E+03  0.25500000920E-02 0. -1.
    10030    2    1    2    0    0  0.00000000000E+00  0.00000000000E+00  0.78158560137E+03  0.22988174773E+04  0.21618708893E+04 0.  0.
        3    1    3    3  502    0 -0.68169108160E+03  0.43855994505E+03 -0.36961795142E+03  0.89087316513E+03  0.10100000352E+00 0. -1.
       -3    1    3    3    0  502  0.68169108160E+03 -0.43855994505E+03  0.11512035528E+04  0.14079443122E+04  0.10100000352E+00 0.  1.
</event>
<event>
 5   0  0.6414768E-05  0.2203532E+04  0.7818609E-02  0.8516960E-01
        2   -1    0    0  501    0  0.00000000000E+00  0.00000000000E+00  0.14431965046E+04  0.14431965047E+04  0.25500000920E-02 0.  1.
       -2   -1    0    0    0  501  0.00000000000E+00  0.00000000000E+00 -0.84111055470E+03  0.84111055470E+03  0.25500000920E-02 0. -1.
    10030    2    1    2    0    0  0.00000000000E+00  0.00000000000E+00  0.60208594995E+03  0.22843070594E+04  0.22035315406E+04 0.  0.
        2    1    3    3  502    0 -0.35448912682E+03 -0.81543289405E+03  0.97550345369E+03  0.13199243667E+04  0.25500000920E-02 0.  1.
       -2    1    3    3    0  502  0.35448912682E+03  0.81543289405E+03 -0.37341750373E+03  0.96438269262E+03  0.25500000920E-02 0. -1.
</event>
<event>
 5   0  0.2929471E-05  0.2177672E+04  0.7818609E-02  0.8527779E-01
        1   -1    0    0  501    0  0.00000000000E+00  0.00000000000E+00  0.45960943241E+03  0.45960943244E+03  0.50400001928E-02 0. -1.
       -1   -1    0    0    0  501  0.00000000000E+00  0.00000000000E+00 -0.25795027779E+04  0.25795027779E+04  0.50400001928E-02 0.  1.
    10030    2    1    2    0    0  0.00000000000E+00  0.00000000000E+00 -0.21198933455E+04  0.30391122104E+04  0.21776719750E+04 0.  0.
        2    1    3    3  502    0  0.40499188634E+03 -0.89164827683E+03 -0.39574992315E+03  0.10562542683E+04  0.25500000920E-02 0. -1.
       -2    1    3    3    0  502 -0.40499188634E+03  0.89164827683E+03 -0.17241434224E+04  0.19828579421E+04  0.25500000920E-02 0.  1.
</event>
<event>
 5   0  0.6445740E-05  0.2204451E+04  0.7818609E-02  0.8516578E-01
        2   -1    0    0  501    0  0.00000000000E+00  0.00000000000E+00  0.11428639658E+04  0.11428639658E+04  0.25500000920E-02 0.  1.
       -2   -1    0    0    0  501  0.00000000000E+00  0.00000000000E+00 -0.10630316818E+04  0.10630316818E+04  0.25500000920E-02 0. -1.
    10030    2    1    2    0    0  0.00000000000E+00  0.00000000000E+00  0.79832283989E+02  0.22058956476E+04  0.22044505924E+04 0.  0.
        5    1    3    3  502    0  0.10676994107E+04 -0.25092594441E+03  0.14922442899E+03  0.11069037363E+04  0.46999998093E+01 0.  1.
       -5    1    3    3    0  502 -0.10676994107E+04  0.25092594441E+03 -0.69392145004E+02  0.10989919113E+04  0.46999998093E+01 0. -1.
</event>
<event>
 5   0  0.6445740E-05  0.2180282E+04  0.7818609E-02  0.8526680E-01
        2   -1    0    0  501    0  0.00000000000E+00  0.00000000000E+00  0.15722311536E+04  0.15722311536E+04  0.25500000920E-02 0. -1.
       -2   -1    0    0    0  501  0.00000000000E+00  0.00000000000E+00 -0.75587340680E+03  0.75587340680E+03  0.25500000920E-02 0.  1.
    10030    2    1    2    0    0  0.00000000000E+00  0.00000000000E+00  0.81635774685E+03  0.23281045604E+04  0.21802822922E+04 0.  0.
        5    1    3    3  502    0  0.18893278424E+03  0.41783228513E+03 -0.64786694877E+03  0.79374623701E+03  0.46999998093E+01 0.  1.
       -5    1    3    3    0  502 -0.18893278424E+03 -0.41783228513E+03  0.14642246956E+04  0.15343583234E+04  0.46999998093E+01 0. -1.
</event>
<event>
 5   0  0.6306919E-05  0.2018575E+04  0.7818609E-02  0.8597985E-01
        2   -1    0    0  501    0  0.00000000000E+00  0.00000000000E+00  0.48967782471E+03  0.48967782472E+03  0.25500000920E-02 0. -1.
       -2   -1    0    0    0  501  0.00000000000E+00  0.00000000000E+00 -0.20802692970E+04  0.20802692970E+04  0.25500000920E-02 0.  1.
    10030    2    1    2    0    0  0.00000000000E+00  0.00000000000E+00 -0.15905914723E+04  0.25699471217E+04  0.20185754820E+04 0.  0.
        3    1    3    3  502    0 -0.56815732161E+03  0.82832242168E+03 -0.92095080735E+03  0.13627439877E+04  0.10100000352E+00 0. -1.
       -3    1    3    3    0  502  0.56815732161E+03 -0.82832242168E+03 -0.66964066492E+03  0.12072031340E+04  0.10100000352E+00 0.  1.
</event>
<event>
 5   0  0.6293013E-05  0.2148028E+04  0.7818609E-02  0.8540377E-01
        2   -1    0    0  501    0  0.00000000000E+00  0.00000000000E+00  0.27339776724E+04  0.27339776724E+04  0.25500000920E-02 0. -1.
       -2   -1    0    0    0  501  0.00000000000E+00  0.00000000000E+00 -0.42191491223E+03  0.42191491224E+03  0.25500000920E-02 0.  1.
    10030    2    1    2    0    0  0.00000000000E+00  0.00000000000E+00  0.23120627602E+04  0.31558925847E+04  0.21480278860E+04 0.  0.
        1    1    3    3  502    0  0.56595987310E+03 -0.54642010038E+03  0.81782079481E+02  0.79093224274E+03  0.50400001928E-02 0.  1.
       -1    1    3    3    0  502 -0.56595987310E+03  0.54642010038E+03  0.22302806807E+04  0.23649603419E+04  0.50400001928E-02 0. -1.
</event>
<event>
 5   0  0.2910318E-05  0.2230515E+04  0.7818609E-02  0.8505833E-01
       -1   -1    0    0    0  501  0.00000000000E+00  0.00000000000E+00  0.10388936178E+04  0.10388936178E+04  0.50400001928E-02 0. -1.
        1   -1    0    0  501    0  0.00000000000E+00  0.00000000000E+00 -0.11972346114E+04  0.11972346114E+04  0.50400001928E-02 0.  1.
    10030    2    1    2    0    0  0.00000000000E+00  0.00000000000E+00 -0.15834099361E+03  0.22361282293E+04  0.22305150946E+04 0.  0.
        5    1    3    3  502    0 -0.93013390759E+03  0.57844064925E+03  0.13120189447E+03  0.11031675747E+04  0.46999998093E+01 0. -1.
       -5    1    3    3    0  502  0.93013390759E+03 -0.57844064925E+03 -0.28954288807E+03  0.11329606546E+04  0.46999998093E+01 0.  1.
</event>
<event>
 5   0  0.2908031E-05  0.2188473E+04  0.7818609E-02  0.8523241E-01
        1   -1    0    0  501    0  0.00000000000E+00  0.00000000000E+00  0.14876491537E+04  0.14876491537E+04  0.50400001928E-02 0. -1.
       -1   -1    0    0    0  501  0.00000000000E+00  0.00000000000E+00 -0.80486269353E+03  0.80486269354E+03  0.50400001928E-02 0.  1.
    10030    2    1    2    0    0  0.00000000000E+00  0.00000000000E+00  0.68278646015E+03  0.22925118472E+04  0.21884728053E+04 0.  0.
        1    1    3    3  502    0 -0.55292161025E+03  0.20781656922E+03 -0.62350573213E+03  0.85887684306E+03  0.50400001928E-02 0.  1.
       -1    1    3    3    0  502  0.55292161025E+03 -0.20781656922E+03  0.13062921923E+04  0.14336350042E+04  0.50400001928E-02 0. -1.
</event>
<event>
 5   0  0.6414768E-05  0.2199208E+04  0.7818609E-02  0.8518758E-01
        2   -1    0    0  501    0  0.00000000000E+00  0.00000000000E+00  0.14060719989E+04  0.14060719989E+04  0.25500000920E-02 0. -1.
       -2   -1    0    0    0  501  0.00000000000E+00  0.00000000000E+00 -0.85993397586E+03  0.85993397586E+03  0.25500000920E-02 0.  1.
    10030    2    1    2    0    0  0.00000000000E+00  0.00000000000E+00  0.54613802300E+03  0.22660059747E+04  0.21992081160E+04 0.  0.
        2    1    3    3  502    0  0.74496173819E+03  0.20654797273E+03  0.10788047116E+04  0.13271961657E+04  0.25500000920E-02 0. -1.
       -2    1    3    3    0  502 -0.74496173819E+03 -0.20654797273E+03 -0.53266668860E+03  0.93880980904E+03  0.25500000920E-02 0.  1.
</event>
<event>
 5   0  0.2929471E-05  0.2195613E+04  0.7818609E-02  0.8520256E-01
        1   -1    0    0  501    0  0.00000000000E+00  0.00000000000E+00  0.24661876060E+04  0.24661876060E+04  0.50400001928E-02 0.  1.
       -1   -1    0    0    0  501  0.00000000000E+00  0.00000000000E+00 -0.48868097527E+03  0.48868097530E+03  0.50400001928E-02 0. -1.
    10030    2    1    2    0    0  0.00000000000E+00  0.00000000000E+00  0.19775066308E+04  0.29548685813E+04  0.21956128662E+04 0.  0.
        2    1    3    3  502    0 -0.95374534241E+03  0.52177817866E+03  0.11941654295E+04  0.16149036253E+04  0.25500000920E-02 0. -1.
       -2    1    3    3    0  502  0.95374534241E+03 -0.52177817866E+03  0.78334120128E+03  0.13399649561E+04  0.25500000920E-02 0.  1.
</event>
<event>
 5   0  0.6293013E-05  0.2194484E+04  0.7818609E-02  0.8520728E-01
        2   -1    0    0  501    0  0.00000000000E+00  0.00000000000E+00  0.14382900392E+04  0.14382900392E+04  0.25500000920E-02 0. -1.
       -2   -1    0    0    0  501  0.00000000000E+00  0.00000000000E+00 -0.83706324096E+03  0.83706324096E+03  0.25500000920E-02 0.  1.
    10030    2    1    2    0    0  0.00000000000E+00  0.00000000000E+00  0.60122679827E+03  0.22753532802E+04  0.21944837404E+04 0.  0.
        1    1    3    3  502    0  0.53875181805E+03  0.79950334147E+03  0.84382908484E+03  0.12812129561E+04  0.50400001928E-02 0.  1.
       -1    1    3    3    0  502 -0.53875181805E+03 -0.79950334147E+03 -0.24260228657E+03  0.99414032407E+03  0.50400001928E-02 0. -1.
</event>
<event>
 5   0  0.6445740E-05  0.2186164E+04  0.7818609E-02  0.8524209E-01
       -2   -1    0    0    0  501  0.00000000000E+00  0.00000000000E+00  0.10345645961E+04  0.10345645961E+04  0.25500000920E-02 0. -1.
        2   -1    0    0  501    0  0.00000000000E+00  0.00000000000E+00 -0.11549095176E+04  0.11549095176E+04  0.25500000920E-02 0.  1.
    10030    2    1    2    0    0  0.00000000000E+00  0.00000000000E+00 -0.12034492157E+03  0.21894741137E+04  0.21861642195E+04 0.  0.
        5    1    3    3  502    0 -0.99287590069E+01  0.41494744024E+03 -0.10729039371E+04  0.11504020630E+04  0.46999998093E+01 0.  1.
       -5    1    3    3    0  502  0.99287590069E+01 -0.41494744024E+03  0.95255901554E+03  0.10390720507E+04  0.46999998093E+01 0. -1.
</event>
<event>
 5   0  0.2820239E-05  0.2196869E+04  0.7818609E-02  0.8519732E-01
       -1   -1    0    0    0  501  0.00000000000E+00  0.00000000000E+00  0.58147368786E+03  0.58147368788E+03  0.50400001928E-02 0.  1.
        1   -1    0    0  501    0  0.00000000000E+00  0.00000000000E+00 -0.20750005755E+04  0.20750005755E+04  0.50400001928E-02 0. -1.
    10030    2    1    2    0    0  0.00000000000E+00  0.00000000000E+00 -0.14935268877E+04  0.26564742634E+04  0.21968688964E+04 0.  0.
        3    1    3    3  502    0 -0.10380327529E+04 -0.57401500977E+02 -0.31796054600E+03  0.10871549325E+04  0.10100000352E+00 0.  1.
       -3    1    3    3    0  502  0.10380327529E+04  0.57401500977E+02 -0.11755663417E+04  0.15693193309E+04  0.10100000352E+00 0. -1.
</event>
<event>
 5   0  0.2910318E-05  0.2222712E+04  0.7818609E-02  0.8509034E-01
        1   -1    0    0  501    0  0.00000000000E+00  0.00000000000E+00  0.18699311124E+04  0.18699311124E+04  0.50400001928E-02 0.  1.
       -1   -1    0    0    0  501  0.00000000000E+00  0.00000000000E+00 -0.66051192838E+03  0.66051192840E+03  0.50400001928E-02 0. -1.
    10030    2    1    2    0    0  0.00000000000E+00  0.00000000000E+00  0.12094191840E+04  0.25304430408E+04  0.22227116817E+04 0.  0.
        5    1    3    3  502    0  0.91092420870E+03  0.44909335611E+03  0.11184287229E+04  0.15107523472E+04  0.46999998093E+01 0. -1.
       -5    1    3    3    0  502 -0.91092420870E+03 -0.44909335611E+03  0.90990461106E+02  0.10196906936E+04  0.46999998093E+01 0.  1.
</event>
<event>
 5   0  0.6293013E-05  0.2205181E+04  0.7818609E-02  0.8516275E-01
        2   -1    0    0  501    0  0.00000000000E+00  0.00000000000E+00  0.85174085538E+03  0.85174085538E+03  0.25500000920E-02 0. -1.
       -2   -1    0    0    0  501  0.00000000000E+00  0.00000000000E+00 -0.14273195350E+04  0.14273195350E+04  0.25500000920E-02 0.  1.
    10030    2    1    2    0    0  0.00000000000E+00  0.00000000000E+00 -0.57557867958E+03  0.22790603903E+04  0.22051814997E+04 0.  0.
        1    1    3    3  502    0 -0.25056367926E+03  0.10733630725E+04 -0.31731060526E+03  0.11469858164E+04  0.50400001928E-02 0.  1.
       -1    1    3    3    0  502  0.25056367926E+03 -0.10733630725E+04 -0.25826807433E+03  0.11320745740E+04  0.50400001928E-02 0. -1.
</event>
<event>
 5   0  0.6628798E-05  0.2164947E+04  0.7818609E-02  0.8533161E-01
        2   -1    0    0  501    0  0.00000000000E+00  0.00000000000E+00  0.10884221646E+04  0.10884221646E+04  0.25500000920E-02 0. -1.
       -2   -1    0    0    0  501  0.00000000000E+00  0.00000000000E+00 -0.10765575403E+04  0.10765575403E+04  0.25500000920E-02 0.  1.
    10030    2    1    2    0    0  0.00000000000E+00  0.00000000000E+00  0.11864624308E+02  0.21649797050E+04  0.21649471942E+04 0.  0.
        4    1    3    3  502    0 -0.14450802454E+03  0.76665733848E+03  0.75634442818E+03  0.10866022965E+04  0.12699999809E+01 0. -1.
       -4    1    3    3    0  502  0.14450802454E+03 -0.76665733848E+03 -0.74447980387E+03  0.10783774085E+04  0.12699999809E+01 0.  1.
</event>
<event>
 5   0  0.2929471E-05  0.2208048E+04  0.7818609E-02  0.8515086E-01
       -1   -1    0    0    0  501  0.00000000000E+00  0.00000000000E+00  0.13015891601E+04  0.13015891602E+04  0.50400001928E-02 0. -1.
        1   -1    0    0  501    0  0.00000000000E+00  0.00000000000E+00 -0.93644682013E+03  0.93644682015E+03  0.50400001928E-02 0.  1.
    10030    2    1    2    0    0  0.00000000000E+00  0.00000000000E+00  0.36514234001E+03  0.22380359803E+04  0.22080480340E+04 0.  0.
        2    1    3    3  502    0 -0.72670400729E+03  0.61945500669E+03  0.74421389209E+03  0.12106516992E+04  0.25500000920E-02 0. -1.
       -2    1    3    3    0  502  0.72670400729E+03 -0.61945500669E+03 -0.37907155207E+03  0.10273842811E+04  0.25500000920E-02 0.  1.
</event>
<event>
 5   0  0.2753631E-05  0.2217277E+04  0.7818609E-02  0.8511271E-01
       -1   -1    0    0    0  501  0.00000000000E+00  0.00000000000E+00  0.59329769994E+03  0.59329769996E+03  0.50400001928E-02 0.  1.
        1   -1    0    0  501    0  0.00000000000E+00  0.00000000000E+00 -0.20716066205E+04  0.20716066205E+04  0.50400001928E-02 0. -1.
    10030    2    1    2    0    0  0.00000000000E+00  0.00000000000E+00 -0.14783089206E+04  0.26649043205E+04  0.22172771078E+04 0.  0.
        4    1    3    3  502    0 -0.87404649706E+03  0.67668518347E+03 -0.84126286088E+03  0.13890950042E+04  0.12699999809E+01 0.  1.
       -4    1    3    3    0  502  0.87404649706E+03 -0.67668518347E+03 -0.63704605970E+03  0.12758093163E+04  0.12699999809E+01 0. -1.
</event>
<event>
 5   0  0.6306919E-05  0.2196968E+04  0.7818609E-02  0.8519691E-01
        2   -1    0    0  501    0  0.00000000000E+00  0.00000000000E+00  0.15699554691E+04  0.15699554691E+04  0.25500000920E-02 0.  1.
       -2   -1    0    0    0  501  0.00000000000E+00  0.00000000000E+00 -0.76859945389E+03  0.76859945390E+03  0.25500000920E-02 0. -1.
    10030    2    1    2    0    0  0.00000000000E+00  0.00000000000E+00  0.80135601519E+03  0.23385549230E+04  0.21969678342E+04 0.  0.
        3    1    3    3  502    0 -0.78494059757E+03 -0.64595297825E+03 -0.42418153839E+02  0.10174410557E+04  0.10100000352E+00 0.  1.
       -3    1    3    3    0  502  0.78494059757E+03  0.64595297825E+03  0.84377416903E+03  0.13211138673E+04  0.10100000352E+00 0. -1.
</event>
<event>
 5   0  0.2908031E-05  0.2265590E+04  0.7818609E-02  0.8491613E-01
       -1   -1    0    0    0  501  0.00000000000E+00  0.00000000000E+00  0.63046587397E+03  0.63046587399E+03  0.50400001928E-02 0. -1.
        1   -1    0    0  501    0  0.00000000000E+00  0.00000000000E+00 -0.20353599826E+04  0.20353599826E+04  0.50400001928E-02 0.  1.
    10030    2    1    2    0    0  0.00000000000E+00  0.00000000000E+00 -0.14048941086E+04  0.26658258566E+04  0.22655904399E+04 0.  0.
        1    1    3    3  502    0  0.95180746813E+03 -0.24487157489E+03 -0.39616017924E+02  0.98360000685E+03  0.50400001928E-02 0. -1.
       -1    1    3    3    0  502 -0.95180746813E+03  0.24487157489E+03 -0.13652780907E+04  0.16822258498E+04  0.50400001928E-02 0.  1.
</event>
<event>
 5   0  0.6445740E-05  0.2244153E+04  0.7818609E-02  0.8500272E-01
        2   -1    0    0  501    0  0.00000000000E+00  0.00000000000E+00  0.13255054981E+04  0.13255054981E+04  0.25500000920E-02 0.  1.
       -2   -1    0    0    0  501  0.00000000000E+00  0.00000000000E+00 -0.94986816469E+03  0.94986816469E+03  0.25500000920E-02 0. -1.
    10030    2    1    2    0    0  0.00000000000E+00  0.00000000000E+00  0.37563733343E+03  0.22753736628E+04  0.22441528244E+04 0.  0.
        5    1    3    3  502    0 -0.38370000758E+02  0.11168928431E+04  0.28977358819E+03  0.11545183855E+04  0.46999998093E+01 0.  1.
       -5    1    3    3    0  502  0.38370000758E+02 -0.11168928431E+04  0.85863745247E+02  0.11208552773E+04  0.46999998093E+01 0. -1.
</event>
<event>
 5   0  0.2929471E-05  0.2219960E+04  0.7818609E-02  0.8510166E-01
       -1   -1    0    0    0  501  0.00000000000E+00  0.00000000000E+00  0.12486651122E+04  0.12486651122E+04  0.50400001928E-02 0.  1.
        1   -1    0    0  501    0  0.00000000000E+00  0.00000000000E+00 -0.98669818529E+03  0.98669818530E+03  0.50400001928E-02 0. -1.
    10030    2    1    2    0    0  0.00000000000E+00  0.00000000000E+00  0.26196692691E+03  0.22353632975E+04  0.22199599999E+04 0.  0.
        2    1    3    3  502    0  0.96247805091E+03 -0.52619421331E+03 -0.39933051809E+02  0.10976515828E+04  0.25500000920E-02 0.  1.
       -2    1    3    3    0  502 -0.96247805091E+03  0.52619421331E+03  0.30189997872E+03  0.11377117147E+04  0.25500000920E-02 0. -1.
</event>
<event>
 5   0  0.6293013E-05  0.2189996E+04  0.7818609E-02  0.8522603E-01
       -2   -1    0    0    0  501  0.00000000000E+00  0.00000000000E+00  0.85215935356E+03  0.85215935356E+03  0.25500000920E-02 0.  1.
        2   -1    0    0  501    0  0.00000000000E+00  0.00000000000E+00 -0.14070383244E+04  0.14070383244E+04  0.25500000920E-02 0. -1.
    10030    2    1    2    0    0  0.00000000000E+00  0.00000000000E+00 -0.55487897086E+03  0.22591976780E+04  0.21899962274E+04 0.  0.
        1    1    3    3  502    0  0.26547472226E+03 -0.99136596016E+03 -0.67125845719E+03  0.12263242685E+04  0.50400001928E-02 0. -1.
       -1    1    3    3    0  502 -0.26547472226E+03  0.99136596016E+03  0.11637948634E+03  0.10328734095E+04  0.50400001928E-02 0.  1.
</event>
<event>
 5   0  0.6414768E-05  0.2206543E+04  0.7818609E-02  0.8515710E-01
        2   -1    0    0  501    0  0.00000000000E+00  0.00000000000E+00  0.12940019184E+04  0.12940019184E+04  0.25500000920E-02 0.  1.
       -2   -1    0    0    0  501  0.00000000000E+00  0.00000000000E+00 -0.94065361069E+03  0.94065361070E+03  0.25500000920E-02 0. -1.
    10030    2    1    2    0    0  0.00000000000E+00  0.00000000000E+00  0.35334830769E+03  0.22346555291E+04  0.22065426139E+04 0.  0.
        2    1    3    3  502    0  0.29126006420E+03  0.94239364864E+03 -0.32385890522E+03  0.10381824524E+04  0.25500000920E-02 0.  1.
       -2    1    3    3    0  502 -0.29126006420E+03 -0.94239364864E+03  0.67720721291E+03  0.11964730767E+04  0.25500000920E-02 0. -1.
</event>
<event>
 5   0  0.2245375E-05  0.2205833E+04  0.7818609E-02  0.8516004E-01
       -3   -1    0    0    0  501  0.00000000000E+00  0.00000000000E+00  0.12378212672E+04  0.12378212714E+04  0.10100000352E+00 0. -1.
        3   -1    0    0  501    0  0.00000000000E+00  0.00000000000E+00 -0.98271446561E+03  0.98271447080E+03  0.10100000352E+00 0.  1.
    10030    2    1    2    0    0  0.00000000000E+00  0.00000000000E+00  0.25510680162E+03  0.22205357421E+04  0.22058330630E+04 0.  0.
        4    1    3    3  502    0 -0.13500688485E+03  0.10879895420E+04  0.24866808837E+03  0.11241821621E+04  0.12699999809E+01 0.  1.
       -4    1    3    3    0  502  0.13500688485E+03 -0.10879895420E+04  0.64387132532E+01  0.10963535800E+04  0.12699999809E+01 0. -1.
</event>
<event>
 5   0  0.2753631E-05  0.2190813E+04  0.7818609E-02  0.8522262E-01
       -1   -1    0    0    0  501  0.00000000000E+00  0.00000000000E+00  0.88634255316E+03  0.88634255318E+03  0.50400001928E-02 0. -1.
        1   -1    0    0  501    0  0.00000000000E+00  0.00000000000E+00 -0.13537824214E+04  0.13537824214E+04  0.50400001928E-02 0.  1.
    10030    2    1    2    0    0  0.00000000000E+00  0.00000000000E+00 -0.46743986826E+03  0.22401249746E+04  0.21908126053E+04 0.  0.
        4    1    3    3  502    0 -0.19619878223E+03 -0.20681105854E+03  0.84774851667E+03  0.89439585000E+03  0.12699999809E+01 0. -1.
       -4    1    3    3    0  502  0.19619878223E+03  0.20681105854E+03 -0.13151883849E+04  0.13457291246E+04  0.12699999809E+01 0.  1.
</event>
<event>
 5   0  0.6628798E-05  0.2192596E+04  0.7818609E-02  0.8521516E-01
       -2   -1    0    0    0  501  0.00000000000E+00  0.00000000000E+00  0.64215372114E+03  0.64215372114E+03  0.25500000920E-02 0. -1.
        2   -1    0    0  501    0  0.00000000000E+00  0.00000000000E+00 -0.18716221007E+04  0.18716221007E+04  0.25500000920E-02 0.  1.
    10030    2    1    2    0    0  0.00000000000E+00  0.00000000000E+00 -0.12294683795E+04  0.25137758218E+04  0.21925958100E+04 0.  0.
        4    1    3    3  502    0  0.79445743015E+03  0.62855765229E+03 -0.13427650901E+03  0.10218997624E+04  0.12699999809E+01 0. -1.
       -4    1    3    3    0  502 -0.79445743015E+03 -0.62855765229E+03 -0.10951918705E+04  0.14918760594E+04  0.12699999809E+01 0.  1.
</event>
<event>
 5   0  0.6445740E-05  0.2185859E+04  0.7818609E-02  0.8524337E-01
        2   -1    0    0  501    0  0.00000000000E+00  0.00000000000E+00  0.75605503898E+03  0.75605503899E+03  0.25500000920E-02 0. -1.
       -2   -1    0    0    0  501  0.00000000000E+00  0.00000000000E+00 -0.15799040840E+04  0.15799040840E+04  0.25500000920E-02 0.  1.
    10030    2    1    2    0    0  0.00000000000E+00  0.00000000000E+00 -0.82384904503E+03  0.23359591230E+04  0.21858585900E+04 0.  0.
        5    1    3    3  502    0  0.51413997922E+03  0.93722074684E+03 -0.16881771231E+03  0.10822403414E+04  0.46999998093E+01 0. -1.
       -5    1    3    3    0  502 -0.51413997922E+03 -0.93722074684E+03 -0.65503133271E+03  0.12537187816E+04  0.46999998093E+01 0.  1.
</event>
<event>
 5   0  0.2908031E-05  0.2229240E+04  0.7818609E-02  0.8506356E-01
       -1   -1    0    0    0  501  0.00000000000E+00  0.00000000000E+00  0.92357158724E+03  0.92357158725E+03  0.50400001928E-02 0. -1.
        1   -1    0    0  501    0  0.00000000000E+00  0.00000000000E+00 -0.13451878861E+04  0.13451878861E+04  0.50400001928E-02 0.  1.
    10030    2    1    2    0    0  0.00000000000E+00  0.00000000000E+00 -0.42161629885E+03  0.22687594734E+04  0.22292396113E+04 0.  0.
        1    1    3    3  502    0 -0.64178232164E+03  0.82969312399E+03 -0.59445525501E+03  0.12056750303E+04  0.50400001928E-02 0.  1.
       -1    1    3    3    0  502  0.64178232164E+03 -0.82969312399E+03  0.17283895615E+03  0.10630844431E+04  0.50400001928E-02 0. -1.
</event>
<event>
 5   0  0.6628798E-05  0.2204658E+04  0.7818609E-02  0.8516492E-01
       -2   -1    0    0    0  501  0.00000000000E+00  0.00000000000E+00  0.69514136522E+03  0.69514136523E+03  0.25500000920E-02 0.  1.
        2   -1    0    0  501    0  0.00000000000E+00  0.00000000000E+00 -0.17480322576E+04  0.17480322576E+04  0.25500000920E-02 0. -1.
    10030    2    1    2    0    0  0.00000000000E+00  0.00000000000E+00 -0.10528908923E+04  0.24431736228E+04  0.22046582774E+04 0.  0.
        4    1    3    3  502    0  0.89615257759E+03  0.44195984764E+03 -0.10423299605E+04  0.14439083450E+04  0.12699999809E+01 0. -1.
       -4    1    3    3    0  502 -0.89615257759E+03 -0.44195984764E+03 -0.10560931843E+02  0.99926527781E+03  0.12699999809E+01 0.  1.
</event>
<event>
 5   0  0.2245375E-05  0.2204988E+04  0.7818609E-02  0.8516355E-01
       -3   -1    0    0    0  501  0.00000000000E+00  0.00000000000E+00  0.14607229139E+04  0.14607229174E+04  0.10100000352E+00 0.  1.
        3   -1    0    0  501    0  0.00000000000E+00  0.00000000000E+00 -0.83211761029E+03  0.83211761642E+03  0.10100000352E+00 0. -1.
    10030    2    1    2    0    0  0.00000000000E+00  0.00000000000E+00  0.62860530360E+03  0.22928405338E+04  0.22049882280E+04 0.  0.
        5    1    3    3  502    0  0.10163261214E+04  0.39023680598E+03  0.13339505896E+03  0.10968226300E+04  0.46999998093E+01 0. -1.
       -5    1    3    3    0  502 -0.10163261214E+04 -0.39023680598E+03  0.49521024464E+03  0.11960179038E+04  0.46999998093E+01 0.  1.
</event>
<event>
 5   0  0.2820239E-05  0.2187321E+04  0.7818609E-02  0.8523724E-01
        1   -1    0    0  501    0  0.00000000000E+00  0.00000000000E+00  0.10781212927E+04  0.10781212927E+04  0.50400001928E-02 0.  1.
       -1   -1    0    0    0  501  0.00000000000E+00  0.00000000000E+00 -0.11094239022E+04  0.11094239023E+04  0.50400001928E-02 0. -1.
    10030    2    1    2    0    0  0.00000000000E+00  0.00000000000E+00 -0.31302609535E+02  0.21875451950E+04  0.21873212217E+04 0.  0.
        3    1    3    3  502    0 -0.32937088873E+03 -0.10420245779E+04  0.26698256320E+02  0.10931665978E+04  0.10100000352E+00 0.  1.
       -3    1    3    3    0  502  0.32937088873E+03  0.10420245779E+04 -0.58000865855E+02  0.10943785972E+04  0.10100000352E+00 0. -1.
</event>
<event>
 5   0  0.2929471E-05  0.2238511E+04  0.7818609E-02  0.8502568E-01
        1   -1    0    0  501    0  0.00000000000E+00  0.00000000000E+00  0.15721494197E+04  0.15721494197E+04  0.50400001928E-02 0. -1.
       -1   -1    0    0    0  501  0.00000000000E+00  0.00000000000E+00 -0.79682831719E+03  0.79682831721E+03  0.50400001928E-02 0.  1.
    10030    2    1    2    0    0  0.00000000000E+00  0.00000000000E+00  0.77532110252E+03  0.23689777369E+04  0.22385112700E+04 0.  0.
        2    1    3    3  502    0 -0.52603646098E+03 -0.97426329850E+03  0.56100532928E+03  0.12412212988E+04  0.25500000920E-02 0. -1.
       -2    1    3    3    0  502  0.52603646098E+03  0.97426329850E+03  0.21431577324E+03  0.11277564381E+04  0.25500000920E-02 0.  1.
</event>
<event>
 5   0  0.2929471E-05  0.2194400E+04  0.7818609E-02  0.8520763E-01
       -1   -1    0    0    0  501  0.00000000000E+00  0.00000000000E+00  0.57127436908E+03  0.57127436910E+03  0.50400001928E-02 0. -1.
        1   -1    0    0  501    0  0.00000000000E+00  0.00000000000E+00 -0.21073017284E+04  0.21073017284E+04  0.50400001928E-02 0.  1.
    10030    2    1    2    0    0  0.00000000000E+00  0.00000000000E+00 -0.15360273594E+04  0.26785760975E+04  0.21943996586E+04 0.  0.
        2    1    3    3  502    0 -0.30191390396E+03 -0.11640477779E+03  0.51170890045E+03  0.60543214030E+03  0.25500000920E-02 0. -1.
       -2    1    3    3    0  502  0.30191390396E+03  0.11640477779E+03 -0.20477362598E+04  0.20731439572E+04  0.25500000920E-02 0.  1.
</event>
<event>
 5   0  0.2908031E-05  0.2212912E+04  0.7818609E-02  0.8513073E-01
       -1   -1    0    0    0  501  0.00000000000E+00  0.00000000000E+00  0.14290909505E+04  0.14290909505E+04  0.50400001928E-02 0. -1.
        1   -1    0    0  501    0  0.00000000000E+00  0.00000000000E+00 -0.85665971768E+03  0.85665971770E+03  0.50400001928E-02 0.  1.
    10030    2    1    2    0    0  0.00000000000E+00  0.00000000000E+00  0.57243123283E+03  0.22857506682E+04  0.22129117924E+04 0.  0.
        1    1    3    3  502    0  0.68446159061E+03  0.75067478235E+03 -0.16667314886E+03  0.10294562820E+04  0.50400001928E-02 0.  1.
       -1    1    3    3    0  502 -0.68446159061E+03 -0.75067478235E+03  0.73910438169E+03  0.12562943863E+04  0.50400001928E-02 0. -1.
</event>
<event>
 5   0  0.2910318E-05  0.2170867E+04  0.7818609E-02  0.8530653E-01
        1   -1    0    0  501    0  0.00000000000E+00  0.00000000000E+00  0.13605649230E+04  0.13605649230E+04  0.50400001928E-02 0. -1.
       -1   -1    0    0    0  501  0.00000000000E+00  0.00000000000E+00 -0.86593857574E+03  0.86593857575E+03  0.50400001928E-02 0.  1.
    10030    2    1    2    0    0  0.00000000000E+00  0.00000000000E+00  0.49462634723E+03  0.22265034987E+04  0.21708667869E+04 0.  0.
        5    1    3    3  502    0  0.38739402445E+03 -0.33303213983E+01 -0.79260480862E+03  0.88222995521E+03  0.46999998093E+01 0.  1.
       -5    1    3    3    0  502 -0.38739402445E+03  0.33303213983E+01  0.12872311559E+04  0.13442735435E+04  0.46999998093E+01 0. -1.
</event>
<event>
 5   0  0.2929471E-05  0.2200292E+04  0.7818609E-02  0.8518306E-01
       -1   -1    0    0    0  501  0.00000000000E+00  0.00000000000E+00  0.91411741555E+03  0.91411741557E+03  0.50400001928E-02 0.  1.
        1   -1    0    0  501    0  0.00000000000E+00  0.00000000000E+00 -0.13240329878E+04  0.13240329878E+04  0.50400001928E-02 0. -1.
    10030    2    1    2    0    0  0.00000000000E+00  0.00000000000E+00 -0.40991557228E+03  0.22381504034E+04  0.22002923560E+04 0.  0.
        2    1    3    3  502    0  0.64397943274E+03 -0.16854791786E+03  0.68601455606E+03  0.95589428367E+03  0.25500000920E-02 0.  1.
       -2    1    3    3    0  502 -0.64397943274E+03  0.16854791786E+03 -0.10959301283E+04  0.12822561197E+04  0.25500000920E-02 0. -1.
</event>
<event>
 5   0  0.6628798E-05  0.2252955E+04  0.7818609E-02  0.8496705E-01
        2   -1    0    0  501    0  0.00000000000E+00  0.00000000000E+00  0.73944964119E+03  0.73944964120E+03  0.25500000920E-02 0. -1.
       -2   -1    0    0    0  501  0.00000000000E+00  0.00000000000E+00 -0.17160758700E+04  0.17160758700E+04  0.25500000920E-02 0.  1.
    10030    2    1    2    0    0  0.00000000000E+00  0.00000000000E+00 -0.97662622883E+03  0.24555255112E+04  0.22529551139E+04 0.  0.
        4    1    3    3  502    0 -0.24843679682E+03 -0.74176489318E+03  0.39513133780E+03  0.87639396722E+03  0.12699999809E+01 0. -1.
       -4    1    3    3    0  502  0.24843679682E+03  0.74176489318E+03 -0.13717575666E+04  0.15791315440E+04  0.12699999809E+01 0.  1.
</event>
<event>
 5   0  0.6628798E-05  0.2217577E+04  0.7818609E-02  0.8511148E-01
        2   -1    0    0  501    0  0.00000000000E+00  0.00000000000E+00  0.95610819528E+03  0.95610819529E+03  0.25500000920E-02 0. -1.
       -2   -1    0    0    0  501  0.00000000000E+00  0.00000000000E+00 -0.12858503274E+04  0.12858503274E+04  0.25500000920E-02 0.  1.
    10030    2    1    2    0    0  0.00000000000E+00  0.00000000000E+00 -0.32974213208E+03  0.22419585227E+04  0.22175770885E+04 0.  0.
        4    1    3    3  502    0 -0.42867863980E+03 -0.79001398176E+03 -0.82125729812E+03  0.12175190472E+04  0.12699999809E+01 0.  1.
       -4    1    3    3    0  502  0.42867863980E+03  0.79001398176E+03  0.49151516604E+03  0.10244394755E+04  0.12699999809E+01 0. -1.
</event>
<event>
 5   0  0.6293013E-05  0.2180759E+04  0.7818609E-02  0.8526480E-01
       -2   -1    0    0    0  501  0.00000000000E+00  0.00000000000E+00  0.11327447738E+04  0.11327447738E+04  0.25500000920E-02 0.  1.
        2   -1    0    0  501    0  0.00000000000E+00  0.00000000000E+00 -0.10495983651E+04  0.10495983651E+04  0.25500000920E-02 0. -1.
    10030    2    1    2    0    0  0.00000000000E+00  0.00000000000E+00  0.83146408691E+02  0.21823431388E+04  0.21807586410E+04 0.  0.
        1    1    3    3  502    0 -0.60934381026E+03  0.51648597087E+03 -0.70117185196E+03  0.10628732771E+04  0.50400001928E-02 0. -1.
       -1    1    3    3    0  502  0.60934381026E+03 -0.51648597087E+03  0.78431826065E+03  0.11194698617E+04  0.50400001928E-02 0.  1.
</event>
<event>
 5   0  0.2753631E-05  0.2218528E+04  0.7818609E-02  0.8510756E-01
        1   -1    0    0  501    0  0.00000000000E+00  0.00000000000E+00  0.19175507853E+04  0.19175507853E+04  0.50400001928E-02 0. -1.
       -1   -1    0    0    0  501  0.00000000000E+00  0.00000000000E+00 -0.64168631744E+03  0.64168631746E+03  0.50400001928E-02 0.  1.
    10030    2    1    2    0    0  0.00000000000E+00  0.00000000000E+00  0.12758644679E+04  0.25592371028E+04  0.22185275315E+04 0.  0.
        4    1    3    3  502    0 -0.24809686078E+03  0.28422295060E+03  0.18412658331E+04  0.18795202098E+04  0.12699999809E+01 0. -1.
       -4    1    3    3    0  502  0.24809686078E+03 -0.28422295060E+03 -0.56540136520E+03  0.67971689302E+03  0.12699999809E+01 0.  1.
</event>
<event>
 5   0  0.2753631E-05  0.2141874E+04  0.7818609E-02  0.8543019E-01
       -1   -1    0    0    0  501  0.00000000000E+00  0.00000000000E+00  0.14143796147E+04  0.14143796147E+04  0.50400001928E-02 0.  1.
        1   -1    0    0  501    0  0.00000000000E+00  0.00000000000E+00 -0.81088987696E+03  0.81088987698E+03  0.50400001928E-02 0. -1.
    10030    2    1    2    0    0  0.00000000000E+00  0.00000000000E+00  0.60348973769E+03  0.22252694916E+04  0.21418740502E+04 0.  0.
        4    1    3    3  502    0 -0.33940107087E+03  0.10150574643E+04  0.34019610359E+03  0.11230626628E+04  0.12699999809E+01 0. -1.
       -4    1    3    3    0  502  0.33940107087E+03 -0.10150574643E+04  0.26329363410E+03  0.11022068288E+04  0.12699999809E+01 0.  1.
</event>
<event>
 5   0  0.6445740E-05  0.2174018E+04  0.7818609E-02  0.8529321E-01
        2   -1    0    0  501    0  0.00000000000E+00  0.00000000000E+00  0.17135047261E+04  0.17135047261E+04  0.25500000920E-02 0.  1.
       -2   -1    0    0    0  501  0.00000000000E+00  0.00000000000E+00 -0.68957392412E+03  0.68957392412E+03  0.25500000920E-02 0. -1.
    10030    2    1    2    0    0  0.00000000000E+00  0.00000000000E+00  0.10239308020E+04  0.24030786502E+04  0.21740176430E+04 0.  0.
        5    1    3    3  502    0  0.46554111197E+03 -0.74274283679E+03  0.12224745048E+04  0.15042810420E+04  0.46999998093E+01 0.  1.
       -5    1    3    3    0  502 -0.46554111197E+03  0.74274283679E+03 -0.19854370283E+03  0.89879760818E+03  0.46999998093E+01 0. -1.
</event>
<event>
 5   0  0.2910318E-05  0.2192963E+04  0.7818609E-02  0.8521363E-01
        1   -1    0    0  501    0  0.00000000000E+00  0.00000000000E+00  0.75777974898E+03  0.75777974900E+03  0.50400001928E-02 0. -1.
       -1   -1    0    0    0  501  0.00000000000E+00  0.00000000000E+00 -0.15865720128E+04  0.15865720129E+04  0.50400001928E-02 0.  1.
    10030    2    1    2    0    0  0.00000000000E+00  0.00000000000E+00 -0.82879226387E+03  0.23443517619E+04  0.21929634212E+04 0.  0.
        5    1    3    3  502    0 -0.10755018948E+03  0.10536367538E+04 -0.11102290728E+03  0.10649251749E+04  0.46999998093E+01 0.  1.
       -5    1    3    3    0  502  0.10755018948E+03 -0.10536367538E+04 -0.71776935658E+03  0.12794265870E+04  0.46999998093E+01 0. -1.
</event>
<event>
 5   0  0.2910318E-05  0.2185138E+04  0.7818609E-02  0.8524639E-01
        1   -1    0    0  501    0  0.00000000000E+00  0.00000000000E+00  0.15860612485E+04  0.15860612485E+04  0.50400001928E-02 0.  1.
       -1   -1    0    0    0  501  0.00000000000E+00  0.00000000000E+00 -0.75262363302E+03  0.75262363304E+03  0.50400001928E-02 0. -1.
    10030    2    1    2    0    0  0.00000000000E+00  0.00000000000E+00  0.83343761546E+03  0.23386848815E+04  0.21851381458E+04 0.  0.
        5    1    3    3  502    0 -0.57566926397E+03  0.57613824622E+03  0.11961468453E+04  0.14471073719E+04  0.46999998093E+01 0.  1.
       -5    1    3    3    0  502  0.57566926397E+03 -0.57613824622E+03 -0.36270922987E+03  0.89157750962E+03  0.46999998093E+01 0. -1.
</event>
<event>
 5   0  0.6414768E-05  0.2073825E+04  0.7818609E-02  0.8572862E-01
       -2   -1    0    0    0  501  0.00000000000E+00  0.00000000000E+00  0.41246440841E+03  0.41246440842E+03  0.25500000920E-02 0. -1.
        2   -1    0    0  501    0  0.00000000000E+00  0.00000000000E+00 -0.26067406549E+04  0.26067406549E+04  0.25500000920E-02 0.  1.
    10030    2    1    2    0    0  0.00000000000E+00  0.00000000000E+00 -0.21942762465E+04  0.30192050633E+04  0.20738252020E+04 0.  0.
        2    1    3    3  502    0 -0.41311109988E+03  0.28546483905E+03  0.22364066890E+03  0.54969637435E+03  0.25500000920E-02 0. -1.
       -2    1    3    3    0  502  0.41311109988E+03 -0.28546483905E+03 -0.24179169154E+04  0.24695086889E+04  0.25500000920E-02 0.  1.
</event>
<event>
 5   0  0.2820239E-05  0.2206767E+04  0.7818609E-02  0.8515617E-01
       -1   -1    0    0    0  501  0.00000000000E+00  0.00000000000E+00  0.59665755174E+03  0.59665755176E+03  0.50400001928E-02 0. -1.
        1   -1    0    0  501    0  0.00000000000E+00  0.00000000000E+00 -0.20404581456E+04  0.20404581456E+04  0.50400001928E-02 0.  1.
    10030    2    1    2    0    0  0.00000000000E+00  0.00000000000E+00 -0.14438005939E+04  0.26371156974E+04  0.22067666498E+04 0.  0.
        3    1    3    3  502    0  0.84531410599E+03  0.51992184398E+03 -0.12982141233E+04  0.16340852431E+04  0.10100000352E+00 0.  1.
       -3    1    3    3    0  502 -0.84531410599E+03 -0.51992184398E+03 -0.14558647061E+03  0.10030304543E+04  0.10100000352E+00 0. -1.
</event>
<event>
 5   0  0.6306919E-05  0.2199799E+04  0.7818609E-02  0.8518512E-01
        2   -1    0    0  501    0  0.00000000000E+00  0.00000000000E+00  0.16505184148E+04  0.16505184148E+04  0.25500000920E-02 0. -1.
       -2   -1    0    0    0  501  0.00000000000E+00  0.00000000000E+00 -0.73296889007E+03  0.73296889008E+03  0.25500000920E-02 0.  1.
    10030    2    1    2    0    0  0.00000000000E+00  0.00000000000E+00  0.91754952469E+03  0.23834873048E+04  0.21997987640E+04 0.  0.
        3    1    3    3  502    0 -0.33522946903E+03  0.75809882281E+03 -0.32456528676E+03  0.89018832705E+03  0.10100000352E+00 0.  1.
       -3    1    3    3    0  502  0.33522946903E+03 -0.75809882281E+03  0.12421148115E+04  0.14932989778E+04  0.10100000352E+00 0. -1.
</event>
<event>
 5   0  0.6628798E-05  0.2233165E+04  0.7818609E-02  0.8504750E-01
        2   -1    0    0  501    0  0.00000000000E+00  0.00000000000E+00  0.13931599440E+04  0.13931599440E+04  0.25500000920E-02 0.  1.
       -2   -1    0    0    0  501  0.00000000000E+00  0.00000000000E+00 -0.89491234576E+03  0.89491234576E+03  0.25500000920E-02 0. -1.
    10030    2    1    2    0    0  0.00000000000E+00  0.00000000000E+00  0.49824759824E+03  0.22880722898E+04  0.22331646008E+04 0.  0.
        4    1    3    3  502    0 -0.82398479216E+03  0.31060396316E+03 -0.45429007699E+03  0.99086166875E+03  0.12699999809E+01 0. -1.
       -4    1    3    3    0  502  0.82398479216E+03 -0.31060396316E+03  0.95253767524E+03  0.12972106210E+04  0.12699999809E+01 0.  1.
</event>
<event>
 5   0  0.6628798E-05  0.2137755E+04  0.7818609E-02  0.8544792E-01
       -2   -1    0    0    0  501  0.00000000000E+00  0.00000000000E+00  0.58605541964E+03  0.58605541965E+03  0.25500000920E-02 0. -1.
        2   -1    0    0  501    0  0.00000000000E+00  0.00000000000E+00 -0.19494737104E+04  0.19494737104E+04  0.25500000920E-02 0.  1.
    10030    2    1    2    0    0  0.00000000000E+00  0.00000000000E+00 -0.13634182908E+04  0.25355291301E+04  0.21377554897E+04 0.  0.
        4    1    3    3  502    0  0.34936617720E+03 -0.32967929319E+03  0.45081935722E+03  0.65877527874E+03  0.12699999809E+01 0. -1.
       -4    1    3    3    0  502 -0.34936617720E+03  0.32967929319E+03 -0.18142376480E+04  0.18767538513E+04  0.12699999809E+01 0.  1.
</event>
<event>
 5   0  0.2929471E-05  0.2202289E+04  0.7818609E-02  0.8517476E-01
       -1   -1    0    0    0  501  0.00000000000E+00  0.00000000000E+00  0.86616708646E+03  0.86616708647E+03  0.50400001928E-02 0. -1.
        1   -1    0    0  501    0  0.00000000000E+00  0.00000000000E+00 -0.13998676825E+04  0.13998676825E+04  0.50400001928E-02 0.  1.
    10030    2    1    2    0    0  0.00000000000E+00  0.00000000000E+00 -0.53370059606E+03  0.22660347690E+04  0.22022890928E+04 0.  0.
        2    1    3    3  502    0  0.97073970676E+03  0.29666756102E+03 -0.70602080223E+03  0.12364516138E+04  0.25500000920E-02 0.  1.
       -2    1    3    3    0  502 -0.97073970676E+03 -0.29666756102E+03  0.17232020617E+03  0.10295831552E+04  0.25500000920E-02 0. -1.
</event>
<event>
 5   0  0.6293013E-05  0.1966773E+04  0.7818609E-02  0.8622315E-01
       -2   -1    0    0    0  501  0.00000000000E+00  0.00000000000E+00  0.46521998446E+03  0.46521998447E+03  0.25500000920E-02 0. -1.
        2   -1    0    0  501    0  0.00000000000E+00  0.00000000000E+00 -0.20786924349E+04  0.20786924349E+04  0.25500000920E-02 0.  1.
    10030    2    1    2    0    0  0.00000000000E+00  0.00000000000E+00 -0.16134724504E+04  0.25439124194E+04  0.19667732582E+04 0.  0.
        1    1    3    3  502    0 -0.77976501503E+03  0.55039772972E+03 -0.50043791972E+03  0.10776869912E+04  0.50400001928E-02 0. -1.
       -1    1    3    3    0  502  0.77976501503E+03 -0.55039772972E+03 -0.11130345307E+04  0.14662254281E+04  0.50400001928E-02 0.  1.
</event>
<event>
 5   0  0.2908031E-05  0.2198252E+04  0.7818609E-02  0.8519156E-01
       -1   -1    0    0    0  501  0.00000000000E+00  0.00000000000E+00  0.95896050250E+03  0.95896050251E+03  0.50400001928E-02 0. -1.
        1   -1    0    0  501    0  0.00000000000E+00  0.00000000000E+00 -0.12597780855E+04  0.12597780856E+04  0.50400001928E-02 0.  1.
    10030    2    1    2    0    0  0.00000000000E+00  0.00000000000E+00 -0.30081758304E+03  0.22187385881E+04  0.21982515106E+04 0.  0.
        1    1    3    3  502    0  0.95832544967E+03  0.20583796800E+03 -0.65235688033E+03  0.11774236433E+04  0.50400001928E-02 0.  1.
       -1    1    3    3    0  502 -0.95832544967E+03 -0.20583796800E+03  0.35153929729E+03  0.10413149447E+04  0.50400001928E-02 0. -1.
</event>
<event>
 5   0  0.2910318E-05  0.2084376E+04  0.7818609E-02  0.8568157E-01
        1   -1    0    0  501    0  0.00000000000E+00  0.00000000000E+00  0.14414801885E+04  0.14414801885E+04  0.50400001928E-02 0. -1.
       -1   -1    0    0    0  501  0.00000000000E+00  0.00000000000E+00 -0.75350021982E+03  0.75350021983E+03  0.50400001928E-02 0.  1.
    10030    2    1    2    0    0  0.00000000000E+00  0.00000000000E+00  0.68797996872E+03  0.21949804084E+04  0.20843758192E+04 0.  0.
        5    1    3    3  502    0 -0.97224294343E+03 -0.32440839139E+03  0.14519677010E+03  0.10351817896E+04  0.46999998093E+01 0. -1.
       -5    1    3    3    0  502  0.97224294343E+03  0.32440839139E+03  0.54278319863E+03  0.11597986188E+04  0.46999998093E+01 0.  1.
</event>
<event>
 5   0  0.6293013E-05  0.2214862E+04  0.7818609E-02  0.8512268E-01
        2   -1    0    0  501    0  0.00000000000E+00  0.00000000000E+00  0.22814992002E+04  0.22814992003E+04  0.25500000920E-02 0. -1.
       -2   -1    0    0    0  501  0.00000000000E+00  0.00000000000E+00 -0.53754260762E+03  0.53754260763E+03  0.25500000920E-02 0.  1.
    10030    2    1    2    0    0  0.00000000000E+00  0.00000000000E+00  0.17439565926E+04  0.28190418079E+04  0.22148616475E+04 0.  0.
        1    1    3    3  502    0  0.65723058617E+03  0.89109472461E+03  0.84648515571E+03  0.13937499670E+04  0.50400001928E-02 0.  1.
       -1    1    3    3    0  502 -0.65723058617E+03 -0.89109472461E+03  0.89747143692E+03  0.14252918409E+04  0.50400001928E-02 0. -1.
</event>
<event>
 5   0  0.2910318E-05  0.2219204E+04  0.7818609E-02  0.8510477E-01
       -1   -1    0    0    0  501  0.00000000000E+00  0.00000000000E+00  0.52653216192E+03  0.52653216194E+03  0.50400001928E-02 0. -1.
        1   -1    0    0  501    0  0.00000000000E+00  0.00000000000E+00 -0.23383493223E+04  0.23383493223E+04  0.50400001928E-02 0.  1.
    10030    2    1    2    0    0  0.00000000000E+00  0.00000000000E+00 -0.18118171604E+04  0.28648814842E+04  0.22192035725E+04 0.  0.
        5    1    3    3  502    0  0.89709323605E+03  0.44889097981E+03 -0.15181439109E+04  0.18196324931E+04  0.46999998093E+01 0.  1.
       -5    1    3    3    0  502 -0.89709323605E+03 -0.44889097981E+03 -0.29367324948E+03  0.10452489911E+04  0.46999998093E+01 0. -1.
</event>
<event>
 5   0  0.2820239E-05  0.2207800E+04  0.7818609E-02  0.8515189E-01
       -1   -1    0    0    0  501  0.00000000000E+00  0.00000000000E+00  0.95276808119E+03  0.95276808120E+03  0.50400001928E-02 0.  1.
        1   -1    0    0  501    0  0.00000000000E+00  0.00000000000E+00 -0.12790049621E+04  0.12790049621E+04  0.50400001928E-02 0. -1.
    10030    2    1    2    0    0  0.00000000000E+00  0.00000000000E+00 -0.32623688089E+03  0.22317730433E+04  0.22077999036E+04 0.  0.
        3    1    3    3  502    0  0.75449192347E+02  0.31021620273E+03 -0.12313180988E+04  0.12720341755E+04  0.10100000352E+00 0. -1.
       -3    1    3    3    0  502 -0.75449192347E+02 -0.31021620273E+03  0.90508121791E+03  0.95973886776E+03  0.10100000352E+00 0.  1.
</event>
<event>
 5   0  0.2753631E-05  0.2204501E+04  0.7818609E-02  0.8516557E-01
        1   -1    0    0  501    0  0.00000000000E+00  0.00000000000E+00  0.14703507134E+04  0.14703507134E+04  0.50400001928E-02 0.  1.
       -1   -1    0    0    0  501  0.00000000000E+00  0.00000000000E+00 -0.82630390880E+03  0.82630390882E+03  0.50400001928E-02 0. -1.
    10030    2    1    2    0    0  0.00000000000E+00  0.00000000000E+00  0.64404680464E+03  0.22966546223E+04  0.22045013421E+04 0.  0.
        4    1    3    3  502    0 -0.46732824863E+03  0.30483407689E+03  0.13123579863E+04  0.14260450916E+04  0.12699999809E+01 0.  1.
       -4    1    3    3    0  502  0.46732824863E+03 -0.30483407689E+03 -0.66831118163E+03  0.87060953061E+03  0.12699999809E+01 0. -1.
</event>
<event>
 5   0  0.6445740E-05  0.2212381E+04  0.7818609E-02  0.8513293E-01
       -2   -1    0    0    0  501  0.00000000000E+00  0.00000000000E+00  0.75390707769E+03  0.75390707769E+03  0.25500000920E-02 0.  1.
        2   -1    0    0  501    0  0.00000000000E+00  0.00000000000E+00 -0.16230877554E+04  0.16230877554E+04  0.25500000920E-02 0. -1.
    10030    2    1    2    0    0  0.00000000000E+00  0.00000000000E+00 -0.86918067774E+03  0.23769948331E+04  0.22123809315E+04 0.  0.
        5    1    3    3  502    0 -0.99886719033E+00  0.10536560083E+04 -0.79646461210E+03  0.13208216950E+04  0.46999998093E+01 0. -1.
       -5    1    3    3    0  502  0.99886719033E+00 -0.10536560083E+04 -0.72716065634E+02  0.10561731382E+04  0.46999998093E+01 0.  1.
</event>
<event>
 5   0  0.6293013E-05  0.2137473E+04  0.7818609E-02  0.8544914E-01
       -2   -1    0    0    0  501  0.00000000000E+00  0.00000000000E+00  0.50345596687E+03  0.50345596688E+03  0.25500000920E-02 0. -1.
        2   -1    0    0  501    0  0.00000000000E+00  0.00000000000E+00 -0.22687138936E+04  0.22687138936E+04  0.25500000920E-02 0.  1.
    10030    2    1    2    0    0  0.00000000000E+00  0.00000000000E+00 -0.17652579267E+04  0.27721698605E+04  0.21374728507E+04 0.  0.
        1    1    3    3  502    0 -0.46863400908E+02 -0.42823158512E+03  0.38586600591E+03  0.57833471570E+03  0.50400001928E-02 0. -1.
       -1    1    3    3    0  502  0.46863400908E+02  0.42823158512E+03 -0.21511239326E+04  0.21938351448E+04  0.50400001928E-02 0.  1.
</event>
<event>
 5   0  0.2929471E-05  0.2207543E+04  0.7818609E-02  0.8515295E-01
       -1   -1    0    0    0  501  0.00000000000E+00  0.00000000000E+00  0.98078322686E+03  0.98078322687E+03  0.50400001928E-02 0. -1.
        1   -1    0    0  501    0  0.00000000000E+00  0.00000000000E+00 -0.12421822095E+04  0.12421822095E+04  0.50400001928E-02 0.  1.
    10030    2    1    2    0    0  0.00000000000E+00  0.00000000000E+00 -0.26139898262E+03  0.22229654364E+04  0.22075429561E+04 0.  0.
        2    1    3    3  502    0  0.74555723013E+03 -0.25846231366E+03  0.64647808081E+03  0.10200942407E+04  0.25500000920E-02 0. -1.
       -2    1    3    3    0  502 -0.74555723013E+03  0.25846231366E+03 -0.90787706343E+03  0.12028711956E+04  0.25500000920E-02 0.  1.
</event>
<event>
 5   0  0.2910318E-05  0.2211333E+04  0.7818609E-02  0.8513726E-01
        1   -1    0    0  501    0  0.00000000000E+00  0.00000000000E+00  0.20905168195E+04  0.20905168195E+04  0.50400001928E-02 0.  1.
       -1   -1    0    0    0  501  0.00000000000E+00  0.00000000000E+00 -0.58478286993E+03  0.58478286995E+03  0.50400001928E-02 0. -1.
    10030    2    1    2    0    0  0.00000000000E+00  0.00000000000E+00  0.15057339496E+04  0.26752996895E+04  0.22113330146E+04 0.  0.
        5    1    3    3  502    0  0.13946925822E+03  0.56813749910E+03  0.18879298921E+04  0.19764951958E+04  0.46999998093E+01 0.  1.
       -5    1    3    3    0  502 -0.13946925822E+03 -0.56813749910E+03 -0.38219594247E+03  0.69880449363E+03  0.46999998093E+01 0. -1.
</event>
<event>
 5   0  0.6306919E-05  0.2196300E+04  0.7818609E-02  0.8519970E-01
       -2   -1    0    0    0  501  0.00000000000E+00  0.00000000000E+00  0.12624627841E+04  0.12624627841E+04  0.25500000920E-02 0.  1.
        2   -1    0    0  501    0  0.00000000000E+00  0.00000000000E+00 -0.95522280620E+03  0.95522280620E+03  0.25500000920E-02 0. -1.
    10030    2    1    2    0    0  0.00000000000E+00  0.00000000000E+00  0.30723997786E+03  0.22176855903E+04  0.21962998368E+04 0.  0.
        3    1    3    3  502    0 -0.79964685466E+03  0.24004903517E+02  0.91322286021E+03  0.12140787990E+04  0.10100000352E+00 0.  1.
       -3    1    3    3    0  502  0.79964685466E+03 -0.24004903517E+02 -0.60598288235E+03  0.10036067913E+04  0.10100000352E+00 0. -1.
</event>
<event>
 5   0  0.6293013E-05  0.2221035E+04  0.7818609E-02  0.8509724E-01
        2   -1    0    0  501    0  0.00000000000E+00  0.00000000000E+00  0.85929104481E+03  0.85929104481E+03  0.25500000920E-02 0.  1.
       -2   -1    0    0    0  501  0.00000000000E+00  0.00000000000E+00 -0.14351931317E+04  0.14351931317E+04  0.25500000920E-02 0. -1.
    10030    2    1    2    0    0  0.00000000000E+00  0.00000000000E+00 -0.57590208686E+03  0.22944841765E+04  0.22210345388E+04 0.  0.
        1    1    3    3  502    0  0.81027481013E+02  0.97748446855E+03 -0.82594873928E+03  0.12822763582E+04  0.50400001928E-02 0.  1.
       -1    1    3    3    0  502 -0.81027481013E+02 -0.97748446855E+03  0.25004665242E+03  0.10122078183E+04  0.50400001928E-02 0. -1.
</event>
<event>
 5   0  0.2910318E-05  0.2176922E+04  0.7818609E-02  0.8528095E-01
       -1   -1    0    0    0  501  0.00000000000E+00  0.00000000000E+00  0.10320474504E+04  0.10320474504E+04  0.50400001928E-02 0.  1.
        1   -1    0    0  501    0  0.00000000000E+00  0.00000000000E+00 -0.11479583192E+04  0.11479583192E+04  0.50400001928E-02 0. -1.
    10030    2    1    2    0    0  0.00000000000E+00  0.00000000000E+00 -0.11591086876E+03  0.21800057696E+04  0.21769220992E+04 0.  0.
        5    1    3    3  502    0 -0.41532437144E+03 -0.68065446200E+03  0.68399929250E+03  0.10505531649E+04  0.46999998093E+01 0. -1.
       -5    1    3    3    0  502  0.41532437144E+03  0.68065446200E+03 -0.79991016126E+03  0.11294526047E+04  0.46999998093E+01 0.  1.
</event>
<event>
 5   0  0.2929471E-05  0.2196904E+04  0.7818609E-02  0.8519718E-01
       -1   -1    0    0    0  501  0.00000000000E+00  0.00000000000E+00  0.85205818270E+03  0.85205818271E+03  0.50400001928E-02 0. -1.
        1   -1    0    0  501    0  0.00000000000E+00  0.00000000000E+00 -0.14160966867E+04  0.14160966867E+04  0.50400001928E-02 0.  1.
    10030    2    1    2    0    0  0.00000000000E+00  0.00000000000E+00 -0.56403850397E+03  0.22681548694E+04  0.21969039755E+04 0.  0.
        2    1    3    3  502    0 -0.89659153048E+03 -0.61054076856E+03 -0.10331487367E+03  0.10896377222E+04  0.25500000920E-02 0.  1.
       -2    1    3    3    0  502  0.89659153048E+03  0.61054076856E+03 -0.46072363030E+03  0.11785171472E+04  0.25500000920E-02 0. -1.
</event>
<event>
 5   0  0.2910318E-05  0.2182055E+04  0.7818609E-02  0.8525935E-01
       -1   -1    0    0    0  501  0.00000000000E+00  0.00000000000E+00  0.74580372487E+03  0.74580372489E+03  0.50400001928E-02 0. -1.
        1   -1    0    0  501    0  0.00000000000E+00  0.00000000000E+00 -0.15960508209E+04  0.15960508209E+04  0.50400001928E-02 0.  1.
    10030    2    1    2    0    0  0.00000000000E+00  0.00000000000E+00 -0.85024709607E+03  0.23418545458E+04  0.21820546715E+04 0.  0.
        5    1    3    3  502    0  0.46296496415E+03 -0.22809614613E+03  0.60649584865E+03  0.79638163863E+03  0.46999998093E+01 0. -1.
       -5    1    3    3    0  502 -0.46296496415E+03  0.22809614613E+03 -0.14567429447E+04  0.15454729072E+04  0.46999998093E+01 0.  1.
</event>
<event>
 5   0  0.2929471E-05  0.2217061E+04  0.7818609E-02  0.8511360E-01
       -1   -1    0    0    0  501  0.00000000000E+00  0.00000000000E+00  0.66112629761E+03  0.66112629763E+03  0.50400001928E-02 0.  1.
        1   -1    0    0  501    0  0.00000000000E+00  0.00000000000E+00 -0.18587075064E+04  0.18587075064E+04  0.50400001928E-02 0. -1.
    10030    2    1    2    0    0  0.00000000000E+00  0.00000000000E+00 -0.11975812088E+04  0.25198338040E+04  0.22170614895E+04 0.  0.
        2    1    3    3  502    0  0.51093585649E+03 -0.75375172644E+03  0.11971544062E+03  0.91843829476E+03  0.25500000920E-02 0.  1.
       -2    1    3    3    0  502 -0.51093585649E+03  0.75375172644E+03 -0.13172966494E+04  0.16013955093E+04  0.25500000920E-02 0. -1.
</event>
<event>
 5   0  0.2910318E-05  0.2184659E+04  0.7818609E-02  0.8524841E-01
       -1   -1    0    0    0  501  0.00000000000E+00  0.00000000000E+00  0.62473546821E+03  0.62473546823E+03  0.50400001928E-02 0. -1.
        1   -1    0    0  501    0  0.00000000000E+00  0.00000000000E+00 -0.19099015769E+04  0.19099015769E+04  0.50400001928E-02 0.  1.
    10030    2    1    2    0    0  0.00000000000E+00  0.00000000000E+00 -0.12851661086E+04  0.25346370451E+04  0.21846585599E+04 0.  0.
        5    1    3    3  502    0 -0.50849383726E+03  0.64175929529E+03  0.19624926121E+03  0.84199574711E+03  0.46999998093E+01 0. -1.
       -5    1    3    3    0  502  0.50849383726E+03 -0.64175929529E+03 -0.14814153699E+04  0.16926412980E+04  0.46999998093E+01 0.  1.
</event>
<event>
 5   0  0.2929471E-05  0.1901607E+04  0.7818609E-02  0.8654057E-01
       -1   -1    0    0    0  501  0.00000000000E+00  0.00000000000E+00  0.57089377121E+03  0.57089377123E+03  0.50400001928E-02 0. -1.
        1   -1    0    0  501    0  0.00000000000E+00  0.00000000000E+00 -0.15835304711E+04  0.15835304711E+04  0.50400001928E-02 0.  1.
    10030    2    1    2    0    0  0.00000000000E+00  0.00000000000E+00 -0.10126366999E+04  0.21544242423E+04  0.19016074069E+04 0.  0.
        2    1    3    3  502    0  0.15999541269E+03  0.39671965136E+03  0.45571659945E+03  0.62503010558E+03  0.25500000920E-02 0. -1.
       -2    1    3    3    0  502 -0.15999541269E+03 -0.39671965136E+03 -0.14683532993E+04  0.15293941367E+04  0.25500000920E-02 0.  1.
</event>
<event>
 5   0  0.6306919E-05  0.2191008E+04  0.7818609E-02  0.8522180E-01
        2   -1    0    0  501    0  0.00000000000E+00  0.00000000000E+00  0.15242429540E+04  0.15242429540E+04  0.25500000920E-02 0.  1.
       -2   -1    0    0    0  501  0.00000000000E+00  0.00000000000E+00 -0.78736073433E+03  0.78736073433E+03  0.25500000920E-02 0. -1.
    10030    2    1    2    0    0  0.00000000000E+00  0.00000000000E+00  0.73688221966E+03  0.23116036883E+04  0.21910080343E+04 0.  0.
        3    1    3    3  502    0  0.44389132037E+03 -0.44993706257E+03 -0.57559743272E+03  0.85486564987E+03  0.10100000352E+00 0. -1.
       -3    1    3    3    0  502 -0.44389132037E+03  0.44993706257E+03  0.13124796524E+04  0.14567380385E+04  0.10100000352E+00 0.  1.
</event>
<event>
 5   0  0.6414768E-05  0.2194846E+04  0.7818609E-02  0.8520576E-01
       -2   -1    0    0    0  501  0.00000000000E+00  0.00000000000E+00  0.11167391061E+04  0.11167391061E+04  0.25500000920E-02 0.  1.
        2   -1    0    0  501    0  0.00000000000E+00  0.00000000000E+00 -0.10784413905E+04  0.10784413905E+04  0.25500000920E-02 0. -1.
    10030    2    1    2    0    0  0.00000000000E+00  0.00000000000E+00  0.38297715614E+02  0.21951804966E+04  0.21948463950E+04 0.  0.
        2    1    3    3  502    0  0.64556425515E+03  0.85616886554E+03  0.25276382291E+03  0.11016659585E+04  0.25500000920E-02 0.  1.
       -2    1    3    3    0  502 -0.64556425515E+03 -0.85616886554E+03 -0.21446610730E+03  0.10935145381E+04  0.25500000920E-02 0. -1.
</event>
<event>
 5   0  0.6293013E-05  0.2189311E+04  0.7818609E-02  0.8522890E-01
       -2   -1    0    0    0  501  0.00000000000E+00  0.00000000000E+00  0.17490976859E+04  0.17490976859E+04  0.25500000920E-02 0.  1.
        2   -1    0    0  501    0  0.00000000000E+00  0.00000000000E+00 -0.68507953498E+03  0.68507953499E+03  0.25500000920E-02 0. -1.
    10030    2    1    2    0    0  0.00000000000E+00  0.00000000000E+00  0.10640181509E+04  0.24341772209E+04  0.21893113340E+04 0.  0.
        1    1    3    3  502    0 -0.24328551475E+03  0.10509995427E+04  0.73847487710E+03  0.13073381447E+04  0.50400001928E-02 0.  1.
       -1    1    3    3    0  502  0.24328551475E+03 -0.10509995427E+04  0.32554327380E+03  0.11268390762E+04  0.50400001928E-02 0. -1.
</event>
<event>
 5   0  0.2929471E-05  0.2207510E+04  0.7818609E-02  0.8515309E-01
        1   -1    0    0  501    0  0.00000000000E+00  0.00000000000E+00  0.86710605991E+03  0.86710605993E+03  0.50400001928E-02 0.  1.
       -1   -1    0    0    0  501  0.00000000000E+00  0.00000000000E+00 -0.14049901385E+04  0.14049901386E+04  0.50400001928E-02 0. -1.
    10030    2    1    2    0    0  0.00000000000E+00  0.00000000000E+00 -0.53788407863E+03  0.22720961985E+04  0.22075103291E+04 0.  0.
        2    1    3    3  502    0 -0.81568938611E+03  0.74020181882E+03 -0.19596227911E+03  0.11187712555E+04  0.25500000920E-02 0. -1.
       -2    1    3    3    0  502  0.81568938611E+03 -0.74020181882E+03 -0.34192179952E+03  0.11533249430E+04  0.25500000920E-02 0.  1.
</event>
<event>
 5   0  0.6628798E-05  0.2202861E+04  0.7818609E-02  0.8517238E-01
        2   -1    0    0  501    0  0.00000000000E+00  0.00000000000E+00  0.16202486318E+04  0.16202486318E+04  0.25500000920E-02 0. -1.
       -2   -1    0    0    0  501  0.00000000000E+00  0.00000000000E+00 -0.74874256309E+03  0.74874256310E+03  0.25500000920E-02 0.  1.
    10030    2    1    2    0    0  0.00000000000E+00  0.00000000000E+00  0.87150606874E+03  0.23689911949E+04  0.22028609701E+04 0.  0.
        4    1    3    3  502    0 -0.75087698464E+03 -0.75188433579E+03  0.12406573674E+03  0.10698318655E+04  0.12699999809E+01 0.  1.
       -4    1    3    3    0  502  0.75087698464E+03  0.75188433579E+03  0.74744033200E+03  0.12991593294E+04  0.12699999809E+01 0. -1.
</event>
<event>
 5   0  0.2908031E-05  0.2235184E+04  0.7818609E-02  0.8503925E-01
       -1   -1    0    0    0  501  0.00000000000E+00  0.00000000000E+00  0.10762730043E+04  0.10762730043E+04  0.50400001928E-02 0.  1.
        1   -1    0    0  501    0  0.00000000000E+00  0.00000000000E+00 -0.11604967920E+04  0.11604967921E+04  0.50400001928E-02 0. -1.
    10030    2    1    2    0    0  0.00000000000E+00  0.00000000000E+00 -0.84223787787E+02  0.22367697963E+04  0.22351835440E+04 0.  0.
        1    1    3    3  502    0 -0.63908792893E+03 -0.93475139367E+02 -0.95481199616E+03  0.11527518946E+04  0.50400001928E-02 0. -1.
       -1    1    3    3    0  502  0.63908792893E+03  0.93475139367E+02  0.87058820837E+03  0.10840179017E+04  0.50400001928E-02 0.  1.
</event>
<event>
 5   0  0.2753631E-05  0.2144665E+04  0.7818609E-02  0.8541820E-01
       -1   -1    0    0    0  501  0.00000000000E+00  0.00000000000E+00  0.76769116851E+03  0.76769116852E+03  0.50400001928E-02 0.  1.
        1   -1    0    0  501    0  0.00000000000E+00  0.00000000000E+00 -0.14978634654E+04  0.14978634654E+04  0.50400001928E-02 0. -1.
    10030    2    1    2    0    0  0.00000000000E+00  0.00000000000E+00 -0.73017229687E+03  0.22655546339E+04  0.21446645929E+04 0.  0.
        4    1    3    3  502    0  0.62383786095E+02  0.13116765205E+02  0.76568695799E+03  0.76833711145E+03  0.12699999809E+01 0.  1.
       -4    1    3    3    0  502 -0.62383786095E+02 -0.13116765205E+02 -0.14958592549E+04  0.14972175225E+04  0.12699999809E+01 0. -1.
</event>
<event>
 5   0  0.6306919E-05  0.2208494E+04  0.7818609E-02  0.8514901E-01
       -2   -1    0    0    0  501  0.00000000000E+00  0.00000000000E+00  0.99958551770E+03  0.99958551770E+03  0.25500000920E-02 0. -1.
        2   -1    0    0  501    0  0.00000000000E+00  0.00000000000E+00 -0.12198670123E+04  0.12198670123E+04  0.25500000920E-02 0.  1.
    10030    2    1    2    0    0  0.00000000000E+00  0.00000000000E+00 -0.22028149464E+03  0.22194525300E+04  0.22084939656E+04 0.  0.
        3    1    3    3  502    0  0.10563462926E+04  0.86485919846E+02 -0.42153967778E+03  0.11406327255E+04  0.10100000352E+00 0.  1.
       -3    1    3    3    0  502 -0.10563462926E+04 -0.86485919846E+02  0.20125818314E+03  0.10788198046E+04  0.10100000352E+00 0. -1.
</event>
<event>
 5   0  0.2910318E-05  0.2204338E+04  0.7818609E-02  0.8516625E-01
        1   -1    0    0  501    0  0.00000000000E+00  0.00000000000E+00  0.13764477196E+04  0.13764477196E+04  0.50400001928E-02 0.  1.
       -1   -1    0    0    0  501  0.00000000000E+00  0.00000000000E+00 -0.88254460265E+03  0.88254460266E+03  0.50400001928E-02 0. -1.
    10030    2    1    2    0    0  0.00000000000E+00  0.00000000000E+00  0.49390311692E+03  0.22589923222E+04  0.22043380011E+04 0.  0.
        5    1    3    3  502    0  0.76809376610E+03  0.20469610972E+03  0.10293506483E+04  0.13005588714E+04  0.46999998093E+01 0.  1.
       -5    1    3    3    0  502 -0.76809376610E+03 -0.20469610972E+03 -0.53544753136E+03  0.95843345084E+03  0.46999998093E+01 0. -1.
</event>
<event>
 5   0  0.6306919E-05  0.2207896E+04  0.7818609E-02  0.8515149E-01
        2   -1    0    0  501    0  0.00000000000E+00  0.00000000000E+00  0.18823415685E+04  0.18823415685E+04  0.25500000920E-02 0. -1.
       -2   -1    0    0    0  501  0.00000000000E+00  0.00000000000E+00 -0.64743872604E+03  0.64743872605E+03  0.25500000920E-02 0.  1.
    10030    2    1    2    0    0  0.00000000000E+00  0.00000000000E+00  0.12349028425E+04  0.25297802945E+04  0.22078956742E+04 0.  0.
        3    1    3    3  502    0  0.41114362558E+03  0.58965164802E+03  0.15774362259E+04  0.17335031595E+04  0.10100000352E+00 0. -1.
       -3    1    3    3    0  502 -0.41114362558E+03 -0.58965164802E+03 -0.34253338345E+03  0.79627713508E+03  0.10100000352E+00 0.  1.
</event>
<event>
 5   0  0.2753631E-05  0.2186100E+04  0.7818609E-02  0.8524236E-01
        1   -1    0    0  501    0  0.00000000000E+00  0.00000000000E+00  0.11686130613E+04  0.11686130613E+04  0.50400001928E-02 0.  1.
       -1   -1    0    0    0  501  0.00000000000E+00  0.00000000000E+00 -0.10223730857E+04  0.10223730857E+04  0.50400001928E-02 0. -1.
    10030    2    1    2    0    0  0.00000000000E+00  0.00000000000E+00  0.14623997562E+03  0.21909861471E+04  0.21861002187E+04 0.  0.
        4    1    3    3  502    0  0.77791991754E+03  0.70584736644E+03 -0.22984195223E+03  0.10752715186E+04  0.12699999809E+01 0. -1.
       -4    1    3    3    0  502 -0.77791991754E+03 -0.70584736644E+03  0.37608192785E+03  0.11157146285E+04  0.12699999809E+01 0.  1.
</event>
<event>
 5   0  0.2910318E-05  0.2186943E+04  0.7818609E-02  0.8523882E-01
       -1   -1    0    0    0  501  0.00000000000E+00  0.00000000000E+00  0.23131190044E+04  0.23131190044E+04  0.50400001928E-02 0.  1.
        1   -1    0    0  501    0  0.00000000000E+00  0.00000000000E+00 -0.51691234747E+03  0.51691234750E+03  0.50400001928E-02 0. -1.
    10030    2    1    2    0    0  0.00000000000E+00  0.00000000000E+00  0.17962066570E+04  0.28300313519E+04  0.21869428658E+04 0.  0.
        5    1    3    3  502    0 -0.86001614375E+03  0.63970725733E+03  0.11780645048E+04  0.15927056257E+04  0.46999998093E+01 0.  1.
       -5    1    3    3    0  502  0.86001614375E+03 -0.63970725733E+03  0.61814215218E+03  0.12373257263E+04  0.46999998093E+01 0. -1.
</event>
<event>
 5   0  0.6445740E-05  0.2200223E+04  0.7818609E-02  0.8518335E-01
        2   -1    0    0  501    0  0.00000000000E+00  0.00000000000E+00  0.15630587681E+04  0.15630587681E+04  0.25500000920E-02 0. -1.
       -2   -1    0    0    0  501  0.00000000000E+00  0.00000000000E+00 -0.77428043596E+03  0.77428043596E+03  0.25500000920E-02 0.  1.
    10030    2    1    2    0    0  0.00000000000E+00  0.00000000000E+00  0.78877833212E+03  0.23373392040E+04  0.22002234654E+04 0.  0.
        5    1    3    3  502    0  0.67770245585E+03  0.15914078645E+03 -0.51052788882E+03  0.86328860981E+03  0.46999998093E+01 0.  1.
       -5    1    3    3    0  502 -0.67770245585E+03 -0.15914078645E+03  0.12993062209E+04  0.14740505942E+04  0.46999998093E+01 0. -1.
</event>
<event>
 5   0  0.2908031E-05  0.2201597E+04  0.7818609E-02  0.8517764E-01
       -1   -1    0    0    0  501  0.00000000000E+00  0.00000000000E+00  0.58242237290E+03  0.58242237292E+03  0.50400001928E-02 0.  1.
        1   -1    0    0  501    0  0.00000000000E+00  0.00000000000E+00 -0.20805468450E+04  0.20805468450E+04  0.50400001928E-02 0. -1.
    10030    2    1    2    0    0  0.00000000000E+00  0.00000000000E+00 -0.14981244721E+04  0.26629692180E+04  0.22015967210E+04 0.  0.
        1    1    3    3  502    0 -0.10446310365E+02 -0.10148409028E+04 -0.23340558421E+03  0.10413881842E+04  0.50400001928E-02 0.  1.
       -1    1    3    3    0  502  0.10446310365E+02  0.10148409028E+04 -0.12647188879E+04  0.16215810337E+04  0.50400001928E-02 0. -1.
</event>
<event>
 5   0  0.6445740E-05  0.2225329E+04  0.7818609E-02  0.8507959E-01
       -2   -1    0    0    0  501  0.00000000000E+00  0.00000000000E+00  0.82960824963E+03  0.82960824964E+03  0.25500000920E-02 0. -1.
        2   -1    0    0  501    0  0.00000000000E+00  0.00000000000E+00 -0.14922968592E+04  0.14922968592E+04  0.25500000920E-02 0.  1.
    10030    2    1    2    0    0  0.00000000000E+00  0.00000000000E+00 -0.66268860957E+03  0.23219051088E+04  0.22253285468E+04 0.  0.
        5    1    3    3  502    0 -0.22076919832E+03  0.23442185405E+03 -0.14426042066E+04  0.14781142147E+04  0.46999998093E+01 0.  1.
       -5    1    3    3    0  502  0.22076919832E+03 -0.23442185405E+03  0.77991559706E+03  0.84379089419E+03  0.46999998093E+01 0. -1.
</event>
<event>
 5   0  0.2929471E-05  0.2166086E+04  0.7818609E-02  0.8532678E-01
        1   -1    0    0  501    0  0.00000000000E+00  0.00000000000E+00  0.12146719548E+04  0.12146719548E+04  0.50400001928E-02 0.  1.
       -1   -1    0    0    0  501  0.00000000000E+00  0.00000000000E+00 -0.96567818413E+03  0.96567818414E+03  0.50400001928E-02 0. -1.
    10030    2    1    2    0    0  0.00000000000E+00  0.00000000000E+00  0.24899377071E+03  0.21803501390E+04  0.21660860626E+04 0.  0.
        2    1    3    3  502    0  0.52435759021E+03  0.22985784695E+03 -0.80090297388E+03  0.98449534575E+03  0.25500000920E-02 0. -1.
       -2    1    3    3    0  502 -0.52435759021E+03 -0.22985784695E+03  0.10498967446E+04  0.11958547932E+04  0.25500000920E-02 0.  1.
</event>
<event>
 5   0  0.2820239E-05  0.2198884E+04  0.7818609E-02  0.8518893E-01
       -1   -1    0    0    0  501  0.00000000000E+00  0.00000000000E+00  0.57128017597E+03  0.57128017599E+03  0.50400001928E-02 0.  1.
        1   -1    0    0  501    0  0.00000000000E+00  0.00000000000E+00 -0.21159008692E+04  0.21159008693E+04  0.50400001928E-02 0. -1.
    10030    2    1    2    0    0  0.00000000000E+00  0.00000000000E+00 -0.15446206933E+04  0.26871810452E+04  0.21988835540E+04 0.  0.
        3    1    3    3  502    0 -0.75786330418E+03 -0.21731458862E+02  0.20070537789E+03  0.78429057309E+03  0.10100000352E+00 0.  1.
       -3    1    3    3    0  502  0.75786330418E+03  0.21731458862E+02 -0.17453260712E+04  0.19028904722E+04  0.10100000352E+00 0. -1.
</event>
<event>
 5   0  0.2910318E-05  0.2200755E+04  0.7818609E-02  0.8518114E-01
        1   -1    0    0  501    0  0.00000000000E+00  0.00000000000E+00  0.11169477400E+04  0.11169477400E+04  0.50400001928E-02 0.  1.
       -1   -1    0    0    0  501  0.00000000000E+00  0.00000000000E+00 -0.10840532704E+04  0.10840532705E+04  0.50400001928E-02 0. -1.
    10030    2    1    2    0    0  0.00000000000E+00  0.00000000000E+00  0.32894469506E+02  0.22010010104E+04  0.22007551890E+04 0.  0.
        5    1    3    3  502    0 -0.81630393519E+03 -0.90499494600E+02 -0.71593674550E+03  0.10895548571E+04  0.46999998093E+01 0. -1.
       -5    1    3    3    0  502  0.81630393519E+03  0.90499494600E+02  0.74883121500E+03  0.11114461533E+04  0.46999998093E+01 0.  1.
</event>
<event>
 5   0  0.6414768E-05  0.2209550E+04  0.7818609E-02  0.8514464E-01
       -2   -1    0    0    0  501  0.00000000000E+00  0.00000000000E+00  0.61304427780E+03  0.61304427781E+03  0.25500000920E-02 0. -1.
        2   -1    0    0  501    0  0.00000000000E+00  0.00000000000E+00 -0.19909291771E+04  0.19909291771E+04  0.25500000920E-02 0.  1.
    10030    2    1    2    0    0  0.00000000000E+00  0.00000000000E+00 -0.13778848993E+04  0.26039734549E+04  0.22095499447E+04 0.  0.
        2    1    3    3  502    0  0.78543514130E+03  0.62313263473E+03 -0.14207754079E+03  0.10126147684E+04  0.25500000920E-02 0. -1.
       -2    1    3    3    0  502 -0.78543514130E+03 -0.62313263473E+03 -0.12358073585E+04  0.15913586864E+04  0.25500000920E-02 0.  1.
</event>
<event>
 5   0  0.6293013E-05  0.2215892E+04  0.7818609E-02  0.8511843E-01
        2   -1    0    0  501    0  0.00000000000E+00  0.00000000000E+00  0.13368368407E+04  0.13368368407E+04  0.25500000920E-02 0.  1.
       -2   -1    0    0    0  501  0.00000000000E+00  0.00000000000E+00 -0.91824532456E+03  0.91824532456E+03  0.25500000920E-02 0. -1.
    10030    2    1    2    0    0  0.00000000000E+00  0.00000000000E+00  0.41859151617E+03  0.22550821653E+04  0.22158918554E+04 0.  0.
        1    1    3    3  502    0  0.54116337448E+03 -0.11074208474E+03  0.11867102407E+04  0.13089701306E+04  0.50400001928E-02 0.  1.
       -1    1    3    3    0  502 -0.54116337448E+03  0.11074208474E+03 -0.76811872456E+03  0.94611203473E+03  0.50400001928E-02 0. -1.
</event>
<event>
 5   0  0.2908031E-05  0.2190153E+04  0.7818609E-02  0.8522538E-01
        1   -1    0    0  501    0  0.00000000000E+00  0.00000000000E+00  0.22949710571E+04  0.22949710571E+04  0.50400001928E-02 0. -1.
       -1   -1    0    0    0  501  0.00000000000E+00  0.00000000000E+00 -0.52253078351E+03  0.52253078353E+03  0.50400001928E-02 0.  1.
    10030    2    1    2    0    0  0.00000000000E+00  0.00000000000E+00  0.17724402736E+04  0.28175018406E+04  0.21901534418E+04 0.  0.
        1    1    3    3  502    0 -0.10261984447E+04  0.23914086944E+03  0.12698327372E+04  0.16500747812E+04  0.50400001928E-02 0. -1.
       -1    1    3    3    0  502  0.10261984447E+04 -0.23914086944E+03  0.50260753639E+03  0.11674270594E+04  0.50400001928E-02 0.  1.
</event>
<event>
 5   0  0.2820239E-05  0.2206963E+04  0.7818609E-02  0.8515535E-01
        1   -1    0    0  501    0  0.00000000000E+00  0.00000000000E+00  0.11291527625E+04  0.11291527625E+04  0.50400001928E-02 0.  1.
       -1   -1    0    0    0  501  0.00000000000E+00  0.00000000000E+00 -0.10783940488E+04  0.10783940488E+04  0.50400001928E-02 0. -1.
    10030    2    1    2    0    0  0.00000000000E+00  0.00000000000E+00  0.50758713700E+02  0.22075468114E+04  0.22069631799E+04 0.  0.
        3    1    3    3  502    0 -0.58376894185E+03 -0.56964191220E+03  0.76880771462E+03  0.11208672526E+04  0.10100000352E+00 0.  1.
       -3    1    3    3    0  502  0.58376894185E+03  0.56964191220E+03 -0.71804900092E+03  0.10866795588E+04  0.10100000352E+00 0. -1.
</event>
<event>
 5   0  0.2820239E-05  0.2207994E+04  0.7818609E-02  0.8515108E-01
       -1   -1    0    0    0  501  0.00000000000E+00  0.00000000000E+00  0.81434241317E+03  0.81434241319E+03  0.50400001928E-02 0. -1.
        1   -1    0    0  501    0  0.00000000000E+00  0.00000000000E+00 -0.14966795810E+04  0.14966795810E+04  0.50400001928E-02 0.  1.
    10030    2    1    2    0    0  0.00000000000E+00  0.00000000000E+00 -0.68233716784E+03  0.23110219942E+04  0.22079942589E+04 0.  0.
        3    1    3    3  502    0  0.82423251691E+03  0.63313755762E+03 -0.73081238032E+03  0.12705546640E+04  0.10100000352E+00 0. -1.
       -3    1    3    3    0  502 -0.82423251691E+03 -0.63313755762E+03  0.48475212474E+02  0.10404673302E+04  0.10100000352E+00 0.  1.
</event>
<event>
 5   0  0.2753631E-05  0.2210178E+04  0.7818609E-02  0.8514204E-01
        1   -1    0    0  501    0  0.00000000000E+00  0.00000000000E+00  0.99167752731E+03  0.99167752733E+03  0.50400001928E-02 0. -1.
       -1   -1    0    0    0  501  0.00000000000E+00  0.00000000000E+00 -0.12314704003E+04  0.12314704003E+04  0.50400001928E-02 0.  1.
    10030    2    1    2    0    0  0.00000000000E+00  0.00000000000E+00 -0.23979287296E+03  0.22231479276E+04  0.22101778404E+04 0.  0.
        4    1    3    3  502    0 -0.63357998866E+03  0.90387563416E+03 -0.17317086085E+03  0.11173202424E+04  0.12699999809E+01 0. -1.
       -4    1    3    3    0  502  0.63357998866E+03 -0.90387563416E+03 -0.66622012109E+02  0.11058276852E+04  0.12699999809E+01 0.  1.
</event>
<event>
 5   0  0.6293013E-05  0.2196938E+04  0.7818609E-02  0.8519704E-01
        2   -1    0    0  501    0  0.00000000000E+00  0.00000000000E+00  0.83629921111E+03  0.83629921111E+03  0.25500000920E-02 0. -1.
       -2   -1    0    0    0  501  0.00000000000E+00  0.00000000000E+00 -0.14428257680E+04  0.14428257680E+04  0.25500000920E-02 0.  1.
    10030    2    1    2    0    0  0.00000000000E+00  0.00000000000E+00 -0.60652655693E+03  0.22791249792E+04  0.21969379159E+04 0.  0.
        1    1    3    3  502    0  0.54825280670E+03 -0.27887568011E+03 -0.12474095366E+04  0.13908211017E+04  0.50400001928E-02 0.  1.
       -1    1    3    3    0  502 -0.54825280670E+03  0.27887568011E+03  0.64088297966E+03  0.88830387743E+03  0.50400001928E-02 0. -1.
</event>
<event>
 5   0  0.6306919E-05  0.2214293E+04  0.7818609E-02  0.8512503E-01
       -2   -1    0    0    0  501  0.00000000000E+00  0.00000000000E+00  0.72897478405E+03  0.72897478406E+03  0.25500000920E-02 0.  1.
        2   -1    0    0  501    0  0.00000000000E+00  0.00000000000E+00 -0.16815028927E+04  0.16815028927E+04  0.25500000920E-02 0. -1.
    10030    2    1    2    0    0  0.00000000000E+00  0.00000000000E+00 -0.95252810862E+03  0.24104776767E+04  0.22142928515E+04 0.  0.
        3    1    3    3  502    0 -0.93311341539E+03 -0.37110158561E+03 -0.98378507807E+03  0.14057916356E+04  0.10100000352E+00 0. -1.
       -3    1    3    3    0  502  0.93311341539E+03  0.37110158561E+03  0.31256969450E+02  0.10046860411E+04  0.10100000352E+00 0.  1.
</event>
<event>
 5   0  0.2820239E-05  0.2116446E+04  0.7818609E-02  0.8554033E-01
       -1   -1    0    0    0  501  0.00000000000E+00  0.00000000000E+00  0.10324318578E+04  0.10324318578E+04  0.50400001928E-02 0. -1.
        1   -1    0    0  501    0  0.00000000000E+00  0.00000000000E+00 -0.10846582456E+04  0.10846582456E+04  0.50400001928E-02 0.  1.
    10030    2    1    2    0    0  0.00000000000E+00  0.00000000000E+00 -0.52226387816E+02  0.21170901034E+04  0.21164458203E+04 0.  0.
        3    1    3    3  502    0 -0.30947771500E+03 -0.73103283186E+03 -0.72607635122E+03  0.10758124071E+04  0.10100000352E+00 0.  1.
       -3    1    3    3    0  502  0.30947771500E+03  0.73103283186E+03  0.67384996341E+03  0.10412776963E+04  0.10100000352E+00 0. -1.
</event>
<event>
 5   0  0.6628798E-05  0.2204661E+04  0.7818609E-02  0.8516491E-01
       -2   -1    0    0    0  501  0.00000000000E+00  0.00000000000E+00  0.13576647070E+04  0.13576647070E+04  0.25500000920E-02 0. -1.
        2   -1    0    0  501    0  0.00000000000E+00  0.00000000000E+00 -0.89501636186E+03  0.89501636187E+03  0.25500000920E-02 0.  1.
    10030    2    1    2    0    0  0.00000000000E+00  0.00000000000E+00  0.46264834518E+03  0.22526810689E+04  0.22046606331E+04 0.  0.
        4    1    3    3  502    0  0.81572203382E+03  0.64802835376E+03  0.59943120236E+03  0.12019411645E+04  0.12699999809E+01 0. -1.
       -4    1    3    3    0  502 -0.81572203382E+03 -0.64802835376E+03 -0.13678285718E+03  0.10507399044E+04  0.12699999809E+01 0.  1.
</event>
<event>
 5   0  0.2820239E-05  0.2262542E+04  0.7818609E-02  0.8492838E-01
       -1   -1    0    0    0  501  0.00000000000E+00  0.00000000000E+00  0.87576293274E+03  0.87576293276E+03  0.50400001928E-02 0. -1.
        1   -1    0    0  501    0  0.00000000000E+00  0.00000000000E+00 -0.14613247768E+04  0.14613247768E+04  0.50400001928E-02 0.  1.
    10030    2    1    2    0    0  0.00000000000E+00  0.00000000000E+00 -0.58556184406E+03  0.23370877096E+04  0.22625419972E+04 0.  0.
        3    1    3    3  502    0  0.99365392205E+03 -0.33645842230E+03 -0.73007503278E+03  0.12781087397E+04  0.10100000352E+00 0.  1.
       -3    1    3    3    0  502 -0.99365392205E+03  0.33645842230E+03  0.14451318872E+03  0.10589789699E+04  0.10100000352E+00 0. -1.
</event>
<event>
 5   0  0.2820239E-05  0.2206266E+04  0.7818609E-02  0.8515825E-01
        1   -1    0    0  501    0  0.00000000000E+00  0.00000000000E+00  0.15917114432E+04  0.15917114432E+04  0.50400001928E-02 0. -1.
       -1   -1    0    0    0  501  0.00000000000E+00  0.00000000000E+00 -0.76452461770E+03  0.76452461771E+03  0.50400001928E-02 0.  1.
    10030    2    1    2    0    0  0.00000000000E+00  0.00000000000E+00  0.82718682547E+03  0.23562360609E+04  0.22062661513E+04 0.  0.
        3    1    3    3  502    0  0.22977424125E+03  0.18405850016E+03 -0.72179403498E+03  0.77952573566E+03  0.10100000352E+00 0.  1.
       -3    1    3    3    0  502 -0.22977424125E+03 -0.18405850016E+03  0.15489808605E+04  0.15767103252E+04  0.10100000352E+00 0. -1.
</event>
<event>
 5   0  0.6445740E-05  0.2213876E+04  0.7818609E-02  0.8512675E-01
        2   -1    0    0  501    0  0.00000000000E+00  0.00000000000E+00  0.86489584176E+03  0.86489584176E+03  0.25500000920E-02 0. -1.
       -2   -1    0    0    0  501  0.00000000000E+00  0.00000000000E+00 -0.14167162737E+04  0.14167162737E+04  0.25500000920E-02 0.  1.
    10030    2    1    2    0    0  0.00000000000E+00  0.00000000000E+00 -0.55182043191E+03  0.22816121154E+04  0.22138762513E+04 0.  0.
        5    1    3    3  502    0 -0.13335484030E+03 -0.94843205450E+03  0.29603163899E+03  0.10024787762E+04  0.46999998093E+01 0. -1.
       -5    1    3    3    0  502  0.13335484030E+03  0.94843205450E+03 -0.84785207090E+03  0.12791333392E+04  0.46999998093E+01 0.  1.
</event>
<event>
 5   0  0.2753631E-05  0.2191383E+04  0.7818609E-02  0.8522023E-01
       -1   -1    0    0    0  501  0.00000000000E+00  0.00000000000E+00  0.12775883623E+04  0.12775883623E+04  0.50400001928E-02 0. -1.
        1   -1    0    0  501    0  0.00000000000E+00  0.00000000000E+00 -0.93969195391E+03  0.93969195392E+03  0.50400001928E-02 0.  1.
    10030    2    1    2    0    0  0.00000000000E+00  0.00000000000E+00  0.33789640842E+03  0.22172803163E+04  0.21913826727E+04 0.  0.
        4    1    3    3  502    0  0.75504498721E+03  0.34250524812E+03 -0.55585189732E+03  0.99818621627E+03  0.12699999809E+01 0.  1.
       -4    1    3    3    0  502 -0.75504498721E+03 -0.34250524812E+03  0.89374830574E+03  0.12190941000E+04  0.12699999809E+01 0. -1.
</event>
<event>
 5   0  0.2820239E-05  0.2213312E+04  0.7818609E-02  0.8512908E-01
       -1   -1    0    0    0  501  0.00000000000E+00  0.00000000000E+00  0.14869961420E+04  0.14869961420E+04  0.50400001928E-02 0. -1.
        1   -1    0    0  501    0  0.00000000000E+00  0.00000000000E+00 -0.82359857006E+03  0.82359857008E+03  0.50400001928E-02 0.  1.
    10030    2    1    2    0    0  0.00000000000E+00  0.00000000000E+00  0.66339757196E+03  0.23105947121E+04  0.22133123560E+04 0.  0.
        3    1    3    3  502    0  0.23816496520E+03  0.54215484535E+03 -0.64429060239E+03  0.87507989208E+03  0.10100000352E+00 0.  1.
       -3    1    3    3    0  502 -0.23816496520E+03 -0.54215484535E+03  0.13076881744E+04  0.14355148200E+04  0.10100000352E+00 0. -1.
</event>
<event>
 5   0  0.6414768E-05  0.2221704E+04  0.7818609E-02  0.8509448E-01
       -2   -1    0    0    0  501  0.00000000000E+00  0.00000000000E+00  0.12137210397E+04  0.12137210397E+04  0.25500000920E-02 0. -1.
        2   -1    0    0  501    0  0.00000000000E+00  0.00000000000E+00 -0.10167017835E+04  0.10167017835E+04  0.25500000920E-02 0.  1.
    10030    2    1    2    0    0  0.00000000000E+00  0.00000000000E+00  0.19701925625E+03  0.22304228232E+04  0.22217041619E+04 0.  0.
        2    1    3    3  502    0 -0.64908979769E+03 -0.16829577532E+03 -0.79060199071E+03  0.10366737873E+04  0.25500000920E-02 0.  1.
       -2    1    3    3    0  502  0.64908979769E+03  0.16829577532E+03  0.98762124695E+03  0.11937490360E+04  0.25500000920E-02 0. -1.
</event>
<event>
 5   0  0.2753631E-05  0.2199126E+04  0.7818609E-02  0.8518792E-01
       -1   -1    0    0    0  501  0.00000000000E+00  0.00000000000E+00  0.96786621868E+03  0.96786621869E+03  0.50400001928E-02 0.  1.
        1   -1    0    0  501    0  0.00000000000E+00  0.00000000000E+00 -0.12491793011E+04  0.12491793011E+04  0.50400001928E-02 0. -1.
    10030    2    1    2    0    0  0.00000000000E+00  0.00000000000E+00 -0.28131308243E+03  0.22170455198E+04  0.21991256868E+04 0.  0.
        4    1    3    3  502    0  0.66283441314E+02  0.27762211424E+03 -0.12111799796E+04  0.12443577013E+04  0.12699999809E+01 0. -1.
       -4    1    3    3    0  502 -0.66283441314E+02 -0.27762211424E+03  0.92986689717E+03  0.97268781850E+03  0.12699999809E+01 0.  1.
</event>
<event>
 5   0  0.6293013E-05  0.2121002E+04  0.7818609E-02  0.8552048E-01
        2   -1    0    0  501    0  0.00000000000E+00  0.00000000000E+00  0.21724104945E+04  0.21724104945E+04  0.25500000920E-02 0.  1.
       -2   -1    0    0    0  501  0.00000000000E+00  0.00000000000E+00 -0.51770249105E+03  0.51770249105E+03  0.25500000920E-02 0. -1.
    10030    2    1    2    0    0  0.00000000000E+00  0.00000000000E+00  0.16547080035E+04  0.26901129856E+04  0.21210019563E+04 0.  0.
        1    1    3    3  502    0  0.72566010292E+03  0.70212144498E+03  0.12385430950E+04  0.15979818856E+04  0.50400001928E-02 0.  1.
       -1    1    3    3    0  502 -0.72566010292E+03 -0.70212144498E+03  0.41616490844E+03  0.10921311000E+04  0.50400001928E-02 0. -1.
</event>
<event>
 5   0  0.2929471E-05  0.2209364E+04  0.7818609E-02  0.8514541E-01
       -1   -1    0    0    0  501  0.00000000000E+00  0.00000000000E+00  0.97580942591E+03  0.97580942592E+03  0.50400001928E-02 0. -1.
        1   -1    0    0  501    0  0.00000000000E+00  0.00000000000E+00 -0.12505745868E+04  0.12505745869E+04  0.50400001928E-02 0.  1.
    10030    2    1    2    0    0  0.00000000000E+00  0.00000000000E+00 -0.27476516094E+03  0.22263840128E+04  0.22093641345E+04 0.  0.
        2    1    3    3  502    0 -0.96906004742E+03 -0.26053491215E+03 -0.60285724559E+03  0.11706377213E+04  0.25500000920E-02 0.  1.
       -2    1    3    3    0  502  0.96906004742E+03  0.26053491215E+03  0.32809208465E+03  0.10557462915E+04  0.25500000920E-02 0. -1.
</event>
<event>
 5   0  0.2753631E-05  0.2197049E+04  0.7818609E-02  0.8519658E-01
       -1   -1    0    0    0  501  0.00000000000E+00  0.00000000000E+00  0.82184306235E+03  0.82184306237E+03  0.50400001928E-02 0.  1.
        1   -1    0    0  501    0  0.00000000000E+00  0.00000000000E+00 -0.14683528882E+04  0.14683528882E+04  0.50400001928E-02 0. -1.
    10030    2    1    2    0    0  0.00000000000E+00  0.00000000000E+00 -0.64650982583E+03  0.22901959506E+04  0.21970485969E+04 0.  0.
        4    1    3    3  502    0  0.13750992811E+03  0.10728360295E+04 -0.52340562932E+03  0.12015994309E+04  0.12699999809E+01 0. -1.
       -4    1    3    3    0  502 -0.13750992811E+03 -0.10728360295E+04 -0.12310419652E+03  0.10885965197E+04  0.12699999809E+01 0.  1.
</event>
<event>
 5   0  0.6306919E-05  0.2190762E+04  0.7818609E-02  0.8522283E-01
       -2   -1    0    0    0  501  0.00000000000E+00  0.00000000000E+00  0.56749551792E+03  0.56749551792E+03  0.25500000920E-02 0.  1.
        2   -1    0    0  501    0  0.00000000000E+00  0.00000000000E+00 -0.21143072161E+04  0.21143072161E+04  0.25500000920E-02 0. -1.
    10030    2    1    2    0    0  0.00000000000E+00  0.00000000000E+00 -0.15468116982E+04  0.26818027340E+04  0.21907623044E+04 0.  0.
        3    1    3    3  502    0  0.78449638743E+03  0.42346619471E+03 -0.15525424031E+04  0.17902921894E+04  0.10100000352E+00 0.  1.
       -3    1    3    3    0  502 -0.78449638743E+03 -0.42346619471E+03  0.57307048923E+01  0.89151054460E+03  0.10100000352E+00 0. -1.
</event>
<event>
 5   0  0.2820239E-05  0.2205919E+04  0.7818609E-02  0.8515969E-01
       -1   -1    0    0    0  501  0.00000000000E+00  0.00000000000E+00  0.49823143306E+03  0.49823143309E+03  0.50400001928E-02 0. -1.
        1   -1    0    0  501    0  0.00000000000E+00  0.00000000000E+00 -0.24416756457E+04  0.24416756457E+04  0.50400001928E-02 0.  1.
    10030    2    1    2    0    0  0.00000000000E+00  0.00000000000E+00 -0.19434442127E+04  0.29399070788E+04  0.22059189070E+04 0.  0.
        3    1    3    3  502    0 -0.30404608016E+03 -0.98430568599E+02  0.43517413621E+03  0.53991585893E+03  0.10100000352E+00 0. -1.
       -3    1    3    3    0  502  0.30404608016E+03  0.98430568599E+02 -0.23786183489E+04  0.23999912199E+04  0.10100000352E+00 0.  1.
</event>
<event>
 5   0  0.6414768E-05  0.2192632E+04  0.7818609E-02  0.8521501E-01
        2   -1    0    0  501    0  0.00000000000E+00  0.00000000000E+00  0.12617703968E+04  0.12617703968E+04  0.25500000920E-02 0.  1.
       -2   -1    0    0    0  501  0.00000000000E+00  0.00000000000E+00 -0.95255786603E+03  0.95255786604E+03  0.25500000920E-02 0. -1.
    10030    2    1    2    0    0  0.00000000000E+00  0.00000000000E+00  0.30921253077E+03  0.22143282628E+04  0.21926324969E+04 0.  0.
        2    1    3    3  502    0 -0.10726098228E+04 -0.14378079512E+03 -0.22469999156E+02  0.10824369034E+04  0.25500000920E-02 0.  1.
       -2    1    3    3    0  502  0.10726098228E+04  0.14378079512E+03  0.33168252993E+03  0.11318913595E+04  0.25500000920E-02 0. -1.
</event>
<event>
 5   0  0.6306919E-05  0.2206626E+04  0.7818609E-02  0.8515675E-01
        2   -1    0    0  501    0  0.00000000000E+00  0.00000000000E+00  0.69909509778E+03  0.69909509778E+03  0.25500000920E-02 0. -1.
       -2   -1    0    0    0  501  0.00000000000E+00  0.00000000000E+00 -0.17412502409E+04  0.17412502409E+04  0.25500000920E-02 0.  1.
    10030    2    1    2    0    0  0.00000000000E+00  0.00000000000E+00 -0.10421551431E+04  0.24403453387E+04  0.22066259379E+04 0.  0.
        3    1    3    3  502    0 -0.20848780439E+03 -0.10669874910E+03  0.67128760251E+03  0.71097035320E+03  0.10100000352E+00 0. -1.
       -3    1    3    3    0  502  0.20848780439E+03  0.10669874910E+03 -0.17134427456E+04  0.17293749855E+04  0.10100000352E+00 0.  1.
</event>
<event>
 5   0  0.6414768E-05  0.1937329E+04  0.7818609E-02  0.8636495E-01
        2   -1    0    0  501    0  0.00000000000E+00  0.00000000000E+00  0.11486489948E+04  0.11486489948E+04  0.25500000920E-02 0. -1.
       -2   -1    0    0    0  501  0.00000000000E+00  0.00000000000E+00 -0.81688210333E+03  0.81688210333E+03  0.25500000920E-02 0.  1.
    10030    2    1    2    0    0  0.00000000000E+00  0.00000000000E+00  0.33176689144E+03  0.19655310981E+04  0.19373288898E+04 0.  0.
        2    1    3    3  502    0  0.50185651927E+02  0.40920583445E+03  0.10551952879E+04  0.11328747107E+04  0.25500000920E-02 0. -1.
       -2    1    3    3    0  502 -0.50185651927E+02 -0.40920583445E+03 -0.72342839646E+03  0.83265638736E+03  0.25500000920E-02 0.  1.
</event>
<event>
 5   0  0.6414768E-05  0.2214141E+04  0.7818609E-02  0.8512565E-01
        2   -1    0    0  501    0  0.00000000000E+00  0.00000000000E+00  0.16271971928E+04  0.16271971928E+04  0.25500000920E-02 0.  1.
       -2   -1    0    0    0  501  0.00000000000E+00  0.00000000000E+00 -0.75320043005E+03  0.75320043006E+03  0.25500000920E-02 0. -1.
    10030    2    1    2    0    0  0.00000000000E+00  0.00000000000E+00  0.87399676274E+03  0.23803976229E+04  0.22141414818E+04 0.  0.
        2    1    3    3  502    0  0.58636112166E+02  0.99666021214E+03  0.95128612456E+03  0.13790268536E+04  0.25500000920E-02 0.  1.
       -2    1    3    3    0  502 -0.58636112166E+02 -0.99666021214E+03 -0.77289361819E+02  0.10013707693E+04  0.25500000920E-02 0. -1.
</event>
<event>
 5   0  0.2910318E-05  0.2183663E+04  0.7818609E-02  0.8525259E-01
       -1   -1    0    0    0  501  0.00000000000E+00  0.00000000000E+00  0.11423668068E+04  0.11423668068E+04  0.50400001928E-02 0.  1.
        1   -1    0    0  501    0  0.00000000000E+00  0.00000000000E+00 -0.10435316786E+04  0.10435316786E+04  0.50400001928E-02 0. -1.
    10030    2    1    2    0    0  0.00000000000E+00  0.00000000000E+00  0.98835128240E+02  0.21858984854E+04  0.21836629332E+04 0.  0.
        5    1    3    3  502    0  0.30162437567E+03  0.10348491052E+04  0.22333064846E+03  0.11008127012E+04  0.46999998093E+01 0.  1.
       -5    1    3    3    0  502 -0.30162437567E+03 -0.10348491052E+04 -0.12449552022E+03  0.10850857842E+04  0.46999998093E+01 0. -1.
</event>
<event>
 5   0  0.2753631E-05  0.2196303E+04  0.7818609E-02  0.8519969E-01
       -1   -1    0    0    0  501  0.00000000000E+00  0.00000000000E+00  0.10108979316E+04  0.10108979316E+04  0.50400001928E-02 0. -1.
        1   -1    0    0  501    0  0.00000000000E+00  0.00000000000E+00 -0.11929356542E+04  0.11929356542E+04  0.50400001928E-02 0.  1.
    10030    2    1    2    0    0  0.00000000000E+00  0.00000000000E+00 -0.18203772259E+03  0.22038335858E+04  0.21963025159E+04 0.  0.
        4    1    3    3  502    0 -0.88100482777E+03  0.61848985302E+01 -0.74880219339E+03  0.11562500150E+04  0.12699999809E+01 0.  1.
       -4    1    3    3    0  502  0.88100482777E+03 -0.61848985302E+01  0.56676447080E+03  0.10475835708E+04  0.12699999809E+01 0. -1.
</event>
<event>
 5   0  0.6414768E-05  0.2162930E+04  0.7818609E-02  0.8534018E-01
        2   -1    0    0  501    0  0.00000000000E+00  0.00000000000E+00  0.17674891486E+04  0.17674891486E+04  0.25500000920E-02 0.  1.
       -2   -1    0    0    0  501  0.00000000000E+00  0.00000000000E+00 -0.66171052560E+03  0.66171052561E+03  0.25500000920E-02 0. -1.
    10030    2    1    2    0    0  0.00000000000E+00  0.00000000000E+00  0.11057786230E+04  0.24291996742E+04  0.21629296554E+04 0.  0.
        2    1    3    3  502    0  0.24429748892E+03 -0.10189830945E+04  0.25245397015E+03  0.10778408125E+04  0.25500000920E-02 0.  1.
       -2    1    3    3    0  502 -0.24429748892E+03  0.10189830945E+04  0.85332465288E+03  0.13513588617E+04  0.25500000920E-02 0. -1.
</event>
<event>
 5   0  0.6414768E-05  0.2235000E+04  0.7818609E-02  0.8504000E-01
        2   -1    0    0  501    0  0.00000000000E+00  0.00000000000E+00  0.16695532294E+04  0.16695532294E+04  0.25500000920E-02 0. -1.
       -2   -1    0    0    0  501  0.00000000000E+00  0.00000000000E+00 -0.74798829158E+03  0.74798829159E+03  0.25500000920E-02 0.  1.
    10030    2    1    2    0    0  0.00000000000E+00  0.00000000000E+00  0.92156493778E+03  0.24175415210E+04  0.22350000159E+04 0.  0.
        2    1    3    3  502    0  0.40181603066E+03 -0.83361499807E+03  0.11383942235E+04  0.14670758316E+04  0.25500000920E-02 0. -1.
       -2    1    3    3    0  502 -0.40181603066E+03  0.83361499807E+03 -0.21682928573E+03  0.95046568936E+03  0.25500000920E-02 0.  1.
</event>
<event>
 5   0  0.2245375E-05  0.2183770E+04  0.7818609E-02  0.8525214E-01
        3   -1    0    0  501    0  0.00000000000E+00  0.00000000000E+00  0.12367745636E+04  0.12367745677E+04  0.10100000352E+00 0. -1.
       -3   -1    0    0    0  501  0.00000000000E+00  0.00000000000E+00 -0.96396961527E+03  0.96396962056E+03  0.10100000352E+00 0.  1.
    10030    2    1    2    0    0  0.00000000000E+00  0.00000000000E+00  0.27280494831E+03  0.22007441883E+04  0.21837702357E+04 0.  0.
        3    1    3    3  502    0  0.16925345156E+03 -0.93287999098E+03  0.68218497788E+03  0.11680274666E+04  0.10100000352E+00 0. -1.
       -3    1    3    3    0  502 -0.16925345156E+03  0.93287999098E+03 -0.40938002957E+03  0.10327167217E+04  0.10100000352E+00 0.  1.
</event>
<event>
 5   0  0.6306919E-05  0.2211319E+04  0.7818609E-02  0.8513732E-01
       -2   -1    0    0    0  501  0.00000000000E+00  0.00000000000E+00  0.11274368686E+04  0.11274368686E+04  0.25500000920E-02 0.  1.
        2   -1    0    0  501    0  0.00000000000E+00  0.00000000000E+00 -0.10843028999E+04  0.10843028999E+04  0.25500000920E-02 0. -1.
    10030    2    1    2    0    0  0.00000000000E+00  0.00000000000E+00  0.43133968725E+02  0.22117397685E+04  0.22113191232E+04 0.  0.
        3    1    3    3  502    0 -0.32500650731E+03  0.18055943725E+03 -0.10199053657E+04  0.10855587987E+04  0.10100000352E+00 0. -1.
       -3    1    3    3    0  502  0.32500650731E+03 -0.18055943725E+03  0.10630393344E+04  0.11261809699E+04  0.10100000352E+00 0.  1.
</event>
<event>
 5   0  0.2929471E-05  0.2194868E+04  0.7818609E-02  0.8520567E-01
        1   -1    0    0  501    0  0.00000000000E+00  0.00000000000E+00  0.14409658361E+04  0.14409658361E+04  0.50400001928E-02 0.  1.
       -1   -1    0    0    0  501  0.00000000000E+00  0.00000000000E+00 -0.83580162892E+03  0.83580162894E+03  0.50400001928E-02 0. -1.
    10030    2    1    2    0    0  0.00000000000E+00  0.00000000000E+00  0.60516420716E+03  0.22767674650E+04  0.21948681902E+04 0.  0.
        2    1    3    3  502    0 -0.56792562921E+03 -0.33886047434E+03  0.12110439306E+04  0.13798526527E+04  0.25500000920E-02 0.  1.
       -2    1    3    3    0  502  0.56792562921E+03  0.33886047434E+03 -0.60587972340E+03  0.89691481235E+03  0.25500000920E-02 0. -1.
</event>
<event>
 5   0  0.2908031E-05  0.2160232E+04  0.7818609E-02  0.8535165E-01
       -1   -1    0    0    0  501  0.00000000000E+00  0.00000000000E+00  0.94414981899E+03  0.94414981900E+03  0.50400001928E-02 0. -1.
        1   -1    0    0  501    0  0.00000000000E+00  0.00000000000E+00 -0.12356625540E+04  0.12356625540E+04  0.50400001928E-02 0.  1.
    10030    2    1    2    0    0  0.00000000000E+00  0.00000000000E+00 -0.29151273496E+03  0.21798123730E+04  0.21602320030E+04 0.  0.
        1    1    3    3  502    0 -0.95067357679E+03  0.50903562568E+03 -0.20757386263E+03  0.10981732224E+04  0.50400001928E-02 0. -1.
       -1    1    3    3    0  502  0.95067357679E+03 -0.50903562568E+03 -0.83938872334E+02  0.10816391506E+04  0.50400001928E-02 0.  1.
</event>
<event>
 5   0  0.6414768E-05  0.2209928E+04  0.7818609E-02  0.8514307E-01
        2   -1    0    0  501    0  0.00000000000E+00  0.00000000000E+00  0.91659418623E+03  0.91659418623E+03  0.25500000920E-02 0. -1.
       -2   -1    0    0    0  501  0.00000000000E+00  0.00000000000E+00 -0.13320459719E+04  0.13320459719E+04  0.25500000920E-02 0.  1.
    10030    2    1    2    0    0  0.00000000000E+00  0.00000000000E+00 -0.41545178571E+03  0.22486401582E+04  0.22099281379E+04 0.  0.
        2    1    3    3  502    0  0.27381247812E+02  0.24796454414E+03 -0.13030157968E+04  0.13266824468E+04  0.25500000920E-02 0.  1.
       -2    1    3    3    0  502 -0.27381247812E+02 -0.24796454414E+03  0.88756401107E+03  0.92195771141E+03  0.25500000920E-02 0. -1.
</event>
<event>
 5   0  0.6445740E-05  0.2212908E+04  0.7818609E-02  0.8513075E-01
       -2   -1    0    0    0  501  0.00000000000E+00  0.00000000000E+00  0.59646620506E+03  0.59646620507E+03  0.25500000920E-02 0.  1.
        2   -1    0    0  501    0  0.00000000000E+00  0.00000000000E+00 -0.20524889484E+04  0.20524889484E+04  0.25500000920E-02 0. -1.
    10030    2    1    2    0    0  0.00000000000E+00  0.00000000000E+00 -0.14560227434E+04  0.26489551535E+04  0.22129078553E+04 0.  0.
        5    1    3    3  502    0  0.13292430531E+02 -0.10870162620E+04 -0.97460646932E+03  0.14600208569E+04  0.46999998093E+01 0. -1.
       -5    1    3    3    0  502 -0.13292430531E+02  0.10870162620E+04 -0.48141627406E+03  0.11889342966E+04  0.46999998093E+01 0.  1.
</event>
<event>
 5   0  0.2929471E-05  0.2161873E+04  0.7818609E-02  0.8534467E-01
        1   -1    0    0  501    0  0.00000000000E+00  0.00000000000E+00  0.83121514282E+03  0.83121514284E+03  0.50400001928E-02 0. -1.
       -1   -1    0    0    0  501  0.00000000000E+00  0.00000000000E+00 -0.14056817278E+04  0.14056817278E+04  0.50400001928E-02 0.  1.
    10030    2    1    2    0    0  0.00000000000E+00  0.00000000000E+00 -0.57446658498E+03  0.22368968706E+04  0.21618732046E+04 0.  0.
        2    1    3    3  502    0  0.22340796762E+03 -0.37830728826E+02 -0.13808325407E+04  0.13993001070E+04  0.25500000920E-02 0.  1.
       -2    1    3    3    0  502 -0.22340796762E+03  0.37830728826E+02  0.80636595567E+03  0.83759676367E+03  0.25500000920E-02 0. -1.
</event>
<event>
 5   0  0.2910318E-05  0.2181307E+04  0.7818609E-02  0.8526249E-01
        1   -1    0    0  501    0  0.00000000000E+00  0.00000000000E+00  0.16426601321E+04  0.16426601321E+04  0.50400001928E-02 0.  1.
       -1   -1    0    0    0  501  0.00000000000E+00  0.00000000000E+00 -0.72414580436E+03  0.72414580438E+03  0.50400001928E-02 0. -1.
    10030    2    1    2    0    0  0.00000000000E+00  0.00000000000E+00  0.91851432776E+03  0.23668059365E+04  0.21813073536E+04 0.  0.
        5    1    3    3  502    0  0.81097136349E+03 -0.16041685877E+03  0.12311587072E+04  0.14829639150E+04  0.46999998093E+01 0.  1.
       -5    1    3    3    0  502 -0.81097136349E+03  0.16041685877E+03 -0.31264437941E+03  0.88384202149E+03  0.46999998093E+01 0. -1.
</event>
<event>
 5   0  0.6628798E-05  0.2242766E+04  0.7818609E-02  0.8500836E-01
        2   -1    0    0  501    0  0.00000000000E+00  0.00000000000E+00  0.16468818340E+04  0.16468818340E+04  0.25500000920E-02 0.  1.
       -2   -1    0    0    0  501  0.00000000000E+00  0.00000000000E+00 -0.76356418764E+03  0.76356418764E+03  0.25500000920E-02 0. -1.
    10030    2    1    2    0    0  0.00000000000E+00  0.00000000000E+00  0.88331764633E+03  0.24104460216E+04  0.22427661400E+04 0.  0.
        4    1    3    3  502    0  0.35691785834E+03  0.53690382259E+03  0.14277766113E+04  0.15665898433E+04  0.12699999809E+01 0.  1.
       -4    1    3    3    0  502 -0.35691785834E+03 -0.53690382259E+03 -0.54445896497E+03  0.84385617836E+03  0.12699999809E+01 0. -1.
</event>
<event>
 5   0  0.2820239E-05  0.2207707E+04  0.7818609E-02  0.8515227E-01
       -1   -1    0    0    0  501  0.00000000000E+00  0.00000000000E+00  0.69254398700E+03  0.69254398702E+03  0.50400001928E-02 0. -1.
        1   -1    0    0  501    0  0.00000000000E+00  0.00000000000E+00 -0.17594438183E+04  0.17594438183E+04  0.50400001928E-02 0.  1.
    10030    2    1    2    0    0  0.00000000000E+00  0.00000000000E+00 -0.10668998313E+04  0.24519878053E+04  0.22077067168E+04 0.  0.
        3    1    3    3  502    0 -0.10062130243E+04  0.29908035688E+03 -0.91266551089E+03  0.13909967847E+04  0.10100000352E+00 0.  1.
       -3    1    3    3    0  502  0.10062130243E+04 -0.29908035688E+03 -0.15423432042E+03  0.10609910206E+04  0.10100000352E+00 0. -1.
</event>
<event>
 5   0  0.2929471E-05  0.2214466E+04  0.7818609E-02  0.8512431E-01
       -1   -1    0    0    0  501  0.00000000000E+00  0.00000000000E+00  0.66610345081E+03  0.66610345083E+03  0.50400001928E-02 0. -1.
        1   -1    0    0  501    0  0.00000000000E+00  0.00000000000E+00 -0.18405019343E+04  0.18405019343E+04  0.50400001928E-02 0.  1.
    10030    2    1    2    0    0  0.00000000000E+00  0.00000000000E+00 -0.11743984835E+04  0.25066053852E+04  0.22144657954E+04 0.  0.
        2    1    3    3  502    0  0.60802871795E+02 -0.49421704414E+03  0.53221348763E+03  0.72883377553E+03  0.25500000920E-02 0. -1.
       -2    1    3    3    0  502 -0.60802871795E+02  0.49421704414E+03 -0.17066119712E+04  0.17777716096E+04  0.25500000920E-02 0.  1.
</event>
<event>
 5   0  0.6414768E-05  0.2210856E+04  0.7818609E-02  0.8513923E-01
       -2   -1    0    0    0  501  0.00000000000E+00  0.00000000000E+00  0.11522969700E+04  0.11522969700E+04  0.25500000920E-02 0.  1.
        2   -1    0    0  501    0  0.00000000000E+00  0.00000000000E+00 -0.10604657898E+04  0.10604657899E+04  0.25500000920E-02 0. -1.
    10030    2    1    2    0    0  0.00000000000E+00  0.00000000000E+00  0.91831180148E+02  0.22127627599E+04  0.22108564100E+04 0.  0.
        2    1    3    3  502    0  0.32096758948E+03 -0.55080692489E+03 -0.85794840853E+03  0.10688704008E+04  0.25500000920E-02 0. -1.
       -2    1    3    3    0  502 -0.32096758948E+03  0.55080692489E+03  0.94977958868E+03  0.11438923590E+04  0.25500000920E-02 0.  1.
</event>
<event>
 5   0  0.6445740E-05  0.2194178E+04  0.7818609E-02  0.8520855E-01
        2   -1    0    0  501    0  0.00000000000E+00  0.00000000000E+00  0.16921549377E+04  0.16921549377E+04  0.25500000920E-02 0.  1.
       -2   -1    0    0    0  501  0.00000000000E+00  0.00000000000E+00 -0.71128465080E+03  0.71128465081E+03  0.25500000920E-02 0. -1.
    10030    2    1    2    0    0  0.00000000000E+00  0.00000000000E+00  0.98087028686E+03  0.24034395885E+04  0.21941775990E+04 0.  0.
        5    1    3    3  502    0  0.34723055590E+03  0.13869174138E+03  0.16201966933E+04  0.16627879820E+04  0.46999998093E+01 0.  1.
       -5    1    3    3    0  502 -0.34723055590E+03 -0.13869174138E+03 -0.63932640649E+03  0.74065160643E+03  0.46999998093E+01 0. -1.
</event>
<event>
 5   0  0.2753631E-05  0.2221699E+04  0.7818609E-02  0.8509451E-01
       -1   -1    0    0    0  501  0.00000000000E+00  0.00000000000E+00  0.62272431088E+03  0.62272431090E+03  0.50400001928E-02 0. -1.
        1   -1    0    0  501    0  0.00000000000E+00  0.00000000000E+00 -0.19815932273E+04  0.19815932273E+04  0.50400001928E-02 0.  1.
    10030    2    1    2    0    0  0.00000000000E+00  0.00000000000E+00 -0.13588689164E+04  0.26043175382E+04  0.22216986987E+04 0.  0.
        4    1    3    3  502    0 -0.24675800232E+03  0.10801102401E+04 -0.58524009900E+03  0.12530104664E+04  0.12699999809E+01 0.  1.
       -4    1    3    3    0  502  0.24675800232E+03 -0.10801102401E+04 -0.77362881743E+03  0.13513070719E+04  0.12699999809E+01 0. -1.
</event>
<event>
 5   0  0.6445740E-05  0.2195823E+04  0.7818609E-02  0.8520169E-01
       -2   -1    0    0    0  501  0.00000000000E+00  0.00000000000E+00  0.64194133922E+03  0.64194133922E+03  0.25500000920E-02 0. -1.
        2   -1    0    0  501    0  0.00000000000E+00  0.00000000000E+00 -0.18777567123E+04  0.18777567123E+04  0.25500000920E-02 0.  1.
    10030    2    1    2    0    0  0.00000000000E+00  0.00000000000E+00 -0.12358153731E+04  0.25196980515E+04  0.21958229971E+04 0.  0.
        5    1    3    3  502    0  0.21826632676E+03 -0.18650748312E+03  0.59809284984E+03  0.66344734357E+03  0.46999998093E+01 0. -1.
       -5    1    3    3    0  502 -0.21826632676E+03  0.18650748312E+03 -0.18339082229E+04  0.18562507079E+04  0.46999998093E+01 0.  1.
</event>
<event>
 5   0  0.2820239E-05  0.2171624E+04  0.7818609E-02  0.8530333E-01
        1   -1    0    0  501    0  0.00000000000E+00  0.00000000000E+00  0.12396098613E+04  0.12396098613E+04  0.50400001928E-02 0. -1.
       -1   -1    0    0    0  501  0.00000000000E+00  0.00000000000E+00 -0.95109553046E+03  0.95109553048E+03  0.50400001928E-02 0.  1.
    10030    2    1    2    0    0  0.00000000000E+00  0.00000000000E+00  0.28851433079E+03  0.21907053917E+04  0.21716237230E+04 0.  0.
        3    1    3    3  502    0 -0.16624580763E+03 -0.49086398515E+03  0.11067911346E+04  0.12221177301E+04  0.10100000352E+00 0. -1.
       -3    1    3    3    0  502  0.16624580763E+03  0.49086398515E+03 -0.81827680378E+03  0.96858766164E+03  0.10100000352E+00 0.  1.
</event>
<event>
 5   0  0.6414768E-05  0.2208283E+04  0.7818609E-02  0.8514988E-01
       -2   -1    0    0    0  501  0.00000000000E+00  0.00000000000E+00  0.79717982361E+03  0.79717982361E+03  0.25500000920E-02 0.  1.
        2   -1    0    0  501    0  0.00000000000E+00  0.00000000000E+00 -0.15293022277E+04  0.15293022277E+04  0.25500000920E-02 0. -1.
    10030    2    1    2    0    0  0.00000000000E+00  0.00000000000E+00 -0.73212240406E+03  0.23264820513E+04  0.22082833877E+04 0.  0.
        2    1    3    3  502    0 -0.95628406376E+03  0.55091727984E+03 -0.40162950046E+03  0.11744340405E+04  0.25500000920E-02 0.  1.
       -2    1    3    3    0  502  0.95628406376E+03 -0.55091727984E+03 -0.33049290360E+03  0.11520480108E+04  0.25500000920E-02 0. -1.
</event>
<event>
 5   0  0.6306919E-05  0.2385261E+04  0.7818609E-02  0.8445042E-01
        2   -1    0    0  501    0  0.00000000000E+00  0.00000000000E+00  0.10859774980E+04  0.10859774980E+04  0.25500000920E-02 0.  1.
       -2   -1    0    0    0  501  0.00000000000E+00  0.00000000000E+00 -0.13097575524E+04  0.13097575525E+04  0.25500000920E-02 0. -1.
    10030    2    1    2    0    0  0.00000000000E+00  0.00000000000E+00 -0.22378005440E+03  0.23957350505E+04  0.23852607655E+04 0.  0.
        3    1    3    3  502    0 -0.48073835077E+03 -0.68337109283E+03  0.74288281271E+03  0.11180251768E+04  0.10100000352E+00 0.  1.
       -3    1    3    3    0  502  0.48073835077E+03  0.68337109283E+03 -0.96666286711E+03  0.12777098737E+04  0.10100000352E+00 0. -1.
</event>
<event>
 5   0  0.6293013E-05  0.2197173E+04  0.7818609E-02  0.8519606E-01
       -2   -1    0    0    0  501  0.00000000000E+00  0.00000000000E+00  0.11050511009E+04  0.11050511009E+04  0.25500000920E-02 0.  1.
        2   -1    0    0  501    0  0.00000000000E+00  0.00000000000E+00 -0.10921599399E+04  0.10921599400E+04  0.25500000920E-02 0. -1.
    10030    2    1    2    0    0  0.00000000000E+00  0.00000000000E+00  0.12891160980E+02  0.21972110409E+04  0.21971732240E+04 0.  0.
        1    1    3    3  502    0  0.20937731031E+03  0.57822478225E+03 -0.90390507407E+03  0.10932644419E+04  0.50400001928E-02 0. -1.
       -1    1    3    3    0  502 -0.20937731031E+03 -0.57822478225E+03  0.91679623505E+03  0.11039465990E+04  0.50400001928E-02 0.  1.
</event>
<event>
 5   0  0.2908031E-05  0.2211941E+04  0.7818609E-02  0.8513474E-01
        1   -1    0    0  501    0  0.00000000000E+00  0.00000000000E+00  0.13131420077E+04  0.13131420077E+04  0.50400001928E-02 0.  1.
       -1   -1    0    0    0  501  0.00000000000E+00  0.00000000000E+00 -0.93148405594E+03  0.93148405595E+03  0.50400001928E-02 0. -1.
    10030    2    1    2    0    0  0.00000000000E+00  0.00000000000E+00  0.38165795180E+03  0.22446260637E+04  0.22119410873E+04 0.  0.
        1    1    3    3  502    0 -0.10761982943E+04  0.19399466026E+03  0.23055537934E+02  0.10937862016E+04  0.50400001928E-02 0. -1.
       -1    1    3    3    0  502  0.10761982943E+04 -0.19399466026E+03  0.35860241386E+03  0.11508398621E+04  0.50400001928E-02 0.  1.
</event>
<event>
 5   0  0.6306919E-05  0.2151781E+04  0.7818609E-02  0.8538770E-01
        2   -1    0    0  501    0  0.00000000000E+00  0.00000000000E+00  0.24596890220E+04  0.24596890220E+04  0.25500000920E-02 0. -1.
       -2   -1    0    0    0  501  0.00000000000E+00  0.00000000000E+00 -0.47060429555E+03  0.47060429555E+03  0.25500000920E-02 0.  1.
    10030    2    1    2    0    0  0.00000000000E+00  0.00000000000E+00  0.19890847264E+04  0.29302933175E+04  0.21517808619E+04 0.  0.
        3    1    3    3  502    0 -0.45333133945E+03  0.47478221310E+03  0.21553615106E+04  0.22531113388E+04  0.10100000352E+00 0. -1.
       -3    1    3    3    0  502  0.45333133945E+03 -0.47478221310E+03 -0.16627678419E+03  0.67718197877E+03  0.10100000352E+00 0.  1.
</event>
<event>
 5   0  0.2753631E-05  0.2186656E+04  0.7818609E-02  0.8524003E-01
       -1   -1    0    0    0  501  0.00000000000E+00  0.00000000000E+00  0.86025027754E+03  0.86025027756E+03  0.50400001928E-02 0. -1.
        1   -1    0    0  501    0  0.00000000000E+00  0.00000000000E+00 -0.13895564134E+04  0.13895564134E+04  0.50400001928E-02 0.  1.
    10030    2    1    2    0    0  0.00000000000E+00  0.00000000000E+00 -0.52930613587E+03  0.22498066910E+04  0.21866561598E+04 0.  0.
        4    1    3    3  502    0  0.89381788563E+02  0.69997845403E+03 -0.11238791744E+04  0.13270512243E+04  0.12699999809E+01 0.  1.
       -4    1    3    3    0  502 -0.89381788563E+02 -0.69997845403E+03  0.59457303856E+03  0.92275546670E+03  0.12699999809E+01 0. -1.
</event>
<event>
 5   0  0.6445740E-05  0.2247884E+04  0.7818609E-02  0.8498758E-01
       -2   -1    0    0    0  501  0.00000000000E+00  0.00000000000E+00  0.26318702939E+04  0.26318702939E+04  0.25500000920E-02 0.  1.
        2   -1    0    0  501    0  0.00000000000E+00  0.00000000000E+00 -0.47998017115E+03  0.47998017115E+03  0.25500000920E-02 0. -1.
    10030    2    1    2    0    0  0.00000000000E+00  0.00000000000E+00  0.21518901228E+04  0.31118504651E+04  0.22478839420E+04 0.  0.
        5    1    3    3  502    0  0.72443694510E+03 -0.51595892963E+03  0.20272248449E+04  0.22137491200E+04  0.46999998093E+01 0.  1.
       -5    1    3    3    0  502 -0.72443694510E+03  0.51595892963E+03  0.12466527785E+03  0.89810134506E+03  0.46999998093E+01 0. -1.
</event>
<event>
 5   0  0.2753631E-05  0.2202223E+04  0.7818609E-02  0.8517503E-01
        1   -1    0    0  501    0  0.00000000000E+00  0.00000000000E+00  0.96450087360E+03  0.96450087362E+03  0.50400001928E-02 0.  1.
       -1   -1    0    0    0  501  0.00000000000E+00  0.00000000000E+00 -0.12570714991E+04  0.12570714991E+04  0.50400001928E-02 0. -1.
    10030    2    1    2    0    0  0.00000000000E+00  0.00000000000E+00 -0.29257062550E+03  0.22215723727E+04  0.22022230215E+04 0.  0.
        4    1    3    3  502    0 -0.37494141186E+03  0.55231596508E+03  0.73708606396E+03  0.99445033370E+03  0.12699999809E+01 0.  1.
       -4    1    3    3    0  502  0.37494141186E+03 -0.55231596508E+03 -0.10296566895E+04  0.12271220390E+04  0.12699999809E+01 0. -1.
</event>
<event>
 5   0  0.2820239E-05  0.2190327E+04  0.7818609E-02  0.8522465E-01
        1   -1    0    0  501    0  0.00000000000E+00  0.00000000000E+00  0.95324697680E+03  0.95324697681E+03  0.50400001928E-02 0. -1.
       -1   -1    0    0    0  501  0.00000000000E+00  0.00000000000E+00 -0.12582080305E+04  0.12582080305E+04  0.50400001928E-02 0.  1.
    10030    2    1    2    0    0  0.00000000000E+00  0.00000000000E+00 -0.30496105371E+03  0.22114550073E+04  0.21903269174E+04 0.  0.
        3    1    3    3  502    0  0.86389095889E+03 -0.47399557348E+03 -0.63500643707E+03  0.11722681339E+04  0.10100000352E+00 0.  1.
       -3    1    3    3    0  502 -0.86389095889E+03  0.47399557348E+03  0.33004538336E+03  0.10391868734E+04  0.10100000352E+00 0. -1.
</event>
<event>
 5   0  0.6293013E-05  0.2203090E+04  0.7818609E-02  0.8517143E-01
       -2   -1    0    0    0  501  0.00000000000E+00  0.00000000000E+00  0.10946717816E+04  0.10946717816E+04  0.25500000920E-02 0. -1.
        2   -1    0    0  501    0  0.00000000000E+00  0.00000000000E+00 -0.11084610759E+04  0.11084610759E+04  0.25500000920E-02 0.  1.
    10030    2    1    2    0    0  0.00000000000E+00  0.00000000000E+00 -0.13789294277E+02  0.22031328575E+04  0.22030897038E+04 0.  0.
        1    1    3    3  502    0  0.43424945259E+02 -0.96368037410E+03 -0.53872784640E+03  0.11048951452E+04  0.50400001928E-02 0.  1.
       -1    1    3    3    0  502 -0.43424945259E+02  0.96368037410E+03  0.52493855212E+03  0.10982377123E+04  0.50400001928E-02 0. -1.
</event>
<event>
 5   0  0.6628798E-05  0.2177764E+04  0.7818609E-02  0.8527740E-01
        2   -1    0    0  501    0  0.00000000000E+00  0.00000000000E+00  0.22004140602E+04  0.22004140602E+04  0.25500000920E-02 0.  1.
       -2   -1    0    0    0  501  0.00000000000E+00  0.00000000000E+00 -0.53883692235E+03  0.53883692235E+03  0.25500000920E-02 0. -1.
    10030    2    1    2    0    0  0.00000000000E+00  0.00000000000E+00  0.16615771379E+04  0.27392509826E+04  0.21777643032E+04 0.  0.
        4    1    3    3  502    0  0.30063485902E+03 -0.94769512716E+03  0.27228591680E+03  0.10308484883E+04  0.12699999809E+01 0.  1.
       -4    1    3    3    0  502 -0.30063485902E+03  0.94769512716E+03  0.13892912211E+04  0.17084024942E+04  0.12699999809E+01 0. -1.
</event>
<event>
 5   0  0.6306919E-05  0.2191415E+04  0.7818609E-02  0.8522010E-01
       -2   -1    0    0    0  501  0.00000000000E+00  0.00000000000E+00  0.40676547786E+03  0.40676547787E+03  0.25500000920E-02 0. -1.
        2   -1    0    0  501    0  0.00000000000E+00  0.00000000000E+00 -0.29515152139E+04  0.29515152139E+04  0.25500000920E-02 0.  1.
    10030    2    1    2    0    0  0.00000000000E+00  0.00000000000E+00 -0.25447497360E+04  0.33582806918E+04  0.21914146084E+04 0.  0.
        3    1    3    3  502    0 -0.73284399870E+03 -0.78819042485E+03 -0.15874460163E+04  0.19178866852E+04  0.10100000352E+00 0.  1.
       -3    1    3    3    0  502  0.73284399870E+03  0.78819042485E+03 -0.95730371971E+03  0.14403940066E+04  0.10100000352E+00 0. -1.
</event>
<event>
 5   0  0.2753631E-05  0.2196625E+04  0.7818609E-02  0.8519834E-01
       -1   -1    0    0    0  501  0.00000000000E+00  0.00000000000E+00  0.10245451555E+04  0.10245451555E+04  0.50400001928E-02 0.  1.
        1   -1    0    0  501    0  0.00000000000E+00  0.00000000000E+00 -0.11773916006E+04  0.11773916006E+04  0.50400001928E-02 0. -1.
    10030    2    1    2    0    0  0.00000000000E+00  0.00000000000E+00 -0.15284644510E+03  0.22019367561E+04  0.21966254670E+04 0.  0.
        4    1    3    3  502    0 -0.74402876903E+03 -0.25476597350E+03  0.69211481588E+03  0.10476206573E+04  0.12699999809E+01 0.  1.
       -4    1    3    3    0  502  0.74402876903E+03  0.25476597350E+03 -0.84496126098E+03  0.11543160988E+04  0.12699999809E+01 0. -1.
</event>
<event>
 5   0  0.2929471E-05  0.2190664E+04  0.7818609E-02  0.8522324E-01
       -1   -1    0    0    0  501  0.00000000000E+00  0.00000000000E+00  0.11019583720E+04  0.11019583720E+04  0.50400001928E-02 0.  1.
        1   -1    0    0  501    0  0.00000000000E+00  0.00000000000E+00 -0.10887459675E+04  0.10887459675E+04  0.50400001928E-02 0. -1.
    10030    2    1    2    0    0  0.00000000000E+00  0.00000000000E+00  0.13212404532E+02  0.21907043395E+04  0.21906644964E+04 0.  0.
        2    1    3    3  502    0  0.41167041117E+02  0.10085303627E+04 -0.41875375984E+03  0.10927867721E+04  0.25500000920E-02 0. -1.
       -2    1    3    3    0  502 -0.41167041117E+02 -0.10085303627E+04  0.43196616437E+03  0.10979175675E+04  0.25500000920E-02 0.  1.
</event>
<event>
 5   0  0.6445740E-05  0.2201963E+04  0.7818609E-02  0.8517612E-01
        2   -1    0    0  501    0  0.00000000000E+00  0.00000000000E+00  0.67285297603E+03  0.67285297603E+03  0.25500000920E-02 0.  1.
       -2   -1    0    0    0  501  0.00000000000E+00  0.00000000000E+00 -0.18015232804E+04  0.18015232804E+04  0.25500000920E-02 0. -1.
    10030    2    1    2    0    0  0.00000000000E+00  0.00000000000E+00 -0.11286703044E+04  0.24743762565E+04  0.22019630339E+04 0.  0.
        5    1    3    3  502    0  0.18914187964E+03 -0.58697391396E+03 -0.15892121553E+04  0.17046789700E+04  0.46999998093E+01 0. -1.
       -5    1    3    3    0  502 -0.18914187964E+03  0.58697391396E+03  0.46054185090E+03  0.76969728643E+03  0.46999998093E+01 0.  1.
</event>
<event>
 5   0  0.2908031E-05  0.2207449E+04  0.7818609E-02  0.8515334E-01
       -1   -1    0    0    0  501  0.00000000000E+00  0.00000000000E+00  0.46842144663E+03  0.46842144665E+03  0.50400001928E-02 0.  1.
        1   -1    0    0  501    0  0.00000000000E+00  0.00000000000E+00 -0.26006657549E+04  0.26006657549E+04  0.50400001928E-02 0. -1.
    10030    2    1    2    0    0  0.00000000000E+00  0.00000000000E+00 -0.21322443083E+04  0.30690872015E+04  0.22074488580E+04 0.  0.
        1    1    3    3  502    0  0.52544688057E+03  0.30449442025E+02 -0.24149493438E+04  0.24716395218E+04  0.50400001928E-02 0. -1.
       -1    1    3    3    0  502 -0.52544688057E+03 -0.30449442025E+02  0.28270503555E+03  0.59744767969E+03  0.50400001928E-02 0.  1.
</event>
<event>
 5   0  0.6306919E-05  0.2209298E+04  0.7818609E-02  0.8514568E-01
        2   -1    0    0  501    0  0.00000000000E+00  0.00000000000E+00  0.14048292847E+04  0.14048292847E+04  0.25500000920E-02 0. -1.
       -2   -1    0    0    0  501  0.00000000000E+00  0.00000000000E+00 -0.86861043559E+03  0.86861043559E+03  0.25500000920E-02 0.  1.
    10030    2    1    2    0    0  0.00000000000E+00  0.00000000000E+00  0.53621884913E+03  0.22734397203E+04  0.22092979672E+04 0.  0.
        3    1    3    3  502    0  0.29663930661E+03  0.10640635280E+04  0.26314259721E+03  0.11355483726E+04  0.10100000352E+00 0.  1.
       -3    1    3    3    0  502 -0.29663930661E+03 -0.10640635280E+04  0.27307625193E+03  0.11378913478E+04  0.10100000352E+00 0. -1.
</event>
<event>
 5   0  0.2929471E-05  0.2201581E+04  0.7818609E-02  0.8517770E-01
        1   -1    0    0  501    0  0.00000000000E+00  0.00000000000E+00  0.24295323503E+04  0.24295323503E+04  0.50400001928E-02 0. -1.
       -1   -1    0    0    0  501  0.00000000000E+00  0.00000000000E+00 -0.49875443741E+03  0.49875443743E+03  0.50400001928E-02 0.  1.
    10030    2    1    2    0    0  0.00000000000E+00  0.00000000000E+00  0.19307779129E+04  0.29282867877E+04  0.22015812868E+04 0.  0.
        2    1    3    3  502    0  0.34725463382E+03  0.31555319269E+03  0.22898611928E+04  0.23374395993E+04  0.25500000920E-02 0. -1.
       -2    1    3    3    0  502 -0.34725463382E+03 -0.31555319269E+03 -0.35908327993E+03  0.59084718841E+03  0.25500000920E-02 0.  1.
</event>
<event>
 5   0  0.2753631E-05  0.1938430E+04  0.7818609E-02  0.8635960E-01
       -1   -1    0    0    0  501  0.00000000000E+00  0.00000000000E+00  0.56754109084E+03  0.56754109086E+03  0.50400001928E-02 0.  1.
        1   -1    0    0  501    0  0.00000000000E+00  0.00000000000E+00 -0.16551717383E+04  0.16551717383E+04  0.50400001928E-02 0. -1.
    10030    2    1    2    0    0  0.00000000000E+00  0.00000000000E+00 -0.10876306474E+04  0.22227128291E+04  0.19384302658E+04 0.  0.
        4    1    3    3  502    0 -0.25035323783E+03  0.80647370531E+03  0.16601648268E+01  0.84444120582E+03  0.12699999809E+01 0.  1.
       -4    1    3    3    0  502  0.25035323783E+03 -0.80647370531E+03 -0.10892908122E+04  0.13782716233E+04  0.12699999809E+01 0. -1.
</event>
<event>
 5   0  0.2245375E-05  0.2231989E+04  0.7818609E-02  0.8505230E-01
       -3   -1    0    0    0  501  0.00000000000E+00  0.00000000000E+00  0.20200336060E+04  0.20200336085E+04  0.10100000352E+00 0.  1.
        3   -1    0    0  501    0  0.00000000000E+00  0.00000000000E+00 -0.61654606194E+03  0.61654607021E+03  0.10100000352E+00 0. -1.
    10030    2    1    2    0    0  0.00000000000E+00  0.00000000000E+00  0.14034875441E+04  0.26365796788E+04  0.22319890493E+04 0.  0.
        2    1    3    3  502    0  0.28752713310E+03 -0.50342320910E+03 -0.42470454890E+03  0.71866594019E+03  0.25500000920E-02 0. -1.
       -2    1    3    3    0  502 -0.28752713310E+03  0.50342320910E+03  0.18281920930E+04  0.19179137386E+04  0.25500000920E-02 0.  1.
</event>
<event>
 5   0  0.6628798E-05  0.2222853E+04  0.7818609E-02  0.8508976E-01
        2   -1    0    0  501    0  0.00000000000E+00  0.00000000000E+00  0.15952195398E+04  0.15952195398E+04  0.25500000920E-02 0. -1.
       -2   -1    0    0    0  501  0.00000000000E+00  0.00000000000E+00 -0.77435695999E+03  0.77435695999E+03  0.25500000920E-02 0.  1.
    10030    2    1    2    0    0  0.00000000000E+00  0.00000000000E+00  0.82086257978E+03  0.23695764998E+04  0.22228534395E+04 0.  0.
        4    1    3    3  502    0  0.10961880472E+04  0.95230297034E+02  0.57752828319E+03  0.12426735593E+04  0.12699999809E+01 0.  1.
       -4    1    3    3    0  502 -0.10961880472E+04 -0.95230297034E+02  0.24333429658E+03  0.11269029404E+04  0.12699999809E+01 0. -1.
</event>
<event>
 5   0  0.2910318E-05  0.2208102E+04  0.7818609E-02  0.8515063E-01
        1   -1    0    0  501    0  0.00000000000E+00  0.00000000000E+00  0.16091937047E+04  0.16091937047E+04  0.50400001928E-02 0. -1.
       -1   -1    0    0    0  501  0.00000000000E+00  0.00000000000E+00 -0.75747784630E+03  0.75747784632E+03  0.50400001928E-02 0.  1.
    10030    2    1    2    0    0  0.00000000000E+00  0.00000000000E+00  0.85171585836E+03  0.23666715510E+04  0.22081019738E+04 0.  0.
        5    1    3    3  502    0  0.37100560366E+02 -0.76604109842E+03 -0.42534692791E+03  0.87700485467E+03  0.46999998093E+01 0.  1.
       -5    1    3    3    0  502 -0.37100560366E+02  0.76604109842E+03  0.12770627863E+04  0.14896666963E+04  0.46999998093E+01 0. -1.
</event>
<event>
 5   0  0.6414768E-05  0.2269804E+04  0.7818609E-02  0.8489923E-01
        2   -1    0    0  501    0  0.00000000000E+00  0.00000000000E+00  0.14673519513E+04  0.14673519513E+04  0.25500000920E-02 0.  1.
       -2   -1    0    0    0  501  0.00000000000E+00  0.00000000000E+00 -0.87777365899E+03  0.87777365900E+03  0.25500000920E-02 0. -1.
    10030    2    1    2    0    0  0.00000000000E+00  0.00000000000E+00  0.58957829231E+03  0.23451256103E+04  0.22698043011E+04 0.  0.
        2    1    3    3  502    0  0.40066469875E+03 -0.87100729045E+03  0.92224497010E+03  0.13303088685E+04  0.25500000920E-02 0.  1.
       -2    1    3    3    0  502 -0.40066469875E+03  0.87100729045E+03 -0.33266667779E+03  0.10148167418E+04  0.25500000920E-02 0. -1.
</event>
<event>
 5   0  0.2753631E-05  0.2546205E+04  0.7818609E-02  0.8386707E-01
       -1   -1    0    0    0  501  0.00000000000E+00  0.00000000000E+00  0.17266021755E+04  0.17266021755E+04  0.50400001928E-02 0. -1.
        1   -1    0    0  501    0  0.00000000000E+00  0.00000000000E+00 -0.93871627891E+03  0.93871627892E+03  0.50400001928E-02 0.  1.
    10030    2    1    2    0    0  0.00000000000E+00  0.00000000000E+00  0.78788589657E+03  0.26653184544E+04  0.25462046810E+04 0.  0.
        4    1    3    3  502    0 -0.28933648400E+03 -0.81531425662E+03  0.13716245611E+04  0.16216684271E+04  0.12699999809E+01 0. -1.
       -4    1    3    3    0  502  0.28933648400E+03  0.81531425662E+03 -0.58373866456E+03  0.10436500273E+04  0.12699999809E+01 0.  1.
</event>
<event>
 5   0  0.2908031E-05  0.2178528E+04  0.7818609E-02  0.8527419E-01
       -1   -1    0    0    0  501  0.00000000000E+00  0.00000000000E+00  0.64662060199E+03  0.64662060201E+03  0.50400001928E-02 0.  1.
        1   -1    0    0  501    0  0.00000000000E+00  0.00000000000E+00 -0.18349178937E+04  0.18349178937E+04  0.50400001928E-02 0. -1.
    10030    2    1    2    0    0  0.00000000000E+00  0.00000000000E+00 -0.11882972917E+04  0.24815384957E+04  0.21785276799E+04 0.  0.
        1    1    3    3  502    0  0.25007118491E+03  0.10488781258E+04 -0.41836383836E+03  0.11565938014E+04  0.50400001928E-02 0.  1.
       -1    1    3    3    0  502 -0.25007118491E+03 -0.10488781258E+04 -0.76993345336E+03  0.13249446943E+04  0.50400001928E-02 0. -1.
</event>
<event>
 5   0  0.6414768E-05  0.2200582E+04  0.7818609E-02  0.8518186E-01
        2   -1    0    0  501    0  0.00000000000E+00  0.00000000000E+00  0.92141802921E+03  0.92141802922E+03  0.25500000920E-02 0. -1.
       -2   -1    0    0    0  501  0.00000000000E+00  0.00000000000E+00 -0.13138885008E+04  0.13138885008E+04  0.25500000920E-02 0.  1.
    10030    2    1    2    0    0  0.00000000000E+00  0.00000000000E+00 -0.39247047160E+03  0.22353065300E+04  0.22005822439E+04 0.  0.
        2    1    3    3  502    0  0.66735285230E+03 -0.20371123130E+02  0.69213108785E+03  0.96167575351E+03  0.25500000920E-02 0. -1.
       -2    1    3    3    0  502 -0.66735285230E+03  0.20371123130E+02 -0.10846015595E+04  0.12736307765E+04  0.25500000920E-02 0.  1.
</event>
<event>
 5   0  0.6293013E-05  0.2225655E+04  0.7818609E-02  0.8507825E-01
        2   -1    0    0  501    0  0.00000000000E+00  0.00000000000E+00  0.12231425770E+04  0.12231425770E+04  0.25500000920E-02 0. -1.
       -2   -1    0    0    0  501  0.00000000000E+00  0.00000000000E+00 -0.10124617253E+04  0.10124617253E+04  0.25500000920E-02 0.  1.
    10030    2    1    2    0    0  0.00000000000E+00  0.00000000000E+00  0.21068085166E+03  0.22356043023E+04  0.22256549991E+04 0.  0.
        1    1    3    3  502    0  0.24254016097E+03 -0.98482879440E+03  0.56528643494E+03  0.11611469491E+04  0.50400001928E-02 0. -1.
       -1    1    3    3    0  502 -0.24254016097E+03  0.98482879440E+03 -0.35460558329E+03  0.10744573531E+04  0.50400001928E-02 0.  1.
</event>
<event>
 5   0  0.2929471E-05  0.2244747E+04  0.7818609E-02  0.8500031E-01
        1   -1    0    0  501    0  0.00000000000E+00  0.00000000000E+00  0.10929557861E+04  0.10929557861E+04  0.50400001928E-02 0. -1.
       -1   -1    0    0    0  501  0.00000000000E+00  0.00000000000E+00 -0.11525827661E+04  0.11525827661E+04  0.50400001928E-02 0.  1.
    10030    2    1    2    0    0  0.00000000000E+00  0.00000000000E+00 -0.59626980011E+02  0.22455385522E+04  0.22447467592E+04 0.  0.
        2    1    3    3  502    0 -0.10666271627E+04 -0.34896533292E+03 -0.45683993554E+02  0.11231906940E+04  0.25500000920E-02 0. -1.
       -2    1    3    3    0  502  0.10666271627E+04  0.34896533292E+03 -0.13942986457E+02  0.11223478582E+04  0.25500000920E-02 0.  1.
</event>
<event>
 5   0  0.2908031E-05  0.2198330E+04  0.7818609E-02  0.8519123E-01
       -1   -1    0    0    0  501  0.00000000000E+00  0.00000000000E+00  0.59407149841E+03  0.59407149843E+03  0.50400001928E-02 0. -1.
        1   -1    0    0  501    0  0.00000000000E+00  0.00000000000E+00 -0.20337014340E+04  0.20337014340E+04  0.50400001928E-02 0.  1.
    10030    2    1    2    0    0  0.00000000000E+00  0.00000000000E+00 -0.14396299356E+04  0.26277729325E+04  0.21983303285E+04 0.  0.
        1    1    3    3  502    0 -0.37747776518E+03 -0.72118654868E+03 -0.16027280615E+04  0.17975919282E+04  0.50400001928E-02 0.  1.
       -1    1    3    3    0  502  0.37747776518E+03  0.72118654868E+03  0.16309812584E+03  0.83018100429E+03  0.50400001928E-02 0. -1.
</event>
<event>
 5   0  0.2753631E-05  0.2178031E+04  0.7818609E-02  0.8527628E-01
        1   -1    0    0  501    0  0.00000000000E+00  0.00000000000E+00  0.20239397013E+04  0.20239397013E+04  0.50400001928E-02 0. -1.
       -1   -1    0    0    0  501  0.00000000000E+00  0.00000000000E+00 -0.58596323852E+03  0.58596323854E+03  0.50400001928E-02 0.  1.
    10030    2    1    2    0    0  0.00000000000E+00  0.00000000000E+00  0.14379764628E+04  0.26099029398E+04  0.21780305434E+04 0.  0.
        4    1    3    3  502    0  0.86595168151E+03  0.60640413229E+03  0.40570041184E+03  0.11323394912E+04  0.12699999809E+01 0.  1.
       -4    1    3    3    0  502 -0.86595168151E+03 -0.60640413229E+03  0.10322760509E+04  0.14775634486E+04  0.12699999809E+01 0. -1.
</event>
<event>
 5   0  0.6628798E-05  0.2160069E+04  0.7818609E-02  0.8535235E-01
        2   -1    0    0  501    0  0.00000000000E+00  0.00000000000E+00  0.85200467467E+03  0.85200467467E+03  0.25500000920E-02 0.  1.
       -2   -1    0    0    0  501  0.00000000000E+00  0.00000000000E+00 -0.13690936541E+04  0.13690936541E+04  0.25500000920E-02 0. -1.
    10030    2    1    2    0    0  0.00000000000E+00  0.00000000000E+00 -0.51708897941E+03  0.22210983288E+04  0.21600686964E+04 0.  0.
        4    1    3    3  502    0  0.28224477207E+03 -0.66689959384E+02  0.81121629783E+03  0.86150052629E+03  0.12699999809E+01 0.  1.
       -4    1    3    3    0  502 -0.28224477207E+03  0.66689959384E+02 -0.13283052772E+04  0.13595978025E+04  0.12699999809E+01 0. -1.
</event>
<event>
 5   0  0.2820239E-05  0.2165910E+04  0.7818609E-02  0.8532753E-01
        1   -1    0    0  501    0  0.00000000000E+00  0.00000000000E+00  0.10755503835E+04  0.10755503836E+04  0.50400001928E-02 0.  1.
       -1   -1    0    0    0  501  0.00000000000E+00  0.00000000000E+00 -0.10904106506E+04  0.10904106506E+04  0.50400001928E-02 0. -1.
    10030    2    1    2    0    0  0.00000000000E+00  0.00000000000E+00 -0.14860267052E+02  0.21659610342E+04  0.21659100568E+04 0.  0.
        3    1    3    3  502    0  0.73897971441E+01 -0.29375799769E+03 -0.10497805330E+04  0.10901318947E+04  0.10100000352E+00 0. -1.
       -3    1    3    3    0  502 -0.73897971441E+01  0.29375799769E+03  0.10349202659E+04  0.10758291394E+04  0.10100000352E+00 0.  1.
</event>
<event>
 5   0  0.2908031E-05  0.2201928E+04  0.7818609E-02  0.8517626E-01
       -1   -1    0    0    0  501  0.00000000000E+00  0.00000000000E+00  0.12268135543E+04  0.12268135543E+04  0.50400001928E-02 0. -1.
        1   -1    0    0  501    0  0.00000000000E+00  0.00000000000E+00 -0.98802429141E+03  0.98802429142E+03  0.50400001928E-02 0.  1.
    10030    2    1    2    0    0  0.00000000000E+00  0.00000000000E+00  0.23878926286E+03  0.22148378457E+04  0.22019278759E+04 0.  0.
        1    1    3    3  502    0 -0.32558775981E+02  0.78158024351E+03  0.89865863213E+03  0.11914340469E+04  0.50400001928E-02 0. -1.
       -1    1    3    3    0  502  0.32558775981E+02 -0.78158024351E+03 -0.65986936927E+03  0.10234037988E+04  0.50400001928E-02 0.  1.
</event>
<event>
 5   0  0.2908031E-05  0.2234544E+04  0.7818609E-02  0.8504186E-01
        1   -1    0    0  501    0  0.00000000000E+00  0.00000000000E+00  0.77248293022E+03  0.77248293024E+03  0.50400001928E-02 0.  1.
       -1   -1    0    0    0  501  0.00000000000E+00  0.00000000000E+00 -0.16159531762E+04  0.16159531762E+04  0.50400001928E-02 0. -1.
    10030    2    1    2    0    0  0.00000000000E+00  0.00000000000E+00 -0.84347024598E+03  0.23884361064E+04  0.22345435728E+04 0.  0.
        1    1    3    3  502    0  0.25469471689E+03  0.10289684833E+04 -0.44360951944E+02  0.10609493072E+04  0.50400001928E-02 0.  1.
       -1    1    3    3    0  502 -0.25469471689E+03 -0.10289684833E+04 -0.79910929403E+03  0.13274867992E+04  0.50400001928E-02 0. -1.
</event>
<event>
 5   0  0.6628798E-05  0.2172844E+04  0.7818609E-02  0.8529817E-01
        2   -1    0    0  501    0  0.00000000000E+00  0.00000000000E+00  0.19343150009E+04  0.19343150009E+04  0.25500000920E-02 0.  1.
       -2   -1    0    0    0  501  0.00000000000E+00  0.00000000000E+00 -0.61019692030E+03  0.61019692030E+03  0.25500000920E-02 0. -1.
    10030    2    1    2    0    0  0.00000000000E+00  0.00000000000E+00  0.13241180806E+04  0.25445119212E+04  0.21728442709E+04 0.  0.
        4    1    3    3  502    0  0.79615237506E+03  0.57778155232E+03  0.12020410496E+04  0.15532528527E+04  0.12699999809E+01 0.  1.
       -4    1    3    3    0  502 -0.79615237506E+03 -0.57778155232E+03  0.12207703099E+03  0.99125906852E+03  0.12699999809E+01 0. -1.
</event>
<event>
 5   0  0.6306919E-05  0.2250785E+04  0.7818609E-02  0.8497583E-01
        2   -1    0    0  501    0  0.00000000000E+00  0.00000000000E+00  0.12134148783E+04  0.12134148783E+04  0.25500000920E-02 0.  1.
       -2   -1    0    0    0  501  0.00000000000E+00  0.00000000000E+00 -0.10437555249E+04  0.10437555249E+04  0.25500000920E-02 0. -1.
    10030    2    1    2    0    0  0.00000000000E+00  0.00000000000E+00  0.16965935348E+03  0.22571704032E+04  0.22507851814E+04 0.  0.
        3    1    3    3  502    0  0.27101015728E+03  0.49537553603E+03  0.10610722228E+04  0.12019641007E+04  0.10100000352E+00 0.  1.
       -3    1    3    3    0  502 -0.27101015728E+03 -0.49537553603E+03 -0.89141286935E+03  0.10552063025E+04  0.10100000352E+00 0. -1.
</event>
<event>
 5   0  0.6445740E-05  0.2197198E+04  0.7818609E-02  0.8519595E-01
        2   -1    0    0  501    0  0.00000000000E+00  0.00000000000E+00  0.12206958173E+04  0.12206958173E+04  0.25500000920E-02 0.  1.
       -2   -1    0    0    0  501  0.00000000000E+00  0.00000000000E+00 -0.98871423347E+03  0.98871423348E+03  0.25500000920E-02 0. -1.
    10030    2    1    2    0    0  0.00000000000E+00  0.00000000000E+00  0.23198158381E+03  0.22094100508E+04  0.21971976054E+04 0.  0.
        5    1    3    3  502    0 -0.50036394796E+03  0.78084248676E+03  0.70817678285E+03  0.11668828199E+04  0.46999998093E+01 0.  1.
       -5    1    3    3    0  502  0.50036394796E+03 -0.78084248676E+03 -0.47619519904E+03  0.10425272309E+04  0.46999998093E+01 0. -1.
</event>
<event>
 5   0  0.6306919E-05  0.2222474E+04  0.7818609E-02  0.8509132E-01
        2   -1    0    0  501    0  0.00000000000E+00  0.00000000000E+00  0.13755129371E+04  0.13755129371E+04  0.25500000920E-02 0.  1.
       -2   -1    0    0    0  501  0.00000000000E+00  0.00000000000E+00 -0.89773593592E+03  0.89773593592E+03  0.25500000920E-02 0. -1.
    10030    2    1    2    0    0  0.00000000000E+00  0.00000000000E+00  0.47777700118E+03  0.22732488730E+04  0.22224737514E+04 0.  0.
        3    1    3    3  502    0 -0.89795486857E+03 -0.27988042792E+03 -0.36640090464E+03  0.10094085561E+04  0.10100000352E+00 0. -1.
       -3    1    3    3    0  502  0.89795486857E+03  0.27988042792E+03  0.84417790582E+03  0.12638403170E+04  0.10100000352E+00 0.  1.
</event>
<event>
 5   0  0.2910318E-05  0.2202488E+04  0.7818609E-02  0.8517393E-01
        1   -1    0    0  501    0  0.00000000000E+00  0.00000000000E+00  0.17317352591E+04  0.17317352591E+04  0.50400001928E-02 0.  1.
       -1   -1    0    0    0  501  0.00000000000E+00  0.00000000000E+00 -0.70030225978E+03  0.70030225980E+03  0.50400001928E-02 0. -1.
    10030    2    1    2    0    0  0.00000000000E+00  0.00000000000E+00  0.10314329993E+04  0.24320375189E+04  0.22024877891E+04 0.  0.
        5    1    3    3  502    0 -0.91786940900E+03 -0.41156363242E+03  0.10105847573E+04  0.14258935855E+04  0.46999998093E+01 0.  1.
       -5    1    3    3    0  502  0.91786940900E+03  0.41156363242E+03  0.20848242017E+02  0.10061439334E+04  0.46999998093E+01 0. -1.
</event>
<event>
 5   0  0.6445740E-05  0.2204575E+04  0.7818609E-02  0.8516526E-01
        2   -1    0    0  501    0  0.00000000000E+00  0.00000000000E+00  0.24064464894E+04  0.24064464894E+04  0.25500000920E-02 0.  1.
       -2   -1    0    0    0  501  0.00000000000E+00  0.00000000000E+00 -0.50490945706E+03  0.50490945707E+03  0.25500000920E-02 0. -1.
    10030    2    1    2    0    0  0.00000000000E+00  0.00000000000E+00  0.19015370324E+04  0.29113559465E+04  0.22045748710E+04 0.  0.
        5    1    3    3  502    0 -0.89600608848E+03  0.50221287102E+03  0.14789593274E+04  0.18006630614E+04  0.46999998093E+01 0.  1.
       -5    1    3    3    0  502  0.89600608848E+03 -0.50221287102E+03  0.42257770498E+03  0.11106928852E+04  0.46999998093E+01 0. -1.
</event>
<event>
 5   0  0.6414768E-05  0.2211205E+04  0.7818609E-02  0.8513779E-01
        2   -1    0    0  501    0  0.00000000000E+00  0.00000000000E+00  0.16736615025E+04  0.16736615025E+04  0.25500000920E-02 0.  1.
       -2   -1    0    0    0  501  0.00000000000E+00  0.00000000000E+00 -0.73034880529E+03  0.73034880529E+03  0.25500000920E-02 0. -1.
    10030    2    1    2    0    0  0.00000000000E+00  0.00000000000E+00  0.94331269717E+03  0.24040103078E+04  0.22112048108E+04 0.  0.
        2    1    3    3  502    0  0.45714602731E+03 -0.93974509793E+03  0.86403176370E+03  0.13559698478E+04  0.25500000920E-02 0. -1.
       -2    1    3    3    0  502 -0.45714602731E+03  0.93974509793E+03  0.79280933470E+02  0.10480404600E+04  0.25500000920E-02 0.  1.
</event>
<event>
 5   0  0.6445740E-05  0.2194168E+04  0.7818609E-02  0.8520859E-01
        2   -1    0    0  501    0  0.00000000000E+00  0.00000000000E+00  0.10567692684E+04  0.10567692684E+04  0.25500000920E-02 0.  1.
       -2   -1    0    0    0  501  0.00000000000E+00  0.00000000000E+00 -0.11389365440E+04  0.11389365440E+04  0.25500000920E-02 0. -1.
    10030    2    1    2    0    0  0.00000000000E+00  0.00000000000E+00 -0.82167275612E+02  0.21957058123E+04  0.21941678498E+04 0.  0.
        5    1    3    3  502    0 -0.10639555722E+04  0.26752415961E+03 -0.40440698956E+02  0.10978288462E+04  0.46999998093E+01 0.  1.
       -5    1    3    3    0  502  0.10639555722E+04 -0.26752415961E+03 -0.41726576656E+02  0.10978769661E+04  0.46999998093E+01 0. -1.
</event>
<event>
 5   0  0.2908031E-05  0.2204209E+04  0.7818609E-02  0.8516678E-01
        1   -1    0    0  501    0  0.00000000000E+00  0.00000000000E+00  0.16561005116E+04  0.16561005116E+04  0.50400001928E-02 0.  1.
       -1   -1    0    0    0  501  0.00000000000E+00  0.00000000000E+00 -0.73343016893E+03  0.73343016894E+03  0.50400001928E-02 0. -1.
    10030    2    1    2    0    0  0.00000000000E+00  0.00000000000E+00  0.92267034265E+03  0.23895306805E+04  0.22042087723E+04 0.  0.
        1    1    3    3  502    0 -0.15181699635E+03 -0.86906845655E+03 -0.25473457556E+03  0.91826907089E+03  0.50400001928E-02 0. -1.
       -1    1    3    3    0  502  0.15181699635E+03  0.86906845655E+03  0.11774049182E+04  0.14712616096E+04  0.50400001928E-02 0.  1.
</event>
<event>
 5   0  0.6414768E-05  0.2138873E+04  0.7818609E-02  0.8544310E-01
        2   -1    0    0  501    0  0.00000000000E+00  0.00000000000E+00  0.87641280568E+03  0.87641280568E+03  0.25500000920E-02 0. -1.
       -2   -1    0    0    0  501  0.00000000000E+00  0.00000000000E+00 -0.13049720067E+04  0.13049720067E+04  0.25500000920E-02 0.  1.
    10030    2    1    2    0    0  0.00000000000E+00  0.00000000000E+00 -0.42855920102E+03  0.21813848124E+04  0.21388727664E+04 0.  0.
        2    1    3    3  502    0  0.32599180216E+03  0.60392347266E+03  0.62220516510E+03  0.92635494460E+03  0.25500000920E-02 0. -1.
       -2    1    3    3    0  502 -0.32599180216E+03 -0.60392347266E+03 -0.10507643661E+04  0.12550298678E+04  0.25500000920E-02 0.  1.
</event>
<event>
 5   0  0.2910318E-05  0.2177793E+04  0.7818609E-02  0.8527728E-01
       -1   -1    0    0    0  501  0.00000000000E+00  0.00000000000E+00  0.52435372222E+03  0.52435372225E+03  0.50400001928E-02 0.  1.
        1   -1    0    0  501    0  0.00000000000E+00  0.00000000000E+00 -0.22612513633E+04  0.22612513633E+04  0.50400001928E-02 0. -1.
    10030    2    1    2    0    0  0.00000000000E+00  0.00000000000E+00 -0.17368976410E+04  0.27856050855E+04  0.21777929830E+04 0.  0.
        5    1    3    3  502    0  0.98843900722E+03 -0.26515081043E+03 -0.13442256575E+04  0.16894618467E+04  0.46999998093E+01 0. -1.
       -5    1    3    3    0  502 -0.98843900722E+03  0.26515081043E+03 -0.39267198352E+03  0.10961432388E+04  0.46999998093E+01 0.  1.
</event>
<event>
 5   0  0.2820239E-05  0.2246234E+04  0.7818609E-02  0.8499427E-01
       -1   -1    0    0    0  501  0.00000000000E+00  0.00000000000E+00  0.77939570619E+03  0.77939570621E+03  0.50400001928E-02 0.  1.
        1   -1    0    0  501    0  0.00000000000E+00  0.00000000000E+00 -0.16184226917E+04  0.16184226917E+04  0.50400001928E-02 0. -1.
    10030    2    1    2    0    0  0.00000000000E+00  0.00000000000E+00 -0.83902698555E+03  0.23978183979E+04  0.22462339119E+04 0.  0.
        3    1    3    3  502    0  0.71124954298E+03 -0.85629925516E+03 -0.57880611877E+03  0.12546477036E+04  0.10100000352E+00 0. -1.
       -3    1    3    3    0  502 -0.71124954298E+03  0.85629925516E+03 -0.26022086678E+03  0.11431706944E+04  0.10100000352E+00 0.  1.
</event>
<event>
 5   0  0.6628798E-05  0.2170196E+04  0.7818609E-02  0.8530937E-01
       -2   -1    0    0    0  501  0.00000000000E+00  0.00000000000E+00  0.14023455175E+04  0.14023455175E+04  0.25500000920E-02 0.  1.
        2   -1    0    0  501    0  0.00000000000E+00  0.00000000000E+00 -0.83962017712E+03  0.83962017712E+03  0.25500000920E-02 0. -1.
    10030    2    1    2    0    0  0.00000000000E+00  0.00000000000E+00  0.56272534035E+03  0.22419656946E+04  0.21701959283E+04 0.  0.
        4    1    3    3  502    0 -0.10512017125E+04 -0.20147622627E+03  0.46563846448E+03  0.11672354101E+04  0.12699999809E+01 0. -1.
       -4    1    3    3    0  502  0.10512017125E+04  0.20147622627E+03  0.97086875870E+02  0.10747302845E+04  0.12699999809E+01 0.  1.
</event>
<event>
 5   0  0.2820239E-05  0.2027990E+04  0.7818609E-02  0.8593645E-01
       -1   -1    0    0    0  501  0.00000000000E+00  0.00000000000E+00  0.17120775004E+04  0.17120775004E+04  0.50400001928E-02 0.  1.
        1   -1    0    0  501    0  0.00000000000E+00  0.00000000000E+00 -0.60054846278E+03  0.60054846280E+03  0.50400001928E-02 0. -1.
    10030    2    1    2    0    0  0.00000000000E+00  0.00000000000E+00  0.11115290376E+04  0.23126259632E+04  0.20279896558E+04 0.  0.
        3    1    3    3  502    0  0.63306856318E+03 -0.26262193017E+03  0.14079373697E+04  0.15658971011E+04  0.10100000352E+00 0.  1.
       -3    1    3    3    0  502 -0.63306856318E+03  0.26262193017E+03 -0.29640833216E+03  0.74672886208E+03  0.10100000352E+00 0. -1.
</event>
<event>
 5   0  0.2753631E-05  0.2222790E+04  0.7818609E-02  0.8509002E-01
        1   -1    0    0  501    0  0.00000000000E+00  0.00000000000E+00  0.11710573263E+04  0.11710573263E+04  0.50400001928E-02 0. -1.
       -1   -1    0    0    0  501  0.00000000000E+00  0.00000000000E+00 -0.10547720087E+04  0.10547720087E+04  0.50400001928E-02 0.  1.
    10030    2    1    2    0    0  0.00000000000E+00  0.00000000000E+00  0.11628531758E+03  0.22258293350E+04  0.22227896782E+04 0.  0.
        4    1    3    3  502    0  0.11518258285E+03 -0.67477626782E+03  0.93490085476E+03  0.11587196642E+04  0.12699999809E+01 0. -1.
       -4    1    3    3    0  502 -0.11518258285E+03  0.67477626782E+03 -0.81861553718E+03  0.10671096708E+04  0.12699999809E+01 0.  1.
</event>
<event>
 5   0  0.2820239E-05  0.2194295E+04  0.7818609E-02  0.8520807E-01
       -1   -1    0    0    0  501  0.00000000000E+00  0.00000000000E+00  0.13142755380E+04  0.13142755380E+04  0.50400001928E-02 0.  1.
        1   -1    0    0  501    0  0.00000000000E+00  0.00000000000E+00 -0.91589037343E+03  0.91589037344E+03  0.50400001928E-02 0. -1.
    10030    2    1    2    0    0  0.00000000000E+00  0.00000000000E+00  0.39838516455E+03  0.22301659114E+04  0.21942947052E+04 0.  0.
        3    1    3    3  502    0  0.90958740911E+03  0.61199100656E+03  0.24290800426E+03  0.11228920499E+04  0.10100000352E+00 0.  1.
       -3    1    3    3    0  502 -0.90958740911E+03 -0.61199100656E+03  0.15547716029E+03  0.11072738616E+04  0.10100000352E+00 0. -1.
</event>
<event>
 5   0  0.6445740E-05  0.2168834E+04  0.7818609E-02  0.8531513E-01
        2   -1    0    0  501    0  0.00000000000E+00  0.00000000000E+00  0.10481740480E+04  0.10481740480E+04  0.25500000920E-02 0. -1.
       -2   -1    0    0    0  501  0.00000000000E+00  0.00000000000E+00 -0.11219136285E+04  0.11219136285E+04  0.25500000920E-02 0.  1.
    10030    2    1    2    0    0  0.00000000000E+00  0.00000000000E+00 -0.73739580556E+02  0.21700876765E+04  0.21688344792E+04 0.  0.
        5    1    3    3  502    0  0.85484665550E+03  0.59084855101E+03 -0.34700670174E+03  0.10955822907E+04  0.46999998093E+01 0.  1.
       -5    1    3    3    0  502 -0.85484665550E+03 -0.59084855101E+03  0.27326712118E+03  0.10745053858E+04  0.46999998093E+01 0. -1.
</event>
<event>
 5   0  0.2753631E-05  0.2204335E+04  0.7818609E-02  0.8516626E-01
       -1   -1    0    0    0  501  0.00000000000E+00  0.00000000000E+00  0.83354853578E+03  0.83354853579E+03  0.50400001928E-02 0. -1.
        1   -1    0    0  501    0  0.00000000000E+00  0.00000000000E+00 -0.14573512813E+04  0.14573512813E+04  0.50400001928E-02 0.  1.
    10030    2    1    2    0    0  0.00000000000E+00  0.00000000000E+00 -0.62380274550E+03  0.22908998171E+04  0.22043348445E+04 0.  0.
        4    1    3    3  502    0 -0.54515715163E+03  0.86701366895E+03  0.11135401347E+03  0.10301991804E+04  0.12699999809E+01 0. -1.
       -4    1    3    3    0  502  0.54515715163E+03 -0.86701366895E+03 -0.73515675897E+03  0.12607006367E+04  0.12699999809E+01 0.  1.
</event>
<event>
 5   0  0.2910318E-05  0.1951396E+04  0.7818609E-02  0.8629688E-01
        1   -1    0    0  501    0  0.00000000000E+00  0.00000000000E+00  0.14340706419E+04  0.14340706419E+04  0.50400001928E-02 0.  1.
       -1   -1    0    0    0  501  0.00000000000E+00  0.00000000000E+00 -0.66383493222E+03  0.66383493224E+03  0.50400001928E-02 0. -1.
    10030    2    1    2    0    0  0.00000000000E+00  0.00000000000E+00  0.77023570971E+03  0.20979055742E+04  0.19513955902E+04 0.  0.
        5    1    3    3  502    0 -0.54927605462E+03  0.48872330088E+03  0.10746868852E+04  0.13021246638E+04  0.46999998093E+01 0.  1.
       -5    1    3    3    0  502  0.54927605462E+03 -0.48872330088E+03 -0.30445117547E+03  0.79578091033E+03  0.46999998093E+01 0. -1.
</event>
<event>
 5   0  0.6445740E-05  0.2214828E+04  0.7818609E-02  0.8512282E-01
        2   -1    0    0  501    0  0.00000000000E+00  0.00000000000E+00  0.10289031292E+04  0.10289031292E+04  0.25500000920E-02 0.  1.
       -2   -1    0    0    0  501  0.00000000000E+00  0.00000000000E+00 -0.11919158842E+04  0.11919158842E+04  0.25500000920E-02 0. -1.
    10030    2    1    2    0    0  0.00000000000E+00  0.00000000000E+00 -0.16301275500E+03  0.22208190134E+04  0.22148281946E+04 0.  0.
        5    1    3    3  502    0  0.18433253705E+03 -0.10099687147E+04  0.33474128575E+03  0.10798560586E+04  0.46999998093E+01 0. -1.
       -5    1    3    3    0  502 -0.18433253705E+03  0.10099687147E+04 -0.49775404075E+03  0.11409629547E+04  0.46999998093E+01 0.  1.
</event>
<event>
 5   0  0.2910318E-05  0.2204554E+04  0.7818609E-02  0.8516535E-01
       -1   -1    0    0    0  501  0.00000000000E+00  0.00000000000E+00  0.53626214638E+03  0.53626214641E+03  0.50400001928E-02 0. -1.
        1   -1    0    0  501    0  0.00000000000E+00  0.00000000000E+00 -0.22657105487E+04  0.22657105487E+04  0.50400001928E-02 0.  1.
    10030    2    1    2    0    0  0.00000000000E+00  0.00000000000E+00 -0.17294484024E+04  0.28019726952E+04  0.22045541971E+04 0.  0.
        5    1    3    3  502    0 -0.57923379241E+03 -0.29012345110E+03  0.26874872632E+03  0.70137819402E+03  0.46999998093E+01 0. -1.
       -5    1    3    3    0  502  0.57923379241E+03  0.29012345110E+03 -0.19981971287E+04  0.21005945011E+04  0.46999998093E+01 0.  1.
</event>
<event>
 5   0  0.6628798E-05  0.2192758E+04  0.7818609E-02  0.8521448E-01
        2   -1    0    0  501    0  0.00000000000E+00  0.00000000000E+00  0.20299154912E+04  0.20299154912E+04  0.25500000920E-02 0.  1.
       -2   -1    0    0    0  501  0.00000000000E+00  0.00000000000E+00 -0.59216599275E+03  0.59216599275E+03  0.25500000920E-02 0. -1.
    10030    2    1    2    0    0  0.00000000000E+00  0.00000000000E+00  0.14377494985E+04  0.26220814840E+04  0.21927580095E+04 0.  0.
        4    1    3    3  502    0 -0.21029190944E+03 -0.73401066933E+03 -0.22197154389E+03  0.79515239361E+03  0.12699999809E+01 0. -1.
       -4    1    3    3    0  502  0.21029190944E+03  0.73401066933E+03  0.16597210424E+04  0.18269290904E+04  0.12699999809E+01 0.  1.
</event>
<event>
 5   0  0.2753631E-05  0.2205914E+04  0.7818609E-02  0.8515971E-01
        1   -1    0    0  501    0  0.00000000000E+00  0.00000000000E+00  0.23364915552E+04  0.23364915552E+04  0.50400001928E-02 0.  1.
       -1   -1    0    0    0  501  0.00000000000E+00  0.00000000000E+00 -0.52065827130E+03  0.52065827132E+03  0.50400001928E-02 0. -1.
    10030    2    1    2    0    0  0.00000000000E+00  0.00000000000E+00  0.18158332839E+04  0.28571498265E+04  0.22059135559E+04 0.  0.
        4    1    3    3  502    0  0.47345385772E+02  0.33491798361E+03  0.22676542371E+04  0.22927426792E+04  0.12699999809E+01 0.  1.
       -4    1    3    3    0  502 -0.47345385772E+02 -0.33491798361E+03 -0.45182095318E+03  0.56440714730E+03  0.12699999809E+01 0. -1.
</event>
<event>
 5   0  0.2929471E-05  0.2101005E+04  0.7818609E-02  0.8560801E-01
       -1   -1    0    0    0  501  0.00000000000E+00  0.00000000000E+00  0.12505699383E+04  0.12505699383E+04  0.50400001928E-02 0.  1.
        1   -1    0    0  501    0  0.00000000000E+00  0.00000000000E+00 -0.88244180487E+03  0.88244180488E+03  0.50400001928E-02 0. -1.
    10030    2    1    2    0    0  0.00000000000E+00  0.00000000000E+00  0.36812813340E+03  0.21330117432E+04  0.21010047058E+04 0.  0.
        2    1    3    3  502    0  0.39599324161E+03 -0.48671648695E+03 -0.67129803927E+03  0.91888227951E+03  0.25500000920E-02 0. -1.
       -2    1    3    3    0  502 -0.39599324161E+03  0.48671648695E+03  0.10394261727E+04  0.12141294637E+04  0.25500000920E-02 0.  1.
</event>
<event>
 5   0  0.2820239E-05  0.2209848E+04  0.7818609E-02  0.8514340E-01
       -1   -1    0    0    0  501  0.00000000000E+00  0.00000000000E+00  0.56997131822E+03  0.56997131824E+03  0.50400001928E-02 0.  1.
        1   -1    0    0  501    0  0.00000000000E+00  0.00000000000E+00 -0.21419615370E+04  0.21419615370E+04  0.50400001928E-02 0. -1.
    10030    2    1    2    0    0  0.00000000000E+00  0.00000000000E+00 -0.15719902187E+04  0.27119328552E+04  0.22098476335E+04 0.  0.
        3    1    3    3  502    0 -0.65454555061E+03 -0.22631453835E+03  0.27054695506E+03  0.74353467517E+03  0.10100000352E+00 0.  1.
       -3    1    3    3    0  502  0.65454555061E+03  0.22631453835E+03 -0.18425371738E+04  0.19683981800E+04  0.10100000352E+00 0. -1.
</event>
<event>
 5   0  0.6306919E-05  0.2200671E+04  0.7818609E-02  0.8518149E-01
        2   -1    0    0  501    0  0.00000000000E+00  0.00000000000E+00  0.14942996237E+04  0.14942996237E+04  0.25500000920E-02 0.  1.
       -2   -1    0    0    0  501  0.00000000000E+00  0.00000000000E+00 -0.81023785137E+03  0.81023785138E+03  0.25500000920E-02 0. -1.
    10030    2    1    2    0    0  0.00000000000E+00  0.00000000000E+00  0.68406177234E+03  0.23045374751E+04  0.22006709126E+04 0.  0.
        3    1    3    3  502    0 -0.77930226449E+02  0.10501370878E+04  0.77843449436E+01  0.10530534790E+04  0.10100000352E+00 0. -1.
       -3    1    3    3    0  502  0.77930226449E+02 -0.10501370878E+04  0.67627742740E+03  0.12514839961E+04  0.10100000352E+00 0.  1.
</event>
<event>
 5   0  0.2929471E-05  0.2216962E+04  0.7818609E-02  0.8511401E-01
       -1   -1    0    0    0  501  0.00000000000E+00  0.00000000000E+00  0.16960610619E+04  0.16960610619E+04  0.50400001928E-02 0. -1.
        1   -1    0    0  501    0  0.00000000000E+00  0.00000000000E+00 -0.72446108281E+03  0.72446108283E+03  0.50400001928E-02 0.  1.
    10030    2    1    2    0    0  0.00000000000E+00  0.00000000000E+00  0.97159997906E+03  0.24205221447E+04  0.22169620957E+04 0.  0.
        2    1    3    3  502    0 -0.69492244763E+03  0.29855321947E+03 -0.39896383358E+03  0.85511600008E+03  0.25500000920E-02 0.  1.
       -2    1    3    3    0  502  0.69492244763E+03 -0.29855321947E+03  0.13705638126E+04  0.15654061446E+04  0.25500000920E-02 0. -1.
</event>
<event>
 5   0  0.2929471E-05  0.2089577E+04  0.7818609E-02  0.8565849E-01
        1   -1    0    0  501    0  0.00000000000E+00  0.00000000000E+00  0.16392011704E+04  0.16392011704E+04  0.50400001928E-02 0. -1.
       -1   -1    0    0    0  501  0.00000000000E+00  0.00000000000E+00 -0.66592354163E+03  0.66592354165E+03  0.50400001928E-02 0.  1.
    10030    2    1    2    0    0  0.00000000000E+00  0.00000000000E+00  0.97327762874E+03  0.23051247120E+04  0.20895766546E+04 0.  0.
        2    1    3    3  502    0 -0.19713810939E+03  0.94749181833E+03  0.52356841581E+02  0.96919833823E+03  0.25500000920E-02 0.  1.
       -2    1    3    3    0  502  0.19713810939E+03 -0.94749181833E+03  0.92092078715E+03  0.13359263738E+04  0.25500000920E-02 0. -1.
</event>
<event>
 5   0  0.6445740E-05  0.2277340E+04  0.7818609E-02  0.8486910E-01
       -2   -1    0    0    0  501  0.00000000000E+00  0.00000000000E+00  0.95188922136E+03  0.95188922137E+03  0.25500000920E-02 0.  1.
        2   -1    0    0  501    0  0.00000000000E+00  0.00000000000E+00 -0.13621008921E+04  0.13621008921E+04  0.25500000920E-02 0. -1.
    10030    2    1    2    0    0  0.00000000000E+00  0.00000000000E+00 -0.41021167074E+03  0.23139901135E+04  0.22773398144E+04 0.  0.
        5    1    3    3  502    0 -0.18750084476E+02  0.11348433256E+04 -0.29782194721E+03  0.11734312683E+04  0.46999998093E+01 0.  1.
       -5    1    3    3    0  502  0.18750084476E+02 -0.11348433256E+04 -0.11238972353E+03  0.11405588451E+04  0.46999998093E+01 0. -1.
</event>
<event>
 5   0  0.6628798E-05  0.2172252E+04  0.7818609E-02  0.8530067E-01
        2   -1    0    0  501    0  0.00000000000E+00  0.00000000000E+00  0.20778279027E+04  0.20778279027E+04  0.25500000920E-02 0.  1.
       -2   -1    0    0    0  501  0.00000000000E+00  0.00000000000E+00 -0.56774164274E+03  0.56774164275E+03  0.25500000920E-02 0. -1.
    10030    2    1    2    0    0  0.00000000000E+00  0.00000000000E+00  0.15100862599E+04  0.26455695454E+04  0.21722517596E+04 0.  0.
        4    1    3    3  502    0 -0.50242634007E+03 -0.61115937186E+03  0.16613057243E+04  0.18400778047E+04  0.12699999809E+01 0.  1.
       -4    1    3    3    0  502  0.50242634007E+03  0.61115937186E+03 -0.15121946436E+03  0.80549174068E+03  0.12699999809E+01 0. -1.
</event>
<event>
 5   0  0.2929471E-05  0.2172543E+04  0.7818609E-02  0.8529944E-01
       -1   -1    0    0    0  501  0.00000000000E+00  0.00000000000E+00  0.69309077327E+03  0.69309077329E+03  0.50400001928E-02 0.  1.
        1   -1    0    0  501    0  0.00000000000E+00  0.00000000000E+00 -0.17024989152E+04  0.17024989152E+04  0.50400001928E-02 0. -1.
    10030    2    1    2    0    0  0.00000000000E+00  0.00000000000E+00 -0.10094081419E+04  0.23955896885E+04  0.21725434768E+04 0.  0.
        2    1    3    3  502    0  0.61338188558E+03  0.47387663568E+03 -0.13438827546E+04  0.15513920399E+04  0.25500000920E-02 0.  1.
       -2    1    3    3    0  502 -0.61338188558E+03 -0.47387663568E+03  0.33447461264E+03  0.84419764860E+03  0.25500000920E-02 0. -1.
</event>
<event>
 5   0  0.2820239E-05  0.2193999E+04  0.7818609E-02  0.8520930E-01
        1   -1    0    0  501    0  0.00000000000E+00  0.00000000000E+00  0.21685518647E+04  0.21685518647E+04  0.50400001928E-02 0.  1.
       -1   -1    0    0    0  501  0.00000000000E+00  0.00000000000E+00 -0.55493611469E+03  0.55493611471E+03  0.50400001928E-02 0. -1.
    10030    2    1    2    0    0  0.00000000000E+00  0.00000000000E+00  0.16136157500E+04  0.27234879795E+04  0.21939988572E+04 0.  0.
        3    1    3    3  502    0 -0.44840256767E+03  0.43454026431E+03 -0.31281703131E+03  0.69838714856E+03  0.10100000352E+00 0. -1.
       -3    1    3    3    0  502  0.44840256767E+03 -0.43454026431E+03  0.19264327814E+04  0.20251008309E+04  0.10100000352E+00 0.  1.
</event>
<event>
 5   0  0.2820239E-05  0.2193630E+04  0.7818609E-02  0.8521084E-01
        1   -1    0    0  501    0  0.00000000000E+00  0.00000000000E+00  0.92574470501E+03  0.92574470502E+03  0.50400001928E-02 0. -1.
       -1   -1    0    0    0  501  0.00000000000E+00  0.00000000000E+00 -0.12994974011E+04  0.12994974011E+04  0.50400001928E-02 0.  1.
    10030    2    1    2    0    0  0.00000000000E+00  0.00000000000E+00 -0.37375269605E+03  0.22252421061E+04  0.21936297210E+04 0.  0.
        3    1    3    3  502    0  0.13866246754E+03  0.26040147525E+03 -0.12584932371E+04  0.12926103227E+04  0.10100000352E+00 0.  1.
       -3    1    3    3    0  502 -0.13866246754E+03 -0.26040147525E+03  0.88474054107E+03  0.93263178341E+03  0.10100000352E+00 0. -1.
</event>
<event>
 5   0  0.6414768E-05  0.2199789E+04  0.7818609E-02  0.8518516E-01
        2   -1    0    0  501    0  0.00000000000E+00  0.00000000000E+00  0.12704531434E+04  0.12704531434E+04  0.25500000920E-02 0.  1.
       -2   -1    0    0    0  501  0.00000000000E+00  0.00000000000E+00 -0.95223326959E+03  0.95223326960E+03  0.25500000920E-02 0. -1.
    10030    2    1    2    0    0  0.00000000000E+00  0.00000000000E+00  0.31821987377E+03  0.22226864130E+04  0.21997888540E+04 0.  0.
        2    1    3    3  502    0 -0.19924548421E+03  0.59919178170E+03 -0.75084073819E+03  0.98106644442E+03  0.25500000920E-02 0. -1.
       -2    1    3    3    0  502  0.19924548421E+03 -0.59919178170E+03  0.10690606120E+04  0.12416199685E+04  0.25500000920E-02 0.  1.
</event>
<event>
 5   0  0.2908031E-05  0.2196363E+04  0.7818609E-02  0.8519944E-01
       -1   -1    0    0    0  501  0.00000000000E+00  0.00000000000E+00  0.84490303540E+03  0.84490303542E+03  0.50400001928E-02 0.  1.
        1   -1    0    0  501    0  0.00000000000E+00  0.00000000000E+00 -0.14273855539E+04  0.14273855539E+04  0.50400001928E-02 0. -1.
    10030    2    1    2    0    0  0.00000000000E+00  0.00000000000E+00 -0.58248251847E+03  0.22722885893E+04  0.21963627999E+04 0.  0.
        1    1    3    3  502    0 -0.24846150204E+03  0.71681356605E+03  0.53021397161E+03  0.92557099251E+03  0.50400001928E-02 0.  1.
       -1    1    3    3    0  502  0.24846150204E+03 -0.71681356605E+03 -0.11126964901E+04  0.13467175968E+04  0.50400001928E-02 0. -1.
</event>
<event>
 5   0  0.6445740E-05  0.2419785E+04  0.7818609E-02  0.8432133E-01
       -2   -1    0    0    0  501  0.00000000000E+00  0.00000000000E+00  0.11559204962E+04  0.11559204962E+04  0.25500000920E-02 0.  1.
        2   -1    0    0  501    0  0.00000000000E+00  0.00000000000E+00 -0.12663842561E+04  0.12663842561E+04  0.25500000920E-02 0. -1.
    10030    2    1    2    0    0  0.00000000000E+00  0.00000000000E+00 -0.11046375986E+03  0.24223047523E+04  0.24197847158E+04 0.  0.
        5    1    3    3  502    0  0.59712114805E+03 -0.37262958510E+03  0.92987170317E+03  0.11662289430E+04  0.46999998093E+01 0.  1.
       -5    1    3    3    0  502 -0.59712114805E+03  0.37262958510E+03 -0.10403354630E+04  0.12560758093E+04  0.46999998093E+01 0. -1.
</event>
<event>
 5   0  0.2820239E-05  0.2244760E+04  0.7818609E-02  0.8500026E-01
        1   -1    0    0  501    0  0.00000000000E+00  0.00000000000E+00  0.77867515652E+03  0.77867515653E+03  0.50400001928E-02 0.  1.
       -1   -1    0    0    0  501  0.00000000000E+00  0.00000000000E+00 -0.16177953567E+04  0.16177953567E+04  0.50400001928E-02 0. -1.
    10030    2    1    2    0    0  0.00000000000E+00  0.00000000000E+00 -0.83912020020E+03  0.23964705133E+04  0.22447601677E+04 0.  0.
        3    1    3    3  502    0  0.23745569970E+02 -0.11165118877E+04 -0.29984589370E+03  0.11563175246E+04  0.10100000352E+00 0.  1.
       -3    1    3    3    0  502 -0.23745569970E+02  0.11165118877E+04 -0.53927430649E+03  0.12401529887E+04  0.10100000352E+00 0. -1.
</event>
<event>
 5   0  0.6414768E-05  0.2190476E+04  0.7818609E-02  0.8522403E-01
       -2   -1    0    0    0  501  0.00000000000E+00  0.00000000000E+00  0.72356439914E+03  0.72356439915E+03  0.25500000920E-02 0.  1.
        2   -1    0    0  501    0  0.00000000000E+00  0.00000000000E+00 -0.16578285823E+04  0.16578285823E+04  0.25500000920E-02 0. -1.
    10030    2    1    2    0    0  0.00000000000E+00  0.00000000000E+00 -0.93426418317E+03  0.23813929815E+04  0.21904755119E+04 0.  0.
        2    1    3    3  502    0  0.45492012270E+03 -0.31663743653E+03 -0.14940989434E+04  0.15935944393E+04  0.25500000920E-02 0. -1.
       -2    1    3    3    0  502 -0.45492012270E+03  0.31663743653E+03  0.55983476025E+03  0.78779854216E+03  0.25500000920E-02 0.  1.
</event>
<event>
 5   0  0.2245375E-05  0.2222352E+04  0.7818609E-02  0.8509182E-01
       -3   -1    0    0    0  501  0.00000000000E+00  0.00000000000E+00  0.22906526488E+04  0.22906526511E+04  0.10100000352E+00 0. -1.
        3   -1    0    0  501    0  0.00000000000E+00  0.00000000000E+00 -0.53902190127E+03  0.53902191073E+03  0.10100000352E+00 0.  1.
    10030    2    1    2    0    0  0.00000000000E+00  0.00000000000E+00  0.17516307476E+04  0.28296745618E+04  0.22223518735E+04 0.  0.
        3    1    3    3  502    0  0.80255492137E+03  0.99861044183E+02 -0.94424531482E+02  0.81423745450E+03  0.10100000352E+00 0. -1.
       -3    1    3    3    0  502 -0.80255492137E+03 -0.99861044183E+02  0.18460552790E+04  0.20154371073E+04  0.10100000352E+00 0.  1.
</event>
<event>
 5   0  0.6445740E-05  0.2152493E+04  0.7818609E-02  0.8538466E-01
       -2   -1    0    0    0  501  0.00000000000E+00  0.00000000000E+00  0.14562252165E+04  0.14562252165E+04  0.25500000920E-02 0.  1.
        2   -1    0    0  501    0  0.00000000000E+00  0.00000000000E+00 -0.79541745317E+03  0.79541745317E+03  0.25500000920E-02 0. -1.
    10030    2    1    2    0    0  0.00000000000E+00  0.00000000000E+00  0.66080776333E+03  0.22516426697E+04  0.21524933941E+04 0.  0.
        5    1    3    3  502    0  0.71152902078E+03  0.18110862504E+02 -0.51405001270E+03  0.87799262885E+03  0.46999998093E+01 0. -1.
       -5    1    3    3    0  502 -0.71152902078E+03 -0.18110862504E+02  0.11748577760E+04  0.13736500408E+04  0.46999998093E+01 0.  1.
</event>
<event>
 5   0  0.2908031E-05  0.2180675E+04  0.7818609E-02  0.8526515E-01
       -1   -1    0    0    0  501  0.00000000000E+00  0.00000000000E+00  0.56962782281E+03  0.56962782284E+03  0.50400001928E-02 0.  1.
        1   -1    0    0  501    0  0.00000000000E+00  0.00000000000E+00 -0.20870387883E+04  0.20870387883E+04  0.50400001928E-02 0. -1.
    10030    2    1    2    0    0  0.00000000000E+00  0.00000000000E+00 -0.15174109655E+04  0.26566666111E+04  0.21806745389E+04 0.  0.
        1    1    3    3  502    0  0.30427326921E+03 -0.62087309309E+02  0.51461203363E+03  0.60105124700E+03  0.50400001928E-02 0.  1.
       -1    1    3    3    0  502 -0.30427326921E+03  0.62087309309E+02 -0.20320229991E+04  0.20556153641E+04  0.50400001928E-02 0. -1.
</event>
<event>
 5   0  0.2753631E-05  0.2181882E+04  0.7818609E-02  0.8526007E-01
        1   -1    0    0  501    0  0.00000000000E+00  0.00000000000E+00  0.18266421871E+04  0.18266421871E+04  0.50400001928E-02 0. -1.
       -1   -1    0    0    0  501  0.00000000000E+00  0.00000000000E+00 -0.65155212734E+03  0.65155212736E+03  0.50400001928E-02 0.  1.
    10030    2    1    2    0    0  0.00000000000E+00  0.00000000000E+00  0.11750900597E+04  0.24781943145E+04  0.21818823093E+04 0.  0.
        4    1    3    3  502    0 -0.75942184147E+03  0.23456227494E+03 -0.26120661147E+03  0.83664299489E+03  0.12699999809E+01 0. -1.
       -4    1    3    3    0  502  0.75942184147E+03 -0.23456227494E+03  0.14362966712E+04  0.16415513196E+04  0.12699999809E+01 0.  1.
</event>
<event>
 5   0  0.6306919E-05  0.2204818E+04  0.7818609E-02  0.8516425E-01
        2   -1    0    0  501    0  0.00000000000E+00  0.00000000000E+00  0.17090973621E+04  0.17090973621E+04  0.25500000920E-02 0. -1.
       -2   -1    0    0    0  501  0.00000000000E+00  0.00000000000E+00 -0.71108067519E+03  0.71108067520E+03  0.25500000920E-02 0.  1.
    10030    2    1    2    0    0  0.00000000000E+00  0.00000000000E+00  0.99801668689E+03  0.24201780373E+04  0.22048184562E+04 0.  0.
        3    1    3    3  502    0  0.53059863627E+03  0.96626278289E+03  0.48763175075E+03  0.12053976161E+04  0.10100000352E+00 0. -1.
       -3    1    3    3    0  502 -0.53059863627E+03 -0.96626278289E+03  0.51038493615E+03  0.12147804212E+04  0.10100000352E+00 0.  1.
</event>
<event>
 5   0  0.2910318E-05  0.2175477E+04  0.7818609E-02  0.8528705E-01
        1   -1    0    0  501    0  0.00000000000E+00  0.00000000000E+00  0.18009989020E+04  0.18009989020E+04  0.50400001928E-02 0.  1.
       -1   -1    0    0    0  501  0.00000000000E+00  0.00000000000E+00 -0.65695466935E+03  0.65695466937E+03  0.50400001928E-02 0. -1.
    10030    2    1    2    0    0  0.00000000000E+00  0.00000000000E+00  0.11440442327E+04  0.24579535714E+04  0.21754766266E+04 0.  0.
        5    1    3    3  502    0 -0.57106250598E+03 -0.53704361244E+03  0.14240071565E+04  0.16255296673E+04  0.46999998093E+01 0.  1.
       -5    1    3    3    0  502  0.57106250598E+03  0.53704361244E+03 -0.27996292386E+03  0.83242390411E+03  0.46999998093E+01 0. -1.
</event>
<event>
 5   0  0.6293013E-05  0.2197949E+04  0.7818609E-02  0.8519282E-01
       -2   -1    0    0    0  501  0.00000000000E+00  0.00000000000E+00  0.12024959849E+04  0.12024959849E+04  0.25500000920E-02 0.  1.
        2   -1    0    0  501    0  0.00000000000E+00  0.00000000000E+00 -0.10043649795E+04  0.10043649795E+04  0.25500000920E-02 0. -1.
    10030    2    1    2    0    0  0.00000000000E+00  0.00000000000E+00  0.19813100533E+03  0.22068609644E+04  0.21979489123E+04 0.  0.
        1    1    3    3  502    0 -0.10523983733E+04  0.68576756232E+02  0.40934886651E+03  0.11312875859E+04  0.50400001928E-02 0. -1.
       -1    1    3    3    0  502  0.10523983733E+04 -0.68576756232E+02 -0.21121786118E+03  0.10755733785E+04  0.50400001928E-02 0.  1.
</event>
<event>
 5   0  0.2908031E-05  0.2220598E+04  0.7818609E-02  0.8509903E-01
        1   -1    0    0  501    0  0.00000000000E+00  0.00000000000E+00  0.67115756133E+03  0.67115756135E+03  0.50400001928E-02 0. -1.
       -1   -1    0    0    0  501  0.00000000000E+00  0.00000000000E+00 -0.18367728288E+04  0.18367728289E+04  0.50400001928E-02 0.  1.
    10030    2    1    2    0    0  0.00000000000E+00  0.00000000000E+00 -0.11656152675E+04  0.25079303902E+04  0.22205980929E+04 0.  0.
        1    1    3    3  502    0 -0.82215237104E+03 -0.52939580424E+02 -0.14234493210E+04  0.16446717270E+04  0.50400001928E-02 0.  1.
       -1    1    3    3    0  502  0.82215237104E+03  0.52939580424E+02  0.25783405344E+03  0.86325866316E+03  0.50400001928E-02 0. -1.
</event>
<event>
 5   0  0.6414768E-05  0.2224152E+04  0.7818609E-02  0.8508442E-01
        2   -1    0    0  501    0  0.00000000000E+00  0.00000000000E+00  0.94719044951E+03  0.94719044951E+03  0.25500000920E-02 0. -1.
       -2   -1    0    0    0  501  0.00000000000E+00  0.00000000000E+00 -0.13056649806E+04  0.13056649806E+04  0.25500000920E-02 0.  1.
    10030    2    1    2    0    0  0.00000000000E+00  0.00000000000E+00 -0.35847453113E+03  0.22528554302E+04  0.22241523328E+04 0.  0.
        2    1    3    3  502    0 -0.32869508439E+02 -0.83349473925E+03  0.56572644803E+03  0.10078890311E+04  0.25500000920E-02 0. -1.
       -2    1    3    3    0  502  0.32869508439E+02  0.83349473925E+03 -0.92420097916E+03  0.12449663991E+04  0.25500000920E-02 0.  1.
</event>
<event>
 5   0  0.2820239E-05  0.2159239E+04  0.7818609E-02  0.8535588E-01
        1   -1    0    0  501    0  0.00000000000E+00  0.00000000000E+00  0.16749427158E+04  0.16749427158E+04  0.50400001928E-02 0. -1.
       -1   -1    0    0    0  501  0.00000000000E+00  0.00000000000E+00 -0.69589157305E+03  0.69589157307E+03  0.50400001928E-02 0.  1.
    10030    2    1    2    0    0  0.00000000000E+00  0.00000000000E+00  0.97905114276E+03  0.23708342889E+04  0.21592392376E+04 0.  0.
        3    1    3    3  502    0  0.40625199265E+02 -0.22283442091E+03  0.16485597023E+04  0.16640476821E+04  0.10100000352E+00 0. -1.
       -3    1    3    3    0  502 -0.40625199265E+02  0.22283442091E+03 -0.66950855958E+03  0.70678660677E+03  0.10100000352E+00 0.  1.
</event>
<event>
 5   0  0.6628798E-05  0.2203738E+04  0.7818609E-02  0.8516874E-01
        2   -1    0    0  501    0  0.00000000000E+00  0.00000000000E+00  0.21580749766E+04  0.21580749766E+04  0.25500000920E-02 0.  1.
       -2   -1    0    0    0  501  0.00000000000E+00  0.00000000000E+00 -0.56259199407E+03  0.56259199407E+03  0.25500000920E-02 0. -1.
    10030    2    1    2    0    0  0.00000000000E+00  0.00000000000E+00  0.15954829825E+04  0.27206669707E+04  0.22037383733E+04 0.  0.
        4    1    3    3  502    0 -0.10360704965E+04  0.36190354711E+03  0.91931889552E+03  0.14316302231E+04  0.12699999809E+01 0. -1.
       -4    1    3    3    0  502  0.10360704965E+04 -0.36190354711E+03  0.67616408702E+03  0.12890367476E+04  0.12699999809E+01 0.  1.
</event>
<event>
 5   0  0.6293013E-05  0.2195063E+04  0.7818609E-02  0.8520486E-01
        2   -1    0    0  501    0  0.00000000000E+00  0.00000000000E+00  0.15023894286E+04  0.15023894286E+04  0.25500000920E-02 0.  1.
       -2   -1    0    0    0  501  0.00000000000E+00  0.00000000000E+00 -0.80177316091E+03  0.80177316091E+03  0.25500000920E-02 0. -1.
    10030    2    1    2    0    0  0.00000000000E+00  0.00000000000E+00  0.70061626765E+03  0.23041625895E+04  0.21950631162E+04 0.  0.
        1    1    3    3  502    0 -0.10163742842E+04 -0.29979935838E+03  0.65030850638E+03  0.12433010473E+04  0.50400001928E-02 0.  1.
       -1    1    3    3    0  502  0.10163742842E+04  0.29979935838E+03  0.50307761274E+02  0.10608615422E+04  0.50400001928E-02 0. -1.
</event>
<event>
 5   0  0.2820239E-05  0.2189079E+04  0.7818609E-02  0.8522987E-01
       -1   -1    0    0    0  501  0.00000000000E+00  0.00000000000E+00  0.12898894321E+04  0.12898894321E+04  0.50400001928E-02 0. -1.
        1   -1    0    0  501    0  0.00000000000E+00  0.00000000000E+00 -0.92877488548E+03  0.92877488550E+03  0.50400001928E-02 0.  1.
    10030    2    1    2    0    0  0.00000000000E+00  0.00000000000E+00  0.36111454660E+03  0.22186643176E+04  0.21890791759E+04 0.  0.
        3    1    3    3  502    0  0.58455725468E+03  0.68801606695E+03  0.80774498521E+03  0.12114145714E+04  0.10100000352E+00 0. -1.
       -3    1    3    3    0  502 -0.58455725468E+03 -0.68801606695E+03 -0.44663043861E+03  0.10072497462E+04  0.10100000352E+00 0.  1.
</event>
<event>
 5   0  0.2910318E-05  0.2214842E+04  0.7818609E-02  0.8512276E-01
        1   -1    0    0  501    0  0.00000000000E+00  0.00000000000E+00  0.11096958528E+04  0.11096958528E+04  0.50400001928E-02 0.  1.
       -1   -1    0    0    0  501  0.00000000000E+00  0.00000000000E+00 -0.11051503247E+04  0.11051503248E+04  0.50400001928E-02 0. -1.
    10030    2    1    2    0    0  0.00000000000E+00  0.00000000000E+00  0.45455280084E+01  0.22148461775E+04  0.22148415131E+04 0.  0.
        5    1    3    3  502    0  0.10514218526E+04  0.34753833626E+03  0.11644809022E+02  0.11074423230E+04  0.46999998093E+01 0. -1.
       -5    1    3    3    0  502 -0.10514218526E+04 -0.34753833626E+03 -0.70992810140E+01  0.11074038545E+04  0.46999998093E+01 0.  1.
</event>
<event>
 5   0  0.2820239E-05  0.2206137E+04  0.7818609E-02  0.8515878E-01
        1   -1    0    0  501    0  0.00000000000E+00  0.00000000000E+00  0.10140264893E+04  0.10140264893E+04  0.50400001928E-02 0. -1.
       -1   -1    0    0    0  501  0.00000000000E+00  0.00000000000E+00 -0.11999297833E+04  0.11999297833E+04  0.50400001928E-02 0.  1.
    10030    2    1    2    0    0  0.00000000000E+00  0.00000000000E+00 -0.18590329396E+03  0.22139562726E+04  0.22061374260E+04 0.  0.
        3    1    3    3  502    0  0.38759383105E+03 -0.80366184808E+03 -0.74383278869E+03  0.11616318572E+04  0.10100000352E+00 0.  1.
       -3    1    3    3    0  502 -0.38759383105E+03  0.80366184808E+03  0.55792949473E+03  0.10523244154E+04  0.10100000352E+00 0. -1.
</event>
<event>
 5   0  0.2910318E-05  0.1855313E+04  0.7818609E-02  0.8677425E-01
       -1   -1    0    0    0  501  0.00000000000E+00  0.00000000000E+00  0.81393734573E+03  0.81393734575E+03  0.50400001928E-02 0.  1.
        1   -1    0    0  501    0  0.00000000000E+00  0.00000000000E+00 -0.10572641798E+04  0.10572641798E+04  0.50400001928E-02 0. -1.
    10030    2    1    2    0    0  0.00000000000E+00  0.00000000000E+00 -0.24332683408E+03  0.18712015256E+04  0.18553132353E+04 0.  0.
        5    1    3    3  502    0  0.30173121872E+03  0.87159205392E+03 -0.22155844608E+03  0.94859088749E+03  0.46999998093E+01 0.  1.
       -5    1    3    3    0  502 -0.30173121872E+03 -0.87159205392E+03 -0.21768388005E+02  0.92261063809E+03  0.46999998093E+01 0. -1.
</event>
<event>
 5   0  0.6414768E-05  0.2198487E+04  0.7818609E-02  0.8519058E-01
        2   -1    0    0  501    0  0.00000000000E+00  0.00000000000E+00  0.21723018636E+04  0.21723018636E+04  0.25500000920E-02 0.  1.
       -2   -1    0    0    0  501  0.00000000000E+00  0.00000000000E+00 -0.55624691338E+03  0.55624691338E+03  0.25500000920E-02 0. -1.
    10030    2    1    2    0    0  0.00000000000E+00  0.00000000000E+00  0.16160549502E+04  0.27285487770E+04  0.21984869402E+04 0.  0.
        2    1    3    3  502    0 -0.21825240355E+02 -0.10979476803E+04  0.86845730003E+03  0.14000655455E+04  0.25500000920E-02 0.  1.
       -2    1    3    3    0  502  0.21825240355E+02  0.10979476803E+04  0.74759765017E+03  0.13284832315E+04  0.25500000920E-02 0. -1.
</event>
<event>
 5   0  0.2820239E-05  0.2281436E+04  0.7818609E-02  0.8485277E-01
        1   -1    0    0  501    0  0.00000000000E+00  0.00000000000E+00  0.17060758438E+04  0.17060758438E+04  0.50400001928E-02 0.  1.
       -1   -1    0    0    0  501  0.00000000000E+00  0.00000000000E+00 -0.76270782008E+03  0.76270782010E+03  0.50400001928E-02 0. -1.
    10030    2    1    2    0    0  0.00000000000E+00  0.00000000000E+00  0.94336802367E+03  0.24687836639E+04  0.22814358529E+04 0.  0.
        3    1    3    3  502    0  0.11255644536E+03  0.94219498720E+03  0.11567914626E+04  0.14961840948E+04  0.10100000352E+00 0.  1.
       -3    1    3    3    0  502 -0.11255644536E+03 -0.94219498720E+03 -0.21342343894E+03  0.97259956908E+03  0.10100000352E+00 0. -1.
</event>
<event>
 5   0  0.6293013E-05  0.2188575E+04  0.7818609E-02  0.8523199E-01
       -2   -1    0    0    0  501  0.00000000000E+00  0.00000000000E+00  0.12035839996E+04  0.12035839996E+04  0.25500000920E-02 0. -1.
        2   -1    0    0  501    0  0.00000000000E+00  0.00000000000E+00 -0.99491612729E+03  0.99491612729E+03  0.25500000920E-02 0.  1.
    10030    2    1    2    0    0  0.00000000000E+00  0.00000000000E+00  0.20866787227E+03  0.21985001269E+04  0.21885749991E+04 0.  0.
        1    1    3    3  502    0  0.63304817856E+03  0.54980616542E+03 -0.60201082525E+03  0.10322082395E+04  0.50400001928E-02 0.  1.
       -1    1    3    3    0  502 -0.63304817856E+03 -0.54980616542E+03  0.81067869752E+03  0.11662918874E+04  0.50400001928E-02 0. -1.
</event>
<event>
 5   0  0.6628798E-05  0.2189518E+04  0.7818609E-02  0.8522804E-01
        2   -1    0    0  501    0  0.00000000000E+00  0.00000000000E+00  0.25473479899E+04  0.25473479899E+04  0.25500000920E-02 0.  1.
       -2   -1    0    0    0  501  0.00000000000E+00  0.00000000000E+00 -0.47048816777E+03  0.47048816777E+03  0.25500000920E-02 0. -1.
    10030    2    1    2    0    0  0.00000000000E+00  0.00000000000E+00  0.20768598222E+04  0.30178361577E+04  0.21895178359E+04 0.  0.
        4    1    3    3  502    0  0.72242976610E+03  0.48048846727E+03  0.19586230318E+04  0.21421904042E+04  0.12699999809E+01 0.  1.
       -4    1    3    3    0  502 -0.72242976610E+03 -0.48048846727E+03  0.11823679032E+03  0.87564575349E+03  0.12699999809E+01 0. -1.
</event>
<event>
 5   0  0.2820239E-05  0.2197123E+04  0.7818609E-02  0.8519626E-01
       -1   -1    0    0    0  501  0.00000000000E+00  0.00000000000E+00  0.13411326399E+04  0.13411326399E+04  0.50400001928E-02 0. -1.
        1   -1    0    0  501    0  0.00000000000E+00  0.00000000000E+00 -0.89986467810E+03  0.89986467811E+03  0.50400001928E-02 0.  1.
    10030    2    1    2    0    0  0.00000000000E+00  0.00000000000E+00  0.44126796183E+03  0.22409973181E+04  0.21971234752E+04 0.  0.
        3    1    3    3  502    0  0.93737579531E+02 -0.40810391839E+03  0.12565438749E+04  0.13244765236E+04  0.10100000352E+00 0. -1.
       -3    1    3    3    0  502 -0.93737579531E+02  0.40810391839E+03 -0.81527591303E+03  0.91652079441E+03  0.10100000352E+00 0.  1.
</event>
<event>
 5   0  0.6306919E-05  0.2221513E+04  0.7818609E-02  0.8509527E-01
        2   -1    0    0  501    0  0.00000000000E+00  0.00000000000E+00  0.14585339051E+04  0.14585339051E+04  0.25500000920E-02 0.  1.
       -2   -1    0    0    0  501  0.00000000000E+00  0.00000000000E+00 -0.84590445506E+03  0.84590445506E+03  0.25500000920E-02 0. -1.
    10030    2    1    2    0    0  0.00000000000E+00  0.00000000000E+00  0.61262945008E+03  0.23044383602E+04  0.22215132934E+04 0.  0.
        3    1    3    3  502    0  0.91411551683E+03 -0.12478447650E+03  0.94795229147E+03  0.13227969991E+04  0.10100000352E+00 0.  1.
       -3    1    3    3    0  502 -0.91411551683E+03  0.12478447650E+03 -0.33532284139E+03  0.98164136111E+03  0.10100000352E+00 0. -1.
</event>
<event>
 5   0  0.6306919E-05  0.2221653E+04  0.7818609E-02  0.8509469E-01
        2   -1    0    0  501    0  0.00000000000E+00  0.00000000000E+00  0.14753313407E+04  0.14753313407E+04  0.25500000920E-02 0.  1.
       -2   -1    0    0    0  501  0.00000000000E+00  0.00000000000E+00 -0.83637856033E+03  0.83637856034E+03  0.25500000920E-02 0. -1.
    10030    2    1    2    0    0  0.00000000000E+00  0.00000000000E+00  0.63895278032E+03  0.23117099010E+04  0.22216529906E+04 0.  0.
        3    1    3    3  502    0  0.10435468706E+04  0.20974607732E+03  0.65008532060E+03  0.12472347102E+04  0.10100000352E+00 0. -1.
       -3    1    3    3    0  502 -0.10435468706E+04 -0.20974607732E+03 -0.11132540279E+02  0.10644751908E+04  0.10100000352E+00 0.  1.
</event>
<event>
 5   0  0.2929471E-05  0.2214829E+04  0.7818609E-02  0.8512281E-01
        1   -1    0    0  501    0  0.00000000000E+00  0.00000000000E+00  0.10862212956E+04  0.10862212956E+04  0.50400001928E-02 0. -1.
       -1   -1    0    0    0  501  0.00000000000E+00  0.00000000000E+00 -0.11290210951E+04  0.11290210951E+04  0.50400001928E-02 0.  1.
    10030    2    1    2    0    0  0.00000000000E+00  0.00000000000E+00 -0.42799799562E+02  0.22152423907E+04  0.22148288933E+04 0.  0.
        2    1    3    3  502    0  0.83521928111E+03  0.60306597691E+03  0.38498487377E+03  0.10997696000E+04  0.25500000920E-02 0. -1.
       -2    1    3    3    0  502 -0.83521928111E+03 -0.60306597691E+03 -0.42778467333E+03  0.11154727907E+04  0.25500000920E-02 0.  1.
</event>
<event>
 5   0  0.2910318E-05  0.2148137E+04  0.7818609E-02  0.8540330E-01
        1   -1    0    0  501    0  0.00000000000E+00  0.00000000000E+00  0.90939431056E+03  0.90939431057E+03  0.50400001928E-02 0.  1.
       -1   -1    0    0    0  501  0.00000000000E+00  0.00000000000E+00 -0.12685616467E+04  0.12685616467E+04  0.50400001928E-02 0. -1.
    10030    2    1    2    0    0  0.00000000000E+00  0.00000000000E+00 -0.35916733615E+03  0.21779559573E+04  0.21481366289E+04 0.  0.
        5    1    3    3  502    0 -0.27734050575E+03 -0.81597252592E+03  0.47030703701E+03  0.98180431769E+03  0.46999998093E+01 0.  1.
       -5    1    3    3    0  502  0.27734050575E+03  0.81597252592E+03 -0.82947437316E+03  0.11961516396E+04  0.46999998093E+01 0. -1.
</event>
<event>
 5   0  0.2908031E-05  0.2220456E+04  0.7818609E-02  0.8509962E-01
        1   -1    0    0  501    0  0.00000000000E+00  0.00000000000E+00  0.26312826192E+04  0.26312826192E+04  0.50400001928E-02 0.  1.
       -1   -1    0    0    0  501  0.00000000000E+00  0.00000000000E+00 -0.46844317262E+03  0.46844317265E+03  0.50400001928E-02 0. -1.
    10030    2    1    2    0    0  0.00000000000E+00  0.00000000000E+00  0.21628394466E+04  0.30997257918E+04  0.22204561498E+04 0.  0.
        1    1    3    3  502    0 -0.15859775882E+03 -0.99941391803E+02  0.26090296172E+04  0.26157555456E+04  0.50400001928E-02 0.  1.
       -1    1    3    3    0  502  0.15859775882E+03  0.99941391803E+02 -0.44619017061E+03  0.48397024627E+03  0.50400001928E-02 0. -1.
</event>
<event>
 5   0  0.6445740E-05  0.2163513E+04  0.7818609E-02  0.8533770E-01
       -2   -1    0    0    0  501  0.00000000000E+00  0.00000000000E+00  0.73632593977E+03  0.73632593978E+03  0.25500000920E-02 0. -1.
        2   -1    0    0  501    0  0.00000000000E+00  0.00000000000E+00 -0.15892377269E+04  0.15892377269E+04  0.25500000920E-02 0.  1.
    10030    2    1    2    0    0  0.00000000000E+00  0.00000000000E+00 -0.85291178711E+03  0.23255636667E+04  0.21635128498E+04 0.  0.
        5    1    3    3  502    0  0.62167545807E+03 -0.86050519789E+03 -0.20297635142E+03  0.10808196242E+04  0.46999998093E+01 0. -1.
       -5    1    3    3    0  502 -0.62167545807E+03  0.86050519789E+03 -0.64993543570E+03  0.12447440425E+04  0.46999998093E+01 0.  1.
</event>
<event>
 5   0  0.6306919E-05  0.2157615E+04  0.7818609E-02  0.8536280E-01
        2   -1    0    0  501    0  0.00000000000E+00  0.00000000000E+00  0.18789181425E+04  0.18789181425E+04  0.25500000920E-02 0. -1.
       -2   -1    0    0    0  501  0.00000000000E+00  0.00000000000E+00 -0.61941265429E+03  0.61941265429E+03  0.25500000920E-02 0.  1.
    10030    2    1    2    0    0  0.00000000000E+00  0.00000000000E+00  0.12595054882E+04  0.24983307968E+04  0.21576150480E+04 0.  0.
        3    1    3    3  502    0  0.48855982255E+03 -0.58089408563E+03  0.15174251613E+04  0.16966755050E+04  0.10100000352E+00 0. -1.
       -3    1    3    3    0  502 -0.48855982255E+03  0.58089408563E+03 -0.25791967307E+03  0.80165529181E+03  0.10100000352E+00 0.  1.
</event>
<event>
 5   0  0.6628798E-05  0.2292857E+04  0.7818609E-02  0.8480743E-01
       -2   -1    0    0    0  501  0.00000000000E+00  0.00000000000E+00  0.10871942205E+04  0.10871942205E+04  0.25500000920E-02 0. -1.
        2   -1    0    0  501    0  0.00000000000E+00  0.00000000000E+00 -0.12088901701E+04  0.12088901701E+04  0.25500000920E-02 0.  1.
    10030    2    1    2    0    0  0.00000000000E+00  0.00000000000E+00 -0.12169594960E+03  0.22960843907E+04  0.22928570878E+04 0.  0.
        4    1    3    3  502    0  0.32337043956E+03 -0.67410527740E+03  0.80946127632E+03  0.11019144871E+04  0.12699999809E+01 0. -1.
       -4    1    3    3    0  502 -0.32337043956E+03  0.67410527740E+03 -0.93115722592E+03  0.11941699035E+04  0.12699999809E+01 0.  1.
</event>
<event>
 5   0  0.6306919E-05  0.2215711E+04  0.7818609E-02  0.8511917E-01
       -2   -1    0    0    0  501  0.00000000000E+00  0.00000000000E+00  0.58155453987E+03  0.58155453987E+03  0.25500000920E-02 0. -1.
        2   -1    0    0  501    0  0.00000000000E+00  0.00000000000E+00 -0.21104530396E+04  0.21104530396E+04  0.25500000920E-02 0.  1.
    10030    2    1    2    0    0  0.00000000000E+00  0.00000000000E+00 -0.15288984997E+04  0.26920075794E+04  0.22157107630E+04 0.  0.
        3    1    3    3  502    0  0.42471543792E+03  0.48664986180E+03 -0.18580056084E+04  0.19670780722E+04  0.10100000352E+00 0.  1.
       -3    1    3    3    0  502 -0.42471543792E+03 -0.48664986180E+03  0.32910710872E+03  0.72492950719E+03  0.10100000352E+00 0. -1.
</event>
<event>
 5   0  0.2910318E-05  0.2200421E+04  0.7818609E-02  0.8518253E-01
        1   -1    0    0  501    0  0.00000000000E+00  0.00000000000E+00  0.18630945996E+04  0.18630945996E+04  0.50400001928E-02 0.  1.
       -1   -1    0    0    0  501  0.00000000000E+00  0.00000000000E+00 -0.64970581711E+03  0.64970581713E+03  0.50400001928E-02 0. -1.
    10030    2    1    2    0    0  0.00000000000E+00  0.00000000000E+00  0.12133887825E+04  0.25128004167E+04  0.22004212317E+04 0.  0.
        5    1    3    3  502    0 -0.23533944960E+03  0.10269793111E+04  0.24490614848E+03  0.10816987906E+04  0.46999998093E+01 0. -1.
       -5    1    3    3    0  502  0.23533944960E+03 -0.10269793111E+04  0.96848263398E+03  0.14311016261E+04  0.46999998093E+01 0.  1.
</event>
<event>
 5   0  0.2753631E-05  0.2163652E+04  0.7818609E-02  0.8533711E-01
       -1   -1    0    0    0  501  0.00000000000E+00  0.00000000000E+00  0.93301648511E+03  0.93301648513E+03  0.50400001928E-02 0.  1.
        1   -1    0    0  501    0  0.00000000000E+00  0.00000000000E+00 -0.12543697326E+04  0.12543697326E+04  0.50400001928E-02 0. -1.
    10030    2    1    2    0    0  0.00000000000E+00  0.00000000000E+00 -0.32135324752E+03  0.21873862178E+04  0.21636521338E+04 0.  0.
        4    1    3    3  502    0 -0.56515202239E+03  0.78462261068E+03 -0.65109224436E+03  0.11657410404E+04  0.12699999809E+01 0. -1.
       -4    1    3    3    0  502  0.56515202239E+03 -0.78462261068E+03  0.32973899684E+03  0.10216451774E+04  0.12699999809E+01 0.  1.
</event>
<event>
 5   0  0.2910318E-05  0.2058587E+04  0.7818609E-02  0.8579709E-01
        1   -1    0    0  501    0  0.00000000000E+00  0.00000000000E+00  0.11902751831E+04  0.11902751831E+04  0.50400001928E-02 0. -1.
       -1   -1    0    0    0  501  0.00000000000E+00  0.00000000000E+00 -0.89008424824E+03  0.89008424825E+03  0.50400001928E-02 0.  1.
    10030    2    1    2    0    0  0.00000000000E+00  0.00000000000E+00  0.30019093490E+03  0.20803594314E+04  0.20585870801E+04 0.  0.
        5    1    3    3  502    0  0.66494252038E+03 -0.32630655540E+03 -0.57216521376E+03  0.93595921136E+03  0.46999998093E+01 0.  1.
       -5    1    3    3    0  502 -0.66494252038E+03  0.32630655540E+03  0.87235614866E+03  0.11444002200E+04  0.46999998093E+01 0. -1.
</event>
<event>
 5   0  0.2753631E-05  0.2209782E+04  0.7818609E-02  0.8514368E-01
       -1   -1    0    0    0  501  0.00000000000E+00  0.00000000000E+00  0.78575910363E+03  0.78575910365E+03  0.50400001928E-02 0.  1.
        1   -1    0    0  501    0  0.00000000000E+00  0.00000000000E+00 -0.15536369288E+04  0.15536369288E+04  0.50400001928E-02 0. -1.
    10030    2    1    2    0    0  0.00000000000E+00  0.00000000000E+00 -0.76787782515E+03  0.23393960324E+04  0.22097822160E+04 0.  0.
        4    1    3    3  502    0 -0.70208851556E+03  0.45689270011E+03 -0.11466872395E+04  0.14200607245E+04  0.12699999809E+01 0. -1.
       -4    1    3    3    0  502  0.70208851556E+03 -0.45689270011E+03  0.37880941437E+03  0.91933530793E+03  0.12699999809E+01 0.  1.
</event>
<event>
 5   0  0.6306919E-05  0.2216909E+04  0.7818609E-02  0.8511423E-01
       -2   -1    0    0    0  501  0.00000000000E+00  0.00000000000E+00  0.13559262705E+04  0.13559262705E+04  0.25500000920E-02 0.  1.
        2   -1    0    0  501    0  0.00000000000E+00  0.00000000000E+00 -0.90614925119E+03  0.90614925119E+03  0.25500000920E-02 0. -1.
    10030    2    1    2    0    0  0.00000000000E+00  0.00000000000E+00  0.44977701932E+03  0.22620755217E+04  0.22169091769E+04 0.  0.
        3    1    3    3  502    0  0.68771930422E+03 -0.62843830012E+03 -0.38799768643E+03  0.10091752838E+04  0.10100000352E+00 0. -1.
       -3    1    3    3    0  502 -0.68771930422E+03  0.62843830012E+03  0.83777470575E+03  0.12529002380E+04  0.10100000352E+00 0.  1.
</event>
<event>
 5   0  0.2820239E-05  0.2178568E+04  0.7818609E-02  0.8527402E-01
       -1   -1    0    0    0  501  0.00000000000E+00  0.00000000000E+00  0.76964514815E+03  0.76964514816E+03  0.50400001928E-02 0. -1.
        1   -1    0    0  501    0  0.00000000000E+00  0.00000000000E+00 -0.15416710588E+04  0.15416710588E+04  0.50400001928E-02 0.  1.
    10030    2    1    2    0    0  0.00000000000E+00  0.00000000000E+00 -0.77202591065E+03  0.23113162070E+04  0.21785680164E+04 0.  0.
        3    1    3    3  502    0 -0.17996093133E+03  0.23633756624E+03  0.72584264667E+03  0.78427606106E+03  0.10100000352E+00 0. -1.
       -3    1    3    3    0  502  0.17996093133E+03 -0.23633756624E+03 -0.14978685573E+04  0.15270401459E+04  0.10100000352E+00 0.  1.
</event>
<event>
 5   0  0.6445740E-05  0.2245232E+04  0.7818609E-02  0.8499834E-01
       -2   -1    0    0    0  501  0.00000000000E+00  0.00000000000E+00  0.99171444018E+03  0.99171444018E+03  0.25500000920E-02 0.  1.
        2   -1    0    0  501    0  0.00000000000E+00  0.00000000000E+00 -0.12707956391E+04  0.12707956391E+04  0.25500000920E-02 0. -1.
    10030    2    1    2    0    0  0.00000000000E+00  0.00000000000E+00 -0.27908119896E+03  0.22625100793E+04  0.22452317349E+04 0.  0.
        5    1    3    3  502    0  0.33959621747E+03  0.95140905036E+03  0.35385942847E+03  0.10703940196E+04  0.46999998093E+01 0.  1.
       -5    1    3    3    0  502 -0.33959621747E+03 -0.95140905036E+03 -0.63294062744E+03  0.11921160597E+04  0.46999998093E+01 0. -1.
</event>
<event>
 5   0  0.6306919E-05  0.2194858E+04  0.7818609E-02  0.8520572E-01
       -2   -1    0    0    0  501  0.00000000000E+00  0.00000000000E+00  0.50817329696E+03  0.50817329697E+03  0.25500000920E-02 0.  1.
        2   -1    0    0  501    0  0.00000000000E+00  0.00000000000E+00 -0.23699590871E+04  0.23699590871E+04  0.25500000920E-02 0. -1.
    10030    2    1    2    0    0  0.00000000000E+00  0.00000000000E+00 -0.18617857901E+04  0.28781323841E+04  0.21948575562E+04 0.  0.
        3    1    3    3  502    0 -0.13595576869E+03 -0.58364643974E+03  0.27467041230E+03  0.65921998093E+03  0.10100000352E+00 0.  1.
       -3    1    3    3    0  502  0.13595576869E+03  0.58364643974E+03 -0.21364562024E+04  0.22189124031E+04  0.10100000352E+00 0. -1.
</event>
<event>
 5   0  0.2820239E-05  0.2186420E+04  0.7818609E-02  0.8524102E-01
        1   -1    0    0  501    0  0.00000000000E+00  0.00000000000E+00  0.25428220126E+04  0.25428220126E+04  0.50400001928E-02 0.  1.
       -1   -1    0    0    0  501  0.00000000000E+00  0.00000000000E+00 -0.46999269386E+03  0.46999269389E+03  0.50400001928E-02 0. -1.
    10030    2    1    2    0    0  0.00000000000E+00  0.00000000000E+00  0.20728293188E+04  0.30128147065E+04  0.21864196924E+04 0.  0.
        3    1    3    3  502    0 -0.40017849725E+03 -0.85352653200E+03  0.17992379413E+04  0.20312330123E+04  0.10100000352E+00 0.  1.
       -3    1    3    3    0  502  0.40017849725E+03  0.85352653200E+03  0.27359137746E+03  0.98158169426E+03  0.10100000352E+00 0. -1.
</event>
<event>
 5   0  0.6628798E-05  0.2187429E+04  0.7818609E-02  0.8523679E-01
        2   -1    0    0  501    0  0.00000000000E+00  0.00000000000E+00  0.28755828539E+04  0.28755828539E+04  0.25500000920E-02 0. -1.
       -2   -1    0    0    0  501  0.00000000000E+00  0.00000000000E+00 -0.41598916959E+03  0.41598916960E+03  0.25500000920E-02 0.  1.
    10030    2    1    2    0    0  0.00000000000E+00  0.00000000000E+00  0.24595936843E+04  0.32915720235E+04  0.21874289232E+04 0.  0.
        4    1    3    3  502    0  0.61869979143E+03  0.88192902052E+03  0.15138014595E+04  0.18580055707E+04  0.12699999809E+01 0. -1.
       -4    1    3    3    0  502 -0.61869979143E+03 -0.88192902052E+03  0.94579222484E+03  0.14335664528E+04  0.12699999809E+01 0.  1.
</event>
<event>
 5   0  0.2245375E-05  0.2046857E+04  0.7818609E-02  0.8585022E-01
       -4   -1    0    0    0  501  0.00000000000E+00  0.00000000000E+00  0.66483174408E+03  0.66483295709E+03  0.12699999809E+01 0. -1.
        4   -1    0    0  501    0  0.00000000000E+00  0.00000000000E+00 -0.15754419233E+04  0.15754424352E+04  0.12699999809E+01 0.  1.
    10030    2    1    2    0    0  0.00000000000E+00  0.00000000000E+00 -0.91061017921E+03  0.22402753923E+04  0.20468568428E+04 0.  0.
        4    1    3    3  502    0  0.82377558172E+02  0.10193117199E+04 -0.49938046508E+03  0.11380531210E+04  0.12699999809E+01 0.  1.
       -4    1    3    3    0  502 -0.82377558172E+02 -0.10193117199E+04 -0.41122971412E+03  0.11022222712E+04  0.12699999809E+01 0. -1.
</event>
<event>
 5   0  0.2929471E-05  0.2215309E+04  0.7818609E-02  0.8512083E-01
       -1   -1    0    0    0  501  0.00000000000E+00  0.00000000000E+00  0.50039711789E+03  0.50039711792E+03  0.50400001928E-02 0.  1.
        1   -1    0    0  501    0  0.00000000000E+00  0.00000000000E+00 -0.24518489013E+04  0.24518489013E+04  0.50400001928E-02 0. -1.
    10030    2    1    2    0    0  0.00000000000E+00  0.00000000000E+00 -0.19514517834E+04  0.29522460192E+04  0.22153086681E+04 0.  0.
        2    1    3    3  502    0 -0.87518610867E+03 -0.78352496640E+02 -0.18744626044E+04  0.20701932020E+04  0.25500000920E-02 0. -1.
       -2    1    3    3    0  502  0.87518610867E+03  0.78352496640E+02 -0.76989178991E+02  0.88205281714E+03  0.25500000920E-02 0.  1.
</event>
<event>
 5   0  0.2753631E-05  0.2150755E+04  0.7818609E-02  0.8539209E-01
        1   -1    0    0  501    0  0.00000000000E+00  0.00000000000E+00  0.15848874528E+04  0.15848874528E+04  0.50400001928E-02 0. -1.
       -1   -1    0    0    0  501  0.00000000000E+00  0.00000000000E+00 -0.72966482924E+03  0.72966482926E+03  0.50400001928E-02 0.  1.
    10030    2    1    2    0    0  0.00000000000E+00  0.00000000000E+00  0.85522262354E+03  0.23145522821E+04  0.21507548746E+04 0.  0.
        4    1    3    3  502    0 -0.51291266868E+03  0.37797677890E+03  0.13598954467E+04  0.15017533386E+04  0.12699999809E+01 0. -1.
       -4    1    3    3    0  502  0.51291266868E+03 -0.37797677890E+03 -0.50467282320E+03  0.81279894344E+03  0.12699999809E+01 0.  1.
</event>
<event>
 5   0  0.2820239E-05  0.2205525E+04  0.7818609E-02  0.8516132E-01
       -1   -1    0    0    0  501  0.00000000000E+00  0.00000000000E+00  0.11264691472E+04  0.11264691472E+04  0.50400001928E-02 0.  1.
        1   -1    0    0  501    0  0.00000000000E+00  0.00000000000E+00 -0.10795542948E+04  0.10795542948E+04  0.50400001928E-02 0. -1.
    10030    2    1    2    0    0  0.00000000000E+00  0.00000000000E+00  0.46914852405E+02  0.22060234420E+04  0.22055245234E+04 0.  0.
        3    1    3    3  502    0 -0.60830715462E+03 -0.24505611580E+03  0.91022128775E+03  0.11218702675E+04  0.10100000352E+00 0.  1.
       -3    1    3    3    0  502  0.60830715462E+03  0.24505611580E+03 -0.86330643535E+03  0.10841531745E+04  0.10100000352E+00 0. -1.
</event>
<event>
 5   0  0.2910318E-05  0.2288357E+04  0.7818609E-02  0.8482526E-01
        1   -1    0    0  501    0  0.00000000000E+00  0.00000000000E+00  0.17202110457E+04  0.17202110457E+04  0.50400001928E-02 0. -1.
       -1   -1    0    0    0  501  0.00000000000E+00  0.00000000000E+00 -0.76103735956E+03  0.76103735958E+03  0.50400001928E-02 0.  1.
    10030    2    1    2    0    0  0.00000000000E+00  0.00000000000E+00  0.95917368611E+03  0.24812484053E+04  0.22883573778E+04 0.  0.
        5    1    3    3  502    0 -0.77322394649E+03  0.64450715809E+03  0.10693641774E+04  0.14686138302E+04  0.46999998093E+01 0. -1.
       -5    1    3    3    0  502  0.77322394649E+03 -0.64450715809E+03 -0.11019049131E+03  0.10126345751E+04  0.46999998093E+01 0.  1.
</event>
<event>
 5   0  0.6306919E-05  0.2095439E+04  0.7818609E-02  0.8563255E-01
       -2   -1    0    0    0  501  0.00000000000E+00  0.00000000000E+00  0.10673277334E+04  0.10673277334E+04  0.25500000920E-02 0. -1.
        2   -1    0    0  501    0  0.00000000000E+00  0.00000000000E+00 -0.10284717952E+04  0.10284717952E+04  0.25500000920E-02 0.  1.
    10030    2    1    2    0    0  0.00000000000E+00  0.00000000000E+00  0.38855938187E+02  0.20957995286E+04  0.20954393048E+04 0.  0.
        3    1    3    3  502    0 -0.82749313718E+03 -0.33023564321E+03 -0.53195256025E+03  0.10376772180E+04  0.10100000352E+00 0.  1.
       -3    1    3    3    0  502  0.82749313718E+03  0.33023564321E+03  0.57080849844E+03  0.10581223106E+04  0.10100000352E+00 0. -1.
</event>
<event>
 5   0  0.2908031E-05  0.2169455E+04  0.7818609E-02  0.8531250E-01
        1   -1    0    0  501    0  0.00000000000E+00  0.00000000000E+00  0.13834911993E+04  0.13834911994E+04  0.50400001928E-02 0. -1.
       -1   -1    0    0    0  501  0.00000000000E+00  0.00000000000E+00 -0.85048118423E+03  0.85048118424E+03  0.50400001928E-02 0.  1.
    10030    2    1    2    0    0  0.00000000000E+00  0.00000000000E+00  0.53301001512E+03  0.22339723836E+04  0.21694545246E+04 0.  0.
        1    1    3    3  502    0  0.85885259099E+03 -0.35354916137E+02  0.94781231955E+03  0.12795412992E+04  0.50400001928E-02 0. -1.
       -1    1    3    3    0  502 -0.85885259099E+03  0.35354916137E+02 -0.41480230444E+03  0.95443108443E+03  0.50400001928E-02 0.  1.
</event>
<event>
 5   0  0.6293013E-05  0.2166213E+04  0.7818609E-02  0.8532624E-01
       -2   -1    0    0    0  501  0.00000000000E+00  0.00000000000E+00  0.45879831194E+03  0.45879831195E+03  0.25500000920E-02 0. -1.
        2   -1    0    0  501    0  0.00000000000E+00  0.00000000000E+00 -0.25569401698E+04  0.25569401698E+04  0.25500000920E-02 0.  1.
    10030    2    1    2    0    0  0.00000000000E+00  0.00000000000E+00 -0.20981418579E+04  0.30157384818E+04  0.21662131323E+04 0.  0.
        1    1    3    3  502    0 -0.43993585608E+02  0.72955384653E+03  0.63739100065E+02  0.73365313566E+03  0.50400001928E-02 0. -1.
       -1    1    3    3    0  502  0.43993585608E+02 -0.72955384653E+03 -0.21618809579E+04  0.22820853461E+04  0.50400001928E-02 0.  1.
</event>
<event>
 5   0  0.2820239E-05  0.2212182E+04  0.7818609E-02  0.8513375E-01
       -1   -1    0    0    0  501  0.00000000000E+00  0.00000000000E+00  0.92204058845E+03  0.92204058846E+03  0.50400001928E-02 0. -1.
        1   -1    0    0  501    0  0.00000000000E+00  0.00000000000E+00 -0.13268806763E+04  0.13268806763E+04  0.50400001928E-02 0.  1.
    10030    2    1    2    0    0  0.00000000000E+00  0.00000000000E+00 -0.40484008781E+03  0.22489212647E+04  0.22121824876E+04 0.  0.
        3    1    3    3  502    0  0.62131776569E+03 -0.82284758553E+03  0.20463435738E+03  0.10511846391E+04  0.10100000352E+00 0. -1.
       -3    1    3    3    0  502 -0.62131776569E+03  0.82284758553E+03 -0.60947444519E+03  0.11977366257E+04  0.10100000352E+00 0.  1.
</event>
<event>
 5   0  0.2929471E-05  0.2204780E+04  0.7818609E-02  0.8516441E-01
       -1   -1    0    0    0  501  0.00000000000E+00  0.00000000000E+00  0.13036213006E+04  0.13036213006E+04  0.50400001928E-02 0.  1.
        1   -1    0    0  501    0  0.00000000000E+00  0.00000000000E+00 -0.93222184560E+03  0.93222184562E+03  0.50400001928E-02 0. -1.
    10030    2    1    2    0    0  0.00000000000E+00  0.00000000000E+00  0.37139945497E+03  0.22358431462E+04  0.22047804923E+04 0.  0.
        2    1    3    3  502    0  0.44112654279E+03  0.77240105769E+03 -0.47468017220E+03  0.10082248194E+04  0.25500000920E-02 0. -1.
       -2    1    3    3    0  502 -0.44112654279E+03 -0.77240105769E+03  0.84607962717E+03  0.12276183268E+04  0.25500000920E-02 0.  1.
</event>
<event>
 5   0  0.2910318E-05  0.2220838E+04  0.7818609E-02  0.8509805E-01
        1   -1    0    0  501    0  0.00000000000E+00  0.00000000000E+00  0.12951327256E+04  0.12951327256E+04  0.50400001928E-02 0. -1.
       -1   -1    0    0    0  501  0.00000000000E+00  0.00000000000E+00 -0.95204943924E+03  0.95204943926E+03  0.50400001928E-02 0.  1.
    10030    2    1    2    0    0  0.00000000000E+00  0.00000000000E+00  0.34308328633E+03  0.22471821648E+04  0.22208380267E+04 0.  0.
        5    1    3    3  502    0 -0.71425338944E+03 -0.67077999926E+03  0.70014121753E+03  0.12042937873E+04  0.46999998093E+01 0. -1.
       -5    1    3    3    0  502  0.71425338944E+03  0.67077999926E+03 -0.35705793119E+03  0.10428883775E+04  0.46999998093E+01 0.  1.
</event>
<event>
 5   0  0.6445740E-05  0.2198101E+04  0.7818609E-02  0.8519219E-01
        2   -1    0    0  501    0  0.00000000000E+00  0.00000000000E+00  0.22622966935E+04  0.22622966935E+04  0.25500000920E-02 0. -1.
       -2   -1    0    0    0  501  0.00000000000E+00  0.00000000000E+00 -0.53393176074E+03  0.53393176075E+03  0.25500000920E-02 0.  1.
    10030    2    1    2    0    0  0.00000000000E+00  0.00000000000E+00  0.17283649328E+04  0.27962284543E+04  0.21981010504E+04 0.  0.
        5    1    3    3  502    0  0.35908239327E+03 -0.57240120294E+03 -0.23845721498E+03  0.71656628141E+03  0.46999998093E+01 0.  1.
       -5    1    3    3    0  502 -0.35908239327E+03  0.57240120294E+03  0.19668221478E+04  0.20796621729E+04  0.46999998093E+01 0. -1.
</event>
<event>
 5   0  0.6445740E-05  0.2221020E+04  0.7818609E-02  0.8509730E-01
        2   -1    0    0  501    0  0.00000000000E+00  0.00000000000E+00  0.14715270898E+04  0.14715270898E+04  0.25500000920E-02 0.  1.
       -2   -1    0    0    0  501  0.00000000000E+00  0.00000000000E+00 -0.83806317998E+03  0.83806317998E+03  0.25500000920E-02 0. -1.
    10030    2    1    2    0    0  0.00000000000E+00  0.00000000000E+00  0.63346390983E+03  0.23095902698E+04  0.22210201911E+04 0.  0.
        5    1    3    3  502    0  0.10211547491E+04 -0.15697338428E+03  0.74017169531E+03  0.12709342601E+04  0.46999998093E+01 0.  1.
       -5    1    3    3    0  502 -0.10211547491E+04  0.15697338428E+03 -0.10670778547E+03  0.10386560097E+04  0.46999998093E+01 0. -1.
</event>
<event>
 5   0  0.6445740E-05  0.2018672E+04  0.7818609E-02  0.8597940E-01
       -2   -1    0    0    0  501  0.00000000000E+00  0.00000000000E+00  0.76817880463E+03  0.76817880464E+03  0.25500000920E-02 0. -1.
        2   -1    0    0  501    0  0.00000000000E+00  0.00000000000E+00 -0.13262004547E+04  0.13262004547E+04  0.25500000920E-02 0.  1.
    10030    2    1    2    0    0  0.00000000000E+00  0.00000000000E+00 -0.55802165004E+03  0.20943792593E+04  0.20186719198E+04 0.  0.
        5    1    3    3  502    0  0.33591149021E+03 -0.10133381108E+03 -0.12608816777E+04  0.13087970682E+04  0.46999998093E+01 0.  1.
       -5    1    3    3    0  502 -0.33591149021E+03  0.10133381108E+03  0.70286002767E+03  0.78558219113E+03  0.46999998093E+01 0. -1.
</event>
<event>
 5   0  0.2753631E-05  0.2205363E+04  0.7818609E-02  0.8516199E-01
       -1   -1    0    0    0  501  0.00000000000E+00  0.00000000000E+00  0.13217359764E+04  0.13217359764E+04  0.50400001928E-02 0. -1.
        1   -1    0    0  501    0  0.00000000000E+00  0.00000000000E+00 -0.91993117766E+03  0.91993117767E+03  0.50400001928E-02 0.  1.
    10030    2    1    2    0    0  0.00000000000E+00  0.00000000000E+00  0.40180479875E+03  0.22416671541E+04  0.22053626762E+04 0.  0.
        4    1    3    3  502    0  0.75556681171E+02 -0.59291454936E+03 -0.74098437991E+03  0.95200627050E+03  0.12699999809E+01 0.  1.
       -4    1    3    3    0  502 -0.75556681171E+02  0.59291454936E+03  0.11427891787E+04  0.12896608836E+04  0.12699999809E+01 0. -1.
</event>
<event>
 5   0  0.6414768E-05  0.2240887E+04  0.7818609E-02  0.8501600E-01
       -2   -1    0    0    0  501  0.00000000000E+00  0.00000000000E+00  0.68812178704E+03  0.68812178704E+03  0.25500000920E-02 0. -1.
        2   -1    0    0  501    0  0.00000000000E+00  0.00000000000E+00 -0.18243776165E+04  0.18243776165E+04  0.25500000920E-02 0.  1.
    10030    2    1    2    0    0  0.00000000000E+00  0.00000000000E+00 -0.11362558294E+04  0.25124994035E+04  0.22408873115E+04 0.  0.
        2    1    3    3  502    0 -0.37812759203E+03  0.43787491311E+03  0.50769325274E+03  0.76971900995E+03  0.25500000920E-02 0. -1.
       -2    1    3    3    0  502  0.37812759203E+03 -0.43787491311E+03 -0.16439490822E+04  0.17427803936E+04  0.25500000920E-02 0.  1.
</event>
<event>
 5   0  0.6306919E-05  0.2356670E+04  0.7818609E-02  0.8455906E-01
       -2   -1    0    0    0  501  0.00000000000E+00  0.00000000000E+00  0.92772520746E+03  0.92772520747E+03  0.25500000920E-02 0. -1.
        2   -1    0    0  501    0  0.00000000000E+00  0.00000000000E+00 -0.14966425475E+04  0.14966425475E+04  0.25500000920E-02 0.  1.
    10030    2    1    2    0    0  0.00000000000E+00  0.00000000000E+00 -0.56891734004E+03  0.24243677550E+04  0.23566696993E+04 0.  0.
        3    1    3    3  502    0  0.79448364796E+02  0.10056650718E+04 -0.91088340688E+03  0.13591846344E+04  0.10100000352E+00 0.  1.
       -3    1    3    3    0  502 -0.79448364796E+02 -0.10056650718E+04  0.34196606683E+03  0.10651831206E+04  0.10100000352E+00 0. -1.
</event>
<event>
 5   0  0.2908031E-05  0.2211284E+04  0.7818609E-02  0.8513746E-01
        1   -1    0    0  501    0  0.00000000000E+00  0.00000000000E+00  0.71086583461E+03  0.71086583463E+03  0.50400001928E-02 0. -1.
       -1   -1    0    0    0  501  0.00000000000E+00  0.00000000000E+00 -0.17196556075E+04  0.17196556075E+04  0.50400001928E-02 0.  1.
    10030    2    1    2    0    0  0.00000000000E+00  0.00000000000E+00 -0.10087897728E+04  0.24305214421E+04  0.22112841687E+04 0.  0.
        1    1    3    3  502    0 -0.39021030398E+03  0.47571800195E+03  0.50530747950E+03  0.79618298624E+03  0.50400001928E-02 0.  1.
       -1    1    3    3    0  502  0.39021030398E+03 -0.47571800195E+03 -0.15140972523E+04  0.16343384559E+04  0.50400001928E-02 0. -1.
</event>
<event>
 5   0  0.6306919E-05  0.2205116E+04  0.7818609E-02  0.8516302E-01
       -2   -1    0    0    0  501  0.00000000000E+00  0.00000000000E+00  0.15110969973E+04  0.15110969973E+04  0.25500000920E-02 0.  1.
        2   -1    0    0  501    0  0.00000000000E+00  0.00000000000E+00 -0.80447126055E+03  0.80447126056E+03  0.25500000920E-02 0. -1.
    10030    2    1    2    0    0  0.00000000000E+00  0.00000000000E+00  0.70662573678E+03  0.23155682579E+04  0.22051159664E+04 0.  0.
        3    1    3    3  502    0 -0.52472709204E+03  0.12982680100E+03 -0.65577882387E+03  0.84984668936E+03  0.10100000352E+00 0. -1.
       -3    1    3    3    0  502  0.52472709204E+03 -0.12982680100E+03  0.13624045607E+04  0.14657215685E+04  0.10100000352E+00 0.  1.
</event>
<event>
 5   0  0.2753631E-05  0.2247602E+04  0.7818609E-02  0.8498872E-01
       -1   -1    0    0    0  501  0.00000000000E+00  0.00000000000E+00  0.10028652716E+04  0.10028652716E+04  0.50400001928E-02 0. -1.
        1   -1    0    0  501    0  0.00000000000E+00  0.00000000000E+00 -0.12593205598E+04  0.12593205598E+04  0.50400001928E-02 0.  1.
    10030    2    1    2    0    0  0.00000000000E+00  0.00000000000E+00 -0.25645528819E+03  0.22621858315E+04  0.22476021492E+04 0.  0.
        4    1    3    3  502    0 -0.42219010162E+03 -0.69361128782E+03  0.65372142916E+03  0.10424463633E+04  0.12699999809E+01 0.  1.
       -4    1    3    3    0  502  0.42219010162E+03  0.69361128782E+03 -0.91017671736E+03  0.12197394682E+04  0.12699999809E+01 0. -1.
</event>
<event>
 5   0  0.6445740E-05  0.2174507E+04  0.7818609E-02  0.8529114E-01
       -2   -1    0    0    0  501  0.00000000000E+00  0.00000000000E+00  0.63639539967E+03  0.63639539968E+03  0.25500000920E-02 0. -1.
        2   -1    0    0  501    0  0.00000000000E+00  0.00000000000E+00 -0.18575244488E+04  0.18575244488E+04  0.25500000920E-02 0.  1.
    10030    2    1    2    0    0  0.00000000000E+00  0.00000000000E+00 -0.12211290492E+04  0.24939198485E+04  0.21745068535E+04 0.  0.
        5    1    3    3  502    0 -0.10817579764E+03  0.66314372760E+03 -0.15908946276E+04  0.17269711673E+04  0.46999998093E+01 0.  1.
       -5    1    3    3    0  502  0.10817579764E+03 -0.66314372760E+03  0.36976557841E+03  0.76694868122E+03  0.46999998093E+01 0. -1.
</event>
<event>
 5   0  0.2820239E-05  0.2192276E+04  0.7818609E-02  0.8521650E-01
        1   -1    0    0  501    0  0.00000000000E+00  0.00000000000E+00  0.77649234807E+03  0.77649234809E+03  0.50400001928E-02 0.  1.
       -1   -1    0    0    0  501  0.00000000000E+00  0.00000000000E+00 -0.15473667161E+04  0.15473667161E+04  0.50400001928E-02 0. -1.
    10030    2    1    2    0    0  0.00000000000E+00  0.00000000000E+00 -0.77087436807E+03  0.23238590642E+04  0.21922759085E+04 0.  0.
        3    1    3    3  502    0  0.29280639646E+03  0.56567113010E+03 -0.13310563513E+04  0.14756118846E+04  0.10100000352E+00 0. -1.
       -3    1    3    3    0  502 -0.29280639646E+03 -0.56567113010E+03  0.56018198328E+03  0.84824717967E+03  0.10100000352E+00 0.  1.
</event>
<event>
 5   0  0.6414768E-05  0.2216140E+04  0.7818609E-02  0.8511740E-01
        2   -1    0    0  501    0  0.00000000000E+00  0.00000000000E+00  0.14213730780E+04  0.14213730780E+04  0.25500000920E-02 0. -1.
       -2   -1    0    0    0  501  0.00000000000E+00  0.00000000000E+00 -0.86382631691E+03  0.86382631691E+03  0.25500000920E-02 0.  1.
    10030    2    1    2    0    0  0.00000000000E+00  0.00000000000E+00  0.55754676107E+03  0.22851993949E+04  0.22161403123E+04 0.  0.
        2    1    3    3  502    0 -0.57192869180E+03  0.89910950444E+03 -0.34535514578E+02  0.10661580705E+04  0.25500000920E-02 0. -1.
       -2    1    3    3    0  502  0.57192869180E+03 -0.89910950444E+03  0.59208227565E+03  0.12190413244E+04  0.25500000920E-02 0.  1.
</event>
<event>
 5   0  0.2910318E-05  0.2208700E+04  0.7818609E-02  0.8514816E-01
        1   -1    0    0  501    0  0.00000000000E+00  0.00000000000E+00  0.23683053464E+04  0.23683053464E+04  0.50400001928E-02 0.  1.
       -1   -1    0    0    0  501  0.00000000000E+00  0.00000000000E+00 -0.51496262584E+03  0.51496262586E+03  0.50400001928E-02 0. -1.
    10030    2    1    2    0    0  0.00000000000E+00  0.00000000000E+00  0.18533427206E+04  0.28832679723E+04  0.22086998348E+04 0.  0.
        5    1    3    3  502    0 -0.16365281971E+03 -0.10693500002E+04  0.63689593987E+03  0.12553685501E+04  0.46999998093E+01 0. -1.
       -5    1    3    3    0  502  0.16365281971E+03  0.10693500002E+04  0.12164467807E+04  0.16278994222E+04  0.46999998093E+01 0.  1.
</event>
<event>
 5   0  0.2929471E-05  0.2181378E+04  0.7818609E-02  0.8526219E-01
        1   -1    0    0  501    0  0.00000000000E+00  0.00000000000E+00  0.10926924632E+04  0.10926924632E+04  0.50400001928E-02 0. -1.
       -1   -1    0    0    0  501  0.00000000000E+00  0.00000000000E+00 -0.10886894659E+04  0.10886894659E+04  0.50400001928E-02 0.  1.
    10030    2    1    2    0    0  0.00000000000E+00  0.00000000000E+00  0.40029973124E+01  0.21813819291E+04  0.21813782562E+04 0.  0.
        2    1    3    3  502    0  0.78165035825E+03 -0.73808805323E+03 -0.18198662925E+03  0.10903533327E+04  0.25500000920E-02 0.  1.
       -2    1    3    3    0  502 -0.78165035825E+03  0.73808805323E+03  0.18598962656E+03  0.10910285964E+04  0.25500000920E-02 0. -1.
</event>
<event>
 5   0  0.2910318E-05  0.2205408E+04  0.7818609E-02  0.8516181E-01
        1   -1    0    0  501    0  0.00000000000E+00  0.00000000000E+00  0.20349151529E+04  0.20349151529E+04  0.50400001928E-02 0.  1.
       -1   -1    0    0    0  501  0.00000000000E+00  0.00000000000E+00 -0.59754641960E+03  0.59754641962E+03  0.50400001928E-02 0. -1.
    10030    2    1    2    0    0  0.00000000000E+00  0.00000000000E+00  0.14373687333E+04  0.26324615725E+04  0.22054081380E+04 0.  0.
        5    1    3    3  502    0  0.27020572683E+03 -0.71805735197E+03  0.16640862966E+04  0.18324362985E+04  0.46999998093E+01 0.  1.
       -5    1    3    3    0  502 -0.27020572683E+03  0.71805735197E+03 -0.22671756332E+03  0.80002527400E+03  0.46999998093E+01 0. -1.
</event>
<event>
 5   0  0.6445740E-05  0.2141269E+04  0.7818609E-02  0.8543279E-01
       -2   -1    0    0    0  501  0.00000000000E+00  0.00000000000E+00  0.70297993212E+03  0.70297993213E+03  0.25500000920E-02 0. -1.
        2   -1    0    0  501    0  0.00000000000E+00  0.00000000000E+00 -0.16305704645E+04  0.16305704645E+04  0.25500000920E-02 0.  1.
    10030    2    1    2    0    0  0.00000000000E+00  0.00000000000E+00 -0.92759053240E+03  0.23335503967E+04  0.21412690765E+04 0.  0.
        5    1    3    3  502    0  0.55119839860E+02  0.62962351401E+03 -0.14055548045E+04  0.15411263299E+04  0.46999998093E+01 0.  1.
       -5    1    3    3    0  502 -0.55119839860E+02 -0.62962351401E+03  0.47796427214E+03  0.79242406676E+03  0.46999998093E+01 0. -1.
</event>
<event>
 5   0  0.2910318E-05  0.2195255E+04  0.7818609E-02  0.8520406E-01
       -1   -1    0    0    0  501  0.00000000000E+00  0.00000000000E+00  0.10983702389E+04  0.10983702389E+04  0.50400001928E-02 0.  1.
        1   -1    0    0  501    0  0.00000000000E+00  0.00000000000E+00 -0.10968847919E+04  0.10968847920E+04  0.50400001928E-02 0. -1.
    10030    2    1    2    0    0  0.00000000000E+00  0.00000000000E+00  0.14854469383E+01  0.21952550308E+04  0.21952545283E+04 0.  0.
        5    1    3    3  502    0 -0.21608483124E+03 -0.51691633030E+03  0.94460117794E+03  0.10982661891E+04  0.46999998093E+01 0.  1.
       -5    1    3    3    0  502  0.21608483124E+03  0.51691633030E+03 -0.94311573100E+03  0.10969888417E+04  0.46999998093E+01 0. -1.
</event>
<event>
 5   0  0.6293013E-05  0.2231949E+04  0.7818609E-02  0.8505247E-01
        2   -1    0    0  501    0  0.00000000000E+00  0.00000000000E+00  0.21602376883E+04  0.21602376883E+04  0.25500000920E-02 0.  1.
       -2   -1    0    0    0  501  0.00000000000E+00  0.00000000000E+00 -0.57650999460E+03  0.57650999461E+03  0.25500000920E-02 0. -1.
    10030    2    1    2    0    0  0.00000000000E+00  0.00000000000E+00  0.15837276937E+04  0.27367476829E+04  0.22319485819E+04 0.  0.
        1    1    3    3  502    0  0.14076597424E+03 -0.44393012355E+03 -0.45166180750E+03  0.64875835446E+03  0.50400001928E-02 0. -1.
       -1    1    3    3    0  502 -0.14076597424E+03  0.44393012355E+03  0.20353895012E+04  0.20879893285E+04  0.50400001928E-02 0.  1.
</event>
<event>
 5   0  0.6445740E-05  0.2214506E+04  0.7818609E-02  0.8512415E-01
       -2   -1    0    0    0  501  0.00000000000E+00  0.00000000000E+00  0.56751612987E+03  0.56751612987E+03  0.25500000920E-02 0. -1.
        2   -1    0    0  501    0  0.00000000000E+00  0.00000000000E+00 -0.21603072798E+04  0.21603072798E+04  0.25500000920E-02 0.  1.
    10030    2    1    2    0    0  0.00000000000E+00  0.00000000000E+00 -0.15927911499E+04  0.27278234097E+04  0.22145060188E+04 0.  0.
        5    1    3    3  502    0  0.71059836985E+02  0.10965080973E+04 -0.62836631857E+03  0.12657984943E+04  0.46999998093E+01 0. -1.
       -5    1    3    3    0  502 -0.71059836985E+02 -0.10965080973E+04 -0.96442483138E+03  0.14620249154E+04  0.46999998093E+01 0.  1.
</event>
<event>
 5   0  0.6445740E-05  0.2214566E+04  0.7818609E-02  0.8512390E-01
        2   -1    0    0  501    0  0.00000000000E+00  0.00000000000E+00  0.93544862422E+03  0.93544862423E+03  0.25500000920E-02 0.  1.
       -2   -1    0    0    0  501  0.00000000000E+00  0.00000000000E+00 -0.13106818932E+04  0.13106818932E+04  0.25500000920E-02 0. -1.
    10030    2    1    2    0    0  0.00000000000E+00  0.00000000000E+00 -0.37523326895E+03  0.22461305174E+04  0.22145659383E+04 0.  0.
        5    1    3    3  502    0  0.86076515969E+03 -0.35923672663E+03 -0.79285116644E+03  0.12241743128E+04  0.46999998093E+01 0. -1.
       -5    1    3    3    0  502 -0.86076515969E+03  0.35923672663E+03  0.41761789750E+03  0.10219562046E+04  0.46999998093E+01 0.  1.
</event>
<event>
 5   0  0.2910318E-05  0.2171067E+04  0.7818609E-02  0.8530568E-01
       -1   -1    0    0    0  501  0.00000000000E+00  0.00000000000E+00  0.88166693318E+03  0.88166693319E+03  0.50400001928E-02 0. -1.
        1   -1    0    0  501    0  0.00000000000E+00  0.00000000000E+00 -0.13365399678E+04  0.13365399678E+04  0.50400001928E-02 0.  1.
    10030    2    1    2    0    0  0.00000000000E+00  0.00000000000E+00 -0.45487303462E+03  0.22182069010E+04  0.21710671058E+04 0.  0.
        5    1    3    3  502    0 -0.79979814643E+03  0.62244383368E+03  0.16991333471E+03  0.10276215414E+04  0.46999998093E+01 0. -1.
       -5    1    3    3    0  502  0.79979814643E+03 -0.62244383368E+03 -0.62478636933E+03  0.11905853596E+04  0.46999998093E+01 0.  1.
</event>
<event>
 5   0  0.2910318E-05  0.2195713E+04  0.7818609E-02  0.8520215E-01
        1   -1    0    0  501    0  0.00000000000E+00  0.00000000000E+00  0.10067032840E+04  0.10067032840E+04  0.50400001928E-02 0.  1.
       -1   -1    0    0    0  501  0.00000000000E+00  0.00000000000E+00 -0.11972629725E+04  0.11972629725E+04  0.50400001928E-02 0. -1.
    10030    2    1    2    0    0  0.00000000000E+00  0.00000000000E+00 -0.19055968848E+03  0.22039662566E+04  0.21957127010E+04 0.  0.
        5    1    3    3  502    0 -0.31826823599E+03 -0.49835616479E+03 -0.10237503213E+04  0.11822606935E+04  0.46999998093E+01 0. -1.
       -5    1    3    3    0  502  0.31826823599E+03  0.49835616479E+03  0.83319063281E+03  0.10217055631E+04  0.46999998093E+01 0.  1.
</event>
<event>
 5   0  0.6445740E-05  0.2222853E+04  0.7818609E-02  0.8508976E-01
        2   -1    0    0  501    0  0.00000000000E+00  0.00000000000E+00  0.13282492711E+04  0.13282492711E+04  0.25500000920E-02 0.  1.
       -2   -1    0    0    0  501  0.00000000000E+00  0.00000000000E+00 -0.92999776039E+03  0.92999776040E+03  0.25500000920E-02 0. -1.
    10030    2    1    2    0    0  0.00000000000E+00  0.00000000000E+00  0.39825151070E+03  0.22582470315E+04  0.22228529842E+04 0.  0.
        5    1    3    3  502    0 -0.54445673719E+03  0.96742340923E+03  0.25388734892E+03  0.11387809567E+04  0.46999998093E+01 0. -1.
       -5    1    3    3    0  502  0.54445673719E+03 -0.96742340923E+03  0.14436416178E+03  0.11194660748E+04  0.46999998093E+01 0.  1.
</event>
<event>
 5   0  0.2753631E-05  0.2204088E+04  0.7818609E-02  0.8516728E-01
       -1   -1    0    0    0  501  0.00000000000E+00  0.00000000000E+00  0.14126604791E+04  0.14126604791E+04  0.50400001928E-02 0. -1.
        1   -1    0    0  501    0  0.00000000000E+00  0.00000000000E+00 -0.85972618301E+03  0.85972618302E+03  0.50400001928E-02 0.  1.
    10030    2    1    2    0    0  0.00000000000E+00  0.00000000000E+00  0.55293429606E+03  0.22723866621E+04  0.22040882029E+04 0.  0.
        4    1    3    3  502    0 -0.50274105039E+03  0.40206529347E+03 -0.64573028844E+03  0.91179728135E+03  0.12699999809E+01 0.  1.
       -4    1    3    3    0  502  0.50274105039E+03 -0.40206529347E+03  0.11986645845E+04  0.13605893807E+04  0.12699999809E+01 0. -1.
</event>
<event>
 5   0  0.6293013E-05  0.2191132E+04  0.7818609E-02  0.8522128E-01
        2   -1    0    0  501    0  0.00000000000E+00  0.00000000000E+00  0.11226125075E+04  0.11226125075E+04  0.25500000920E-02 0.  1.
       -2   -1    0    0    0  501  0.00000000000E+00  0.00000000000E+00 -0.10691709343E+04  0.10691709343E+04  0.25500000920E-02 0. -1.
    10030    2    1    2    0    0  0.00000000000E+00  0.00000000000E+00  0.53441573213E+02  0.21917834418E+04  0.21911318203E+04 0.  0.
        1    1    3    3  502    0 -0.81424810107E+03 -0.35489135213E+02 -0.70562070997E+03  0.10780352662E+04  0.50400001928E-02 0. -1.
       -1    1    3    3    0  502  0.81424810107E+03  0.35489135213E+02  0.75906228318E+03  0.11137481756E+04  0.50400001928E-02 0.  1.
</event>
<event>
 5   0  0.2910318E-05  0.2052297E+04  0.7818609E-02  0.8582553E-01
       -1   -1    0    0    0  501  0.00000000000E+00  0.00000000000E+00  0.55722988964E+03  0.55722988966E+03  0.50400001928E-02 0.  1.
        1   -1    0    0  501    0  0.00000000000E+00  0.00000000000E+00 -0.18896695716E+04  0.18896695716E+04  0.50400001928E-02 0. -1.
    10030    2    1    2    0    0  0.00000000000E+00  0.00000000000E+00 -0.13324396820E+04  0.24468994613E+04  0.20522966325E+04 0.  0.
        5    1    3    3  502    0  0.59057258291E+03 -0.46965960922E+03 -0.14953450227E+04  0.16749432681E+04  0.46999998093E+01 0. -1.
       -5    1    3    3    0  502 -0.59057258291E+03  0.46965960922E+03  0.16290534076E+03  0.77195619323E+03  0.46999998093E+01 0.  1.
</event>
<event>
 5   0  0.2908031E-05  0.2111307E+04  0.7818609E-02  0.8556279E-01
       -1   -1    0    0    0  501  0.00000000000E+00  0.00000000000E+00  0.16967148816E+04  0.16967148816E+04  0.50400001928E-02 0. -1.
        1   -1    0    0  501    0  0.00000000000E+00  0.00000000000E+00 -0.65680122054E+03  0.65680122056E+03  0.50400001928E-02 0.  1.
    10030    2    1    2    0    0  0.00000000000E+00  0.00000000000E+00  0.10399136611E+04  0.23535161022E+04  0.21113070882E+04 0.  0.
        1    1    3    3  502    0 -0.95196453451E+03 -0.43128398114E+03  0.35400929394E+03  0.11034332456E+04  0.50400001928E-02 0. -1.
       -1    1    3    3    0  502  0.95196453451E+03  0.43128398114E+03  0.68590436713E+03  0.12500828565E+04  0.50400001928E-02 0.  1.
</event>
<event>
 5   0  0.2908031E-05  0.2204871E+04  0.7818609E-02  0.8516403E-01
        1   -1    0    0  501    0  0.00000000000E+00  0.00000000000E+00  0.11343796465E+04  0.11343796465E+04  0.50400001928E-02 0. -1.
       -1   -1    0    0    0  501  0.00000000000E+00  0.00000000000E+00 -0.10713910694E+04  0.10713910694E+04  0.50400001928E-02 0.  1.
    10030    2    1    2    0    0  0.00000000000E+00  0.00000000000E+00  0.62988577063E+02  0.22057707159E+04  0.22048711732E+04 0.  0.
        1    1    3    3  502    0  0.97912764561E+03 -0.19050935831E+02  0.53797184924E+03  0.11173484663E+04  0.50400001928E-02 0. -1.
       -1    1    3    3    0  502 -0.97912764561E+03  0.19050935831E+02 -0.47498327217E+03  0.10884222496E+04  0.50400001928E-02 0.  1.
</event>
<event>
 5   0  0.2753631E-05  0.2194996E+04  0.7818609E-02  0.8520514E-01
        1   -1    0    0  501    0  0.00000000000E+00  0.00000000000E+00  0.12316221833E+04  0.12316221833E+04  0.50400001928E-02 0.  1.
       -1   -1    0    0    0  501  0.00000000000E+00  0.00000000000E+00 -0.97798018217E+03  0.97798018218E+03  0.50400001928E-02 0. -1.
    10030    2    1    2    0    0  0.00000000000E+00  0.00000000000E+00  0.25364200110E+03  0.22096023655E+04  0.21949962070E+04 0.  0.
        4    1    3    3  502    0 -0.72591118001E+03 -0.22938222976E+03 -0.66896913167E+03  0.10134518048E+04  0.12699999809E+01 0. -1.
       -4    1    3    3    0  502  0.72591118001E+03  0.22938222976E+03  0.92261113277E+03  0.11961505607E+04  0.12699999809E+01 0.  1.
</event>
<event>
 5   0  0.6628798E-05  0.2205180E+04  0.7818609E-02  0.8516275E-01
        2   -1    0    0  501    0  0.00000000000E+00  0.00000000000E+00  0.12713003052E+04  0.12713003052E+04  0.25500000920E-02 0.  1.
       -2   -1    0    0    0  501  0.00000000000E+00  0.00000000000E+00 -0.95626861210E+03  0.95626861210E+03  0.25500000920E-02 0. -1.
    10030    2    1    2    0    0  0.00000000000E+00  0.00000000000E+00  0.31503169310E+03  0.22275689173E+04  0.22051798824E+04 0.  0.
        4    1    3    3  502    0 -0.32547407728E+03 -0.70012638953E+03 -0.63761801518E+03  0.10013334522E+04  0.12699999809E+01 0. -1.
       -4    1    3    3    0  502  0.32547407728E+03  0.70012638953E+03  0.95264970828E+03  0.12262354651E+04  0.12699999809E+01 0.  1.
</event>
<event>
 5   0  0.6306919E-05  0.2158994E+04  0.7818609E-02  0.8535692E-01
       -2   -1    0    0    0  501  0.00000000000E+00  0.00000000000E+00  0.87379048501E+03  0.87379048502E+03  0.25500000920E-02 0. -1.
        2   -1    0    0  501    0  0.00000000000E+00  0.00000000000E+00 -0.13336303420E+04  0.13336303420E+04  0.25500000920E-02 0.  1.
    10030    2    1    2    0    0  0.00000000000E+00  0.00000000000E+00 -0.45983985699E+03  0.22074208270E+04  0.21589937502E+04 0.  0.
        3    1    3    3  502    0  0.24699326827E+03 -0.29495454387E+03  0.80132144745E+03  0.88888690499E+03  0.10100000352E+00 0. -1.
       -3    1    3    3    0  502 -0.24699326827E+03  0.29495454387E+03 -0.12611613044E+04  0.13185339220E+04  0.10100000352E+00 0.  1.
</event>
<event>
 5   0  0.2753631E-05  0.2201756E+04  0.7818609E-02  0.8517697E-01
       -1   -1    0    0    0  501  0.00000000000E+00  0.00000000000E+00  0.53307411299E+03  0.53307411301E+03  0.50400001928E-02 0.  1.
        1   -1    0    0  501    0  0.00000000000E+00  0.00000000000E+00 -0.22734789218E+04  0.22734789218E+04  0.50400001928E-02 0. -1.
    10030    2    1    2    0    0  0.00000000000E+00  0.00000000000E+00 -0.17404048088E+04  0.28065530348E+04  0.22017563532E+04 0.  0.
        4    1    3    3  502    0 -0.42945983211E+03 -0.86653013711E+02  0.41716123898E+03  0.60495421677E+03  0.12699999809E+01 0.  1.
       -4    1    3    3    0  502  0.42945983211E+03  0.86653013711E+02 -0.21575660478E+04  0.22015988181E+04  0.12699999809E+01 0. -1.
</event>
<event>
 5   0  0.6445740E-05  0.2186409E+04  0.7818609E-02  0.8524106E-01
       -2   -1    0    0    0  501  0.00000000000E+00  0.00000000000E+00  0.70526011741E+03  0.70526011741E+03  0.25500000920E-02 0. -1.
        2   -1    0    0  501    0  0.00000000000E+00  0.00000000000E+00 -0.16945470429E+04  0.16945470429E+04  0.25500000920E-02 0.  1.
    10030    2    1    2    0    0  0.00000000000E+00  0.00000000000E+00 -0.98928692546E+03  0.23998071603E+04  0.21864093363E+04 0.  0.
        5    1    3    3  502    0  0.42518870924E+03  0.96687655544E+03 -0.80400105866E+03  0.13274319208E+04  0.46999998093E+01 0.  1.
       -5    1    3    3    0  502 -0.42518870924E+03 -0.96687655544E+03 -0.18528586680E+03  0.10723752395E+04  0.46999998093E+01 0. -1.
</event>
<event>
 5   0  0.6306919E-05  0.2205146E+04  0.7818609E-02  0.8516289E-01
       -2   -1    0    0    0  501  0.00000000000E+00  0.00000000000E+00  0.85734836176E+03  0.85734836177E+03  0.25500000920E-02 0.  1.
        2   -1    0    0  501    0  0.00000000000E+00  0.00000000000E+00 -0.14179382177E+04  0.14179382177E+04  0.25500000920E-02 0. -1.
    10030    2    1    2    0    0  0.00000000000E+00  0.00000000000E+00 -0.56058985596E+03  0.22752865795E+04  0.22051458075E+04 0.  0.
        3    1    3    3  502    0  0.44943783433E+03  0.60725688982E+03 -0.11089025473E+04  0.13417973643E+04  0.10100000352E+00 0. -1.
       -3    1    3    3    0  502 -0.44943783433E+03 -0.60725688982E+03  0.54831269137E+03  0.93348921519E+03  0.10100000352E+00 0.  1.
</event>
<event>
 5   0  0.6628798E-05  0.2188668E+04  0.7818609E-02  0.8523160E-01
        2   -1    0    0  501    0  0.00000000000E+00  0.00000000000E+00  0.22376700731E+04  0.22376700731E+04  0.25500000920E-02 0. -1.
       -2   -1    0    0    0  501  0.00000000000E+00  0.00000000000E+00 -0.53518482971E+03  0.53518482971E+03  0.25500000920E-02 0.  1.
    10030    2    1    2    0    0  0.00000000000E+00  0.00000000000E+00  0.17024852434E+04  0.27728549028E+04  0.21886681585E+04 0.  0.
        4    1    3    3  502    0  0.77937077701E+03  0.52263149982E+03  0.13793167088E+03  0.94846678982E+03  0.12699999809E+01 0.  1.
       -4    1    3    3    0  502 -0.77937077701E+03 -0.52263149982E+03  0.15645535725E+04  0.18243881130E+04  0.12699999809E+01 0. -1.
</event>
<event>
 5   0  0.6414768E-05  0.2209083E+04  0.7818609E-02  0.8514657E-01
        2   -1    0    0  501    0  0.00000000000E+00  0.00000000000E+00  0.21504183067E+04  0.21504183067E+04  0.25500000920E-02 0.  1.
       -2   -1    0    0    0  501  0.00000000000E+00  0.00000000000E+00 -0.56733724526E+03  0.56733724526E+03  0.25500000920E-02 0. -1.
    10030    2    1    2    0    0  0.00000000000E+00  0.00000000000E+00  0.15830810614E+04  0.27177555519E+04  0.22090834283E+04 0.  0.
        2    1    3    3  502    0 -0.53361640521E+03  0.65978667227E+03  0.16614227716E+04  0.18655804852E+04  0.25500000920E-02 0.  1.
       -2    1    3    3    0  502  0.53361640521E+03 -0.65978667227E+03 -0.78341710176E+02  0.85217506674E+03  0.25500000920E-02 0. -1.
</event>
<event>
 5   0  0.6414768E-05  0.2215418E+04  0.7818609E-02  0.8512038E-01
       -2   -1    0    0    0  501  0.00000000000E+00  0.00000000000E+00  0.91333244761E+03  0.91333244762E+03  0.25500000920E-02 0. -1.
        2   -1    0    0  501    0  0.00000000000E+00  0.00000000000E+00 -0.13434524961E+04  0.13434524961E+04  0.25500000920E-02 0.  1.
    10030    2    1    2    0    0  0.00000000000E+00  0.00000000000E+00 -0.43012004849E+03  0.22567849437E+04  0.22154175738E+04 0.  0.
        2    1    3    3  502    0  0.10114231027E+04  0.43219670045E+03 -0.81275798847E+02  0.11028945716E+04  0.25500000920E-02 0. -1.
       -2    1    3    3    0  502 -0.10114231027E+04 -0.43219670045E+03 -0.34884424964E+03  0.11538903722E+04  0.25500000920E-02 0.  1.
</event>
<event>
 5   0  0.6414768E-05  0.2183943E+04  0.7818609E-02  0.8525141E-01
        2   -1    0    0  501    0  0.00000000000E+00  0.00000000000E+00  0.16442075661E+04  0.16442075661E+04  0.25500000920E-02 0. -1.
       -2   -1    0    0    0  501  0.00000000000E+00  0.00000000000E+00 -0.72521356568E+03  0.72521356568E+03  0.25500000920E-02 0.  1.
    10030    2    1    2    0    0  0.00000000000E+00  0.00000000000E+00  0.91899400038E+03  0.23694211317E+04  0.21839428854E+04 0.  0.
        2    1    3    3  502    0  0.56420991989E+03 -0.83843386782E+03  0.90826589352E+03  0.13587682355E+04  0.25500000920E-02 0. -1.
       -2    1    3    3    0  502 -0.56420991989E+03  0.83843386782E+03  0.10728106856E+02  0.10106528963E+04  0.25500000920E-02 0.  1.
</event>
<event>
 5   0  0.6306919E-05  0.2187693E+04  0.7818609E-02  0.8523568E-01
        2   -1    0    0  501    0  0.00000000000E+00  0.00000000000E+00  0.13105443081E+04  0.13105443081E+04  0.25500000920E-02 0. -1.
       -2   -1    0    0    0  501  0.00000000000E+00  0.00000000000E+00 -0.91297964940E+03  0.91297964940E+03  0.25500000920E-02 0.  1.
    10030    2    1    2    0    0  0.00000000000E+00  0.00000000000E+00  0.39756465871E+03  0.22235239575E+04  0.21876931073E+04 0.  0.
        3    1    3    3  502    0  0.56676963739E+01  0.10128992316E+04 -0.22090108332E+03  0.10367228535E+04  0.10100000352E+00 0.  1.
       -3    1    3    3    0  502 -0.56676963739E+01 -0.10128992316E+04  0.61846574203E+03  0.11868011040E+04  0.10100000352E+00 0. -1.
</event>
<event>
 5   0  0.6628798E-05  0.2195231E+04  0.7818609E-02  0.8520416E-01
       -2   -1    0    0    0  501  0.00000000000E+00  0.00000000000E+00  0.12508865812E+04  0.12508865812E+04  0.25500000920E-02 0.  1.
        2   -1    0    0  501    0  0.00000000000E+00  0.00000000000E+00 -0.96312485394E+03  0.96312485394E+03  0.25500000920E-02 0. -1.
    10030    2    1    2    0    0  0.00000000000E+00  0.00000000000E+00  0.28776172723E+03  0.22140114351E+04  0.21952311548E+04 0.  0.
        4    1    3    3  502    0  0.64323884438E+03 -0.32737007398E+03  0.97789609823E+03  0.12154051868E+04  0.12699999809E+01 0.  1.
       -4    1    3    3    0  502 -0.64323884438E+03  0.32737007398E+03 -0.69013437100E+03  0.99860624832E+03  0.12699999809E+01 0. -1.
</event>
<event>
 5   0  0.6293013E-05  0.2157830E+04  0.7818609E-02  0.8536188E-01
       -2   -1    0    0    0  501  0.00000000000E+00  0.00000000000E+00  0.84206849104E+03  0.84206849104E+03  0.25500000920E-02 0. -1.
        2   -1    0    0  501    0  0.00000000000E+00  0.00000000000E+00 -0.13823793243E+04  0.13823793243E+04  0.25500000920E-02 0.  1.
    10030    2    1    2    0    0  0.00000000000E+00  0.00000000000E+00 -0.54031083327E+03  0.22244478154E+04  0.21578304583E+04 0.  0.
        1    1    3    3  502    0 -0.20158230705E+03 -0.34612805321E+03  0.76258013374E+03  0.86137594356E+03  0.50400001928E-02 0. -1.
       -1    1    3    3    0  502  0.20158230705E+03  0.34612805321E+03 -0.13028909670E+04  0.13630718718E+04  0.50400001928E-02 0.  1.
</event>
<event>
 5   0  0.2908031E-05  0.2202367E+04  0.7818609E-02  0.8517444E-01
        1   -1    0    0  501    0  0.00000000000E+00  0.00000000000E+00  0.19415813926E+04  0.19415813926E+04  0.50400001928E-02 0. -1.
       -1   -1    0    0    0  501  0.00000000000E+00  0.00000000000E+00 -0.62454485563E+03  0.62454485565E+03  0.50400001928E-02 0.  1.
    10030    2    1    2    0    0  0.00000000000E+00  0.00000000000E+00  0.13170365370E+04  0.25661262483E+04  0.22023666094E+04 0.  0.
        1    1    3    3  502    0  0.95296813499E+03 -0.52596722477E+03  0.85284252800E+03  0.13827979482E+04  0.50400001928E-02 0. -1.
       -1    1    3    3    0  502 -0.95296813499E+03  0.52596722477E+03  0.46419400897E+03  0.11833283001E+04  0.50400001928E-02 0.  1.
</event>
<event>
 5   0  0.2820239E-05  0.2196408E+04  0.7818609E-02  0.8519925E-01
        1   -1    0    0  501    0  0.00000000000E+00  0.00000000000E+00  0.15076496928E+04  0.15076496928E+04  0.50400001928E-02 0. -1.
       -1   -1    0    0    0  501  0.00000000000E+00  0.00000000000E+00 -0.79995476272E+03  0.79995476273E+03  0.50400001928E-02 0.  1.
    10030    2    1    2    0    0  0.00000000000E+00  0.00000000000E+00  0.70769493005E+03  0.23076044555E+04  0.21964075690E+04 0.  0.
        3    1    3    3  502    0 -0.24560054813E+02  0.37422010639E+03 -0.73059457215E+03  0.82122610978E+03  0.10100000352E+00 0.  1.
       -3    1    3    3    0  502  0.24560054813E+02 -0.37422010639E+03  0.14382895022E+04  0.14863783457E+04  0.10100000352E+00 0. -1.
</event>
<event>
 5   0  0.2908031E-05  0.2181743E+04  0.7818609E-02  0.8526066E-01
        1   -1    0    0  501    0  0.00000000000E+00  0.00000000000E+00  0.16169245414E+04  0.16169245414E+04  0.50400001928E-02 0.  1.
       -1   -1    0    0    0  501  0.00000000000E+00  0.00000000000E+00 -0.73596543571E+03  0.73596543573E+03  0.50400001928E-02 0. -1.
    10030    2    1    2    0    0  0.00000000000E+00  0.00000000000E+00  0.88095910567E+03  0.23528899771E+04  0.21817429497E+04 0.  0.
        1    1    3    3  502    0 -0.21158260716E+03  0.39071869435E+03 -0.63395287872E+03  0.77416054551E+03  0.50400001928E-02 0. -1.
       -1    1    3    3    0  502  0.21158260716E+03 -0.39071869435E+03  0.15149119844E+04  0.15787294316E+04  0.50400001928E-02 0.  1.
</event>
<event>
 5   0  0.6628798E-05  0.2211681E+04  0.7818609E-02  0.8513582E-01
        2   -1    0    0  501    0  0.00000000000E+00  0.00000000000E+00  0.14206362925E+04  0.14206362925E+04  0.25500000920E-02 0.  1.
       -2   -1    0    0    0  501  0.00000000000E+00  0.00000000000E+00 -0.86079970137E+03  0.86079970137E+03  0.25500000920E-02 0. -1.
    10030    2    1    2    0    0  0.00000000000E+00  0.00000000000E+00  0.55983659112E+03  0.22814359939E+04  0.22116810768E+04 0.  0.
        4    1    3    3  502    0  0.13013628426E+03 -0.99758486852E+02 -0.84818891127E+03  0.86389423559E+03  0.12699999809E+01 0. -1.
       -4    1    3    3    0  502 -0.13013628426E+03  0.99758486852E+02  0.14080255024E+04  0.14175417583E+04  0.12699999809E+01 0.  1.
</event>
<event>
 5   0  0.6414768E-05  0.2213752E+04  0.7818609E-02  0.8512726E-01
       -2   -1    0    0    0  501  0.00000000000E+00  0.00000000000E+00  0.10402788999E+04  0.10402788999E+04  0.25500000920E-02 0.  1.
        2   -1    0    0  501    0  0.00000000000E+00  0.00000000000E+00 -0.11777368044E+04  0.11777368044E+04  0.25500000920E-02 0. -1.
    10030    2    1    2    0    0  0.00000000000E+00  0.00000000000E+00 -0.13745790448E+03  0.22180157042E+04  0.22137522420E+04 0.  0.
        2    1    3    3  502    0 -0.79542037559E+03  0.76727174881E+03 -0.13029024054E+03  0.11128230125E+04  0.25500000920E-02 0.  1.
       -2    1    3    3    0  502  0.79542037559E+03 -0.76727174881E+03 -0.71676639385E+01  0.11051926917E+04  0.25500000920E-02 0. -1.
</event>
<event>
 5   0  0.6414768E-05  0.2187369E+04  0.7818609E-02  0.8523704E-01
        2   -1    0    0  501    0  0.00000000000E+00  0.00000000000E+00  0.12451223999E+04  0.12451223999E+04  0.25500000920E-02 0.  1.
       -2   -1    0    0    0  501  0.00000000000E+00  0.00000000000E+00 -0.96066509518E+03  0.96066509518E+03  0.25500000920E-02 0. -1.
    10030    2    1    2    0    0  0.00000000000E+00  0.00000000000E+00  0.28445730474E+03  0.22057874951E+04  0.21873688567E+04 0.  0.
        2    1    3    3  502    0 -0.78324393772E+03 -0.52597093144E+02 -0.62570064473E+03  0.10038619512E+04  0.25500000920E-02 0. -1.
       -2    1    3    3    0  502  0.78324393772E+03  0.52597093144E+02  0.91015794947E+03  0.12019255439E+04  0.25500000920E-02 0.  1.
</event>
<event>
 5   0  0.6293013E-05  0.1985764E+04  0.7818609E-02  0.8613306E-01
        2   -1    0    0  501    0  0.00000000000E+00  0.00000000000E+00  0.29672562877E+04  0.29672562877E+04  0.25500000920E-02 0.  1.
       -2   -1    0    0    0  501  0.00000000000E+00  0.00000000000E+00 -0.33223096830E+03  0.33223096831E+03  0.25500000920E-02 0. -1.
    10030    2    1    2    0    0  0.00000000000E+00  0.00000000000E+00  0.26350253194E+04  0.32994872560E+04  0.19857637621E+04 0.  0.
        1    1    3    3  502    0 -0.26618429222E+03  0.24415570240E+03  0.28542172338E+04  0.28769814220E+04  0.50400001928E-02 0.  1.
       -1    1    3    3    0  502  0.26618429222E+03 -0.24415570240E+03 -0.21919191442E+03  0.42250583406E+03  0.50400001928E-02 0. -1.
</event>
<event>
 5   0  0.6445740E-05  0.2190176E+04  0.7818609E-02  0.8522528E-01
       -2   -1    0    0    0  501  0.00000000000E+00  0.00000000000E+00  0.94806449959E+03  0.94806449960E+03  0.25500000920E-02 0.  1.
        2   -1    0    0  501    0  0.00000000000E+00  0.00000000000E+00 -0.12649118858E+04  0.12649118858E+04  0.25500000920E-02 0. -1.
    10030    2    1    2    0    0  0.00000000000E+00  0.00000000000E+00 -0.31684738624E+03  0.22129763854E+04  0.21901762980E+04 0.  0.
        5    1    3    3  502    0  0.61599152946E+03  0.29961665097E+03  0.70485945569E+03  0.98288587546E+03  0.46999998093E+01 0.  1.
       -5    1    3    3    0  502 -0.61599152946E+03 -0.29961665097E+03 -0.10217068419E+04  0.12300905100E+04  0.46999998093E+01 0. -1.
</event>
<event>
 5   0  0.2929471E-05  0.2155799E+04  0.7818609E-02  0.8537054E-01
       -1   -1    0    0    0  501  0.00000000000E+00  0.00000000000E+00  0.11560576310E+04  0.11560576310E+04  0.50400001928E-02 0. -1.
        1   -1    0    0  501    0  0.00000000000E+00  0.00000000000E+00 -0.10050256610E+04  0.10050256610E+04  0.50400001928E-02 0.  1.
    10030    2    1    2    0    0  0.00000000000E+00  0.00000000000E+00  0.15103196996E+03  0.21610832920E+04  0.21557992344E+04 0.  0.
        2    1    3    3  502    0  0.71178407532E+03 -0.80540353742E+03  0.15668454783E+03  0.10862142862E+04  0.25500000920E-02 0.  1.
       -2    1    3    3    0  502 -0.71178407532E+03  0.80540353742E+03 -0.56525778621E+01  0.10748690058E+04  0.25500000920E-02 0. -1.
</event>
<event>
 5   0  0.2820239E-05  0.2205028E+04  0.7818609E-02  0.8516338E-01
        1   -1    0    0  501    0  0.00000000000E+00  0.00000000000E+00  0.14998515622E+04  0.14998515622E+04  0.50400001928E-02 0.  1.
       -1   -1    0    0    0  501  0.00000000000E+00  0.00000000000E+00 -0.81043803413E+03  0.81043803415E+03  0.50400001928E-02 0. -1.
    10030    2    1    2    0    0  0.00000000000E+00  0.00000000000E+00  0.68941352804E+03  0.23102895963E+04  0.22050276656E+04 0.  0.
        3    1    3    3  502    0  0.41242206104E+03 -0.81665220889E+03 -0.29990624233E+03  0.96278582826E+03  0.10100000352E+00 0. -1.
       -3    1    3    3    0  502 -0.41242206104E+03  0.81665220889E+03  0.98931977037E+03  0.13475037681E+04  0.10100000352E+00 0.  1.
</event>
<event>
 5   0  0.2908031E-05  0.2190912E+04  0.7818609E-02  0.8522220E-01
        1   -1    0    0  501    0  0.00000000000E+00  0.00000000000E+00  0.16353993567E+04  0.16353993567E+04  0.50400001928E-02 0. -1.
       -1   -1    0    0    0  501  0.00000000000E+00  0.00000000000E+00 -0.73378040641E+03  0.73378040642E+03  0.50400001928E-02 0.  1.
    10030    2    1    2    0    0  0.00000000000E+00  0.00000000000E+00  0.90161895033E+03  0.23691797632E+04  0.21909121431E+04 0.  0.
        1    1    3    3  502    0  0.33964254121E+03  0.71402920440E+03 -0.36905577476E+03  0.87258061258E+03  0.50400001928E-02 0.  1.
       -1    1    3    3    0  502 -0.33964254121E+03 -0.71402920440E+03  0.12706747251E+04  0.14965991506E+04  0.50400001928E-02 0. -1.
</event>
<event>
 5   0  0.2929471E-05  0.2224292E+04  0.7818609E-02  0.8508385E-01
       -1   -1    0    0    0  501  0.00000000000E+00  0.00000000000E+00  0.10505518196E+04  0.10505518196E+04  0.50400001928E-02 0. -1.
        1   -1    0    0  501    0  0.00000000000E+00  0.00000000000E+00 -0.11773518388E+04  0.11773518388E+04  0.50400001928E-02 0.  1.
    10030    2    1    2    0    0  0.00000000000E+00  0.00000000000E+00 -0.12680001923E+03  0.22279036584E+04  0.22242923518E+04 0.  0.
        2    1    3    3  502    0  0.65190248606E+03 -0.37097086354E+03 -0.88587440245E+03  0.11607625467E+04  0.25500000920E-02 0.  1.
       -2    1    3    3    0  502 -0.65190248606E+03  0.37097086354E+03  0.75907438322E+03  0.10671411117E+04  0.25500000920E-02 0. -1.
</event>
<event>
 5   0  0.6306919E-05  0.2190620E+04  0.7818609E-02  0.8522342E-01
       -2   -1    0    0    0  501  0.00000000000E+00  0.00000000000E+00  0.94616052907E+03  0.94616052907E+03  0.25500000920E-02 0. -1.
        2   -1    0    0  501    0  0.00000000000E+00  0.00000000000E+00 -0.12679710453E+04  0.12679710453E+04  0.25500000920E-02 0.  1.
    10030    2    1    2    0    0  0.00000000000E+00  0.00000000000E+00 -0.32181051624E+03  0.22141315744E+04  0.21906201451E+04 0.  0.
        3    1    3    3  502    0  0.60408081395E+03 -0.64469463572E+03  0.49346857240E+03  0.10119565432E+04  0.10100000352E+00 0. -1.
       -3    1    3    3    0  502 -0.60408081395E+03  0.64469463572E+03 -0.81527908864E+03  0.12021750312E+04  0.10100000352E+00 0.  1.
</event>
<event>
 5   0  0.2929471E-05  0.2212516E+04  0.7818609E-02  0.8513237E-01
       -1   -1    0    0    0  501  0.00000000000E+00  0.00000000000E+00  0.10636776403E+04  0.10636776404E+04  0.50400001928E-02 0. -1.
        1   -1    0    0  501    0  0.00000000000E+00  0.00000000000E+00 -0.11505431538E+04  0.11505431538E+04  0.50400001928E-02 0.  1.
    10030    2    1    2    0    0  0.00000000000E+00  0.00000000000E+00 -0.86865513435E+02  0.22142207941E+04  0.22125162390E+04 0.  0.
        2    1    3    3  502    0 -0.10864009912E+04  0.10309207526E+03  0.13812348412E+03  0.10999878120E+04  0.25500000920E-02 0.  1.
       -2    1    3    3    0  502  0.10864009912E+04 -0.10309207526E+03 -0.22498899755E+03  0.11142329822E+04  0.25500000920E-02 0. -1.
</event>
<event>
 5   0  0.6445740E-05  0.2086824E+04  0.7818609E-02  0.8567070E-01
        2   -1    0    0  501    0  0.00000000000E+00  0.00000000000E+00  0.94927410482E+03  0.94927410482E+03  0.25500000920E-02 0.  1.
       -2   -1    0    0    0  501  0.00000000000E+00  0.00000000000E+00 -0.11468858092E+04  0.11468858092E+04  0.25500000920E-02 0. -1.
    10030    2    1    2    0    0  0.00000000000E+00  0.00000000000E+00 -0.19761170434E+03  0.20961599140E+04  0.20868243815E+04 0.  0.
        5    1    3    3  502    0  0.83415044885E+03  0.18904694542E+03 -0.69909221954E+03  0.11046708742E+04  0.46999998093E+01 0. -1.
       -5    1    3    3    0  502 -0.83415044885E+03 -0.18904694542E+03  0.50148051520E+03  0.99148903978E+03  0.46999998093E+01 0.  1.
</event>
<event>
 5   0  0.6293013E-05  0.2154491E+04  0.7818609E-02  0.8537612E-01
       -2   -1    0    0    0  501  0.00000000000E+00  0.00000000000E+00  0.10614773896E+04  0.10614773896E+04  0.25500000920E-02 0. -1.
        2   -1    0    0  501    0  0.00000000000E+00  0.00000000000E+00 -0.10932474901E+04  0.10932474901E+04  0.25500000920E-02 0.  1.
    10030    2    1    2    0    0  0.00000000000E+00  0.00000000000E+00 -0.31770100488E+02  0.21547248798E+04  0.21544906517E+04 0.  0.
        1    1    3    3  502    0  0.94518091531E+03  0.27498406284E+03  0.42174027986E+03  0.10709099221E+04  0.50400001928E-02 0. -1.
       -1    1    3    3    0  502 -0.94518091531E+03 -0.27498406284E+03 -0.45351038034E+03  0.10838149577E+04  0.50400001928E-02 0.  1.
</event>
<event>
 5   0  0.2910318E-05  0.2238621E+04  0.7818609E-02  0.8502523E-01
        1   -1    0    0  501    0  0.00000000000E+00  0.00000000000E+00  0.96354128730E+03  0.96354128731E+03  0.50400001928E-02 0. -1.
       -1   -1    0    0    0  501  0.00000000000E+00  0.00000000000E+00 -0.13002617611E+04  0.13002617612E+04  0.50400001928E-02 0.  1.
    10030    2    1    2    0    0  0.00000000000E+00  0.00000000000E+00 -0.33672047385E+03  0.22638030485E+04  0.22386209069E+04 0.  0.
        5    1    3    3  502    0  0.24483252125E+03 -0.10911056299E+04 -0.11903302868E+03  0.11245645428E+04  0.46999998093E+01 0. -1.
       -5    1    3    3    0  502 -0.24483252125E+03  0.10911056299E+04 -0.21768744516E+03  0.11392385057E+04  0.46999998093E+01 0.  1.
</event>
<event>
 5   0  0.2820239E-05  0.2188082E+04  0.7818609E-02  0.8523405E-01
        1   -1    0    0  501    0  0.00000000000E+00  0.00000000000E+00  0.12152867650E+04  0.12152867650E+04  0.50400001928E-02 0.  1.
       -1   -1    0    0    0  501  0.00000000000E+00  0.00000000000E+00 -0.98489153031E+03  0.98489153033E+03  0.50400001928E-02 0. -1.
    10030    2    1    2    0    0  0.00000000000E+00  0.00000000000E+00  0.23039523471E+03  0.22001782954E+04  0.21880819380E+04 0.  0.
        3    1    3    3  502    0  0.28951650089E+03  0.70487222670E+03 -0.67416513043E+03  0.10174297487E+04  0.10100000352E+00 0. -1.
       -3    1    3    3    0  502 -0.28951650089E+03 -0.70487222670E+03  0.90456036513E+03  0.11827485467E+04  0.10100000352E+00 0.  1.
</event>
<event>
 5   0  0.2753631E-05  0.2202372E+04  0.7818609E-02  0.8517441E-01
       -1   -1    0    0    0  501  0.00000000000E+00  0.00000000000E+00  0.67566773175E+03  0.67566773177E+03  0.50400001928E-02 0.  1.
        1   -1    0    0  501    0  0.00000000000E+00  0.00000000000E+00 -0.17946854950E+04  0.17946854950E+04  0.50400001928E-02 0. -1.
    10030    2    1    2    0    0  0.00000000000E+00  0.00000000000E+00 -0.11190177633E+04  0.24703532268E+04  0.22023724278E+04 0.  0.
        4    1    3    3  502    0 -0.42628142465E+03 -0.33316669208E+03  0.51630485528E+03  0.74785574425E+03  0.12699999809E+01 0.  1.
       -4    1    3    3    0  502  0.42628142465E+03  0.33316669208E+03 -0.16353226186E+04  0.17224974826E+04  0.12699999809E+01 0. -1.
</event>
<event>
 5   0  0.2910318E-05  0.2261954E+04  0.7818609E-02  0.8493075E-01
        1   -1    0    0  501    0  0.00000000000E+00  0.00000000000E+00  0.14345960609E+04  0.14345960609E+04  0.50400001928E-02 0. -1.
       -1   -1    0    0    0  501  0.00000000000E+00  0.00000000000E+00 -0.89161640593E+03  0.89161640595E+03  0.50400001928E-02 0.  1.
    10030    2    1    2    0    0  0.00000000000E+00  0.00000000000E+00  0.54297965500E+03  0.23262124669E+04  0.22619543619E+04 0.  0.
        5    1    3    3  502    0  0.67878958710E+03  0.14055221130E+02  0.12016931331E+04  0.13802323460E+04  0.46999998093E+01 0. -1.
       -5    1    3    3    0  502 -0.67878958710E+03 -0.14055221130E+02 -0.65871347813E+03  0.94598012087E+03  0.46999998093E+01 0.  1.
</event>
<event>
 5   0  0.6414768E-05  0.2236960E+04  0.7818609E-02  0.8503200E-01
       -2   -1    0    0    0  501  0.00000000000E+00  0.00000000000E+00  0.80753701998E+03  0.80753701998E+03  0.25500000920E-02 0. -1.
        2   -1    0    0  501    0  0.00000000000E+00  0.00000000000E+00 -0.15491524939E+04  0.15491524939E+04  0.25500000920E-02 0.  1.
    10030    2    1    2    0    0  0.00000000000E+00  0.00000000000E+00 -0.74161547388E+03  0.23566895138E+04  0.22369604273E+04 0.  0.
        2    1    3    3  502    0 -0.45301808855E+03  0.35807763473E+03  0.63835138349E+03  0.86077724753E+03  0.25500000920E-02 0. -1.
       -2    1    3    3    0  502  0.45301808855E+03 -0.35807763473E+03 -0.13799668574E+04  0.14959122663E+04  0.25500000920E-02 0.  1.
</event>
<event>
 5   0  0.2929471E-05  0.1814249E+04  0.7818609E-02  0.8698759E-01
       -1   -1    0    0    0  501  0.00000000000E+00  0.00000000000E+00  0.87779057990E+03  0.87779057991E+03  0.50400001928E-02 0. -1.
        1   -1    0    0  501    0  0.00000000000E+00  0.00000000000E+00 -0.93743829100E+03  0.93743829101E+03  0.50400001928E-02 0.  1.
    10030    2    1    2    0    0  0.00000000000E+00  0.00000000000E+00 -0.59647711095E+02  0.18152288709E+04  0.18142486060E+04 0.  0.
        2    1    3    3  502    0 -0.68236087445E+03 -0.47273918136E+03 -0.39577522609E+03  0.91963945444E+03  0.25500000920E-02 0.  1.
       -2    1    3    3    0  502  0.68236087445E+03  0.47273918136E+03  0.33612751499E+03  0.89558941648E+03  0.25500000920E-02 0. -1.
</event>
<event>
 5   0  0.6445740E-05  0.2426420E+04  0.7818609E-02  0.8429678E-01
        2   -1    0    0  501    0  0.00000000000E+00  0.00000000000E+00  0.16127328343E+04  0.16127328343E+04  0.25500000920E-02 0.  1.
       -2   -1    0    0    0  501  0.00000000000E+00  0.00000000000E+00 -0.91266121102E+03  0.91266121103E+03  0.25500000920E-02 0. -1.
    10030    2    1    2    0    0  0.00000000000E+00  0.00000000000E+00  0.70007162324E+03  0.25253940453E+04  0.24264201628E+04 0.  0.
        5    1    3    3  502    0 -0.36126876228E+02 -0.76390679855E+03  0.13302577829E+04  0.15344271266E+04  0.46999998093E+01 0.  1.
       -5    1    3    3    0  502  0.36126876228E+02  0.76390679855E+03 -0.63018615965E+03  0.99096691865E+03  0.46999998093E+01 0. -1.
</event>
<event>
 5   0  0.2908031E-05  0.2210117E+04  0.7818609E-02  0.8514229E-01
        1   -1    0    0  501    0  0.00000000000E+00  0.00000000000E+00  0.53145808069E+03  0.53145808071E+03  0.50400001928E-02 0.  1.
       -1   -1    0    0    0  501  0.00000000000E+00  0.00000000000E+00 -0.22977441250E+04  0.22977441250E+04  0.50400001928E-02 0. -1.
    10030    2    1    2    0    0  0.00000000000E+00  0.00000000000E+00 -0.17662860443E+04  0.28292022057E+04  0.22101173567E+04 0.  0.
        1    1    3    3  502    0  0.45694123044E+03  0.46681800704E+03 -0.20241263482E+04  0.21269230859E+04  0.50400001928E-02 0. -1.
       -1    1    3    3    0  502 -0.45694123044E+03 -0.46681800704E+03  0.25784030392E+03  0.70227911981E+03  0.50400001928E-02 0.  1.
</event>
<event>
 5   0  0.6306919E-05  0.2197223E+04  0.7818609E-02  0.8519585E-01
       -2   -1    0    0    0  501  0.00000000000E+00  0.00000000000E+00  0.14608457882E+04  0.14608457882E+04  0.25500000920E-02 0.  1.
        2   -1    0    0  501    0  0.00000000000E+00  0.00000000000E+00 -0.82619790755E+03  0.82619790755E+03  0.25500000920E-02 0. -1.
    10030    2    1    2    0    0  0.00000000000E+00  0.00000000000E+00  0.63464788062E+03  0.22870436957E+04  0.21972234601E+04 0.  0.
        3    1    3    3  502    0  0.31541271709E+03 -0.47669556497E+03  0.12938791651E+04  0.14145130427E+04  0.10100000352E+00 0.  1.
       -3    1    3    3    0  502 -0.31541271709E+03  0.47669556497E+03 -0.65923128453E+03  0.87253065302E+03  0.10100000352E+00 0. -1.
</event>
<event>
 5   0  0.6445740E-05  0.2201625E+04  0.7818609E-02  0.8517752E-01
       -2   -1    0    0    0  501  0.00000000000E+00  0.00000000000E+00  0.15572045414E+04  0.15572045414E+04  0.25500000920E-02 0. -1.
        2   -1    0    0  501    0  0.00000000000E+00  0.00000000000E+00 -0.77818174626E+03  0.77818174626E+03  0.25500000920E-02 0.  1.
    10030    2    1    2    0    0  0.00000000000E+00  0.00000000000E+00  0.77902279511E+03  0.23353862876E+04  0.22016249901E+04 0.  0.
        5    1    3    3  502    0  0.42595702101E+03  0.74365853737E+03  0.11223536235E+04  0.14121498327E+04  0.46999998093E+01 0. -1.
       -5    1    3    3    0  502 -0.42595702101E+03 -0.74365853737E+03 -0.34333082837E+03  0.92323645490E+03  0.46999998093E+01 0.  1.
</event>
<event>
 5   0  0.6445740E-05  0.2207988E+04  0.7818609E-02  0.8515111E-01
        2   -1    0    0  501    0  0.00000000000E+00  0.00000000000E+00  0.12981845406E+04  0.12981845406E+04  0.25500000920E-02 0. -1.
       -2   -1    0    0    0  501  0.00000000000E+00  0.00000000000E+00 -0.93885137824E+03  0.93885137825E+03  0.25500000920E-02 0.  1.
    10030    2    1    2    0    0  0.00000000000E+00  0.00000000000E+00  0.35933316236E+03  0.22370359189E+04  0.22079876315E+04 0.  0.
        5    1    3    3  502    0 -0.60756425934E+03 -0.33237823297E+03  0.10507277910E+04  0.12584357750E+04  0.46999998093E+01 0. -1.
       -5    1    3    3    0  502  0.60756425934E+03  0.33237823297E+03 -0.69139462867E+03  0.97860014384E+03  0.46999998093E+01 0.  1.
</event>
<event>
 5   0  0.6306919E-05  0.2200064E+04  0.7818609E-02  0.8518401E-01
        2   -1    0    0  501    0  0.00000000000E+00  0.00000000000E+00  0.15848345820E+04  0.15848345820E+04  0.25500000920E-02 0.  1.
       -2   -1    0    0    0  501  0.00000000000E+00  0.00000000000E+00 -0.76353120547E+03  0.76353120548E+03  0.25500000920E-02 0. -1.
    10030    2    1    2    0    0  0.00000000000E+00  0.00000000000E+00  0.82130337654E+03  0.23483657875E+04  0.22000642344E+04 0.  0.
        3    1    3    3  502    0 -0.37956261049E+03  0.93469605074E+03  0.87878780784E+03  0.13379060146E+04  0.10100000352E+00 0. -1.
       -3    1    3    3    0  502  0.37956261049E+03 -0.93469605074E+03 -0.57484431301E+02  0.10104597729E+04  0.10100000352E+00 0.  1.
</event>
<event>
 5   0  0.2908031E-05  0.1966063E+04  0.7818609E-02  0.8622654E-01
        1   -1    0    0  501    0  0.00000000000E+00  0.00000000000E+00  0.21514647618E+04  0.21514647618E+04  0.50400001928E-02 0. -1.
       -1   -1    0    0    0  501  0.00000000000E+00  0.00000000000E+00 -0.44915967357E+03  0.44915967360E+03  0.50400001928E-02 0.  1.
    10030    2    1    2    0    0  0.00000000000E+00  0.00000000000E+00  0.17023050882E+04  0.26006244354E+04  0.19660632850E+04 0.  0.
        1    1    3    3  502    0 -0.41376342168E+03  0.21333724599E+03  0.19964176212E+04  0.20499746994E+04  0.50400001928E-02 0. -1.
       -1    1    3    3    0  502  0.41376342168E+03 -0.21333724599E+03 -0.29411253304E+03  0.55064973601E+03  0.50400001928E-02 0.  1.
</event>
<event>
 5   0  0.2753631E-05  0.2202310E+04  0.7818609E-02  0.8517467E-01
       -1   -1    0    0    0  501  0.00000000000E+00  0.00000000000E+00  0.15445390002E+04  0.15445390002E+04  0.50400001928E-02 0. -1.
        1   -1    0    0  501    0  0.00000000000E+00  0.00000000000E+00 -0.78505158685E+03  0.78505158687E+03  0.50400001928E-02 0.  1.
    10030    2    1    2    0    0  0.00000000000E+00  0.00000000000E+00  0.75948741334E+03  0.23295905871E+04  0.22023104169E+04 0.  0.
        4    1    3    3  502    0  0.27431864258E+03  0.97441781822E+03 -0.78661245745E+02  0.10153472345E+04  0.12699999809E+01 0.  1.
       -4    1    3    3    0  502 -0.27431864258E+03 -0.97441781822E+03  0.83814865909E+03  0.13142433526E+04  0.12699999809E+01 0. -1.
</event>
<event>
 5   0  0.2910318E-05  0.2170079E+04  0.7818609E-02  0.8530986E-01
        1   -1    0    0  501    0  0.00000000000E+00  0.00000000000E+00  0.14563124479E+04  0.14563124479E+04  0.50400001928E-02 0. -1.
       -1   -1    0    0    0  501  0.00000000000E+00  0.00000000000E+00 -0.80841884280E+03  0.80841884282E+03  0.50400001928E-02 0.  1.
    10030    2    1    2    0    0  0.00000000000E+00  0.00000000000E+00  0.64789360509E+03  0.22647312907E+04  0.21700787303E+04 0.  0.
        5    1    3    3  502    0  0.80300984023E+03  0.37390738406E+03 -0.33000802622E+03  0.94528245659E+03  0.46999998093E+01 0.  1.
       -5    1    3    3    0  502 -0.80300984023E+03 -0.37390738406E+03  0.97790163132E+03  0.13194488341E+04  0.46999998093E+01 0. -1.
</event>
<event>
 5   0  0.6414768E-05  0.2188612E+04  0.7818609E-02  0.8523183E-01
       -2   -1    0    0    0  501  0.00000000000E+00  0.00000000000E+00  0.17662570093E+04  0.17662570093E+04  0.25500000920E-02 0.  1.
        2   -1    0    0  501    0  0.00000000000E+00  0.00000000000E+00 -0.67799081741E+03  0.67799081741E+03  0.25500000920E-02 0. -1.
    10030    2    1    2    0    0  0.00000000000E+00  0.00000000000E+00  0.10882661919E+04  0.24442478267E+04  0.21886123764E+04 0.  0.
        2    1    3    3  502    0 -0.48540486720E+03  0.20043023051E+03 -0.52806472380E+03  0.74474325437E+03  0.25500000920E-02 0. -1.
       -2    1    3    3    0  502  0.48540486720E+03 -0.20043023051E+03  0.16163309157E+04  0.16995045724E+04  0.25500000920E-02 0.  1.
</event>
<event>
 5   0  0.2820239E-05  0.2159298E+04  0.7818609E-02  0.8535563E-01
        1   -1    0    0  501    0  0.00000000000E+00  0.00000000000E+00  0.10619686182E+04  0.10619686182E+04  0.50400001928E-02 0. -1.
       -1   -1    0    0    0  501  0.00000000000E+00  0.00000000000E+00 -0.10976241782E+04  0.10976241782E+04  0.50400001928E-02 0.  1.
    10030    2    1    2    0    0  0.00000000000E+00  0.00000000000E+00 -0.35655559963E+02  0.21595927964E+04  0.21592984341E+04 0.  0.
        3    1    3    3  502    0  0.52642988380E+03 -0.30527443313E+03 -0.90975736004E+03  0.10945224376E+04  0.10100000352E+00 0.  1.
       -3    1    3    3    0  502 -0.52642988380E+03  0.30527443313E+03  0.87410180008E+03  0.10650703588E+04  0.10100000352E+00 0. -1.
</event>
<event>
 5   0  0.2753631E-05  0.2190209E+04  0.7818609E-02  0.8522514E-01
       -1   -1    0    0    0  501  0.00000000000E+00  0.00000000000E+00  0.11240502751E+04  0.11240502751E+04  0.50400001928E-02 0. -1.
        1   -1    0    0  501    0  0.00000000000E+00  0.00000000000E+00 -0.10669040586E+04  0.10669040586E+04  0.50400001928E-02 0.  1.
    10030    2    1    2    0    0  0.00000000000E+00  0.00000000000E+00  0.57146216465E+02  0.21909543338E+04  0.21902089404E+04 0.  0.
        4    1    3    3  502    0 -0.23026355555E+03 -0.30308748236E+02  0.10991299554E+04  0.11234002835E+04  0.12699999809E+01 0. -1.
       -4    1    3    3    0  502  0.23026355555E+03  0.30308748236E+02 -0.10419837389E+04  0.10675540503E+04  0.12699999809E+01 0.  1.
</event>
<event>
 5   0  0.6628798E-05  0.2211558E+04  0.7818609E-02  0.8513633E-01
       -2   -1    0    0    0  501  0.00000000000E+00  0.00000000000E+00  0.65551458423E+03  0.65551458424E+03  0.25500000920E-02 0. -1.
        2   -1    0    0  501    0  0.00000000000E+00  0.00000000000E+00 -0.18653236071E+04  0.18653236071E+04  0.25500000920E-02 0.  1.
    10030    2    1    2    0    0  0.00000000000E+00  0.00000000000E+00 -0.12098090229E+04  0.25208381913E+04  0.22115576671E+04 0.  0.
        4    1    3    3  502    0  0.61114299182E+03  0.34160437069E+03 -0.15804939516E+04  0.17286272145E+04  0.12699999809E+01 0.  1.
       -4    1    3    3    0  502 -0.61114299182E+03 -0.34160437069E+03  0.37068492879E+03  0.79221097685E+03  0.12699999809E+01 0. -1.
</event>
<event>
 5   0  0.2753631E-05  0.2182594E+04  0.7818609E-02  0.8525708E-01
       -1   -1    0    0    0  501  0.00000000000E+00  0.00000000000E+00  0.11700347645E+04  0.11700347645E+04  0.50400001928E-02 0.  1.
        1   -1    0    0  501    0  0.00000000000E+00  0.00000000000E+00 -0.10178578644E+04  0.10178578644E+04  0.50400001928E-02 0. -1.
    10030    2    1    2    0    0  0.00000000000E+00  0.00000000000E+00  0.15217690006E+03  0.21878926289E+04  0.21825939491E+04 0.  0.
        4    1    3    3  502    0 -0.38139325389E+03  0.17896410511E+03  0.10852292369E+04  0.11641361925E+04  0.12699999809E+01 0.  1.
       -4    1    3    3    0  502  0.38139325389E+03 -0.17896410511E+03 -0.93305233685E+03  0.10237564365E+04  0.12699999809E+01 0. -1.
</event>
<event>
 5   0  0.2753631E-05  0.2195841E+04  0.7818609E-02  0.8520161E-01
        1   -1    0    0  501    0  0.00000000000E+00  0.00000000000E+00  0.17474689034E+04  0.17474689034E+04  0.50400001928E-02 0.  1.
       -1   -1    0    0    0  501  0.00000000000E+00  0.00000000000E+00 -0.68981425018E+03  0.68981425020E+03  0.50400001928E-02 0. -1.
    10030    2    1    2    0    0  0.00000000000E+00  0.00000000000E+00  0.10576546533E+04  0.24372831536E+04  0.21958405692E+04 0.  0.
        4    1    3    3  502    0  0.10886137854E+04  0.37457561366E+02  0.37605509790E+03  0.11523463422E+04  0.12699999809E+01 0. -1.
       -4    1    3    3    0  502 -0.10886137854E+04 -0.37457561366E+02  0.68159955535E+03  0.12849368115E+04  0.12699999809E+01 0.  1.
</event>
<event>
 5   0  0.2908031E-05  0.2209220E+04  0.7818609E-02  0.8514600E-01
       -1   -1    0    0    0  501  0.00000000000E+00  0.00000000000E+00  0.81472781825E+03  0.81472781827E+03  0.50400001928E-02 0.  1.
        1   -1    0    0  501    0  0.00000000000E+00  0.00000000000E+00 -0.14976335326E+04  0.14976335326E+04  0.50400001928E-02 0. -1.
    10030    2    1    2    0    0  0.00000000000E+00  0.00000000000E+00 -0.68290571430E+03  0.23123613508E+04  0.22092204060E+04 0.  0.
        1    1    3    3  502    0  0.94766794843E+03 -0.52306779871E+03 -0.11096962505E+03  0.10881124575E+04  0.50400001928E-02 0. -1.
       -1    1    3    3    0  502 -0.94766794843E+03  0.52306779871E+03 -0.57193608925E+03  0.12242488933E+04  0.50400001928E-02 0.  1.
</event>
<event>
 5   0  0.6293013E-05  0.2186709E+04  0.7818609E-02  0.8523981E-01
       -2   -1    0    0    0  501  0.00000000000E+00  0.00000000000E+00  0.66508598816E+03  0.66508598816E+03  0.25500000920E-02 0. -1.
        2   -1    0    0  501    0  0.00000000000E+00  0.00000000000E+00 -0.17973973580E+04  0.17973973580E+04  0.25500000920E-02 0.  1.
    10030    2    1    2    0    0  0.00000000000E+00  0.00000000000E+00 -0.11323113698E+04  0.24624833461E+04  0.21867087579E+04 0.  0.
        1    1    3    3  502    0 -0.52589027244E+03 -0.41817763415E+03 -0.15374841295E+04  0.16778827614E+04  0.50400001928E-02 0.  1.
       -1    1    3    3    0  502  0.52589027244E+03  0.41817763415E+03  0.40517275972E+03  0.78460058475E+03  0.50400001928E-02 0. -1.
</event>
<event>
 5   0  0.2820239E-05  0.2191473E+04  0.7818609E-02  0.8521986E-01
       -1   -1    0    0    0  501  0.00000000000E+00  0.00000000000E+00  0.18101973701E+04  0.18101973701E+04  0.50400001928E-02 0.  1.
        1   -1    0    0  501    0  0.00000000000E+00  0.00000000000E+00 -0.66326371470E+03  0.66326371472E+03  0.50400001928E-02 0. -1.
    10030    2    1    2    0    0  0.00000000000E+00  0.00000000000E+00  0.11469336554E+04  0.24734610849E+04  0.21914727761E+04 0.  0.
        3    1    3    3  502    0  0.17542702721E+02 -0.99990196712E+03  0.68043918613E+02  0.10023680339E+04  0.10100000352E+00 0.  1.
       -3    1    3    3    0  502 -0.17542702721E+02  0.99990196712E+03  0.10788897368E+04  0.14710930510E+04  0.10100000352E+00 0. -1.
</event>
<event>
 5   0  0.6414768E-05  0.2156626E+04  0.7818609E-02  0.8536701E-01
        2   -1    0    0  501    0  0.00000000000E+00  0.00000000000E+00  0.23132444522E+04  0.23132444522E+04  0.25500000920E-02 0. -1.
       -2   -1    0    0    0  501  0.00000000000E+00  0.00000000000E+00 -0.50265278761E+03  0.50265278762E+03  0.25500000920E-02 0.  1.
    10030    2    1    2    0    0  0.00000000000E+00  0.00000000000E+00  0.18105916646E+04  0.28158972398E+04  0.21566258575E+04 0.  0.
        2    1    3    3  502    0 -0.26645919916E+03 -0.96915025552E+03  0.39539522396E+03  0.10800880083E+04  0.25500000920E-02 0.  1.
       -2    1    3    3    0  502  0.26645919916E+03  0.96915025552E+03  0.14151964406E+04  0.17358092315E+04  0.25500000920E-02 0. -1.
</event>
<event>
 5   0  0.6306919E-05  0.2192023E+04  0.7818609E-02  0.8521756E-01
       -2   -1    0    0    0  501  0.00000000000E+00  0.00000000000E+00  0.66180498191E+03  0.66180498191E+03  0.25500000920E-02 0.  1.
        2   -1    0    0  501    0  0.00000000000E+00  0.00000000000E+00 -0.18150984510E+04  0.18150984510E+04  0.25500000920E-02 0. -1.
    10030    2    1    2    0    0  0.00000000000E+00  0.00000000000E+00 -0.11532934691E+04  0.24769034329E+04  0.21920229903E+04 0.  0.
        3    1    3    3  502    0  0.10796171907E+04 -0.27832913712E+01 -0.36326579269E+03  0.11390974811E+04  0.10100000352E+00 0.  1.
       -3    1    3    3    0  502 -0.10796171907E+04  0.27832913712E+01 -0.79002767643E+03  0.13378059518E+04  0.10100000352E+00 0. -1.
</event>
<event>
 5   0  0.2245375E-05  0.2046200E+04  0.7818609E-02  0.8585320E-01
        3   -1    0    0  501    0  0.00000000000E+00  0.00000000000E+00  0.66472802852E+03  0.66472803619E+03  0.10100000352E+00 0.  1.
       -3   -1    0    0    0  501  0.00000000000E+00  0.00000000000E+00 -0.15746798494E+04  0.15746798526E+04  0.10100000352E+00 0. -1.
    10030    2    1    2    0    0  0.00000000000E+00  0.00000000000E+00 -0.90995182084E+03  0.22394078888E+04  0.20462002287E+04 0.  0.
        5    1    3    3  502    0 -0.54142015830E+03  0.81940949301E+03 -0.76864601440E+03  0.12471593685E+04  0.46999998093E+01 0. -1.
       -5    1    3    3    0  502  0.54142015830E+03 -0.81940949301E+03 -0.14130580644E+03  0.99224852027E+03  0.46999998093E+01 0.  1.
</event>
<event>
 5   0  0.2910318E-05  0.2199757E+04  0.7818609E-02  0.8518529E-01
        1   -1    0    0  501    0  0.00000000000E+00  0.00000000000E+00  0.20201383165E+04  0.20201383165E+04  0.50400001928E-02 0. -1.
       -1   -1    0    0    0  501  0.00000000000E+00  0.00000000000E+00 -0.59883637635E+03  0.59883637637E+03  0.50400001928E-02 0.  1.
    10030    2    1    2    0    0  0.00000000000E+00  0.00000000000E+00  0.14213019401E+04  0.26189746928E+04  0.21997566313E+04 0.  0.
        5    1    3    3  502    0  0.82251774334E+03  0.37043588295E+03  0.14598167945E+04  0.17160551696E+04  0.46999998093E+01 0. -1.
       -5    1    3    3    0  502 -0.82251774334E+03 -0.37043588295E+03 -0.38514854392E+02  0.90291952327E+03  0.46999998093E+01 0.  1.
</event>
<event>
 5   0  0.6628798E-05  0.2173765E+04  0.7818609E-02  0.8529428E-01
        2   -1    0    0  501    0  0.00000000000E+00  0.00000000000E+00  0.70979893497E+03  0.70979893498E+03  0.25500000920E-02 0. -1.
       -2   -1    0    0    0  501  0.00000000000E+00  0.00000000000E+00 -0.16642932080E+04  0.16642932080E+04  0.25500000920E-02 0.  1.
    10030    2    1    2    0    0  0.00000000000E+00  0.00000000000E+00 -0.95449427298E+03  0.23740921429E+04  0.21737649795E+04 0.  0.
        4    1    3    3  502    0  0.30765501585E+03  0.23468808983E+03  0.63202173007E+03  0.74106894987E+03  0.12699999809E+01 0. -1.
       -4    1    3    3    0  502 -0.30765501585E+03 -0.23468808983E+03 -0.15865160030E+04  0.16330231931E+04  0.12699999809E+01 0.  1.
</event>
<event>
 5   0  0.6628798E-05  0.2203015E+04  0.7818609E-02  0.8517174E-01
       -2   -1    0    0    0  501  0.00000000000E+00  0.00000000000E+00  0.96076620562E+03  0.96076620562E+03  0.25500000920E-02 0. -1.
        2   -1    0    0  501    0  0.00000000000E+00  0.00000000000E+00 -0.12628654951E+04  0.12628654951E+04  0.25500000920E-02 0.  1.
    10030    2    1    2    0    0  0.00000000000E+00  0.00000000000E+00 -0.30209928946E+03  0.22236317007E+04  0.22030147434E+04 0.  0.
        4    1    3    3  502    0  0.96781892438E+03  0.14936860065E+03 -0.66008309436E+03  0.11809723763E+04  0.12699999809E+01 0.  1.
       -4    1    3    3    0  502 -0.96781892438E+03 -0.14936860065E+03  0.35798380490E+03  0.10426593244E+04  0.12699999809E+01 0. -1.
</event>
<event>
 5   0  0.6414768E-05  0.2194480E+04  0.7818609E-02  0.8520729E-01
        2   -1    0    0  501    0  0.00000000000E+00  0.00000000000E+00  0.24640043682E+04  0.24640043682E+04  0.25500000920E-02 0.  1.
       -2   -1    0    0    0  501  0.00000000000E+00  0.00000000000E+00 -0.48860925642E+03  0.48860925643E+03  0.25500000920E-02 0. -1.
    10030    2    1    2    0    0  0.00000000000E+00  0.00000000000E+00  0.19753951117E+04  0.29526136246E+04  0.21944797490E+04 0.  0.
        2    1    3    3  502    0 -0.66464072574E+03  0.41573903198E+03  0.20206048783E+04  0.21673556033E+04  0.25500000920E-02 0.  1.
       -2    1    3    3    0  502  0.66464072574E+03 -0.41573903198E+03 -0.45209766526E+02  0.78525802131E+03  0.25500000920E-02 0. -1.
</event>
<event>
 5   0  0.2910318E-05  0.2206175E+04  0.7818609E-02  0.8515862E-01
        1   -1    0    0  501    0  0.00000000000E+00  0.00000000000E+00  0.27717962175E+04  0.27717962175E+04  0.50400001928E-02 0. -1.
       -1   -1    0    0    0  501  0.00000000000E+00  0.00000000000E+00 -0.43899421916E+03  0.43899421919E+03  0.50400001928E-02 0.  1.
    10030    2    1    2    0    0  0.00000000000E+00  0.00000000000E+00  0.23328019983E+04  0.32107904367E+04  0.22061754384E+04 0.  0.
        5    1    3    3  502    0 -0.24718303246E+03  0.33760615198E+03 -0.31900059497E+03  0.52617566931E+03  0.46999998093E+01 0.  1.
       -5    1    3    3    0  502  0.24718303246E+03 -0.33760615198E+03  0.26518025933E+04  0.26846147673E+04  0.46999998093E+01 0. -1.
</event>
<event>
 5   0  0.6306919E-05  0.2216514E+04  0.7818609E-02  0.8511586E-01
        2   -1    0    0  501    0  0.00000000000E+00  0.00000000000E+00  0.10695474872E+04  0.10695474872E+04  0.25500000920E-02 0.  1.
       -2   -1    0    0    0  501  0.00000000000E+00  0.00000000000E+00 -0.11483672906E+04  0.11483672906E+04  0.25500000920E-02 0. -1.
    10030    2    1    2    0    0  0.00000000000E+00  0.00000000000E+00 -0.78819803383E+02  0.22179147777E+04  0.22165137942E+04 0.  0.
        3    1    3    3  502    0 -0.22789880146E+03  0.63613335215E+03  0.83956995299E+03  0.10777203819E+04  0.10100000352E+00 0.  1.
       -3    1    3    3    0  502  0.22789880146E+03 -0.63613335215E+03 -0.91838975638E+03  0.11401943958E+04  0.10100000352E+00 0. -1.
</event>
<event>
 5   0  0.2245375E-05  0.2292140E+04  0.7818609E-02  0.8481027E-01
       -3   -1    0    0    0  501  0.00000000000E+00  0.00000000000E+00  0.59259313014E+03  0.59259313875E+03  0.10100000352E+00 0. -1.
        3   -1    0    0  501    0  0.00000000000E+00  0.00000000000E+00 -0.22164898560E+04  0.22164898583E+04  0.10100000352E+00 0.  1.
    10030    2    1    2    0    0  0.00000000000E+00  0.00000000000E+00 -0.16238967258E+04  0.28090829970E+04  0.22921402025E+04 0.  0.
        4    1    3    3  502    0  0.43019957614E+03  0.47513625936E+03  0.35239970523E+03  0.73144603726E+03  0.12699999809E+01 0. -1.
       -4    1    3    3    0  502 -0.43019957614E+03 -0.47513625936E+03 -0.19762964311E+04  0.20776369598E+04  0.12699999809E+01 0.  1.
</event>
<event>
 5   0  0.2820239E-05  0.2310407E+04  0.7818609E-02  0.8473829E-01
        1   -1    0    0  501    0  0.00000000000E+00  0.00000000000E+00  0.10605146383E+04  0.10605146383E+04  0.50400001928E-02 0. -1.
       -1   -1    0    0    0  501  0.00000000000E+00  0.00000000000E+00 -0.12583466287E+04  0.12583466287E+04  0.50400001928E-02 0.  1.
    10030    2    1    2    0    0  0.00000000000E+00  0.00000000000E+00 -0.19783199040E+03  0.23188612670E+04  0.23104069077E+04 0.  0.
        3    1    3    3  502    0  0.66783874951E+03  0.91988565736E+03 -0.30533040161E+03  0.11770407309E+04  0.10100000352E+00 0. -1.
       -3    1    3    3    0  502 -0.66783874951E+03 -0.91988565736E+03  0.10749841121E+03  0.11418205361E+04  0.10100000352E+00 0.  1.
</event>
<event>
 5   0  0.2245375E-05  0.2189660E+04  0.7818609E-02  0.8522744E-01
       -3   -1    0    0    0  501  0.00000000000E+00  0.00000000000E+00  0.19847349929E+04  0.19847349954E+04  0.10100000352E+00 0. -1.
        3   -1    0    0  501    0  0.00000000000E+00  0.00000000000E+00 -0.60393583387E+03  0.60393584232E+03  0.10100000352E+00 0.  1.
    10030    2    1    2    0    0  0.00000000000E+00  0.00000000000E+00  0.13807991590E+04  0.25886708378E+04  0.21896598797E+04 0.  0.
        4    1    3    3  502    0 -0.87788407103E+03  0.13613260787E+03 -0.66075255360E+02  0.89083111832E+03  0.12699999809E+01 0.  1.
       -4    1    3    3    0  502  0.87788407103E+03 -0.13613260787E+03  0.14468744144E+04  0.16978397194E+04  0.12699999809E+01 0. -1.
</event>
<event>
 5   0  0.6628798E-05  0.2168418E+04  0.7818609E-02  0.8531689E-01
       -2   -1    0    0    0  501  0.00000000000E+00  0.00000000000E+00  0.11861101225E+04  0.11861101225E+04  0.25500000920E-02 0.  1.
        2   -1    0    0  501    0  0.00000000000E+00  0.00000000000E+00 -0.99106284860E+03  0.99106284860E+03  0.25500000920E-02 0. -1.
    10030    2    1    2    0    0  0.00000000000E+00  0.00000000000E+00  0.19504727388E+03  0.21771729711E+04  0.21684184806E+04 0.  0.
        4    1    3    3  502    0 -0.22083732030E+02  0.94413966093E+02  0.11817473937E+04  0.11857192769E+04  0.12699999809E+01 0.  1.
       -4    1    3    3    0  502  0.22083732030E+02 -0.94413966093E+02 -0.98670011985E+03  0.99145369414E+03  0.12699999809E+01 0. -1.
</event>
<event>
 5   0  0.2753631E-05  0.2196325E+04  0.7818609E-02  0.8519959E-01
       -1   -1    0    0    0  501  0.00000000000E+00  0.00000000000E+00  0.58781220131E+03  0.58781220133E+03  0.50400001928E-02 0.  1.
        1   -1    0    0  501    0  0.00000000000E+00  0.00000000000E+00 -0.20516098946E+04  0.20516098946E+04  0.50400001928E-02 0. -1.
    10030    2    1    2    0    0  0.00000000000E+00  0.00000000000E+00 -0.14637976933E+04  0.26394220960E+04  0.21963254116E+04 0.  0.
        4    1    3    3  502    0  0.10230821717E+04  0.71178726312E+02 -0.12037977426E+04  0.15814215627E+04  0.12699999809E+01 0. -1.
       -4    1    3    3    0  502 -0.10230821717E+04 -0.71178726312E+02 -0.25999995069E+03  0.10580005332E+04  0.12699999809E+01 0.  1.
</event>
<event>
 5   0  0.2820239E-05  0.2196793E+04  0.7818609E-02  0.8519764E-01
       -1   -1    0    0    0  501  0.00000000000E+00  0.00000000000E+00  0.10885000245E+04  0.10885000245E+04  0.50400001928E-02 0.  1.
        1   -1    0    0  501    0  0.00000000000E+00  0.00000000000E+00 -0.11083831237E+04  0.11083831237E+04  0.50400001928E-02 0. -1.
    10030    2    1    2    0    0  0.00000000000E+00  0.00000000000E+00 -0.19883099243E+02  0.21968831482E+04  0.21967931694E+04 0.  0.
        3    1    3    3  502    0 -0.92716526381E+03 -0.17438778825E+03  0.55260128594E+03  0.10933502268E+04  0.10100000352E+00 0.  1.
       -3    1    3    3    0  502  0.92716526381E+03  0.17438778825E+03 -0.57248438518E+03  0.11035329214E+04  0.10100000352E+00 0. -1.
</event>
<event>
 5   0  0.6414768E-05  0.2148805E+04  0.7818609E-02  0.8540044E-01
        2   -1    0    0  501    0  0.00000000000E+00  0.00000000000E+00  0.17541728852E+04  0.17541728852E+04  0.25500000920E-02 0. -1.
       -2   -1    0    0    0  501  0.00000000000E+00  0.00000000000E+00 -0.65805392767E+03  0.65805392768E+03  0.25500000920E-02 0.  1.
    10030    2    1    2    0    0  0.00000000000E+00  0.00000000000E+00  0.10961189575E+04  0.24122268129E+04  0.21488046509E+04 0.  0.
        2    1    3    3  502    0  0.45684751930E+03  0.73459309640E+03 -0.16723717309E+03  0.88108169044E+03  0.25500000920E-02 0.  1.
       -2    1    3    3    0  502 -0.45684751930E+03 -0.73459309640E+03  0.12633561306E+04  0.15311451224E+04  0.25500000920E-02 0. -1.
</event>
<event>
 5   0  0.2820239E-05  0.2205700E+04  0.7818609E-02  0.8516060E-01
       -1   -1    0    0    0  501  0.00000000000E+00  0.00000000000E+00  0.97534626136E+03  0.97534626137E+03  0.50400001928E-02 0. -1.
        1   -1    0    0  501    0  0.00000000000E+00  0.00000000000E+00 -0.12470213943E+04  0.12470213944E+04  0.50400001928E-02 0.  1.
    10030    2    1    2    0    0  0.00000000000E+00  0.00000000000E+00 -0.27167513299E+03  0.22223676557E+04  0.22056995759E+04 0.  0.
        3    1    3    3  502    0  0.53434140941E+03  0.95018469557E+03  0.32475538400E+02  0.10906082561E+04  0.10100000352E+00 0. -1.
       -3    1    3    3    0  502 -0.53434140941E+03 -0.95018469557E+03 -0.30415067139E+03  0.11317593996E+04  0.10100000352E+00 0.  1.
</event>
<event>
 5   0  0.6628798E-05  0.2214988E+04  0.7818609E-02  0.8512216E-01
       -2   -1    0    0    0  501  0.00000000000E+00  0.00000000000E+00  0.61084235364E+03  0.61084235364E+03  0.25500000920E-02 0.  1.
        2   -1    0    0  501    0  0.00000000000E+00  0.00000000000E+00 -0.20079531744E+04  0.20079531744E+04  0.25500000920E-02 0. -1.
    10030    2    1    2    0    0  0.00000000000E+00  0.00000000000E+00 -0.13971108207E+04  0.26187955280E+04  0.22149878944E+04 0.  0.
        4    1    3    3  502    0  0.95984856034E+03 -0.58762198311E+02 -0.49062038435E+02  0.96289716546E+03  0.12699999809E+01 0.  1.
       -4    1    3    3    0  502 -0.95984856034E+03  0.58762198311E+02 -0.13480487823E+04  0.16558983625E+04  0.12699999809E+01 0. -1.
</event>
<event>
 5   0  0.6293013E-05  0.2208199E+04  0.7818609E-02  0.8515023E-01
        2   -1    0    0  501    0  0.00000000000E+00  0.00000000000E+00  0.13796754220E+04  0.13796754220E+04  0.25500000920E-02 0. -1.
       -2   -1    0    0    0  501  0.00000000000E+00  0.00000000000E+00 -0.88356726746E+03  0.88356726746E+03  0.25500000920E-02 0.  1.
    10030    2    1    2    0    0  0.00000000000E+00  0.00000000000E+00  0.49610815449E+03  0.22632426894E+04  0.22081993049E+04 0.  0.
        1    1    3    3  502    0 -0.41249054828E+03  0.71187428651E+03  0.10026971847E+04  0.12970409001E+04  0.50400001928E-02 0. -1.
       -1    1    3    3    0  502  0.41249054828E+03 -0.71187428651E+03 -0.50658903021E+03  0.96620178936E+03  0.50400001928E-02 0.  1.
</event>
<event>
 5   0  0.6306919E-05  0.2198917E+04  0.7818609E-02  0.8518879E-01
        2   -1    0    0  501    0  0.00000000000E+00  0.00000000000E+00  0.14526248610E+04  0.14526248610E+04  0.25500000920E-02 0.  1.
       -2   -1    0    0    0  501  0.00000000000E+00  0.00000000000E+00 -0.83215501478E+03  0.83215501478E+03  0.25500000920E-02 0. -1.
    10030    2    1    2    0    0  0.00000000000E+00  0.00000000000E+00  0.62046984626E+03  0.22847798758E+04  0.21989170632E+04 0.  0.
        3    1    3    3  502    0 -0.48196647399E+03 -0.81760511169E+03 -0.26644993111E+03  0.98578160700E+03  0.10100000352E+00 0. -1.
       -3    1    3    3    0  502  0.48196647399E+03  0.81760511169E+03  0.88691977737E+03  0.12989982688E+04  0.10100000352E+00 0.  1.
</event>
<event>
 5   0  0.6306919E-05  0.2195741E+04  0.7818609E-02  0.8520203E-01
       -2   -1    0    0    0  501  0.00000000000E+00  0.00000000000E+00  0.82436753103E+03  0.82436753104E+03  0.25500000920E-02 0. -1.
        2   -1    0    0  501    0  0.00000000000E+00  0.00000000000E+00 -0.14621149860E+04  0.14621149860E+04  0.25500000920E-02 0.  1.
    10030    2    1    2    0    0  0.00000000000E+00  0.00000000000E+00 -0.63774745496E+03  0.22864825170E+04  0.21957414430E+04 0.  0.
        3    1    3    3  502    0  0.66808715587E+03  0.31665658886E+03 -0.11640226524E+04  0.13789708440E+04  0.10100000352E+00 0.  1.
       -3    1    3    3    0  502 -0.66808715587E+03 -0.31665658886E+03  0.52627519741E+03  0.90751167305E+03  0.10100000352E+00 0. -1.
</event>
<event>
 5   0  0.6445740E-05  0.2225865E+04  0.7818609E-02  0.8507739E-01
        2   -1    0    0  501    0  0.00000000000E+00  0.00000000000E+00  0.12572722044E+04  0.12572722044E+04  0.25500000920E-02 0. -1.
       -2   -1    0    0    0  501  0.00000000000E+00  0.00000000000E+00 -0.98516378005E+03  0.98516378005E+03  0.25500000920E-02 0.  1.
    10030    2    1    2    0    0  0.00000000000E+00  0.00000000000E+00  0.27210842432E+03  0.22424359844E+04  0.22258652586E+04 0.  0.
        5    1    3    3  502    0  0.64759889805E+03  0.50853367012E+03 -0.61825619651E+03  0.10296861857E+04  0.46999998093E+01 0.  1.
       -5    1    3    3    0  502 -0.64759889805E+03 -0.50853367012E+03  0.89036462083E+03  0.12127497988E+04  0.46999998093E+01 0. -1.
</event>
<event>
 5   0  0.2820239E-05  0.2193307E+04  0.7818609E-02  0.8521219E-01
       -1   -1    0    0    0  501  0.00000000000E+00  0.00000000000E+00  0.72931535405E+03  0.72931535407E+03  0.50400001928E-02 0.  1.
        1   -1    0    0  501    0  0.00000000000E+00  0.00000000000E+00 -0.16490107396E+04  0.16490107396E+04  0.50400001928E-02 0. -1.
    10030    2    1    2    0    0  0.00000000000E+00  0.00000000000E+00 -0.91969538556E+03  0.23783260937E+04  0.21933069566E+04 0.  0.
        3    1    3    3  502    0  0.60401473653E+03 -0.88581007119E+03 -0.20984405878E+03  0.10924869900E+04  0.10100000352E+00 0. -1.
       -3    1    3    3    0  502 -0.60401473653E+03  0.88581007119E+03 -0.70985132679E+03  0.12858391037E+04  0.10100000352E+00 0.  1.
</event>
<event>
 5   0  0.2753631E-05  0.2192618E+04  0.7818609E-02  0.8521507E-01
       -1   -1    0    0    0  501  0.00000000000E+00  0.00000000000E+00  0.15789310820E+04  0.15789310820E+04  0.50400001928E-02 0.  1.
        1   -1    0    0  501    0  0.00000000000E+00  0.00000000000E+00 -0.76120725731E+03  0.76120725732E+03  0.50400001928E-02 0. -1.
    10030    2    1    2    0    0  0.00000000000E+00  0.00000000000E+00  0.81772382469E+03  0.23401383393E+04  0.21926183420E+04 0.  0.
        4    1    3    3  502    0 -0.53506378473E+03 -0.35742421939E+03 -0.53846394824E+03  0.83904133557E+03  0.12699999809E+01 0. -1.
       -4    1    3    3    0  502  0.53506378473E+03  0.35742421939E+03  0.13561877729E+04  0.15010970038E+04  0.12699999809E+01 0.  1.
</event>
<event>
 5   0  0.6628798E-05  0.1919415E+04  0.7818609E-02  0.8645252E-01
        2   -1    0    0  501    0  0.00000000000E+00  0.00000000000E+00  0.15761749857E+04  0.15761749857E+04  0.25500000920E-02 0. -1.
       -2   -1    0    0    0  501  0.00000000000E+00  0.00000000000E+00 -0.58435025170E+03  0.58435025171E+03  0.25500000920E-02 0.  1.
    10030    2    1    2    0    0  0.00000000000E+00  0.00000000000E+00  0.99182473399E+03  0.21605252374E+04  0.19194147542E+04 0.  0.
        4    1    3    3  502    0  0.17692830265E+03 -0.15512934987E+03  0.15432004724E+04  0.15610374917E+04  0.12699999809E+01 0. -1.
       -4    1    3    3    0  502 -0.17692830265E+03  0.15512934987E+03 -0.55137573842E+03  0.59948774573E+03  0.12699999809E+01 0.  1.
</event>
<event>
 5   0  0.2820239E-05  0.2214052E+04  0.7818609E-02  0.8512602E-01
       -1   -1    0    0    0  501  0.00000000000E+00  0.00000000000E+00  0.10589158686E+04  0.10589158686E+04  0.50400001928E-02 0.  1.
        1   -1    0    0  501    0  0.00000000000E+00  0.00000000000E+00 -0.11573220510E+04  0.11573220510E+04  0.50400001928E-02 0. -1.
    10030    2    1    2    0    0  0.00000000000E+00  0.00000000000E+00 -0.98406182431E+02  0.22162379196E+04  0.22140521086E+04 0.  0.
        3    1    3    3  502    0 -0.72297157818E+03 -0.73435573082E+03  0.35559747777E+03  0.10901448613E+04  0.10100000352E+00 0. -1.
       -3    1    3    3    0  502  0.72297157818E+03  0.73435573082E+03 -0.45400366020E+03  0.11260930583E+04  0.10100000352E+00 0.  1.
</event>
<event>
 5   0  0.2929471E-05  0.2192653E+04  0.7818609E-02  0.8521492E-01
        1   -1    0    0  501    0  0.00000000000E+00  0.00000000000E+00  0.17600669356E+04  0.17600669356E+04  0.50400001928E-02 0. -1.
       -1   -1    0    0    0  501  0.00000000000E+00  0.00000000000E+00 -0.68289007327E+03  0.68289007329E+03  0.50400001928E-02 0.  1.
    10030    2    1    2    0    0  0.00000000000E+00  0.00000000000E+00  0.10771768623E+04  0.24429570089E+04  0.21926534050E+04 0.  0.
        2    1    3    3  502    0 -0.35897554529E+03  0.65938642464E+03  0.14287132080E+04  0.16139626172E+04  0.25500000920E-02 0. -1.
       -2    1    3    3    0  502  0.35897554529E+03 -0.65938642464E+03 -0.35153634566E+03  0.82899439168E+03  0.25500000920E-02 0.  1.
</event>
<event>
 5   0  0.2820239E-05  0.2192508E+04  0.7818609E-02  0.8521553E-01
        1   -1    0    0  501    0  0.00000000000E+00  0.00000000000E+00  0.13798531793E+04  0.13798531793E+04  0.50400001928E-02 0. -1.
       -1   -1    0    0    0  501  0.00000000000E+00  0.00000000000E+00 -0.87094271598E+03  0.87094271599E+03  0.50400001928E-02 0.  1.
    10030    2    1    2    0    0  0.00000000000E+00  0.00000000000E+00  0.50891046329E+03  0.22507958953E+04  0.21925082218E+04 0.  0.
        3    1    3    3  502    0 -0.82549033655E+03 -0.67950790216E+03  0.50298162744E+03  0.11815903743E+04  0.10100000352E+00 0. -1.
       -3    1    3    3    0  502  0.82549033655E+03  0.67950790216E+03  0.59288358499E+01  0.10692055210E+04  0.10100000352E+00 0.  1.
</event>
<event>
 5   0  0.2820239E-05  0.2198856E+04  0.7818609E-02  0.8518904E-01
        1   -1    0    0  501    0  0.00000000000E+00  0.00000000000E+00  0.97021716661E+03  0.97021716663E+03  0.50400001928E-02 0. -1.
       -1   -1    0    0    0  501  0.00000000000E+00  0.00000000000E+00 -0.12458469844E+04  0.12458469844E+04  0.50400001928E-02 0.  1.
    10030    2    1    2    0    0  0.00000000000E+00  0.00000000000E+00 -0.27562981782E+03  0.22160641511E+04  0.21988561857E+04 0.  0.
        3    1    3    3  502    0 -0.84629504077E+03  0.49237304948E+03 -0.64182418873E+03  0.11707197851E+04  0.10100000352E+00 0.  1.
       -3    1    3    3    0  502  0.84629504077E+03 -0.49237304948E+03  0.36619437091E+03  0.10453443659E+04  0.10100000352E+00 0. -1.
</event>
<event>
 5   0  0.2910318E-05  0.2197355E+04  0.7818609E-02  0.8519530E-01
        1   -1    0    0  501    0  0.00000000000E+00  0.00000000000E+00  0.19732717240E+04  0.19732717240E+04  0.50400001928E-02 0. -1.
       -1   -1    0    0    0  501  0.00000000000E+00  0.00000000000E+00 -0.61172105400E+03  0.61172105402E+03  0.50400001928E-02 0.  1.
    10030    2    1    2    0    0  0.00000000000E+00  0.00000000000E+00  0.13615506700E+04  0.25849927780E+04  0.21973546449E+04 0.  0.
        5    1    3    3  502    0 -0.73545245805E+03 -0.13957118065E+03 -0.26526659548E+03  0.79420330470E+03  0.46999998093E+01 0.  1.
       -5    1    3    3    0  502  0.73545245805E+03  0.13957118065E+03  0.16268172655E+04  0.17907894734E+04  0.46999998093E+01 0. -1.
</event>
<event>
 5   0  0.2929471E-05  0.2184231E+04  0.7818609E-02  0.8525020E-01
        1   -1    0    0  501    0  0.00000000000E+00  0.00000000000E+00  0.10820635047E+04  0.10820635047E+04  0.50400001928E-02 0. -1.
       -1   -1    0    0    0  501  0.00000000000E+00  0.00000000000E+00 -0.11022612076E+04  0.11022612076E+04  0.50400001928E-02 0.  1.
    10030    2    1    2    0    0  0.00000000000E+00  0.00000000000E+00 -0.20197702908E+02  0.21843247124E+04  0.21842313298E+04 0.  0.
        2    1    3    3  502    0 -0.38972405692E+02  0.37116603466E+03  0.10163141399E+04  0.10826714666E+04  0.25500000920E-02 0. -1.
       -2    1    3    3    0  502  0.38972405692E+02 -0.37116603466E+03 -0.10365118428E+04  0.11016532458E+04  0.25500000920E-02 0.  1.
</event>
<event>
 5   0  0.2929471E-05  0.2194461E+04  0.7818609E-02  0.8520737E-01
        1   -1    0    0  501    0  0.00000000000E+00  0.00000000000E+00  0.11878195245E+04  0.11878195245E+04  0.50400001928E-02 0.  1.
       -1   -1    0    0    0  501  0.00000000000E+00  0.00000000000E+00 -0.10135506154E+04  0.10135506154E+04  0.50400001928E-02 0. -1.
    10030    2    1    2    0    0  0.00000000000E+00  0.00000000000E+00  0.17426890905E+03  0.22013701399E+04  0.21944614010E+04 0.  0.
        2    1    3    3  502    0  0.99594365048E+03 -0.45139685812E+03 -0.39938858220E+01  0.10934710008E+04  0.25500000920E-02 0. -1.
       -2    1    3    3    0  502 -0.99594365048E+03  0.45139685812E+03  0.17826279488E+03  0.11078991391E+04  0.25500000920E-02 0.  1.
</event>
<event>
 5   0  0.6445740E-05  0.2200639E+04  0.7818609E-02  0.8518162E-01
       -2   -1    0    0    0  501  0.00000000000E+00  0.00000000000E+00  0.11536455347E+04  0.11536455347E+04  0.25500000920E-02 0. -1.
        2   -1    0    0  501    0  0.00000000000E+00  0.00000000000E+00 -0.10494580084E+04  0.10494580084E+04  0.25500000920E-02 0.  1.
    10030    2    1    2    0    0  0.00000000000E+00  0.00000000000E+00  0.10418752631E+03  0.22031035431E+04  0.22006385848E+04 0.  0.
        5    1    3    3  502    0  0.19281324496E+03 -0.97706446673E+03 -0.41624273907E+03  0.10794035517E+04  0.46999998093E+01 0.  1.
       -5    1    3    3    0  502 -0.19281324496E+03  0.97706446673E+03  0.52043026538E+03  0.11236999914E+04  0.46999998093E+01 0. -1.
</event>
<event>
 5   0  0.2820239E-05  0.2209423E+04  0.7818609E-02  0.8514516E-01
       -1   -1    0    0    0  501  0.00000000000E+00  0.00000000000E+00  0.51728929672E+03  0.51728929674E+03  0.50400001928E-02 0. -1.
        1   -1    0    0  501    0  0.00000000000E+00  0.00000000000E+00 -0.23591967407E+04  0.23591967407E+04  0.50400001928E-02 0.  1.
    10030    2    1    2    0    0  0.00000000000E+00  0.00000000000E+00 -0.18419074440E+04  0.28764860375E+04  0.22094227508E+04 0.  0.
        3    1    3    3  502    0 -0.73881029168E+02  0.33154216425E+03  0.44761395175E+03  0.56190468333E+03  0.10100000352E+00 0. -1.
       -3    1    3    3    0  502  0.73881029168E+02 -0.33154216425E+03 -0.22895213958E+04  0.23145813542E+04  0.10100000352E+00 0.  1.
</event>
<event>
 5   0  0.6445740E-05  0.2143282E+04  0.7818609E-02  0.8542413E-01
        2   -1    0    0  501    0  0.00000000000E+00  0.00000000000E+00  0.24247021441E+04  0.24247021441E+04  0.25500000920E-02 0.  1.
       -2   -1    0    0    0  501  0.00000000000E+00  0.00000000000E+00 -0.47363131607E+03  0.47363131608E+03  0.25500000920E-02 0. -1.
    10030    2    1    2    0    0  0.00000000000E+00  0.00000000000E+00  0.19510708281E+04  0.28983334602E+04  0.21432824057E+04 0.  0.
        5    1    3    3  502    0 -0.75329339823E+03 -0.23272086219E+03 -0.59520546611E+01  0.78845891489E+03  0.46999998093E+01 0. -1.
       -5    1    3    3    0  502  0.75329339823E+03  0.23272086219E+03  0.19570228827E+04  0.21098745453E+04  0.46999998093E+01 0.  1.
</event>
<event>
 5   0  0.2820239E-05  0.2215604E+04  0.7818609E-02  0.8511961E-01
        1   -1    0    0  501    0  0.00000000000E+00  0.00000000000E+00  0.45773617241E+03  0.45773617244E+03  0.50400001928E-02 0.  1.
       -1   -1    0    0    0  501  0.00000000000E+00  0.00000000000E+00 -0.26810746982E+04  0.26810746982E+04  0.50400001928E-02 0. -1.
    10030    2    1    2    0    0  0.00000000000E+00  0.00000000000E+00 -0.22233385258E+04  0.31388108707E+04  0.22156036382E+04 0.  0.
        3    1    3    3  502    0  0.33979582466E+03  0.98416774119E+03 -0.57561285907E+03  0.11896963978E+04  0.10100000352E+00 0.  1.
       -3    1    3    3    0  502 -0.33979582466E+03 -0.98416774119E+03 -0.16477256667E+04  0.19491144728E+04  0.10100000352E+00 0. -1.
</event>
<event>
 5   0  0.6628798E-05  0.2264531E+04  0.7818609E-02  0.8492039E-01
        2   -1    0    0  501    0  0.00000000000E+00  0.00000000000E+00  0.12245369823E+04  0.12245369823E+04  0.25500000920E-02 0.  1.
       -2   -1    0    0    0  501  0.00000000000E+00  0.00000000000E+00 -0.10469471087E+04  0.10469471087E+04  0.25500000920E-02 0. -1.
    10030    2    1    2    0    0  0.00000000000E+00  0.00000000000E+00  0.17758987363E+03  0.22714840909E+04  0.22645312566E+04 0.  0.
        4    1    3    3  502    0 -0.68761426310E+03 -0.39881329242E+03  0.89759462781E+03  0.11989758737E+04  0.12699999809E+01 0.  1.
       -4    1    3    3    0  502  0.68761426310E+03  0.39881329242E+03 -0.72000475418E+03  0.10725082172E+04  0.12699999809E+01 0. -1.
</event>
<event>
 5   0  0.2753631E-05  0.2206674E+04  0.7818609E-02  0.8515656E-01
        1   -1    0    0  501    0  0.00000000000E+00  0.00000000000E+00  0.15196558172E+04  0.15196558173E+04  0.50400001928E-02 0.  1.
       -1   -1    0    0    0  501  0.00000000000E+00  0.00000000000E+00 -0.80107091109E+03  0.80107091110E+03  0.50400001928E-02 0. -1.
    10030    2    1    2    0    0  0.00000000000E+00  0.00000000000E+00  0.71858490616E+03  0.23207267284E+04  0.22066735781E+04 0.  0.
        4    1    3    3  502    0  0.45032871210E+03  0.31277865354E+03  0.13662362136E+04  0.14721512963E+04  0.12699999809E+01 0.  1.
       -4    1    3    3    0  502 -0.45032871210E+03 -0.31277865354E+03 -0.64765130739E+03  0.84857543207E+03  0.12699999809E+01 0. -1.
</event>
<event>
 5   0  0.6628798E-05  0.2251152E+04  0.7818609E-02  0.8497434E-01
        2   -1    0    0  501    0  0.00000000000E+00  0.00000000000E+00  0.24447769704E+04  0.24447769704E+04  0.25500000920E-02 0. -1.
       -2   -1    0    0    0  501  0.00000000000E+00  0.00000000000E+00 -0.51821564291E+03  0.51821564291E+03  0.25500000920E-02 0.  1.
    10030    2    1    2    0    0  0.00000000000E+00  0.00000000000E+00  0.19265613275E+04  0.29629926133E+04  0.22511523000E+04 0.  0.
        4    1    3    3  502    0  0.65282306610E+03  0.29077217002E+02  0.21695342201E+04  0.22658119483E+04  0.12699999809E+01 0. -1.
       -4    1    3    3    0  502 -0.65282306610E+03 -0.29077217002E+02 -0.24297289259E+03  0.69718066498E+03  0.12699999809E+01 0.  1.
</event>
<event>
 5   0  0.6414768E-05  0.2219490E+04  0.7818609E-02  0.8510359E-01
       -2   -1    0    0    0  501  0.00000000000E+00  0.00000000000E+00  0.93347102831E+03  0.93347102831E+03  0.25500000920E-02 0.  1.
        2   -1    0    0  501    0  0.00000000000E+00  0.00000000000E+00 -0.13193062416E+04  0.13193062416E+04  0.25500000920E-02 0. -1.
    10030    2    1    2    0    0  0.00000000000E+00  0.00000000000E+00 -0.38583521330E+03  0.22527772699E+04  0.22194901703E+04 0.  0.
        2    1    3    3  502    0 -0.88622375308E+03 -0.19535142246E+03  0.45539455083E+03  0.10153516217E+04  0.25500000920E-02 0. -1.
       -2    1    3    3    0  502  0.88622375308E+03  0.19535142246E+03 -0.84122976413E+03  0.12374256482E+04  0.25500000920E-02 0.  1.
</event>
<event>
 5   0  0.2908031E-05  0.2215356E+04  0.7818609E-02  0.8512064E-01
       -1   -1    0    0    0  501  0.00000000000E+00  0.00000000000E+00  0.75141096662E+03  0.75141096664E+03  0.50400001928E-02 0. -1.
        1   -1    0    0  501    0  0.00000000000E+00  0.00000000000E+00 -0.16328621315E+04  0.16328621315E+04  0.50400001928E-02 0.  1.
    10030    2    1    2    0    0  0.00000000000E+00  0.00000000000E+00 -0.88145116492E+03  0.23842730982E+04  0.22153559648E+04 0.  0.
        1    1    3    3  502    0  0.10058837092E+04 -0.46322401847E+03 -0.41498580511E+03  0.11826207110E+04  0.50400001928E-02 0. -1.
       -1    1    3    3    0  502 -0.10058837092E+04  0.46322401847E+03 -0.46646535981E+03  0.12016523872E+04  0.50400001928E-02 0.  1.
</event>
<event>
 5   0  0.2245375E-05  0.2232003E+04  0.7818609E-02  0.8505225E-01
       -3   -1    0    0    0  501  0.00000000000E+00  0.00000000000E+00  0.11229148309E+04  0.11229148355E+04  0.10100000352E+00 0. -1.
        3   -1    0    0  501    0  0.00000000000E+00  0.00000000000E+00 -0.11091307778E+04  0.11091307824E+04  0.10100000352E+00 0.  1.
    10030    2    1    2    0    0  0.00000000000E+00  0.00000000000E+00  0.13784053166E+02  0.22320456178E+04  0.22320030555E+04 0.  0.
        1    1    3    3  502    0 -0.44808163292E+03 -0.37568876145E+03  0.95745747643E+03  0.11218930495E+04  0.50400001928E-02 0. -1.
       -1    1    3    3    0  502  0.44808163292E+03  0.37568876145E+03 -0.94367342327E+03  0.11101525684E+04  0.50400001928E-02 0.  1.
</event>
<event>
 5   0  0.2908031E-05  0.2213429E+04  0.7818609E-02  0.8512859E-01
        1   -1    0    0  501    0  0.00000000000E+00  0.00000000000E+00  0.86959499836E+03  0.86959499838E+03  0.50400001928E-02 0. -1.
       -1   -1    0    0    0  501  0.00000000000E+00  0.00000000000E+00 -0.14084914137E+04  0.14084914137E+04  0.50400001928E-02 0.  1.
    10030    2    1    2    0    0  0.00000000000E+00  0.00000000000E+00 -0.53889641529E+03  0.22780864120E+04  0.22134290940E+04 0.  0.
        1    1    3    3  502    0  0.80432850023E+03  0.75880825945E+03 -0.22247761562E+03  0.11279320017E+04  0.50400001928E-02 0. -1.
       -1    1    3    3    0  502 -0.80432850023E+03 -0.75880825945E+03 -0.31641879967E+03  0.11501544104E+04  0.50400001928E-02 0.  1.
</event>
<event>
 5   0  0.6445740E-05  0.2208715E+04  0.7818609E-02  0.8514810E-01
        2   -1    0    0  501    0  0.00000000000E+00  0.00000000000E+00  0.15875745384E+04  0.15875745384E+04  0.25500000920E-02 0. -1.
       -2   -1    0    0    0  501  0.00000000000E+00  0.00000000000E+00 -0.76821905955E+03  0.76821905955E+03  0.25500000920E-02 0.  1.
    10030    2    1    2    0    0  0.00000000000E+00  0.00000000000E+00  0.81935547887E+03  0.23557935980E+04  0.22087145754E+04 0.  0.
        5    1    3    3  502    0 -0.17066270656E+03 -0.88168916768E+03 -0.27583487410E+03  0.93947246665E+03  0.46999998093E+01 0.  1.
       -5    1    3    3    0  502  0.17066270656E+03  0.88168916768E+03  0.10951903530E+04  0.14163211313E+04  0.46999998093E+01 0. -1.
</event>
<event>
 5   0  0.6306919E-05  0.2223131E+04  0.7818609E-02  0.8508862E-01
        2   -1    0    0  501    0  0.00000000000E+00  0.00000000000E+00  0.18859210975E+04  0.18859210975E+04  0.25500000920E-02 0. -1.
       -2   -1    0    0    0  501  0.00000000000E+00  0.00000000000E+00 -0.65515886104E+03  0.65515886105E+03  0.25500000920E-02 0.  1.
    10030    2    1    2    0    0  0.00000000000E+00  0.00000000000E+00  0.12307622365E+04  0.25410799586E+04  0.22231310517E+04 0.  0.
        3    1    3    3  502    0 -0.89772814271E+03  0.65273232816E+03  0.54677526894E+03  0.12373110019E+04  0.10100000352E+00 0. -1.
       -3    1    3    3    0  502  0.89772814271E+03 -0.65273232816E+03  0.68398696752E+03  0.13037689567E+04  0.10100000352E+00 0.  1.
</event>
<event>
 5   0  0.6445740E-05  0.2220102E+04  0.7818609E-02  0.8510107E-01
        2   -1    0    0  501    0  0.00000000000E+00  0.00000000000E+00  0.13426973775E+04  0.13426973775E+04  0.25500000920E-02 0.  1.
       -2   -1    0    0    0  501  0.00000000000E+00  0.00000000000E+00 -0.91771504734E+03  0.91771504735E+03  0.25500000920E-02 0. -1.
    10030    2    1    2    0    0  0.00000000000E+00  0.00000000000E+00  0.42498233015E+03  0.22604124248E+04  0.22201023286E+04 0.  0.
        5    1    3    3  502    0  0.82578815689E+03  0.73842483489E+03  0.14053851213E+03  0.11166783244E+04  0.46999998093E+01 0. -1.
       -5    1    3    3    0  502 -0.82578815689E+03 -0.73842483489E+03  0.28444381802E+03  0.11437341004E+04  0.46999998093E+01 0.  1.
</event>
<event>
 5   0  0.2929471E-05  0.2189113E+04  0.7818609E-02  0.8522973E-01
        1   -1    0    0  501    0  0.00000000000E+00  0.00000000000E+00  0.11392155640E+04  0.11392155640E+04  0.50400001928E-02 0.  1.
       -1   -1    0    0    0  501  0.00000000000E+00  0.00000000000E+00 -0.10516482253E+04  0.10516482253E+04  0.50400001928E-02 0. -1.
    10030    2    1    2    0    0  0.00000000000E+00  0.00000000000E+00  0.87567338678E+02  0.21908637893E+04  0.21891130863E+04 0.  0.
        2    1    3    3  502    0 -0.31340757135E+03 -0.75244620003E+03 -0.68731710241E+03  0.10662102930E+04  0.25500000920E-02 0. -1.
       -2    1    3    3    0  502  0.31340757135E+03  0.75244620003E+03  0.77488444109E+03  0.11246534963E+04  0.25500000920E-02 0.  1.
</event>
<event>
 5   0  0.6628798E-05  0.2173527E+04  0.7818609E-02  0.8529528E-01
        2   -1    0    0  501    0  0.00000000000E+00  0.00000000000E+00  0.13517010063E+04  0.13517010063E+04  0.25500000920E-02 0. -1.
       -2   -1    0    0    0  501  0.00000000000E+00  0.00000000000E+00 -0.87375487496E+03  0.87375487497E+03  0.25500000920E-02 0.  1.
    10030    2    1    2    0    0  0.00000000000E+00  0.00000000000E+00  0.47794613137E+03  0.22254558813E+04  0.21735274038E+04 0.  0.
        4    1    3    3  502    0  0.35414782218E+03  0.64237496700E+03  0.10599956770E+04  0.12890534226E+04  0.12699999809E+01 0. -1.
       -4    1    3    3    0  502 -0.35414782218E+03 -0.64237496700E+03 -0.58204954563E+03  0.93640245869E+03  0.12699999809E+01 0.  1.
</event>
<event>
 5   0  0.2908031E-05  0.2208462E+04  0.7818609E-02  0.8514914E-01
       -1   -1    0    0    0  501  0.00000000000E+00  0.00000000000E+00  0.87473566684E+03  0.87473566685E+03  0.50400001928E-02 0. -1.
        1   -1    0    0  501    0  0.00000000000E+00  0.00000000000E+00 -0.13939360557E+04  0.13939360557E+04  0.50400001928E-02 0.  1.
    10030    2    1    2    0    0  0.00000000000E+00  0.00000000000E+00 -0.51920038884E+03  0.22686717225E+04  0.22084615326E+04 0.  0.
        1    1    3    3  502    0  0.45863799731E+03 -0.64012456015E+03 -0.10547958484E+04  0.13163215971E+04  0.50400001928E-02 0.  1.
       -1    1    3    3    0  502 -0.45863799731E+03  0.64012456015E+03  0.53559545959E+03  0.95235012545E+03  0.50400001928E-02 0. -1.
</event>
<event>
 5   0  0.6306919E-05  0.2184725E+04  0.7818609E-02  0.8524813E-01
        2   -1    0    0  501    0  0.00000000000E+00  0.00000000000E+00  0.18286238305E+04  0.18286238305E+04  0.25500000920E-02 0.  1.
       -2   -1    0    0    0  501  0.00000000000E+00  0.00000000000E+00 -0.65254311986E+03  0.65254311987E+03  0.25500000920E-02 0. -1.
    10030    2    1    2    0    0  0.00000000000E+00  0.00000000000E+00  0.11760807106E+04  0.24811669504E+04  0.21847250623E+04 0.  0.
        3    1    3    3  502    0  0.82622204569E+03  0.65825965810E+03  0.27227150242E+03  0.10909080747E+04  0.10100000352E+00 0.  1.
       -3    1    3    3    0  502 -0.82622204569E+03 -0.65825965810E+03  0.90380920822E+03  0.13902588756E+04  0.10100000352E+00 0. -1.
</event>
<event>
 5   0  0.2908031E-05  0.2203890E+04  0.7818609E-02  0.8516811E-01
       -1   -1    0    0    0  501  0.00000000000E+00  0.00000000000E+00  0.63199128613E+03  0.63199128615E+03  0.50400001928E-02 0.  1.
        1   -1    0    0  501    0  0.00000000000E+00  0.00000000000E+00 -0.19213601325E+04  0.19213601325E+04  0.50400001928E-02 0. -1.
    10030    2    1    2    0    0  0.00000000000E+00  0.00000000000E+00 -0.12893688464E+04  0.25533514187E+04  0.22038900710E+04 0.  0.
        1    1    3    3  502    0 -0.15682407782E+03 -0.90955078620E+03 -0.13421433132E+04  0.16288723392E+04  0.50400001928E-02 0. -1.
       -1    1    3    3    0  502  0.15682407782E+03  0.90955078620E+03  0.52774466822E+02  0.92447907950E+03  0.50400001928E-02 0.  1.
</event>
<event>
 5   0  0.6445740E-05  0.2242177E+04  0.7818609E-02  0.8501075E-01
       -2   -1    0    0    0  501  0.00000000000E+00  0.00000000000E+00  0.66323771414E+03  0.66323771414E+03  0.25500000920E-02 0. -1.
        2   -1    0    0  501    0  0.00000000000E+00  0.00000000000E+00 -0.18950057060E+04  0.18950057060E+04  0.25500000920E-02 0.  1.
    10030    2    1    2    0    0  0.00000000000E+00  0.00000000000E+00 -0.12317679919E+04  0.25582434201E+04  0.22421768465E+04 0.  0.
        5    1    3    3  502    0 -0.63043993355E+03  0.52121463982E+03 -0.14905637837E+04  0.17002710648E+04  0.46999998093E+01 0.  1.
       -5    1    3    3    0  502  0.63043993355E+03 -0.52121463982E+03  0.25879579187E+03  0.85797235530E+03  0.46999998093E+01 0. -1.
</event>
<event>
 5   0  0.2245375E-05  0.2195132E+04  0.7818609E-02  0.8520457E-01
       -3   -1    0    0    0  501  0.00000000000E+00  0.00000000000E+00  0.15266308580E+04  0.15266308614E+04  0.10100000352E+00 0.  1.
        3   -1    0    0  501    0  0.00000000000E+00  0.00000000000E+00 -0.78909164552E+03  0.78909165199E+03  0.10100000352E+00 0. -1.
    10030    2    1    2    0    0  0.00000000000E+00  0.00000000000E+00  0.73753921252E+03  0.23157225134E+04  0.21951324946E+04 0.  0.
        3    1    3    3  502    0 -0.68549672719E+03  0.84824126010E+03  0.23856881156E+03  0.11163933386E+04  0.10100000352E+00 0. -1.
       -3    1    3    3    0  502  0.68549672719E+03 -0.84824126010E+03  0.49897040096E+03  0.11993291748E+04  0.10100000352E+00 0.  1.
</event>
<event>
 5   0  0.2753631E-05  0.2140158E+04  0.7818609E-02  0.8543757E-01
       -1   -1    0    0    0  501  0.00000000000E+00  0.00000000000E+00  0.82789636825E+03  0.82789636827E+03  0.50400001928E-02 0.  1.
        1   -1    0    0  501    0  0.00000000000E+00  0.00000000000E+00 -0.13831063923E+04  0.13831063923E+04  0.50400001928E-02 0. -1.
    10030    2    1    2    0    0  0.00000000000E+00  0.00000000000E+00 -0.55521002401E+03  0.22110027605E+04  0.21401577130E+04 0.  0.
        4    1    3    3  502    0 -0.58548658016E+03 -0.83521767195E+03 -0.61186451765E+03  0.11894380589E+04  0.12699999809E+01 0. -1.
       -4    1    3    3    0  502  0.58548658016E+03  0.83521767195E+03  0.56654493644E+02  0.10215647016E+04  0.12699999809E+01 0.  1.
</event>
<event>
 5   0  0.6414768E-05  0.2084579E+04  0.7818609E-02  0.8568067E-01
        2   -1    0    0  501    0  0.00000000000E+00  0.00000000000E+00  0.14196429859E+04  0.14196429859E+04  0.25500000920E-02 0.  1.
       -2   -1    0    0    0  501  0.00000000000E+00  0.00000000000E+00 -0.76524010632E+03  0.76524010632E+03  0.25500000920E-02 0. -1.
    10030    2    1    2    0    0  0.00000000000E+00  0.00000000000E+00  0.65440287962E+03  0.21848830923E+04  0.20845793336E+04 0.  0.
        2    1    3    3  502    0  0.75866989195E+03 -0.29079633121E+03  0.10114743660E+04  0.12973908063E+04  0.25500000920E-02 0.  1.
       -2    1    3    3    0  502 -0.75866989195E+03  0.29079633121E+03 -0.35707148641E+03  0.88749228594E+03  0.25500000920E-02 0. -1.
</event>
<event>
 5   0  0.6306919E-05  0.2235679E+04  0.7818609E-02  0.8503723E-01
       -2   -1    0    0    0  501  0.00000000000E+00  0.00000000000E+00  0.70743598145E+03  0.70743598145E+03  0.25500000920E-02 0. -1.
        2   -1    0    0  501    0  0.00000000000E+00  0.00000000000E+00 -0.17663294715E+04  0.17663294715E+04  0.25500000920E-02 0.  1.
    10030    2    1    2    0    0  0.00000000000E+00  0.00000000000E+00 -0.10588934901E+04  0.24737654530E+04  0.22356788886E+04 0.  0.
        3    1    3    3  502    0  0.10856989472E+04 -0.19641640068E+03 -0.72813379149E+03  0.13219305712E+04  0.10100000352E+00 0.  1.
       -3    1    3    3    0  502 -0.10856989472E+04  0.19641640068E+03 -0.33075969857E+03  0.11518348818E+04  0.10100000352E+00 0. -1.
</event>
<event>
 5   0  0.2910318E-05  0.2209077E+04  0.7818609E-02  0.8514660E-01
        1   -1    0    0  501    0  0.00000000000E+00  0.00000000000E+00  0.96592535609E+03  0.96592535610E+03  0.50400001928E-02 0. -1.
       -1   -1    0    0    0  501  0.00000000000E+00  0.00000000000E+00 -0.12630427066E+04  0.12630427066E+04  0.50400001928E-02 0.  1.
    10030    2    1    2    0    0  0.00000000000E+00  0.00000000000E+00 -0.29711735047E+03  0.22289680627E+04  0.22090767086E+04 0.  0.
        5    1    3    3  502    0 -0.73928537182E+03 -0.80201306086E+03  0.26831349685E+02  0.10911048630E+04  0.46999998093E+01 0. -1.
       -5    1    3    3    0  502  0.73928537182E+03  0.80201306086E+03 -0.32394870015E+03  0.11378631996E+04  0.46999998093E+01 0.  1.
</event>
<event>
 5   0  0.2245375E-05  0.2214866E+04  0.7818609E-02  0.8512266E-01
       -4   -1    0    0    0  501  0.00000000000E+00  0.00000000000E+00  0.94509095309E+03  0.94509180639E+03  0.12699999809E+01 0.  1.
        4   -1    0    0  501    0  0.00000000000E+00  0.00000000000E+00 -0.12976597697E+04  0.12976603912E+04  0.12699999809E+01 0. -1.
    10030    2    1    2    0    0  0.00000000000E+00  0.00000000000E+00 -0.35256881664E+03  0.22427521976E+04  0.22148662825E+04 0.  0.
        3    1    3    3  502    0 -0.18429599860E+03 -0.27122422784E+03 -0.12473736134E+04  0.12897552242E+04  0.10100000352E+00 0. -1.
       -3    1    3    3    0  502  0.18429599860E+03  0.27122422784E+03  0.89480479671E+03  0.95299697339E+03  0.10100000352E+00 0.  1.
</event>
<event>
 5   0  0.6293013E-05  0.2195949E+04  0.7818609E-02  0.8520116E-01
       -2   -1    0    0    0  501  0.00000000000E+00  0.00000000000E+00  0.70369145166E+03  0.70369145167E+03  0.25500000920E-02 0.  1.
        2   -1    0    0  501    0  0.00000000000E+00  0.00000000000E+00 -0.17131765805E+04  0.17131765805E+04  0.25500000920E-02 0. -1.
    10030    2    1    2    0    0  0.00000000000E+00  0.00000000000E+00 -0.10094851288E+04  0.24168680321E+04  0.21959487379E+04 0.  0.
        1    1    3    3  502    0  0.31454732180E+03  0.23507517059E+03  0.62376338795E+03  0.73707605961E+03  0.50400001928E-02 0.  1.
       -1    1    3    3    0  502 -0.31454732180E+03 -0.23507517059E+03 -0.16332485168E+04  0.16797919725E+04  0.50400001928E-02 0. -1.
</event>
<event>
 5   0  0.6414768E-05  0.2159774E+04  0.7818609E-02  0.8535360E-01
       -2   -1    0    0    0  501  0.00000000000E+00  0.00000000000E+00  0.71832179394E+03  0.71832179395E+03  0.25500000920E-02 0.  1.
        2   -1    0    0  501    0  0.00000000000E+00  0.00000000000E+00 -0.16234447819E+04  0.16234447819E+04  0.25500000920E-02 0. -1.
    10030    2    1    2    0    0  0.00000000000E+00  0.00000000000E+00 -0.90512298798E+03  0.23417665759E+04  0.21597738475E+04 0.  0.
        2    1    3    3  502    0  0.53260487530E+03 -0.26108170443E+03  0.52587802297E+03  0.79270379376E+03  0.25500000920E-02 0.  1.
       -2    1    3    3    0  502 -0.53260487530E+03  0.26108170443E+03 -0.14310010110E+04  0.15490627821E+04  0.25500000920E-02 0. -1.
</event>
<event>
 5   0  0.2929471E-05  0.2193912E+04  0.7818609E-02  0.8520966E-01
       -1   -1    0    0    0  501  0.00000000000E+00  0.00000000000E+00  0.69445677955E+03  0.69445677956E+03  0.50400001928E-02 0.  1.
        1   -1    0    0  501    0  0.00000000000E+00  0.00000000000E+00 -0.17327386156E+04  0.17327386156E+04  0.50400001928E-02 0. -1.
    10030    2    1    2    0    0  0.00000000000E+00  0.00000000000E+00 -0.10382818360E+04  0.24271953951E+04  0.21939116471E+04 0.  0.
        2    1    3    3  502    0 -0.15845287147E+03 -0.40531564842E+03 -0.16331489073E+04  0.16901371071E+04  0.25500000920E-02 0. -1.
       -2    1    3    3    0  502  0.15845287147E+03  0.40531564842E+03  0.59486707134E+03  0.73705828799E+03  0.25500000920E-02 0.  1.
</event>
<event>
 5   0  0.6414768E-05  0.2147835E+04  0.7818609E-02  0.8540460E-01
       -2   -1    0    0    0  501  0.00000000000E+00  0.00000000000E+00  0.81830412488E+03  0.81830412489E+03  0.25500000920E-02 0.  1.
        2   -1    0    0  501    0  0.00000000000E+00  0.00000000000E+00 -0.14093766941E+04  0.14093766941E+04  0.25500000920E-02 0. -1.
    10030    2    1    2    0    0  0.00000000000E+00  0.00000000000E+00 -0.59107256923E+03  0.22276808190E+04  0.21478349679E+04 0.  0.
        2    1    3    3  502    0 -0.10105285415E+04  0.19879098526E+03  0.20100761687E+02  0.10300921461E+04  0.25500000920E-02 0.  1.
       -2    1    3    3    0  502  0.10105285415E+04 -0.19879098526E+03 -0.61117333091E+03  0.11975886729E+04  0.25500000920E-02 0. -1.
</event>
<event>
 5   0  0.6445740E-05  0.2310971E+04  0.7818609E-02  0.8473608E-01
       -2   -1    0    0    0  501  0.00000000000E+00  0.00000000000E+00  0.68589633912E+03  0.68589633912E+03  0.25500000920E-02 0.  1.
        2   -1    0    0  501    0  0.00000000000E+00  0.00000000000E+00 -0.19465713750E+04  0.19465713750E+04  0.25500000920E-02 0. -1.
    10030    2    1    2    0    0  0.00000000000E+00  0.00000000000E+00 -0.12606750359E+04  0.26324677141E+04  0.23109705147E+04 0.  0.
        5    1    3    3  502    0  0.34661588478E+03 -0.39732788081E+03 -0.18015323991E+04  0.18771129671E+04  0.46999998093E+01 0. -1.
       -5    1    3    3    0  502 -0.34661588478E+03  0.39732788081E+03  0.54085736321E+03  0.75535474698E+03  0.46999998093E+01 0.  1.
</event>
<event>
 5   0  0.6628798E-05  0.2249795E+04  0.7818609E-02  0.8497984E-01
        2   -1    0    0  501    0  0.00000000000E+00  0.00000000000E+00  0.20114435789E+04  0.20114435789E+04  0.25500000920E-02 0.  1.
       -2   -1    0    0    0  501  0.00000000000E+00  0.00000000000E+00 -0.62909758582E+03  0.62909758582E+03  0.25500000920E-02 0. -1.
    10030    2    1    2    0    0  0.00000000000E+00  0.00000000000E+00  0.13823459931E+04  0.26405411647E+04  0.22497949235E+04 0.  0.
        4    1    3    3  502    0  0.24579827694E+03 -0.98194558034E+03  0.11528096603E+03  0.10187861551E+04  0.12699999809E+01 0. -1.
       -4    1    3    3    0  502 -0.24579827694E+03  0.98194558034E+03  0.12670650270E+04  0.16217550097E+04  0.12699999809E+01 0.  1.
</event>
<event>
 5   0  0.6414768E-05  0.2177653E+04  0.7818609E-02  0.8527787E-01
        2   -1    0    0  501    0  0.00000000000E+00  0.00000000000E+00  0.13532751128E+04  0.13532751128E+04  0.25500000920E-02 0. -1.
       -2   -1    0    0    0  501  0.00000000000E+00  0.00000000000E+00 -0.87605512414E+03  0.87605512414E+03  0.25500000920E-02 0.  1.
    10030    2    1    2    0    0  0.00000000000E+00  0.00000000000E+00  0.47721998864E+03  0.22293302369E+04  0.21776534131E+04 0.  0.
        2    1    3    3  502    0 -0.57285294302E+03 -0.56505985265E+03  0.98956392460E+03  0.12754175364E+04  0.25500000920E-02 0. -1.
       -2    1    3    3    0  502  0.57285294302E+03  0.56505985265E+03 -0.51234393596E+03  0.95391270047E+03  0.25500000920E-02 0.  1.
</event>
<event>
 5   0  0.6445740E-05  0.2193339E+04  0.7818609E-02  0.8521206E-01
        2   -1    0    0  501    0  0.00000000000E+00  0.00000000000E+00  0.16224074323E+04  0.16224074323E+04  0.25500000920E-02 0.  1.
       -2   -1    0    0    0  501  0.00000000000E+00  0.00000000000E+00 -0.74129570767E+03  0.74129570768E+03  0.25500000920E-02 0. -1.
    10030    2    1    2    0    0  0.00000000000E+00  0.00000000000E+00  0.88111172461E+03  0.23637031400E+04  0.21933387022E+04 0.  0.
        5    1    3    3  502    0  0.53899123474E+03 -0.54767999978E+03 -0.40264822263E+03  0.86753248612E+03  0.46999998093E+01 0. -1.
       -5    1    3    3    0  502 -0.53899123474E+03  0.54767999978E+03  0.12837599472E+04  0.14961706538E+04  0.46999998093E+01 0.  1.
</event>
<event>
 5   0  0.2908031E-05  0.2177646E+04  0.7818609E-02  0.8527790E-01
       -1   -1    0    0    0  501  0.00000000000E+00  0.00000000000E+00  0.92431544674E+03  0.92431544675E+03  0.50400001928E-02 0.  1.
        1   -1    0    0  501    0  0.00000000000E+00  0.00000000000E+00 -0.12826095476E+04  0.12826095476E+04  0.50400001928E-02 0. -1.
    10030    2    1    2    0    0  0.00000000000E+00  0.00000000000E+00 -0.35829410089E+03  0.22069249944E+04  0.21776462679E+04 0.  0.
        1    1    3    3  502    0 -0.72091779974E+03 -0.81544944366E+03 -0.20879006656E+03  0.11082750386E+04  0.50400001928E-02 0.  1.
       -1    1    3    3    0  502  0.72091779974E+03  0.81544944366E+03 -0.14950403433E+03  0.10986499558E+04  0.50400001928E-02 0. -1.
</event>
<event>
 5   0  0.6306919E-05  0.2209951E+04  0.7818609E-02  0.8514298E-01
       -2   -1    0    0    0  501  0.00000000000E+00  0.00000000000E+00  0.16134396136E+04  0.16134396136E+04  0.25500000920E-02 0.  1.
        2   -1    0    0  501    0  0.00000000000E+00  0.00000000000E+00 -0.75674995080E+03  0.75674995081E+03  0.25500000920E-02 0. -1.
    10030    2    1    2    0    0  0.00000000000E+00  0.00000000000E+00  0.85668966279E+03  0.23701895644E+04  0.22099505408E+04 0.  0.
        3    1    3    3  502    0  0.59127470445E+03 -0.63722348466E+03 -0.30325246240E+03  0.92066368001E+03  0.10100000352E+00 0.  1.
       -3    1    3    3    0  502 -0.59127470445E+03  0.63722348466E+03  0.11599421252E+04  0.14495258844E+04  0.10100000352E+00 0. -1.
</event>
<event>
 5   0  0.2908031E-05  0.2186128E+04  0.7818609E-02  0.8524224E-01
        1   -1    0    0  501    0  0.00000000000E+00  0.00000000000E+00  0.23981334000E+04  0.23981334000E+04  0.50400001928E-02 0.  1.
       -1   -1    0    0    0  501  0.00000000000E+00  0.00000000000E+00 -0.49821620403E+03  0.49821620406E+03  0.50400001928E-02 0. -1.
    10030    2    1    2    0    0  0.00000000000E+00  0.00000000000E+00  0.18999171960E+04  0.28963496041E+04  0.21861280103E+04 0.  0.
        1    1    3    3  502    0 -0.56778024544E+03  0.33049903096E+03 -0.20745952617E+03  0.68894373617E+03  0.50400001928E-02 0. -1.
       -1    1    3    3    0  502  0.56778024544E+03 -0.33049903096E+03  0.21073767221E+04  0.22074058679E+04  0.50400001928E-02 0.  1.
</event>
<event>
 5   0  0.6414768E-05  0.2196770E+04  0.7818609E-02  0.8519774E-01
        2   -1    0    0  501    0  0.00000000000E+00  0.00000000000E+00  0.20777696720E+04  0.20777696720E+04  0.25500000920E-02 0.  1.
       -2   -1    0    0    0  501  0.00000000000E+00  0.00000000000E+00 -0.58064625364E+03  0.58064625364E+03  0.25500000920E-02 0. -1.
    10030    2    1    2    0    0  0.00000000000E+00  0.00000000000E+00  0.14971234183E+04  0.26584159256E+04  0.21967696065E+04 0.  0.
        2    1    3    3  502    0  0.88387604233E+02 -0.12304673269E+03  0.20650647685E+04  0.20706147312E+04  0.25500000920E-02 0.  1.
       -2    1    3    3    0  502 -0.88387604233E+02  0.12304673269E+03 -0.56794135012E+03  0.58780119445E+03  0.25500000920E-02 0. -1.
</event>
<event>
 5   0  0.6445740E-05  0.2217444E+04  0.7818609E-02  0.8511203E-01
       -2   -1    0    0    0  501  0.00000000000E+00  0.00000000000E+00  0.68353874130E+03  0.68353874131E+03  0.25500000920E-02 0.  1.
        2   -1    0    0  501    0  0.00000000000E+00  0.00000000000E+00 -0.17983822491E+04  0.17983822491E+04  0.25500000920E-02 0. -1.
    10030    2    1    2    0    0  0.00000000000E+00  0.00000000000E+00 -0.11148435078E+04  0.24819209905E+04  0.22174435181E+04 0.  0.
        5    1    3    3  502    0 -0.64316989219E+03  0.88597638522E+03 -0.36156467152E+03  0.11529842874E+04  0.46999998093E+01 0.  1.
       -5    1    3    3    0  502  0.64316989219E+03 -0.88597638522E+03 -0.75327883632E+03  0.13289367030E+04  0.46999998093E+01 0. -1.
</event>
<event>
 5   0  0.2908031E-05  0.2168591E+04  0.7818609E-02  0.8531616E-01
        1   -1    0    0  501    0  0.00000000000E+00  0.00000000000E+00  0.10905829498E+04  0.10905829498E+04  0.50400001928E-02 0.  1.
       -1   -1    0    0    0  501  0.00000000000E+00  0.00000000000E+00 -0.10780447480E+04  0.10780447480E+04  0.50400001928E-02 0. -1.
    10030    2    1    2    0    0  0.00000000000E+00  0.00000000000E+00  0.12538201750E+02  0.21686276978E+04  0.21685914519E+04 0.  0.
        1    1    3    3  502    0 -0.85999374141E+03  0.11755281234E+03 -0.64357968059E+03  0.10805566641E+04  0.50400001928E-02 0. -1.
       -1    1    3    3    0  502  0.85999374141E+03 -0.11755281234E+03  0.65611788234E+03  0.10880710338E+04  0.50400001928E-02 0.  1.
</event>
<event>
 5   0  0.2753631E-05  0.2251174E+04  0.7818609E-02  0.8497425E-01
        1   -1    0    0  501    0  0.00000000000E+00  0.00000000000E+00  0.14271422856E+04  0.14271422856E+04  0.50400001928E-02 0.  1.
       -1   -1    0    0    0  501  0.00000000000E+00  0.00000000000E+00 -0.88775014035E+03  0.88775014037E+03  0.50400001928E-02 0. -1.
    10030    2    1    2    0    0  0.00000000000E+00  0.00000000000E+00  0.53939214523E+03  0.23148924260E+04  0.22511737066E+04 0.  0.
        4    1    3    3  502    0  0.33211276163E+03  0.64336954889E+03  0.11559019491E+04  0.13639406848E+04  0.12699999809E+01 0.  1.
       -4    1    3    3    0  502 -0.33211276163E+03 -0.64336954889E+03 -0.61650980384E+03  0.95095174116E+03  0.12699999809E+01 0. -1.
</event>
<event>
 5   0  0.2910318E-05  0.2208309E+04  0.7818609E-02  0.8514978E-01
       -1   -1    0    0    0  501  0.00000000000E+00  0.00000000000E+00  0.74948406317E+03  0.74948406318E+03  0.50400001928E-02 0.  1.
        1   -1    0    0  501    0  0.00000000000E+00  0.00000000000E+00 -0.16266612541E+04  0.16266612541E+04  0.50400001928E-02 0. -1.
    10030    2    1    2    0    0  0.00000000000E+00  0.00000000000E+00 -0.87717719097E+03  0.23761453173E+04  0.22083085710E+04 0.  0.
        5    1    3    3  502    0  0.17439423134E+03 -0.25186810316E+03 -0.15800053797E+04  0.16094377836E+04  0.46999998093E+01 0. -1.
       -5    1    3    3    0  502 -0.17439423134E+03  0.25186810316E+03  0.70282818877E+03  0.76670753371E+03  0.46999998093E+01 0.  1.
</event>
<event>
 5   0  0.2245375E-05  0.2163651E+04  0.7818609E-02  0.8533712E-01
        3   -1    0    0  501    0  0.00000000000E+00  0.00000000000E+00  0.76515081753E+03  0.76515082419E+03  0.10100000352E+00 0.  1.
       -3   -1    0    0    0  501  0.00000000000E+00  0.00000000000E+00 -0.15295628629E+04  0.15295628663E+04  0.10100000352E+00 0. -1.
    10030    2    1    2    0    0  0.00000000000E+00  0.00000000000E+00 -0.76441204542E+03  0.22947136905E+04  0.21636508836E+04 0.  0.
        3    1    3    3  502    0  0.37454976326E+03 -0.16650981332E+03 -0.14440174264E+04  0.15010660815E+04  0.10100000352E+00 0. -1.
       -3    1    3    3    0  502 -0.37454976326E+03  0.16650981332E+03  0.67960538101E+03  0.79364760894E+03  0.10100000352E+00 0.  1.
</event>
<event>
 5   0  0.2245375E-05  0.2173834E+04  0.7818609E-02  0.8529399E-01
        3   -1    0    0  501    0  0.00000000000E+00  0.00000000000E+00  0.14912131997E+04  0.14912132031E+04  0.10100000352E+00 0.  1.
       -3   -1    0    0    0  501  0.00000000000E+00  0.00000000000E+00 -0.79223284773E+03  0.79223285417E+03  0.10100000352E+00 0. -1.
    10030    2    1    2    0    0  0.00000000000E+00  0.00000000000E+00  0.69898035192E+03  0.22834460572E+04  0.21738335640E+04 0.  0.
        4    1    3    3  502    0 -0.57200930542E+03 -0.20512828899E+03  0.12961043945E+04  0.14314889013E+04  0.12699999809E+01 0.  1.
       -4    1    3    3    0  502  0.57200930542E+03  0.20512828899E+03 -0.59712404253E+03  0.85195715591E+03  0.12699999809E+01 0. -1.
</event>
<event>
 5   0  0.2820239E-05  0.2246566E+04  0.7818609E-02  0.8499293E-01
        1   -1    0    0  501    0  0.00000000000E+00  0.00000000000E+00  0.87822788273E+03  0.87822788274E+03  0.50400001928E-02 0.  1.
       -1   -1    0    0    0  501  0.00000000000E+00  0.00000000000E+00 -0.14367166429E+04  0.14367166429E+04  0.50400001928E-02 0. -1.
    10030    2    1    2    0    0  0.00000000000E+00  0.00000000000E+00 -0.55848876020E+03  0.23149445257E+04  0.22465659264E+04 0.  0.
        3    1    3    3  502    0  0.88263805571E+03  0.80220966991E+02  0.43189095352E+03  0.98590828522E+03  0.10100000352E+00 0.  1.
       -3    1    3    3    0  502 -0.88263805571E+03 -0.80220966991E+02 -0.99037971372E+03  0.13290362405E+04  0.10100000352E+00 0. -1.
</event>
<event>
 5   0  0.6445740E-05  0.1847595E+04  0.7818609E-02  0.8681391E-01
       -2   -1    0    0    0  501  0.00000000000E+00  0.00000000000E+00  0.43668350351E+03  0.43668350351E+03  0.25500000920E-02 0.  1.
        2   -1    0    0  501    0  0.00000000000E+00  0.00000000000E+00 -0.19542799471E+04  0.19542799471E+04  0.25500000920E-02 0. -1.
    10030    2    1    2    0    0  0.00000000000E+00  0.00000000000E+00 -0.15175964436E+04  0.23909634507E+04  0.18475949926E+04 0.  0.
        5    1    3    3  502    0  0.45438873049E+03 -0.80090525080E+03 -0.66316306859E+03  0.11347800160E+04  0.46999998093E+01 0.  1.
       -5    1    3    3    0  502 -0.45438873049E+03  0.80090525080E+03 -0.85443337505E+03  0.12561834347E+04  0.46999998093E+01 0. -1.
</event>
<event>
 5   0  0.2245375E-05  0.2191983E+04  0.7818609E-02  0.8521772E-01
        3   -1    0    0  501    0  0.00000000000E+00  0.00000000000E+00  0.68087154802E+03  0.68087155551E+03  0.10100000352E+00 0. -1.
       -3   -1    0    0    0  501  0.00000000000E+00  0.00000000000E+00 -0.17642051298E+04  0.17642051327E+04  0.10100000352E+00 0.  1.
    10030    2    1    2    0    0  0.00000000000E+00  0.00000000000E+00 -0.10833335818E+04  0.24450766882E+04  0.21919827467E+04 0.  0.
        2    1    3    3  502    0 -0.49000329055E+03 -0.82383049664E+03  0.51102273146E+02  0.95990174199E+03  0.25500000920E-02 0. -1.
       -2    1    3    3    0  502  0.49000329055E+03  0.82383049664E+03 -0.11344358550E+04  0.14851749463E+04  0.25500000920E-02 0.  1.
</event>
<event>
 5   0  0.6445740E-05  0.2187535E+04  0.7818609E-02  0.8523634E-01
        2   -1    0    0  501    0  0.00000000000E+00  0.00000000000E+00  0.91497035356E+03  0.91497035357E+03  0.25500000920E-02 0. -1.
       -2   -1    0    0    0  501  0.00000000000E+00  0.00000000000E+00 -0.13075042522E+04  0.13075042522E+04  0.25500000920E-02 0.  1.
    10030    2    1    2    0    0  0.00000000000E+00  0.00000000000E+00 -0.39253389862E+03  0.22224746057E+04  0.21875352595E+04 0.  0.
        5    1    3    3  502    0 -0.52639267822E+03 -0.82930343738E+03  0.29253290373E+03  0.10249053774E+04  0.46999998093E+01 0. -1.
       -5    1    3    3    0  502  0.52639267822E+03  0.82930343738E+03 -0.68506680234E+03  0.11975692283E+04  0.46999998093E+01 0.  1.
</event>
<event>
 5   0  0.2753631E-05  0.2239928E+04  0.7818609E-02  0.8501990E-01
        1   -1    0    0  501    0  0.00000000000E+00  0.00000000000E+00  0.24634720610E+04  0.24634720610E+04  0.50400001928E-02 0.  1.
       -1   -1    0    0    0  501  0.00000000000E+00  0.00000000000E+00 -0.50916743042E+03  0.50916743045E+03  0.50400001928E-02 0. -1.
    10030    2    1    2    0    0  0.00000000000E+00  0.00000000000E+00  0.19543046306E+04  0.29726394915E+04  0.22399283375E+04 0.  0.
        4    1    3    3  502    0 -0.90063441296E+03 -0.10624457328E+03  0.10499741968E+03  0.91293829265E+03  0.12699999809E+01 0. -1.
       -4    1    3    3    0  502  0.90063441296E+03  0.10624457328E+03  0.18493072109E+04  0.20597011988E+04  0.12699999809E+01 0.  1.
</event>
<event>
 5   0  0.2910318E-05  0.2183064E+04  0.7818609E-02  0.8525511E-01
        1   -1    0    0  501    0  0.00000000000E+00  0.00000000000E+00  0.92978107085E+03  0.92978107086E+03  0.50400001928E-02 0.  1.
       -1   -1    0    0    0  501  0.00000000000E+00  0.00000000000E+00 -0.12814219880E+04  0.12814219880E+04  0.50400001928E-02 0. -1.
    10030    2    1    2    0    0  0.00000000000E+00  0.00000000000E+00 -0.35164091715E+03  0.22112030589E+04  0.21830638179E+04 0.  0.
        5    1    3    3  502    0 -0.88293670547E+03  0.31813693729E+03 -0.74034773249E+03  0.11953765899E+04  0.46999998093E+01 0. -1.
       -5    1    3    3    0  502  0.88293670547E+03 -0.31813693729E+03  0.38870681534E+03  0.10158264690E+04  0.46999998093E+01 0.  1.
</event>
<event>
 5   0  0.6306919E-05  0.2192610E+04  0.7818609E-02  0.8521510E-01
       -2   -1    0    0    0  501  0.00000000000E+00  0.00000000000E+00  0.83970490260E+03  0.83970490261E+03  0.25500000920E-02 0. -1.
        2   -1    0    0  501    0  0.00000000000E+00  0.00000000000E+00 -0.14313174162E+04  0.14313174162E+04  0.25500000920E-02 0.  1.
    10030    2    1    2    0    0  0.00000000000E+00  0.00000000000E+00 -0.59161251364E+03  0.22710223189E+04  0.21926096338E+04 0.  0.
        3    1    3    3  502    0  0.56910913452E+03 -0.31903007439E+03 -0.12083468148E+04  0.13732324750E+04  0.10100000352E+00 0.  1.
       -3    1    3    3    0  502 -0.56910913452E+03  0.31903007439E+03  0.61673430114E+03  0.89778984387E+03  0.10100000352E+00 0. -1.
</event>
<event>
 5   0  0.6445740E-05  0.2208298E+04  0.7818609E-02  0.8514982E-01
        2   -1    0    0  501    0  0.00000000000E+00  0.00000000000E+00  0.10155995226E+04  0.10155995226E+04  0.25500000920E-02 0.  1.
       -2   -1    0    0    0  501  0.00000000000E+00  0.00000000000E+00 -0.12004186202E+04  0.12004186202E+04  0.25500000920E-02 0. -1.
    10030    2    1    2    0    0  0.00000000000E+00  0.00000000000E+00 -0.18481909761E+03  0.22160181428E+04  0.22082976046E+04 0.  0.
        5    1    3    3  502    0  0.99476382383E+03 -0.35026850434E+03  0.23565757286E+03  0.10806478020E+04  0.46999998093E+01 0.  1.
       -5    1    3    3    0  502 -0.99476382383E+03  0.35026850434E+03 -0.42047667047E+03  0.11353703408E+04  0.46999998093E+01 0. -1.
</event>
<event>
 5   0  0.2245375E-05  0.1932342E+04  0.7818609E-02  0.8638923E-01
       -3   -1    0    0    0  501  0.00000000000E+00  0.00000000000E+00  0.72444424691E+03  0.72444425395E+03  0.10100000352E+00 0. -1.
        3   -1    0    0  501    0  0.00000000000E+00  0.00000000000E+00 -0.12885549237E+04  0.12885549277E+04  0.10100000352E+00 0.  1.
    10030    2    1    2    0    0  0.00000000000E+00  0.00000000000E+00 -0.56411067679E+03  0.20129991816E+04  0.19323418045E+04 0.  0.
        1    1    3    3  502    0  0.15387074778E+03 -0.73138285125E+03  0.35578366566E+03  0.82775545839E+03  0.50400001928E-02 0. -1.
       -1    1    3    3    0  502 -0.15387074778E+03  0.73138285125E+03 -0.91989434245E+03  0.11852437232E+04  0.50400001928E-02 0.  1.
</event>
<event>
 5   0  0.6628798E-05  0.2188872E+04  0.7818609E-02  0.8523074E-01
       -2   -1    0    0    0  501  0.00000000000E+00  0.00000000000E+00  0.39234403519E+03  0.39234403520E+03  0.25500000920E-02 0.  1.
        2   -1    0    0  501    0  0.00000000000E+00  0.00000000000E+00 -0.30529075883E+04  0.30529075883E+04  0.25500000920E-02 0. -1.
    10030    2    1    2    0    0  0.00000000000E+00  0.00000000000E+00 -0.26605635531E+04  0.34452516235E+04  0.21888719307E+04 0.  0.
        4    1    3    3  502    0 -0.66882311646E+03  0.49341639917E+03 -0.20953772295E+03  0.85714163025E+03  0.12699999809E+01 0.  1.
       -4    1    3    3    0  502  0.66882311646E+03 -0.49341639917E+03 -0.24510258302E+04  0.25881099933E+04  0.12699999809E+01 0. -1.
</event>
<event>
 5   0  0.2908031E-05  0.2150271E+04  0.7818609E-02  0.8539416E-01
       -1   -1    0    0    0  501  0.00000000000E+00  0.00000000000E+00  0.11408869854E+04  0.11408869854E+04  0.50400001928E-02 0. -1.
        1   -1    0    0  501    0  0.00000000000E+00  0.00000000000E+00 -0.10131734613E+04  0.10131734613E+04  0.50400001928E-02 0.  1.
    10030    2    1    2    0    0  0.00000000000E+00  0.00000000000E+00  0.12771352406E+03  0.21540604468E+04  0.21502710676E+04 0.  0.
        1    1    3    3  502    0  0.72863513052E+03 -0.71416249037E+03  0.40354015583E+03  0.10971699383E+04  0.50400001928E-02 0. -1.
       -1    1    3    3    0  502 -0.72863513052E+03  0.71416249037E+03 -0.27582663177E+03  0.10568905085E+04  0.50400001928E-02 0.  1.
</event>
<event>
 5   0  0.2753631E-05  0.2167458E+04  0.7818609E-02  0.8532096E-01
       -1   -1    0    0    0  501  0.00000000000E+00  0.00000000000E+00  0.48103876641E+03  0.48103876644E+03  0.50400001928E-02 0. -1.
        1   -1    0    0  501    0  0.00000000000E+00  0.00000000000E+00 -0.24415268667E+04  0.24415268667E+04  0.50400001928E-02 0.  1.
    10030    2    1    2    0    0  0.00000000000E+00  0.00000000000E+00 -0.19604881003E+04  0.29225656331E+04  0.21674584860E+04 0.  0.
        4    1    3    3  502    0  0.16222422828E+03 -0.94071033322E+03 -0.16720250992E+04  0.19253368995E+04  0.12699999809E+01 0.  1.
       -4    1    3    3    0  502 -0.16222422828E+03  0.94071033322E+03 -0.28846300104E+03  0.99722873361E+03  0.12699999809E+01 0. -1.
</event>
<event>
 5   0  0.2753631E-05  0.2229463E+04  0.7818609E-02  0.8506264E-01
       -1   -1    0    0    0  501  0.00000000000E+00  0.00000000000E+00  0.15178838962E+04  0.15178838962E+04  0.50400001928E-02 0. -1.
        1   -1    0    0  501    0  0.00000000000E+00  0.00000000000E+00 -0.81865691653E+03  0.81865691654E+03  0.50400001928E-02 0.  1.
    10030    2    1    2    0    0  0.00000000000E+00  0.00000000000E+00  0.69922697971E+03  0.23365408128E+04  0.22294628503E+04 0.  0.
        4    1    3    3  502    0  0.54608217924E+03  0.89300425030E+03 -0.52155074553E+02  0.10480382160E+04  0.12699999809E+01 0.  1.
       -4    1    3    3    0  502 -0.54608217924E+03 -0.89300425030E+03  0.75138205427E+03  0.12885025968E+04  0.12699999809E+01 0. -1.
</event>
<event>
 5   0  0.2753631E-05  0.2203466E+04  0.7818609E-02  0.8516987E-01
       -1   -1    0    0    0  501  0.00000000000E+00  0.00000000000E+00  0.77304661366E+03  0.77304661367E+03  0.50400001928E-02 0. -1.
        1   -1    0    0  501    0  0.00000000000E+00  0.00000000000E+00 -0.15701711345E+04  0.15701711345E+04  0.50400001928E-02 0.  1.
    10030    2    1    2    0    0  0.00000000000E+00  0.00000000000E+00 -0.79712452086E+03  0.23432177482E+04  0.22034658867E+04 0.  0.
        4    1    3    3  502    0 -0.14690220045E+03 -0.10508314818E+04 -0.71400104668E+03  0.12789160126E+04  0.12699999809E+01 0.  1.
       -4    1    3    3    0  502  0.14690220045E+03  0.10508314818E+04 -0.83123474181E+02  0.10643017356E+04  0.12699999809E+01 0. -1.
</event>
<event>
 5   0  0.2908031E-05  0.2211530E+04  0.7818609E-02  0.8513645E-01
       -1   -1    0    0    0  501  0.00000000000E+00  0.00000000000E+00  0.89883100933E+03  0.89883100934E+03  0.50400001928E-02 0.  1.
        1   -1    0    0  501    0  0.00000000000E+00  0.00000000000E+00 -0.13603400304E+04  0.13603400304E+04  0.50400001928E-02 0. -1.
    10030    2    1    2    0    0  0.00000000000E+00  0.00000000000E+00 -0.46150902107E+03  0.22591710397E+04  0.22115296087E+04 0.  0.
        1    1    3    3  502    0  0.40853745657E+03  0.98063240481E+02 -0.12756262806E+04  0.13430344971E+04  0.50400001928E-02 0. -1.
       -1    1    3    3    0  502 -0.40853745657E+03 -0.98063240481E+02  0.81411725952E+03  0.91613654268E+03  0.50400001928E-02 0.  1.
</event>
<event>
 5   0  0.2910318E-05  0.2202675E+04  0.7818609E-02  0.8517316E-01
        1   -1    0    0  501    0  0.00000000000E+00  0.00000000000E+00  0.19568690968E+04  0.19568690968E+04  0.50400001928E-02 0.  1.
       -1   -1    0    0    0  501  0.00000000000E+00  0.00000000000E+00 -0.61983926247E+03  0.61983926249E+03  0.50400001928E-02 0. -1.
    10030    2    1    2    0    0  0.00000000000E+00  0.00000000000E+00  0.13370298343E+04  0.25767083593E+04  0.22026750080E+04 0.  0.
        5    1    3    3  502    0  0.27678734543E+03 -0.81930148611E+03  0.14662661619E+04  0.17022998288E+04  0.46999998093E+01 0.  1.
       -5    1    3    3    0  502 -0.27678734543E+03  0.81930148611E+03 -0.12923632760E+03  0.87440853043E+03  0.46999998093E+01 0. -1.
</event>
<event>
 5   0  0.6628798E-05  0.2191907E+04  0.7818609E-02  0.8521804E-01
        2   -1    0    0  501    0  0.00000000000E+00  0.00000000000E+00  0.95638294288E+03  0.95638294289E+03  0.25500000920E-02 0.  1.
       -2   -1    0    0    0  501  0.00000000000E+00  0.00000000000E+00 -0.12558926703E+04  0.12558926703E+04  0.25500000920E-02 0. -1.
    10030    2    1    2    0    0  0.00000000000E+00  0.00000000000E+00 -0.29950972746E+03  0.22122756132E+04  0.21919072316E+04 0.  0.
        4    1    3    3  502    0  0.45921823209E+03 -0.10485571224E+03  0.84900454449E+03  0.97092040587E+03  0.12699999809E+01 0.  1.
       -4    1    3    3    0  502 -0.45921823209E+03  0.10485571224E+03 -0.11485142719E+04  0.12413552074E+04  0.12699999809E+01 0. -1.
</event>
<event>
 5   0  0.2910318E-05  0.2221077E+04  0.7818609E-02  0.8509706E-01
       -1   -1    0    0    0  501  0.00000000000E+00  0.00000000000E+00  0.11163611373E+04  0.11163611374E+04  0.50400001928E-02 0. -1.
        1   -1    0    0  501    0  0.00000000000E+00  0.00000000000E+00 -0.11047459026E+04  0.11047459026E+04  0.50400001928E-02 0.  1.
    10030    2    1    2    0    0  0.00000000000E+00  0.00000000000E+00  0.11615234782E+02  0.22211070399E+04  0.22210766689E+04 0.  0.
        5    1    3    3  502    0  0.10996149661E+03 -0.40106135985E+03 -0.10239304830E+04  0.11051685252E+04  0.46999998093E+01 0.  1.
       -5    1    3    3    0  502 -0.10996149661E+03  0.40106135985E+03  0.10355457178E+04  0.11159385147E+04  0.46999998093E+01 0. -1.
</event>
<event>
 5   0  0.6628798E-05  0.2206553E+04  0.7818609E-02  0.8515706E-01
        2   -1    0    0  501    0  0.00000000000E+00  0.00000000000E+00  0.14287147634E+04  0.14287147634E+04  0.25500000920E-02 0.  1.
       -2   -1    0    0    0  501  0.00000000000E+00  0.00000000000E+00 -0.85196776360E+03  0.85196776360E+03  0.25500000920E-02 0. -1.
    10030    2    1    2    0    0  0.00000000000E+00  0.00000000000E+00  0.57674699981E+03  0.22806825270E+04  0.22065528970E+04 0.  0.
        4    1    3    3  502    0 -0.81498191366E+03  0.13425824785E+03 -0.46763376267E+03  0.94915949429E+03  0.12699999809E+01 0. -1.
       -4    1    3    3    0  502  0.81498191366E+03 -0.13425824785E+03  0.10443807625E+04  0.13315230327E+04  0.12699999809E+01 0.  1.
</event>
<event>
 5   0  0.2908031E-05  0.2175460E+04  0.7818609E-02  0.8528712E-01
       -1   -1    0    0    0  501  0.00000000000E+00  0.00000000000E+00  0.80798837473E+03  0.80798837474E+03  0.50400001928E-02 0. -1.
        1   -1    0    0  501    0  0.00000000000E+00  0.00000000000E+00 -0.14643231833E+04  0.14643231833E+04  0.50400001928E-02 0.  1.
    10030    2    1    2    0    0  0.00000000000E+00  0.00000000000E+00 -0.65633480861E+03  0.22723115581E+04  0.21754595919E+04 0.  0.
        1    1    3    3  502    0 -0.99549687798E+03 -0.81010198011E+02 -0.77813554608E+03  0.12661246441E+04  0.50400001928E-02 0.  1.
       -1    1    3    3    0  502  0.99549687798E+03  0.81010198011E+02  0.12180073748E+03  0.10061869140E+04  0.50400001928E-02 0. -1.
</event>
<event>
 5   0  0.6293013E-05  0.2207636E+04  0.7818609E-02  0.8515257E-01
       -2   -1    0    0    0  501  0.00000000000E+00  0.00000000000E+00  0.75612838142E+03  0.75612838143E+03  0.25500000920E-02 0.  1.
        2   -1    0    0  501    0  0.00000000000E+00  0.00000000000E+00 -0.16113849455E+04  0.16113849455E+04  0.25500000920E-02 0. -1.
    10030    2    1    2    0    0  0.00000000000E+00  0.00000000000E+00 -0.85525656411E+03  0.23675133270E+04  0.22076357405E+04 0.  0.
        1    1    3    3  502    0  0.47658183884E+03 -0.38412945844E+03  0.55743991593E+03  0.82790394965E+03  0.50400001928E-02 0.  1.
       -1    1    3    3    0  502 -0.47658183884E+03  0.38412945844E+03 -0.14126964800E+04  0.15396093773E+04  0.50400001928E-02 0. -1.
</event>
<event>
 5   0  0.2820239E-05  0.2128483E+04  0.7818609E-02  0.8548799E-01
        1   -1    0    0  501    0  0.00000000000E+00  0.00000000000E+00  0.19135940835E+04  0.19135940835E+04  0.50400001928E-02 0.  1.
       -1   -1    0    0    0  501  0.00000000000E+00  0.00000000000E+00 -0.59187561121E+03  0.59187561123E+03  0.50400001928E-02 0. -1.
    10030    2    1    2    0    0  0.00000000000E+00  0.00000000000E+00  0.13217184723E+04  0.25054696947E+04  0.21284827158E+04 0.  0.
        3    1    3    3  502    0 -0.89955419647E+02  0.77452319980E+03  0.15134609569E+04  0.17025105705E+04  0.10100000352E+00 0.  1.
       -3    1    3    3    0  502  0.89955419647E+02 -0.77452319980E+03 -0.19174248460E+03  0.80295912421E+03  0.10100000352E+00 0. -1.
</event>
<event>
 5   0  0.6414768E-05  0.2216091E+04  0.7818609E-02  0.8511760E-01
       -2   -1    0    0    0  501  0.00000000000E+00  0.00000000000E+00  0.67567389389E+03  0.67567389390E+03  0.25500000920E-02 0. -1.
        2   -1    0    0  501    0  0.00000000000E+00  0.00000000000E+00 -0.18170973046E+04  0.18170973046E+04  0.25500000920E-02 0.  1.
    10030    2    1    2    0    0  0.00000000000E+00  0.00000000000E+00 -0.11414234107E+04  0.24927711985E+04  0.22160913441E+04 0.  0.
        2    1    3    3  502    0 -0.11955308834E+03 -0.58570775721E+03  0.47873132001E+03  0.76585259322E+03  0.25500000920E-02 0. -1.
       -2    1    3    3    0  502  0.11955308834E+03  0.58570775721E+03 -0.16201547307E+04  0.17269186053E+04  0.25500000920E-02 0.  1.
</event>
<event>
 5   0  0.2908031E-05  0.2174082E+04  0.7818609E-02  0.8529294E-01
        1   -1    0    0  501    0  0.00000000000E+00  0.00000000000E+00  0.22573262548E+04  0.22573262548E+04  0.50400001928E-02 0.  1.
       -1   -1    0    0    0  501  0.00000000000E+00  0.00000000000E+00 -0.52347685603E+03  0.52347685605E+03  0.50400001928E-02 0. -1.
    10030    2    1    2    0    0  0.00000000000E+00  0.00000000000E+00  0.17338493987E+04  0.27808031108E+04  0.21740819220E+04 0.  0.
        1    1    3    3  502    0  0.53922673711E+03  0.94044194591E+03  0.76410844184E+03  0.13262949289E+04  0.50400001928E-02 0.  1.
       -1    1    3    3    0  502 -0.53922673711E+03 -0.94044194591E+03  0.96974095689E+03  0.14545081819E+04  0.50400001928E-02 0. -1.
</event>
<event>
 5   0  0.2820239E-05  0.2153360E+04  0.7818609E-02  0.8538096E-01
        1   -1    0    0  501    0  0.00000000000E+00  0.00000000000E+00  0.13825205883E+04  0.13825205883E+04  0.50400001928E-02 0. -1.
       -1   -1    0    0    0  501  0.00000000000E+00  0.00000000000E+00 -0.83849707975E+03  0.83849707976E+03  0.50400001928E-02 0.  1.
    10030    2    1    2    0    0  0.00000000000E+00  0.00000000000E+00  0.54402350853E+03  0.22210176680E+04  0.21533596783E+04 0.  0.
        3    1    3    3  502    0 -0.39128640570E+03  0.16911306399E+03  0.12917803559E+04  0.13602943718E+04  0.10100000352E+00 0. -1.
       -3    1    3    3    0  502  0.39128640570E+03 -0.16911306399E+03 -0.74775684741E+03  0.86072329627E+03  0.10100000352E+00 0.  1.
</event>
<event>
 5   0  0.2908031E-05  0.2213871E+04  0.7818609E-02  0.8512677E-01
       -1   -1    0    0    0  501  0.00000000000E+00  0.00000000000E+00  0.11010731823E+04  0.11010731823E+04  0.50400001928E-02 0. -1.
        1   -1    0    0  501    0  0.00000000000E+00  0.00000000000E+00 -0.11128291991E+04  0.11128291991E+04  0.50400001928E-02 0.  1.
    10030    2    1    2    0    0  0.00000000000E+00  0.00000000000E+00 -0.11756016797E+02  0.22139023814E+04  0.22138711684E+04 0.  0.
        1    1    3    3  502    0 -0.22314427585E+03 -0.89031297174E+03 -0.62464018222E+03  0.11102368724E+04  0.50400001928E-02 0.  1.
       -1    1    3    3    0  502  0.22314427585E+03  0.89031297174E+03  0.61288416543E+03  0.11036655090E+04  0.50400001928E-02 0. -1.
</event>
<event>
 5   0  0.6445740E-05  0.2067437E+04  0.7818609E-02  0.8575725E-01
       -2   -1    0    0    0  501  0.00000000000E+00  0.00000000000E+00  0.74037014920E+03  0.74037014920E+03  0.25500000920E-02 0.  1.
        2   -1    0    0  501    0  0.00000000000E+00  0.00000000000E+00 -0.14432972858E+04  0.14432972858E+04  0.25500000920E-02 0. -1.
    10030    2    1    2    0    0  0.00000000000E+00  0.00000000000E+00 -0.70292713658E+03  0.21836674350E+04  0.20674372801E+04 0.  0.
        5    1    3    3  502    0  0.39102738699E+03 -0.69229608574E+03 -0.10491889272E+04  0.13164329769E+04  0.46999998093E+01 0. -1.
       -5    1    3    3    0  502 -0.39102738699E+03  0.69229608574E+03  0.34626179060E+03  0.86723445811E+03  0.46999998093E+01 0.  1.
</event>
<event>
 5   0  0.6306919E-05  0.2182219E+04  0.7818609E-02  0.8525866E-01
       -2   -1    0    0    0  501  0.00000000000E+00  0.00000000000E+00  0.61223953817E+03  0.61223953818E+03  0.25500000920E-02 0. -1.
        2   -1    0    0  501    0  0.00000000000E+00  0.00000000000E+00 -0.19445324609E+04  0.19445324609E+04  0.25500000920E-02 0.  1.
    10030    2    1    2    0    0  0.00000000000E+00  0.00000000000E+00 -0.13322929228E+04  0.25567719991E+04  0.21822187387E+04 0.  0.
        3    1    3    3  502    0 -0.67542738664E+02  0.10246609624E+04 -0.10982692168E+04  0.15035582437E+04  0.10100000352E+00 0.  1.
       -3    1    3    3    0  502  0.67542738664E+02 -0.10246609624E+04 -0.23402370596E+03  0.10532137554E+04  0.10100000352E+00 0. -1.
</event>
<event>
 5   0  0.6293013E-05  0.2117541E+04  0.7818609E-02  0.8553556E-01
       -2   -1    0    0    0  501  0.00000000000E+00  0.00000000000E+00  0.49313732451E+03  0.49313732451E+03  0.25500000920E-02 0. -1.
        2   -1    0    0  501    0  0.00000000000E+00  0.00000000000E+00 -0.22731904167E+04  0.22731904168E+04  0.25500000920E-02 0.  1.
    10030    2    1    2    0    0  0.00000000000E+00  0.00000000000E+00 -0.17800530922E+04  0.27663277413E+04  0.21175410647E+04 0.  0.
        1    1    3    3  502    0  0.21222363950E+03 -0.96290661506E+03 -0.13939042240E+04  0.17073948015E+04  0.50400001928E-02 0.  1.
       -1    1    3    3    0  502 -0.21222363950E+03  0.96290661506E+03 -0.38614886829E+03  0.10589329398E+04  0.50400001928E-02 0. -1.
</event>
<event>
 5   0  0.2929471E-05  0.2208870E+04  0.7818609E-02  0.8514745E-01
       -1   -1    0    0    0  501  0.00000000000E+00  0.00000000000E+00  0.12752973962E+04  0.12752973963E+04  0.50400001928E-02 0.  1.
        1   -1    0    0  501    0  0.00000000000E+00  0.00000000000E+00 -0.95646487573E+03  0.95646487574E+03  0.50400001928E-02 0. -1.
    10030    2    1    2    0    0  0.00000000000E+00  0.00000000000E+00  0.31883252052E+03  0.22317622720E+04  0.22088704495E+04 0.  0.
        2    1    3    3  502    0  0.71340362472E+03 -0.35198975669E+03  0.93347323638E+03  0.12264639431E+04  0.25500000920E-02 0.  1.
       -2    1    3    3    0  502 -0.71340362472E+03  0.35198975669E+03 -0.61464071586E+03  0.10052983289E+04  0.25500000920E-02 0. -1.
</event>
<event>
 5   0  0.2908031E-05  0.2179624E+04  0.7818609E-02  0.8526957E-01
        1   -1    0    0  501    0  0.00000000000E+00  0.00000000000E+00  0.17524579646E+04  0.17524579646E+04  0.50400001928E-02 0.  1.
       -1   -1    0    0    0  501  0.00000000000E+00  0.00000000000E+00 -0.67772802393E+03  0.67772802395E+03  0.50400001928E-02 0. -1.
    10030    2    1    2    0    0  0.00000000000E+00  0.00000000000E+00  0.10747299407E+04  0.24301859886E+04  0.21796237046E+04 0.  0.
        1    1    3    3  502    0 -0.65456103599E+03  0.72482661746E+03  0.10765547172E+04  0.14535452639E+04  0.50400001928E-02 0.  1.
       -1    1    3    3    0  502  0.65456103599E+03 -0.72482661746E+03 -0.18247764841E+01  0.97664072465E+03  0.50400001928E-02 0. -1.
</event>
<event>
 5   0  0.6445740E-05  0.2176920E+04  0.7818609E-02  0.8528096E-01
        2   -1    0    0  501    0  0.00000000000E+00  0.00000000000E+00  0.21834042074E+04  0.21834042074E+04  0.25500000920E-02 0.  1.
       -2   -1    0    0    0  501  0.00000000000E+00  0.00000000000E+00 -0.54261385039E+03  0.54261385039E+03  0.25500000920E-02 0. -1.
    10030    2    1    2    0    0  0.00000000000E+00  0.00000000000E+00  0.16407903570E+04  0.27260180578E+04  0.21769201767E+04 0.  0.
        5    1    3    3  502    0  0.92405638217E+03 -0.46064170680E+03  0.12517397078E+04  0.16226353150E+04  0.46999998093E+01 0.  1.
       -5    1    3    3    0  502 -0.92405638217E+03  0.46064170680E+03  0.38905064928E+03  0.11033827428E+04  0.46999998093E+01 0. -1.
</event>
<event>
 5   0  0.2820239E-05  0.2225448E+04  0.7818609E-02  0.8507910E-01
       -1   -1    0    0    0  501  0.00000000000E+00  0.00000000000E+00  0.17399917207E+04  0.17399917207E+04  0.50400001928E-02 0.  1.
        1   -1    0    0  501    0  0.00000000000E+00  0.00000000000E+00 -0.71158665909E+03  0.71158665910E+03  0.50400001928E-02 0. -1.
    10030    2    1    2    0    0  0.00000000000E+00  0.00000000000E+00  0.10284050616E+04  0.24515783798E+04  0.22254481754E+04 0.  0.
        3    1    3    3  502    0 -0.28983416323E+03 -0.99507466895E+03  0.96029034189E+03  0.14129171914E+04  0.10100000352E+00 0.  1.
       -3    1    3    3    0  502  0.28983416323E+03  0.99507466895E+03  0.68114719712E+02  0.10386611884E+04  0.10100000352E+00 0. -1.
</event>
<event>
 5   0  0.2753631E-05  0.2152082E+04  0.7818609E-02  0.8538642E-01
       -1   -1    0    0    0  501  0.00000000000E+00  0.00000000000E+00  0.13548458747E+04  0.13548458747E+04  0.50400001928E-02 0. -1.
        1   -1    0    0  501    0  0.00000000000E+00  0.00000000000E+00 -0.85460928636E+03  0.85460928637E+03  0.50400001928E-02 0.  1.
    10030    2    1    2    0    0  0.00000000000E+00  0.00000000000E+00  0.50023658831E+03  0.22094551610E+04  0.21520816584E+04 0.  0.
        4    1    3    3  502    0 -0.84224787298E+03  0.21388837806E+03 -0.40141228572E+03  0.95721635685E+03  0.12699999809E+01 0.  1.
       -4    1    3    3    0  502  0.84224787298E+03 -0.21388837806E+03  0.90164887402E+03  0.12522388042E+04  0.12699999809E+01 0. -1.
</event>
<event>
 5   0  0.6445740E-05  0.1861414E+04  0.7818609E-02  0.8674305E-01
        2   -1    0    0  501    0  0.00000000000E+00  0.00000000000E+00  0.11269638519E+04  0.11269638519E+04  0.25500000920E-02 0. -1.
       -2   -1    0    0    0  501  0.00000000000E+00  0.00000000000E+00 -0.76862773547E+03  0.76862773548E+03  0.25500000920E-02 0.  1.
    10030    2    1    2    0    0  0.00000000000E+00  0.00000000000E+00  0.35833611640E+03  0.18955915874E+04  0.18614141650E+04 0.  0.
        5    1    3    3  502    0 -0.56067734411E+03 -0.41324383916E+03  0.80780621111E+03  0.10666313888E+04  0.46999998093E+01 0. -1.
       -5    1    3    3    0  502  0.56067734411E+03  0.41324383916E+03 -0.44947009471E+03  0.82896019859E+03  0.46999998093E+01 0.  1.
</event>
<event>
 5   0  0.2910318E-05  0.2145920E+04  0.7818609E-02  0.8541281E-01
       -1   -1    0    0    0  501  0.00000000000E+00  0.00000000000E+00  0.38414572701E+03  0.38414572704E+03  0.50400001928E-02 0.  1.
        1   -1    0    0  501    0  0.00000000000E+00  0.00000000000E+00 -0.29968916448E+04  0.29968916448E+04  0.50400001928E-02 0. -1.
    10030    2    1    2    0    0  0.00000000000E+00  0.00000000000E+00 -0.26127459178E+04  0.33810373718E+04  0.21459199610E+04 0.  0.
        5    1    3    3  502    0 -0.56238362599E+03 -0.11331536856E+03 -0.27349385306E+04  0.27944635571E+04  0.46999998093E+01 0. -1.
       -5    1    3    3    0  502  0.56238362599E+03  0.11331536856E+03  0.12219261284E+03  0.58657381476E+03  0.46999998093E+01 0.  1.
</event>
<event>
 5   0  0.6445740E-05  0.2207338E+04  0.7818609E-02  0.8515380E-01
       -2   -1    0    0    0  501  0.00000000000E+00  0.00000000000E+00  0.94230614294E+03  0.94230614294E+03  0.25500000920E-02 0. -1.
        2   -1    0    0  501    0  0.00000000000E+00  0.00000000000E+00 -0.12926636805E+04  0.12926636805E+04  0.25500000920E-02 0.  1.
    10030    2    1    2    0    0  0.00000000000E+00  0.00000000000E+00 -0.35035753761E+03  0.22349698235E+04  0.22073376968E+04 0.  0.
        5    1    3    3  502    0  0.97699989255E+03 -0.21510904125E+03  0.29677006493E+03  0.10435014380E+04  0.46999998093E+01 0. -1.
       -5    1    3    3    0  502 -0.97699989255E+03  0.21510904125E+03 -0.64712760254E+03  0.11914683855E+04  0.46999998093E+01 0.  1.
</event>
<event>
 5   0  0.6628798E-05  0.2187678E+04  0.7818609E-02  0.8523574E-01
       -2   -1    0    0    0  501  0.00000000000E+00  0.00000000000E+00  0.54220261493E+03  0.54220261494E+03  0.25500000920E-02 0.  1.
        2   -1    0    0  501    0  0.00000000000E+00  0.00000000000E+00 -0.22067095645E+04  0.22067095645E+04  0.25500000920E-02 0. -1.
    10030    2    1    2    0    0  0.00000000000E+00  0.00000000000E+00 -0.16645069496E+04  0.27489121794E+04  0.21876779436E+04 0.  0.
        4    1    3    3  502    0  0.82613903102E+03  0.80575172168E+01  0.68532527703E+02  0.82901685291E+03  0.12699999809E+01 0.  1.
       -4    1    3    3    0  502 -0.82613903102E+03 -0.80575172168E+01 -0.17330394773E+04  0.19198953265E+04  0.12699999809E+01 0. -1.
</event>
<event>
 5   0  0.6293013E-05  0.2162353E+04  0.7818609E-02  0.8534263E-01
        2   -1    0    0  501    0  0.00000000000E+00  0.00000000000E+00  0.14395536827E+04  0.14395536827E+04  0.25500000920E-02 0. -1.
       -2   -1    0    0    0  501  0.00000000000E+00  0.00000000000E+00 -0.81201706696E+03  0.81201706696E+03  0.25500000920E-02 0.  1.
    10030    2    1    2    0    0  0.00000000000E+00  0.00000000000E+00  0.62753661578E+03  0.22515707497E+04  0.21623525699E+04 0.  0.
        1    1    3    3  502    0 -0.97695809838E+03  0.35304169108E+02  0.79461013126E+03  0.12598010839E+04  0.50400001928E-02 0. -1.
       -1    1    3    3    0  502  0.97695809838E+03 -0.35304169108E+02 -0.16707351548E+03  0.99176966577E+03  0.50400001928E-02 0.  1.
</event>
<event>
 5   0  0.6293013E-05  0.2208682E+04  0.7818609E-02  0.8514823E-01
       -2   -1    0    0    0  501  0.00000000000E+00  0.00000000000E+00  0.63892975779E+03  0.63892975780E+03  0.25500000920E-02 0.  1.
        2   -1    0    0  501    0  0.00000000000E+00  0.00000000000E+00 -0.19087690981E+04  0.19087690981E+04  0.25500000920E-02 0. -1.
    10030    2    1    2    0    0  0.00000000000E+00  0.00000000000E+00 -0.12698393403E+04  0.25476988559E+04  0.22086823017E+04 0.  0.
        1    1    3    3  502    0 -0.81923272900E+03  0.68464458547E+03 -0.30929764724E+03  0.11115509468E+04  0.50400001928E-02 0.  1.
       -1    1    3    3    0  502  0.81923272900E+03 -0.68464458547E+03 -0.96054169302E+03  0.14361479091E+04  0.50400001928E-02 0. -1.
</event>
<event>
 5   0  0.2929471E-05  0.2199329E+04  0.7818609E-02  0.8518707E-01
       -1   -1    0    0    0  501  0.00000000000E+00  0.00000000000E+00  0.96988811645E+03  0.96988811647E+03  0.50400001928E-02 0. -1.
        1   -1    0    0  501    0  0.00000000000E+00  0.00000000000E+00 -0.12468059315E+04  0.12468059316E+04  0.50400001928E-02 0.  1.
    10030    2    1    2    0    0  0.00000000000E+00  0.00000000000E+00 -0.27691781509E+03  0.22166940480E+04  0.21993292219E+04 0.  0.
        2    1    3    3  502    0  0.31134055508E+03 -0.73640133336E+03  0.62251381103E+03  0.10132834302E+04  0.25500000920E-02 0. -1.
       -2    1    3    3    0  502 -0.31134055508E+03  0.73640133336E+03 -0.89943162612E+03  0.12034106178E+04  0.25500000920E-02 0.  1.
</event>
<event>
 5   0  0.6293013E-05  0.2191424E+04  0.7818609E-02  0.8522006E-01
       -2   -1    0    0    0  501  0.00000000000E+00  0.00000000000E+00  0.74669811842E+03  0.74669811842E+03  0.25500000920E-02 0. -1.
        2   -1    0    0  501    0  0.00000000000E+00  0.00000000000E+00 -0.16078582176E+04  0.16078582176E+04  0.25500000920E-02 0.  1.
    10030    2    1    2    0    0  0.00000000000E+00  0.00000000000E+00 -0.86116009918E+03  0.23545563360E+04  0.21914239259E+04 0.  0.
        1    1    3    3  502    0  0.18554971134E+03 -0.10560336807E+04 -0.18805869280E+03  0.10885779265E+04  0.50400001928E-02 0. -1.
       -1    1    3    3    0  502 -0.18554971134E+03  0.10560336807E+04 -0.67310140637E+03  0.12659784095E+04  0.50400001928E-02 0.  1.
</event>
<event>
 5   0  0.2910318E-05  0.2203947E+04  0.7818609E-02  0.8516787E-01
        1   -1    0    0  501    0  0.00000000000E+00  0.00000000000E+00  0.20625622263E+04  0.20625622263E+04  0.50400001928E-02 0.  1.
       -1   -1    0    0    0  501  0.00000000000E+00  0.00000000000E+00 -0.58875595758E+03  0.58875595760E+03  0.50400001928E-02 0. -1.
    10030    2    1    2    0    0  0.00000000000E+00  0.00000000000E+00  0.14738062687E+04  0.26513181839E+04  0.22039471851E+04 0.  0.
        5    1    3    3  502    0  0.47119224268E+03  0.43976846899E+03  0.18121503118E+04  0.19233640525E+04  0.46999998093E+01 0.  1.
       -5    1    3    3    0  502 -0.47119224268E+03 -0.43976846899E+03 -0.33834404311E+03  0.72795413138E+03  0.46999998093E+01 0. -1.
</event>
<event>
 5   0  0.2820239E-05  0.2200626E+04  0.7818609E-02  0.8518168E-01
       -1   -1    0    0    0  501  0.00000000000E+00  0.00000000000E+00  0.46692003632E+03  0.46692003635E+03  0.50400001928E-02 0.  1.
        1   -1    0    0  501    0  0.00000000000E+00  0.00000000000E+00 -0.25929242232E+04  0.25929242232E+04  0.50400001928E-02 0. -1.
    10030    2    1    2    0    0  0.00000000000E+00  0.00000000000E+00 -0.21260041869E+04  0.30598442596E+04  0.22006256134E+04 0.  0.
        3    1    3    3  502    0  0.87738079115E+03 -0.31311258205E+03 -0.18771556520E+04  0.20956025133E+04  0.10100000352E+00 0.  1.
       -3    1    3    3    0  502 -0.87738079115E+03  0.31311258205E+03 -0.24884853488E+03  0.96424174626E+03  0.10100000352E+00 0. -1.
</event>
<event>
 5   0  0.6628798E-05  0.2261918E+04  0.7818609E-02  0.8493089E-01
        2   -1    0    0  501    0  0.00000000000E+00  0.00000000000E+00  0.19903700637E+04  0.19903700637E+04  0.25500000920E-02 0.  1.
       -2   -1    0    0    0  501  0.00000000000E+00  0.00000000000E+00 -0.64262851277E+03  0.64262851278E+03  0.25500000920E-02 0. -1.
    10030    2    1    2    0    0  0.00000000000E+00  0.00000000000E+00  0.13477415510E+04  0.26329985765E+04  0.22619182602E+04 0.  0.
        4    1    3    3  502    0 -0.89641744981E+03  0.29543590337E+03  0.13991627157E+04  0.16877513250E+04  0.12699999809E+01 0.  1.
       -4    1    3    3    0  502  0.89641744981E+03 -0.29543590337E+03 -0.51421164729E+02  0.94524725147E+03  0.12699999809E+01 0. -1.
</event>
<event>
 5   0  0.2753631E-05  0.2200382E+04  0.7818609E-02  0.8518269E-01
       -1   -1    0    0    0  501  0.00000000000E+00  0.00000000000E+00  0.73634841417E+03  0.73634841418E+03  0.50400001928E-02 0. -1.
        1   -1    0    0  501    0  0.00000000000E+00  0.00000000000E+00 -0.16438142269E+04  0.16438142269E+04  0.50400001928E-02 0.  1.
    10030    2    1    2    0    0  0.00000000000E+00  0.00000000000E+00 -0.90746581271E+03  0.23801626411E+04  0.22003817843E+04 0.  0.
        4    1    3    3  502    0 -0.82744107458E+03 -0.72478145034E+03 -0.43074818682E+03  0.11813181180E+04  0.12699999809E+01 0.  1.
       -4    1    3    3    0  502  0.82744107458E+03  0.72478145034E+03 -0.47671762588E+03  0.11988445230E+04  0.12699999809E+01 0. -1.
</event>
<event>
 5   0  0.6306919E-05  0.2213044E+04  0.7818609E-02  0.8513018E-01
       -2   -1    0    0    0  501  0.00000000000E+00  0.00000000000E+00  0.85685916750E+03  0.85685916750E+03  0.25500000920E-02 0. -1.
        2   -1    0    0  501    0  0.00000000000E+00  0.00000000000E+00 -0.14289296667E+04  0.14289296667E+04  0.25500000920E-02 0.  1.
    10030    2    1    2    0    0  0.00000000000E+00  0.00000000000E+00 -0.57207049918E+03  0.22857888342E+04  0.22130444954E+04 0.  0.
        3    1    3    3  502    0  0.39507427600E+03 -0.10100210558E+04 -0.51271509352E+03  0.11996261893E+04  0.10100000352E+00 0.  1.
       -3    1    3    3    0  502 -0.39507427600E+03  0.10100210558E+04 -0.59355405656E+02  0.10861626449E+04  0.10100000352E+00 0. -1.
</event>
<event>
 5   0  0.6306919E-05  0.2200053E+04  0.7818609E-02  0.8518406E-01
       -2   -1    0    0    0  501  0.00000000000E+00  0.00000000000E+00  0.50693667505E+03  0.50693667505E+03  0.25500000920E-02 0. -1.
        2   -1    0    0  501    0  0.00000000000E+00  0.00000000000E+00 -0.23870010693E+04  0.23870010693E+04  0.25500000920E-02 0.  1.
    10030    2    1    2    0    0  0.00000000000E+00  0.00000000000E+00 -0.18800643943E+04  0.28939377444E+04  0.22000530770E+04 0.  0.
        3    1    3    3  502    0 -0.93327641281E+03 -0.16582069332E+03 -0.16742497949E+04  0.19239578350E+04  0.10100000352E+00 0.  1.
       -3    1    3    3    0  502  0.93327641281E+03  0.16582069332E+03 -0.20581459939E+03  0.96997990936E+03  0.10100000352E+00 0. -1.
</event>
<event>
 5   0  0.6306919E-05  0.2196133E+04  0.7818609E-02  0.8520039E-01
        2   -1    0    0  501    0  0.00000000000E+00  0.00000000000E+00  0.19583034335E+04  0.19583034335E+04  0.25500000920E-02 0.  1.
       -2   -1    0    0    0  501  0.00000000000E+00  0.00000000000E+00 -0.61571155703E+03  0.61571155703E+03  0.25500000920E-02 0. -1.
    10030    2    1    2    0    0  0.00000000000E+00  0.00000000000E+00  0.13425918765E+04  0.25740149906E+04  0.21961330162E+04 0.  0.
        3    1    3    3  502    0  0.55399134529E+03  0.65452581495E+02 -0.43725861438E+03  0.70879161757E+03  0.10100000352E+00 0. -1.
       -3    1    3    3    0  502 -0.55399134529E+03 -0.65452581495E+02  0.17798504909E+04  0.18652233730E+04  0.10100000352E+00 0.  1.
</event>
<event>
 5   0  0.2929471E-05  0.2193008E+04  0.7818609E-02  0.8521344E-01
        1   -1    0    0  501    0  0.00000000000E+00  0.00000000000E+00  0.11652530402E+04  0.11652530402E+04  0.50400001928E-02 0. -1.
       -1   -1    0    0    0  501  0.00000000000E+00  0.00000000000E+00 -0.10318115197E+04  0.10318115197E+04  0.50400001928E-02 0.  1.
    10030    2    1    2    0    0  0.00000000000E+00  0.00000000000E+00  0.13344152056E+03  0.21970645599E+04  0.21930084452E+04 0.  0.
        2    1    3    3  502    0  0.24910042890E+03  0.90867569027E+03 -0.49519001732E+03  0.10644039116E+04  0.25500000920E-02 0.  1.
       -2    1    3    3    0  502 -0.24910042890E+03 -0.90867569027E+03  0.62863153788E+03  0.11326606483E+04  0.25500000920E-02 0. -1.
</event>
<event>
 5   0  0.6445740E-05  0.2205180E+04  0.7818609E-02  0.8516275E-01
       -2   -1    0    0    0  501  0.00000000000E+00  0.00000000000E+00  0.80091552009E+03  0.80091552009E+03  0.25500000920E-02 0.  1.
        2   -1    0    0  501    0  0.00000000000E+00  0.00000000000E+00 -0.15178932381E+04  0.15178932381E+04  0.25500000920E-02 0. -1.
    10030    2    1    2    0    0  0.00000000000E+00  0.00000000000E+00 -0.71697771803E+03  0.23188087582E+04  0.22051795866E+04 0.  0.
        5    1    3    3  502    0 -0.91781849983E+03 -0.34637473028E+03  0.17075058197E+03  0.99576307607E+03  0.46999998093E+01 0. -1.
       -5    1    3    3    0  502  0.91781849983E+03  0.34637473028E+03 -0.88772830000E+03  0.13230456821E+04  0.46999998093E+01 0.  1.
</event>
<event>
 5   0  0.6445740E-05  0.2240449E+04  0.7818609E-02  0.8501779E-01
       -2   -1    0    0    0  501  0.00000000000E+00  0.00000000000E+00  0.12483101691E+04  0.12483101691E+04  0.25500000920E-02 0. -1.
        2   -1    0    0  501    0  0.00000000000E+00  0.00000000000E+00 -0.10052809957E+04  0.10052809957E+04  0.25500000920E-02 0.  1.
    10030    2    1    2    0    0  0.00000000000E+00  0.00000000000E+00  0.24302917341E+03  0.22535911648E+04  0.22404486067E+04 0.  0.
        5    1    3    3  502    0  0.31239108047E+03  0.24908797356E+03 -0.93116514099E+03  0.10132737120E+04  0.46999998093E+01 0.  1.
       -5    1    3    3    0  502 -0.31239108047E+03 -0.24908797356E+03  0.11741943144E+04  0.12403174528E+04  0.46999998093E+01 0. -1.
</event>
<event>
 5   0  0.6628798E-05  0.2177469E+04  0.7818609E-02  0.8527865E-01
       -2   -1    0    0    0  501  0.00000000000E+00  0.00000000000E+00  0.47645574042E+03  0.47645574043E+03  0.25500000920E-02 0. -1.
        2   -1    0    0  501    0  0.00000000000E+00  0.00000000000E+00 -0.24878344134E+04  0.24878344134E+04  0.25500000920E-02 0.  1.
    10030    2    1    2    0    0  0.00000000000E+00  0.00000000000E+00 -0.20113786729E+04  0.29642901538E+04  0.21774691617E+04 0.  0.
        4    1    3    3  502    0  0.42613653354E+03  0.40734075009E+03 -0.22517658752E+04  0.23276533250E+04  0.12699999809E+01 0.  1.
       -4    1    3    3    0  502 -0.42613653354E+03 -0.40734075009E+03  0.24038720222E+03  0.63663682881E+03  0.12699999809E+01 0. -1.
</event>
<event>
 5   0  0.6628798E-05  0.2106559E+04  0.7818609E-02  0.8558359E-01
       -2   -1    0    0    0  501  0.00000000000E+00  0.00000000000E+00  0.11093356028E+04  0.11093356028E+04  0.25500000920E-02 0. -1.
        2   -1    0    0  501    0  0.00000000000E+00  0.00000000000E+00 -0.10000563033E+04  0.10000563033E+04  0.25500000920E-02 0.  1.
    10030    2    1    2    0    0  0.00000000000E+00  0.00000000000E+00  0.10927929959E+03  0.21093919061E+04  0.21065593389E+04 0.  0.
        4    1    3    3  502    0 -0.27900166755E+03 -0.81482650762E+03  0.66176530343E+03  0.10861487457E+04  0.12699999809E+01 0. -1.
       -4    1    3    3    0  502  0.27900166755E+03  0.81482650762E+03 -0.55248600384E+03  0.10232431604E+04  0.12699999809E+01 0.  1.
</event>
<event>
 5   0  0.2753631E-05  0.2200219E+04  0.7818609E-02  0.8518337E-01
       -1   -1    0    0    0  501  0.00000000000E+00  0.00000000000E+00  0.15558372463E+04  0.15558372463E+04  0.50400001928E-02 0. -1.
        1   -1    0    0  501    0  0.00000000000E+00  0.00000000000E+00 -0.77787113353E+03  0.77787113355E+03  0.50400001928E-02 0.  1.
    10030    2    1    2    0    0  0.00000000000E+00  0.00000000000E+00  0.77796611280E+03  0.23337083799E+04  0.22002189731E+04 0.  0.
        4    1    3    3  502    0 -0.63336620787E+02 -0.69046260245E+03  0.12949035717E+04  0.14688522750E+04  0.12699999809E+01 0. -1.
       -4    1    3    3    0  502  0.63336620787E+02  0.69046260245E+03 -0.51693745887E+03  0.86485610491E+03  0.12699999809E+01 0.  1.
</event>
<event>
 5   0  0.6306919E-05  0.2056005E+04  0.7818609E-02  0.8580875E-01
        2   -1    0    0  501    0  0.00000000000E+00  0.00000000000E+00  0.12164434062E+04  0.12164434062E+04  0.25500000920E-02 0. -1.
       -2   -1    0    0    0  501  0.00000000000E+00  0.00000000000E+00 -0.86875297621E+03  0.86875297622E+03  0.25500000920E-02 0.  1.
    10030    2    1    2    0    0  0.00000000000E+00  0.00000000000E+00  0.34769042999E+03  0.20851963824E+04  0.20560046980E+04 0.  0.
        3    1    3    3  502    0  0.35155832574E+03  0.43429135238E+03  0.10489911172E+04  0.11885220273E+04  0.10100000352E+00 0. -1.
       -3    1    3    3    0  502 -0.35155832574E+03 -0.43429135238E+03 -0.70130068719E+03  0.89667435516E+03  0.10100000352E+00 0.  1.
</event>
<event>
 5   0  0.2753631E-05  0.2205875E+04  0.7818609E-02  0.8515987E-01
        1   -1    0    0  501    0  0.00000000000E+00  0.00000000000E+00  0.17785285067E+04  0.17785285067E+04  0.50400001928E-02 0. -1.
       -1   -1    0    0    0  501  0.00000000000E+00  0.00000000000E+00 -0.68397619064E+03  0.68397619066E+03  0.50400001928E-02 0.  1.
    10030    2    1    2    0    0  0.00000000000E+00  0.00000000000E+00  0.10945523160E+04  0.24625046974E+04  0.22058750218E+04 0.  0.
        4    1    3    3  502    0  0.39167313138E+03 -0.42492295300E+03  0.15959828966E+04  0.16973892827E+04  0.12699999809E+01 0. -1.
       -4    1    3    3    0  502 -0.39167313138E+03  0.42492295300E+03 -0.50143058052E+03  0.76511541470E+03  0.12699999809E+01 0.  1.
</event>
<event>
 5   0  0.6293013E-05  0.2209371E+04  0.7818609E-02  0.8514538E-01
        2   -1    0    0  501    0  0.00000000000E+00  0.00000000000E+00  0.23124133379E+04  0.23124133379E+04  0.25500000920E-02 0.  1.
       -2   -1    0    0    0  501  0.00000000000E+00  0.00000000000E+00 -0.52773005088E+03  0.52773005088E+03  0.25500000920E-02 0. -1.
    10030    2    1    2    0    0  0.00000000000E+00  0.00000000000E+00  0.17846832871E+04  0.28401433888E+04  0.22093709589E+04 0.  0.
        1    1    3    3  502    0  0.90951594894E+03 -0.52566428263E+03  0.13316509272E+04  0.16961239316E+04  0.50400001928E-02 0.  1.
       -1    1    3    3    0  502 -0.90951594894E+03  0.52566428263E+03  0.45303235988E+03  0.11440194572E+04  0.50400001928E-02 0. -1.
</event>
<event>
 5   0  0.6414768E-05  0.1956065E+04  0.7818609E-02  0.8627442E-01
       -2   -1    0    0    0  501  0.00000000000E+00  0.00000000000E+00  0.45667131621E+03  0.45667131621E+03  0.25500000920E-02 0. -1.
        2   -1    0    0  501    0  0.00000000000E+00  0.00000000000E+00 -0.20946083947E+04  0.20946083947E+04  0.25500000920E-02 0.  1.
    10030    2    1    2    0    0  0.00000000000E+00  0.00000000000E+00 -0.16379370785E+04  0.25512797109E+04  0.19560650015E+04 0.  0.
        2    1    3    3  502    0  0.28033268876E+03 -0.61232334889E+03 -0.17440244202E+04  0.18695313526E+04  0.25500000920E-02 0.  1.
       -2    1    3    3    0  502 -0.28033268876E+03  0.61232334889E+03  0.10608734174E+03  0.68174835831E+03  0.25500000920E-02 0. -1.
</event>
<event>
 5   0  0.2753631E-05  0.2312143E+04  0.7818609E-02  0.8473149E-01
       -1   -1    0    0    0  501  0.00000000000E+00  0.00000000000E+00  0.92801732616E+03  0.92801732617E+03  0.50400001928E-02 0.  1.
        1   -1    0    0  501    0  0.00000000000E+00  0.00000000000E+00 -0.14401681413E+04  0.14401681413E+04  0.50400001928E-02 0. -1.
    10030    2    1    2    0    0  0.00000000000E+00  0.00000000000E+00 -0.51215081510E+03  0.23681854674E+04  0.23121427185E+04 0.  0.
        4    1    3    3  502    0 -0.76563232822E+03  0.61096149059E+03 -0.88498831511E+03  0.13201033050E+04  0.12699999809E+01 0. -1.
       -4    1    3    3    0  502  0.76563232822E+03 -0.61096149059E+03  0.37283750000E+03  0.10480821625E+04  0.12699999809E+01 0.  1.
</event>
<event>
 5   0  0.2929471E-05  0.2195333E+04  0.7818609E-02  0.8520373E-01
        1   -1    0    0  501    0  0.00000000000E+00  0.00000000000E+00  0.14924254146E+04  0.14924254146E+04  0.50400001928E-02 0. -1.
       -1   -1    0    0    0  501  0.00000000000E+00  0.00000000000E+00 -0.80732443325E+03  0.80732443326E+03  0.50400001928E-02 0.  1.
    10030    2    1    2    0    0  0.00000000000E+00  0.00000000000E+00  0.68510098130E+03  0.22997498478E+04  0.21953327784E+04 0.  0.
        2    1    3    3  502    0 -0.93614535527E+03  0.24827782590E+03  0.88370738515E+03  0.13110868574E+04  0.25500000920E-02 0. -1.
       -2    1    3    3    0  502  0.93614535527E+03 -0.24827782590E+03 -0.19860640385E+03  0.98866299045E+03  0.25500000920E-02 0.  1.
</event>
<event>
 5   0  0.6628798E-05  0.2218010E+04  0.7818609E-02  0.8510969E-01
       -2   -1    0    0    0  501  0.00000000000E+00  0.00000000000E+00  0.62784106094E+03  0.62784106094E+03  0.25500000920E-02 0.  1.
        2   -1    0    0  501    0  0.00000000000E+00  0.00000000000E+00 -0.19589218987E+04  0.19589218987E+04  0.25500000920E-02 0. -1.
    10030    2    1    2    0    0  0.00000000000E+00  0.00000000000E+00 -0.13310808378E+04  0.25867629597E+04  0.22180095610E+04 0.  0.
        4    1    3    3  502    0 -0.10494528708E+04  0.35662556935E+03 -0.70850015739E+03  0.13154874422E+04  0.12699999809E+01 0.  1.
       -4    1    3    3    0  502  0.10494528708E+04 -0.35662556935E+03 -0.62258068039E+03  0.12712755174E+04  0.12699999809E+01 0. -1.
</event>
<event>
 5   0  0.6628798E-05  0.2193598E+04  0.7818609E-02  0.8521098E-01
       -2   -1    0    0    0  501  0.00000000000E+00  0.00000000000E+00  0.40649932687E+03  0.40649932688E+03  0.25500000920E-02 0.  1.
        2   -1    0    0  501    0  0.00000000000E+00  0.00000000000E+00 -0.29593345867E+04  0.29593345867E+04  0.25500000920E-02 0. -1.
    10030    2    1    2    0    0  0.00000000000E+00  0.00000000000E+00 -0.25528352598E+04  0.33658339136E+04  0.21935975178E+04 0.  0.
        4    1    3    3  502    0  0.82295958776E+03  0.71852848778E+03 -0.14253422756E+04  0.17958696741E+04  0.12699999809E+01 0. -1.
       -4    1    3    3    0  502 -0.82295958776E+03 -0.71852848778E+03 -0.11274929842E+04  0.15699642395E+04  0.12699999809E+01 0.  1.
</event>
<event>
 5   0  0.2753631E-05  0.2086983E+04  0.7818609E-02  0.8566999E-01
       -1   -1    0    0    0  501  0.00000000000E+00  0.00000000000E+00  0.17083523450E+04  0.17083523450E+04  0.50400001928E-02 0.  1.
        1   -1    0    0  501    0  0.00000000000E+00  0.00000000000E+00 -0.63738307266E+03  0.63738307268E+03  0.50400001928E-02 0. -1.
    10030    2    1    2    0    0  0.00000000000E+00  0.00000000000E+00  0.10709692724E+04  0.23457354177E+04  0.20869833415E+04 0.  0.
        4    1    3    3  502    0 -0.64696036353E+03  0.19236834609E+03  0.14299596269E+04  0.15812493288E+04  0.12699999809E+01 0.  1.
       -4    1    3    3    0  502  0.64696036353E+03 -0.19236834609E+03 -0.35899035451E+03  0.76448608887E+03  0.12699999809E+01 0. -1.
</event>
<event>
 5   0  0.2929471E-05  0.2195760E+04  0.7818609E-02  0.8520195E-01
       -1   -1    0    0    0  501  0.00000000000E+00  0.00000000000E+00  0.11666605536E+04  0.11666605536E+04  0.50400001928E-02 0.  1.
        1   -1    0    0  501    0  0.00000000000E+00  0.00000000000E+00 -0.10331543641E+04  0.10331543642E+04  0.50400001928E-02 0. -1.
    10030    2    1    2    0    0  0.00000000000E+00  0.00000000000E+00  0.13350618944E+03  0.21998149178E+04  0.21957599527E+04 0.  0.
        2    1    3    3  502    0 -0.10208317262E+04  0.16349960905E+03  0.43690923605E+03  0.11223721379E+04  0.25500000920E-02 0.  1.
       -2    1    3    3    0  502  0.10208317262E+04 -0.16349960905E+03 -0.30340304660E+03  0.10774427799E+04  0.25500000920E-02 0. -1.
</event>
<event>
 5   0  0.6445740E-05  0.2214696E+04  0.7818609E-02  0.8512336E-01
        2   -1    0    0  501    0  0.00000000000E+00  0.00000000000E+00  0.96317905909E+03  0.96317905909E+03  0.25500000920E-02 0.  1.
       -2   -1    0    0    0  501  0.00000000000E+00  0.00000000000E+00 -0.12730957884E+04  0.12730957884E+04  0.25500000920E-02 0. -1.
    10030    2    1    2    0    0  0.00000000000E+00  0.00000000000E+00 -0.30991672931E+03  0.22362748475E+04  0.22146956483E+04 0.  0.
        5    1    3    3  502    0 -0.10633316870E+04 -0.20315823454E+03 -0.39014317671E+03  0.11507307822E+04  0.46999998093E+01 0.  1.
       -5    1    3    3    0  502  0.10633316870E+04  0.20315823454E+03  0.80226447405E+02  0.10855440653E+04  0.46999998093E+01 0. -1.
</event>
<event>
 5   0  0.6445740E-05  0.2203495E+04  0.7818609E-02  0.8516975E-01
       -2   -1    0    0    0  501  0.00000000000E+00  0.00000000000E+00  0.65058765977E+03  0.65058765977E+03  0.25500000920E-02 0. -1.
        2   -1    0    0  501    0  0.00000000000E+00  0.00000000000E+00 -0.18657714277E+04  0.18657714277E+04  0.25500000920E-02 0.  1.
    10030    2    1    2    0    0  0.00000000000E+00  0.00000000000E+00 -0.12151837679E+04  0.25163590874E+04  0.22034952841E+04 0.  0.
        5    1    3    3  502    0 -0.86306584808E+03  0.57194515059E+03 -0.10376548876E+04  0.14658627729E+04  0.46999998093E+01 0.  1.
       -5    1    3    3    0  502  0.86306584808E+03 -0.57194515059E+03 -0.17752888032E+03  0.10504963145E+04  0.46999998093E+01 0. -1.
</event>
<event>
 5   0  0.2910318E-05  0.2209971E+04  0.7818609E-02  0.8514290E-01
       -1   -1    0    0    0  501  0.00000000000E+00  0.00000000000E+00  0.83047834318E+03  0.83047834320E+03  0.50400001928E-02 0. -1.
        1   -1    0    0  501    0  0.00000000000E+00  0.00000000000E+00 -0.14702278681E+04  0.14702278682E+04  0.50400001928E-02 0.  1.
    10030    2    1    2    0    0  0.00000000000E+00  0.00000000000E+00 -0.63974952497E+03  0.23007062114E+04  0.22099705012E+04 0.  0.
        5    1    3    3  502    0  0.50811453963E+03 -0.88856648538E+03  0.11343471317E+03  0.10298642185E+04  0.46999998093E+01 0. -1.
       -5    1    3    3    0  502 -0.50811453963E+03  0.88856648538E+03 -0.75318423814E+03  0.12708419929E+04  0.46999998093E+01 0.  1.
</event>
<event>
 5   0  0.6414768E-05  0.2185008E+04  0.7818609E-02  0.8524694E-01
       -2   -1    0    0    0  501  0.00000000000E+00  0.00000000000E+00  0.91511533797E+03  0.91511533798E+03  0.25500000920E-02 0. -1.
        2   -1    0    0  501    0  0.00000000000E+00  0.00000000000E+00 -0.13042780832E+04  0.13042780832E+04  0.25500000920E-02 0.  1.
    10030    2    1    2    0    0  0.00000000000E+00  0.00000000000E+00 -0.38916274525E+03  0.22193934212E+04  0.21850078983E+04 0.  0.
        2    1    3    3  502    0 -0.49868520787E+03 -0.61067726074E+03  0.57359470908E+03  0.97499976596E+03  0.25500000920E-02 0. -1.
       -2    1    3    3    0  502  0.49868520787E+03  0.61067726074E+03 -0.96275745433E+03  0.12443936552E+04  0.25500000920E-02 0.  1.
</event>
<event>
 5   0  0.2753631E-05  0.2246395E+04  0.7818609E-02  0.8499362E-01
       -1   -1    0    0    0  501  0.00000000000E+00  0.00000000000E+00  0.19748460838E+04  0.19748460839E+04  0.50400001928E-02 0. -1.
        1   -1    0    0  501    0  0.00000000000E+00  0.00000000000E+00 -0.63882078846E+03  0.63882078848E+03  0.50400001928E-02 0.  1.
    10030    2    1    2    0    0  0.00000000000E+00  0.00000000000E+00  0.13360252954E+04  0.26136668723E+04  0.22463950965E+04 0.  0.
        4    1    3    3  502    0  0.80269638287E+03 -0.71285011006E+03  0.10523080905E+04  0.15032733260E+04  0.12699999809E+01 0. -1.
       -4    1    3    3    0  502 -0.80269638287E+03  0.71285011006E+03  0.28371720492E+03  0.11103935463E+04  0.12699999809E+01 0.  1.
</event>
<event>
 5   0  0.6306919E-05  0.2178595E+04  0.7818609E-02  0.8527390E-01
       -2   -1    0    0    0  501  0.00000000000E+00  0.00000000000E+00  0.70551431870E+03  0.70551431871E+03  0.25500000920E-02 0. -1.
        2   -1    0    0  501    0  0.00000000000E+00  0.00000000000E+00 -0.16818503759E+04  0.16818503759E+04  0.25500000920E-02 0.  1.
    10030    2    1    2    0    0  0.00000000000E+00  0.00000000000E+00 -0.97633605717E+03  0.23873646946E+04  0.21785954394E+04 0.  0.
        3    1    3    3  502    0 -0.16588659825E+02  0.10822613527E+04 -0.35393613069E+03  0.11387869045E+04  0.10100000352E+00 0.  1.
       -3    1    3    3    0  502  0.16588659825E+02 -0.10822613527E+04 -0.62239992648E+03  0.12485777901E+04  0.10100000352E+00 0. -1.
</event>
<event>
 5   0  0.2245375E-05  0.2190527E+04  0.7818609E-02  0.8522381E-01
        4   -1    0    0  501    0  0.00000000000E+00  0.00000000000E+00  0.10970184088E+04  0.10970191439E+04  0.12699999809E+01 0.  1.
       -4   -1    0    0    0  501  0.00000000000E+00  0.00000000000E+00 -0.10935099507E+04  0.10935106882E+04  0.12699999809E+01 0. -1.
    10030    2    1    2    0    0  0.00000000000E+00  0.00000000000E+00  0.35084580645E+01  0.21905298321E+04  0.21905270224E+04 0.  0.
        1    1    3    3  502    0 -0.25854305216E+03  0.33164596909E+03 -0.10095672945E+04  0.10936451348E+04  0.50400001928E-02 0. -1.
       -1    1    3    3    0  502  0.25854305216E+03 -0.33164596909E+03  0.10130757526E+04  0.10968846973E+04  0.50400001928E-02 0.  1.
</event>
<event>
 5   0  0.6414768E-05  0.2190970E+04  0.7818609E-02  0.8522196E-01
        2   -1    0    0  501    0  0.00000000000E+00  0.00000000000E+00  0.13460417342E+04  0.13460417342E+04  0.25500000920E-02 0. -1.
       -2   -1    0    0    0  501  0.00000000000E+00  0.00000000000E+00 -0.89156794511E+03  0.89156794511E+03  0.25500000920E-02 0.  1.
    10030    2    1    2    0    0  0.00000000000E+00  0.00000000000E+00  0.45447378906E+03  0.22376096793E+04  0.21909702535E+04 0.  0.
        2    1    3    3  502    0 -0.62736163230E+03 -0.86135797210E+02 -0.68570791106E+03  0.93337952224E+03  0.25500000920E-02 0.  1.
       -2    1    3    3    0  502  0.62736163230E+03  0.86135797210E+02  0.11401817001E+04  0.13042301570E+04  0.25500000920E-02 0. -1.
</event>
<event>
 5   0  0.2820239E-05  0.2225920E+04  0.7818609E-02  0.8507717E-01
       -1   -1    0    0    0  501  0.00000000000E+00  0.00000000000E+00  0.84464192492E+03  0.84464192493E+03  0.50400001928E-02 0. -1.
        1   -1    0    0  501    0  0.00000000000E+00  0.00000000000E+00 -0.14665143312E+04  0.14665143312E+04  0.50400001928E-02 0.  1.
    10030    2    1    2    0    0  0.00000000000E+00  0.00000000000E+00 -0.62187240630E+03  0.23111562562E+04  0.22259195742E+04 0.  0.
        3    1    3    3  502    0  0.91393592873E+03 -0.29878329200E+03 -0.89287049939E+03  0.13121616045E+04  0.10100000352E+00 0. -1.
       -3    1    3    3    0  502 -0.91393592873E+03  0.29878329200E+03  0.27099809309E+03  0.99899465167E+03  0.10100000352E+00 0.  1.
</event>
<event>
 5   0  0.6414768E-05  0.2241454E+04  0.7818609E-02  0.8501369E-01
       -2   -1    0    0    0  501  0.00000000000E+00  0.00000000000E+00  0.52116229666E+03  0.52116229666E+03  0.25500000920E-02 0.  1.
        2   -1    0    0  501    0  0.00000000000E+00  0.00000000000E+00 -0.24100543928E+04  0.24100543928E+04  0.25500000920E-02 0. -1.
    10030    2    1    2    0    0  0.00000000000E+00  0.00000000000E+00 -0.18888920961E+04  0.29312166894E+04  0.22414544228E+04 0.  0.
        2    1    3    3  502    0  0.18376990624E+03 -0.57293628723E+03  0.29203449080E+03  0.66881351025E+03  0.25500000920E-02 0.  1.
       -2    1    3    3    0  502 -0.18376990624E+03  0.57293628723E+03 -0.21809265869E+04  0.22624031792E+04  0.25500000920E-02 0. -1.
</event>
<event>
 5   0  0.2910318E-05  0.2194729E+04  0.7818609E-02  0.8520625E-01
        1   -1    0    0  501    0  0.00000000000E+00  0.00000000000E+00  0.18063786166E+04  0.18063786166E+04  0.50400001928E-02 0.  1.
       -1   -1    0    0    0  501  0.00000000000E+00  0.00000000000E+00 -0.66664265761E+03  0.66664265763E+03  0.50400001928E-02 0. -1.
    10030    2    1    2    0    0  0.00000000000E+00  0.00000000000E+00  0.11397359590E+04  0.24730212742E+04  0.21947291784E+04 0.  0.
        5    1    3    3  502    0 -0.68897327678E+03  0.82295350791E+03  0.31230033495E+03  0.11178059946E+04  0.46999998093E+01 0.  1.
       -5    1    3    3    0  502  0.68897327678E+03 -0.82295350791E+03  0.82743562406E+03  0.13552152797E+04  0.46999998093E+01 0. -1.
</event>
<event>
 5   0  0.2753631E-05  0.2195317E+04  0.7818609E-02  0.8520380E-01
       -1   -1    0    0    0  501  0.00000000000E+00  0.00000000000E+00  0.81816678459E+03  0.81816678461E+03  0.50400001928E-02 0. -1.
        1   -1    0    0  501    0  0.00000000000E+00  0.00000000000E+00 -0.14726265339E+04  0.14726265339E+04  0.50400001928E-02 0.  1.
    10030    2    1    2    0    0  0.00000000000E+00  0.00000000000E+00 -0.65445974928E+03  0.22907933185E+04  0.21953169394E+04 0.  0.
        4    1    3    3  502    0  0.31746619494E+03 -0.37372980802E+03 -0.13519750271E+04  0.14381574466E+04  0.12699999809E+01 0.  1.
       -4    1    3    3    0  502 -0.31746619494E+03  0.37372980802E+03  0.69751527784E+03  0.85263587190E+03  0.12699999809E+01 0. -1.
</event>
<event>
 5   0  0.6306919E-05  0.2217416E+04  0.7818609E-02  0.8511214E-01
       -2   -1    0    0    0  501  0.00000000000E+00  0.00000000000E+00  0.87677425558E+03  0.87677425559E+03  0.25500000920E-02 0. -1.
        2   -1    0    0  501    0  0.00000000000E+00  0.00000000000E+00 -0.14019950431E+04  0.14019950431E+04  0.25500000920E-02 0.  1.
    10030    2    1    2    0    0  0.00000000000E+00  0.00000000000E+00 -0.52522078749E+03  0.22787692987E+04  0.22174157573E+04 0.  0.
        3    1    3    3  502    0 -0.73395051453E+03  0.47571263923E+03 -0.96281975542E+03  0.13007719879E+04  0.10100000352E+00 0.  1.
       -3    1    3    3    0  502  0.73395051453E+03 -0.47571263923E+03  0.43759896793E+03  0.97799731075E+03  0.10100000352E+00 0. -1.
</event>
<event>
 5   0  0.2820239E-05  0.2199539E+04  0.7818609E-02  0.8518620E-01
       -1   -1    0    0    0  501  0.00000000000E+00  0.00000000000E+00  0.51169901527E+03  0.51169901530E+03  0.50400001928E-02 0.  1.
        1   -1    0    0  501    0  0.00000000000E+00  0.00000000000E+00 -0.23636799156E+04  0.23636799156E+04  0.50400001928E-02 0. -1.
    10030    2    1    2    0    0  0.00000000000E+00  0.00000000000E+00 -0.18519809003E+04  0.28753789309E+04  0.21995387564E+04 0.  0.
        3    1    3    3  502    0  0.15707855487E+03  0.50455497687E+03  0.33485465749E+03  0.62560134984E+03  0.10100000352E+00 0.  1.
       -3    1    3    3    0  502 -0.15707855487E+03 -0.50455497687E+03 -0.21868355578E+04  0.22497775811E+04  0.10100000352E+00 0. -1.
</event>
<event>
 5   0  0.2929471E-05  0.2203418E+04  0.7818609E-02  0.8517007E-01
        1   -1    0    0  501    0  0.00000000000E+00  0.00000000000E+00  0.10387850042E+04  0.10387850042E+04  0.50400001928E-02 0. -1.
       -1   -1    0    0    0  501  0.00000000000E+00  0.00000000000E+00 -0.11684446454E+04  0.11684446454E+04  0.50400001928E-02 0.  1.
    10030    2    1    2    0    0  0.00000000000E+00  0.00000000000E+00 -0.12965964121E+03  0.22072296496E+04  0.22034180501E+04 0.  0.
        2    1    3    3  502    0  0.94123487532E+03 -0.57253904151E+03 -0.58595608662E+02  0.11032486075E+04  0.25500000920E-02 0. -1.
       -2    1    3    3    0  502 -0.94123487532E+03  0.57253904151E+03 -0.71064032545E+02  0.11039810421E+04  0.25500000920E-02 0.  1.
</event>
<event>
 5   0  0.2929471E-05  0.2172972E+04  0.7818609E-02  0.8529763E-01
       -1   -1    0    0    0  501  0.00000000000E+00  0.00000000000E+00  0.13047411713E+04  0.13047411713E+04  0.50400001928E-02 0. -1.
        1   -1    0    0  501    0  0.00000000000E+00  0.00000000000E+00 -0.90474020687E+03  0.90474020688E+03  0.50400001928E-02 0.  1.
    10030    2    1    2    0    0  0.00000000000E+00  0.00000000000E+00  0.40000096439E+03  0.22094813781E+04  0.21729719715E+04 0.  0.
        2    1    3    3  502    0 -0.65305259982E+03  0.61197990593E+03 -0.42634822560E+03  0.99134752376E+03  0.25500000920E-02 0.  1.
       -2    1    3    3    0  502  0.65305259982E+03 -0.61197990593E+03  0.82634918999E+03  0.12181338544E+04  0.25500000920E-02 0. -1.
</event>
<event>
 5   0  0.6628798E-05  0.2176365E+04  0.7818609E-02  0.8528330E-01
       -2   -1    0    0    0  501  0.00000000000E+00  0.00000000000E+00  0.86520613464E+03  0.86520613464E+03  0.25500000920E-02 0.  1.
        2   -1    0    0  501    0  0.00000000000E+00  0.00000000000E+00 -0.13686229608E+04  0.13686229608E+04  0.25500000920E-02 0. -1.
    10030    2    1    2    0    0  0.00000000000E+00  0.00000000000E+00 -0.50341682611E+03  0.22338290954E+04  0.21763648423E+04 0.  0.
        4    1    3    3  502    0 -0.10596892694E+04 -0.20664989724E+03 -0.39129117955E+03  0.11483709888E+04  0.12699999809E+01 0.  1.
       -4    1    3    3    0  502  0.10596892694E+04  0.20664989724E+03 -0.11212564656E+03  0.10854581066E+04  0.12699999809E+01 0. -1.
</event>
<event>
 5   0  0.2908031E-05  0.2182762E+04  0.7818609E-02  0.8525638E-01
       -1   -1    0    0    0  501  0.00000000000E+00  0.00000000000E+00  0.19324179315E+04  0.19324179315E+04  0.50400001928E-02 0. -1.
        1   -1    0    0  501    0  0.00000000000E+00  0.00000000000E+00 -0.61638426689E+03  0.61638426691E+03  0.50400001928E-02 0.  1.
    10030    2    1    2    0    0  0.00000000000E+00  0.00000000000E+00  0.13160336646E+04  0.25488021984E+04  0.21827615628E+04 0.  0.
        1    1    3    3  502    0 -0.71856773511E+02  0.55152111196E+03  0.17545158648E+04  0.18405610158E+04  0.50400001928E-02 0. -1.
       -1    1    3    3    0  502  0.71856773511E+02 -0.55152111196E+03 -0.43848220022E+03  0.70824118263E+03  0.50400001928E-02 0.  1.
</event>
<event>
 5   0  0.2908031E-05  0.2205229E+04  0.7818609E-02  0.8516255E-01
        1   -1    0    0  501    0  0.00000000000E+00  0.00000000000E+00  0.22767968382E+04  0.22767968382E+04  0.50400001928E-02 0.  1.
       -1   -1    0    0    0  501  0.00000000000E+00  0.00000000000E+00 -0.53397749248E+03  0.53397749250E+03  0.50400001928E-02 0. -1.
    10030    2    1    2    0    0  0.00000000000E+00  0.00000000000E+00  0.17428193457E+04  0.28107743307E+04  0.22052285746E+04 0.  0.
        1    1    3    3  502    0  0.24979778310E+03  0.68855855458E+02  0.22374396035E+04  0.22523934027E+04  0.50400001928E-02 0.  1.
       -1    1    3    3    0  502 -0.24979778310E+03 -0.68855855458E+02 -0.49462025779E+03  0.55838092797E+03  0.50400001928E-02 0. -1.
</event>
<event>
 5   0  0.6445740E-05  0.2209755E+04  0.7818609E-02  0.8514379E-01
       -2   -1    0    0    0  501  0.00000000000E+00  0.00000000000E+00  0.17085862831E+04  0.17085862831E+04  0.25500000920E-02 0. -1.
        2   -1    0    0  501    0  0.00000000000E+00  0.00000000000E+00 -0.71448233829E+03  0.71448233830E+03  0.25500000920E-02 0.  1.
    10030    2    1    2    0    0  0.00000000000E+00  0.00000000000E+00  0.99410394480E+03  0.24230686214E+04  0.22097553916E+04 0.  0.
        5    1    3    3  502    0 -0.64303973036E+03  0.55747138137E+03 -0.27556252695E+03  0.89455644435E+03  0.46999998093E+01 0.  1.
       -5    1    3    3    0  502  0.64303973036E+03 -0.55747138137E+03  0.12696664717E+04  0.15285121770E+04  0.46999998093E+01 0. -1.
</event>
<event>
 5   0  0.6293013E-05  0.2186962E+04  0.7818609E-02  0.8523874E-01
       -2   -1    0    0    0  501  0.00000000000E+00  0.00000000000E+00  0.79173495173E+03  0.79173495174E+03  0.25500000920E-02 0.  1.
        2   -1    0    0  501    0  0.00000000000E+00  0.00000000000E+00 -0.15102286296E+04  0.15102286296E+04  0.25500000920E-02 0. -1.
    10030    2    1    2    0    0  0.00000000000E+00  0.00000000000E+00 -0.71849367786E+03  0.23019635813E+04  0.21869620858E+04 0.  0.
        1    1    3    3  502    0  0.35348350669E+03 -0.63356932211E+03  0.50190676166E+03  0.88219673137E+03  0.50400001928E-02 0.  1.
       -1    1    3    3    0  502 -0.35348350669E+03  0.63356932211E+03 -0.12204004395E+04  0.14197668500E+04  0.50400001928E-02 0. -1.
</event>
<event>
 5   0  0.6293013E-05  0.2194787E+04  0.7818609E-02  0.8520601E-01
        2   -1    0    0  501    0  0.00000000000E+00  0.00000000000E+00  0.50856981567E+03  0.50856981568E+03  0.25500000920E-02 0. -1.
       -2   -1    0    0    0  501  0.00000000000E+00  0.00000000000E+00 -0.23679594867E+04  0.23679594867E+04  0.25500000920E-02 0.  1.
    10030    2    1    2    0    0  0.00000000000E+00  0.00000000000E+00 -0.18593896710E+04  0.28765293024E+04  0.21947872058E+04 0.  0.
        1    1    3    3  502    0  0.57180579301E+03  0.64768900173E+03 -0.18164810449E+04  0.20114836053E+04  0.50400001928E-02 0.  1.
       -1    1    3    3    0  502 -0.57180579301E+03 -0.64768900173E+03 -0.42908626178E+02  0.86504569712E+03  0.50400001928E-02 0. -1.
</event>
<event>
 5   0  0.2820239E-05  0.1967186E+04  0.7818609E-02  0.8622118E-01
        1   -1    0    0  501    0  0.00000000000E+00  0.00000000000E+00  0.67938351570E+03  0.67938351572E+03  0.50400001928E-02 0.  1.
       -1   -1    0    0    0  501  0.00000000000E+00  0.00000000000E+00 -0.14240197321E+04  0.14240197321E+04  0.50400001928E-02 0. -1.
    10030    2    1    2    0    0  0.00000000000E+00  0.00000000000E+00 -0.74463621641E+03  0.21034032478E+04  0.19671863481E+04 0.  0.
        3    1    3    3  502    0  0.89860760780E+03  0.21301626855E+03 -0.10376135634E+02  0.92356875101E+03  0.10100000352E+00 0.  1.
       -3    1    3    3    0  502 -0.89860760780E+03 -0.21301626855E+03 -0.73426008078E+03  0.11798344968E+04  0.10100000352E+00 0. -1.
</event>
<event>
 5   0  0.6445740E-05  0.2194267E+04  0.7818609E-02  0.8520818E-01
       -2   -1    0    0    0  501  0.00000000000E+00  0.00000000000E+00  0.60337904729E+03  0.60337904730E+03  0.25500000920E-02 0.  1.
        2   -1    0    0  501    0  0.00000000000E+00  0.00000000000E+00 -0.19949357245E+04  0.19949357245E+04  0.25500000920E-02 0. -1.
    10030    2    1    2    0    0  0.00000000000E+00  0.00000000000E+00 -0.13915566772E+04  0.25983147718E+04  0.21942674558E+04 0.  0.
        5    1    3    3  502    0  0.97444939536E+03 -0.27668962463E+03 -0.19679172073E+03  0.10319194948E+04  0.46999998093E+01 0. -1.
       -5    1    3    3    0  502 -0.97444939536E+03  0.27668962463E+03 -0.11947649565E+04  0.15663952770E+04  0.46999998093E+01 0.  1.
</event>
<event>
 5   0  0.6414768E-05  0.2210404E+04  0.7818609E-02  0.8514110E-01
       -2   -1    0    0    0  501  0.00000000000E+00  0.00000000000E+00  0.87790508776E+03  0.87790508776E+03  0.25500000920E-02 0.  1.
        2   -1    0    0  501    0  0.00000000000E+00  0.00000000000E+00 -0.13913479739E+04  0.13913479739E+04  0.25500000920E-02 0. -1.
    10030    2    1    2    0    0  0.00000000000E+00  0.00000000000E+00 -0.51344288612E+03  0.22692530616E+04  0.22104040039E+04 0.  0.
        2    1    3    3  502    0  0.72933824538E+03  0.91410590444E+02 -0.11040320200E+04  0.13263396524E+04  0.25500000920E-02 0. -1.
       -2    1    3    3    0  502 -0.72933824538E+03 -0.91410590444E+02  0.59058913393E+03  0.94291340925E+03  0.25500000920E-02 0.  1.
</event>
<event>
 5   0  0.2910318E-05  0.1940777E+04  0.7818609E-02  0.8634821E-01
       -1   -1    0    0    0  501  0.00000000000E+00  0.00000000000E+00  0.45078224748E+03  0.45078224751E+03  0.50400001928E-02 0. -1.
        1   -1    0    0  501    0  0.00000000000E+00  0.00000000000E+00 -0.20889325050E+04  0.20889325050E+04  0.50400001928E-02 0.  1.
    10030    2    1    2    0    0  0.00000000000E+00  0.00000000000E+00 -0.16381502576E+04  0.25397147526E+04  0.19407768440E+04 0.  0.
        5    1    3    3  502    0 -0.31418426150E+03 -0.16529565334E+03  0.36273362340E+03  0.50757479718E+03  0.46999998093E+01 0. -1.
       -5    1    3    3    0  502  0.31418426150E+03  0.16529565334E+03 -0.20008838810E+04  0.20321399554E+04  0.46999998093E+01 0.  1.
</event>
<event>
 5   0  0.6293013E-05  0.2218425E+04  0.7818609E-02  0.8510798E-01
        2   -1    0    0  501    0  0.00000000000E+00  0.00000000000E+00  0.10721814784E+04  0.10721814784E+04  0.25500000920E-02 0. -1.
       -2   -1    0    0    0  501  0.00000000000E+00  0.00000000000E+00 -0.11475226639E+04  0.11475226639E+04  0.25500000920E-02 0.  1.
    10030    2    1    2    0    0  0.00000000000E+00  0.00000000000E+00 -0.75341185434E+02  0.22197041423E+04  0.22184251588E+04 0.  0.
        1    1    3    3  502    0 -0.97510829041E+03 -0.52022231991E+03  0.56644591943E+02  0.11066508257E+04  0.50400001928E-02 0.  1.
       -1    1    3    3    0  502  0.97510829041E+03  0.52022231991E+03 -0.13198577738E+03  0.11130533166E+04  0.50400001928E-02 0. -1.
</event>
<event>
 5   0  0.6628798E-05  0.2215417E+04  0.7818609E-02  0.8512039E-01
        2   -1    0    0  501    0  0.00000000000E+00  0.00000000000E+00  0.10769244656E+04  0.10769244656E+04  0.25500000920E-02 0.  1.
       -2   -1    0    0    0  501  0.00000000000E+00  0.00000000000E+00 -0.11393722387E+04  0.11393722387E+04  0.25500000920E-02 0. -1.
    10030    2    1    2    0    0  0.00000000000E+00  0.00000000000E+00 -0.62447773152E+02  0.22162967043E+04  0.22154167457E+04 0.  0.
        4    1    3    3  502    0  0.76860874490E+03 -0.71700653959E+03 -0.38087443671E+03  0.11180003265E+04  0.12699999809E+01 0.  1.
       -4    1    3    3    0  502 -0.76860874490E+03  0.71700653959E+03  0.31842666356E+03  0.10982963778E+04  0.12699999809E+01 0. -1.
</event>
<event>
 5   0  0.6293013E-05  0.2210278E+04  0.7818609E-02  0.8514163E-01
        2   -1    0    0  501    0  0.00000000000E+00  0.00000000000E+00  0.20252781062E+04  0.20252781062E+04  0.25500000920E-02 0.  1.
       -2   -1    0    0    0  501  0.00000000000E+00  0.00000000000E+00 -0.60304394366E+03  0.60304394366E+03  0.25500000920E-02 0. -1.
    10030    2    1    2    0    0  0.00000000000E+00  0.00000000000E+00  0.14222341626E+04  0.26283220499E+04  0.22102775357E+04 0.  0.
        1    1    3    3  502    0 -0.76581680170E+03 -0.96303576051E+01 -0.23629249181E+03  0.80150000578E+03  0.50400001928E-02 0. -1.
       -1    1    3    3    0  502  0.76581680170E+03  0.96303576051E+01  0.16585266544E+04  0.18268220441E+04  0.50400001928E-02 0.  1.
</event>
<event>
 5   0  0.6414768E-05  0.2222569E+04  0.7818609E-02  0.8509093E-01
       -2   -1    0    0    0  501  0.00000000000E+00  0.00000000000E+00  0.48592271881E+03  0.48592271881E+03  0.25500000920E-02 0.  1.
        2   -1    0    0  501    0  0.00000000000E+00  0.00000000000E+00 -0.25414605289E+04  0.25414605289E+04  0.25500000920E-02 0. -1.
    10030    2    1    2    0    0  0.00000000000E+00  0.00000000000E+00 -0.20555378101E+04  0.30273832477E+04  0.22225691530E+04 0.  0.
        2    1    3    3  502    0 -0.10938263985E+03  0.76101524832E+02 -0.25305392974E+04  0.25340452126E+04  0.25500000920E-02 0. -1.
       -2    1    3    3    0  502  0.10938263985E+03 -0.76101524832E+02  0.47500148727E+03  0.49333803512E+03  0.25500000920E-02 0.  1.
</event>
<event>
 5   0  0.2929471E-05  0.2038381E+04  0.7818609E-02  0.8588883E-01
       -1   -1    0    0    0  501  0.00000000000E+00  0.00000000000E+00  0.86391556488E+03  0.86391556490E+03  0.50400001928E-02 0.  1.
        1   -1    0    0  501    0  0.00000000000E+00  0.00000000000E+00 -0.12023741684E+04  0.12023741684E+04  0.50400001928E-02 0. -1.
    10030    2    1    2    0    0  0.00000000000E+00  0.00000000000E+00 -0.33845860348E+03  0.20662897333E+04  0.20383814745E+04 0.  0.
        2    1    3    3  502    0 -0.34636782507E+03  0.83471177622E+03  0.30842842281E+03  0.95490445156E+03  0.25500000920E-02 0.  1.
       -2    1    3    3    0  502  0.34636782507E+03 -0.83471177622E+03 -0.64688702628E+03  0.11113852817E+04  0.25500000920E-02 0. -1.
</event>
<event>
 5   0  0.2929471E-05  0.2189462E+04  0.7818609E-02  0.8522827E-01
        1   -1    0    0  501    0  0.00000000000E+00  0.00000000000E+00  0.57713607744E+03  0.57713607747E+03  0.50400001928E-02 0.  1.
       -1   -1    0    0    0  501  0.00000000000E+00  0.00000000000E+00 -0.20765230110E+04  0.20765230110E+04  0.50400001928E-02 0. -1.
    10030    2    1    2    0    0  0.00000000000E+00  0.00000000000E+00 -0.14993869336E+04  0.26536590885E+04  0.21894623498E+04 0.  0.
        2    1    3    3  502    0  0.70186164346E+03 -0.33067939981E+03 -0.16857557752E+04  0.18557292813E+04  0.25500000920E-02 0. -1.
       -2    1    3    3    0  502 -0.70186164346E+03  0.33067939981E+03  0.18636884161E+03  0.79792980716E+03  0.25500000920E-02 0.  1.
</event>
<event>
 5   0  0.6293013E-05  0.2198571E+04  0.7818609E-02  0.8519023E-01
       -2   -1    0    0    0  501  0.00000000000E+00  0.00000000000E+00  0.70247214861E+03  0.70247214862E+03  0.25500000920E-02 0. -1.
        2   -1    0    0  501    0  0.00000000000E+00  0.00000000000E+00 -0.17202505490E+04  0.17202505490E+04  0.25500000920E-02 0.  1.
    10030    2    1    2    0    0  0.00000000000E+00  0.00000000000E+00 -0.10177784004E+04  0.24227226976E+04  0.21985705350E+04 0.  0.
        1    1    3    3  502    0  0.42707835656E+02  0.54005361774E+03  0.54516050415E+03  0.76855828964E+03  0.50400001928E-02 0. -1.
       -1    1    3    3    0  502 -0.42707835656E+02 -0.54005361774E+03 -0.15629389045E+04  0.16541644080E+04  0.50400001928E-02 0.  1.
</event>
<event>
 5   0  0.2908031E-05  0.2184915E+04  0.7818609E-02  0.8524733E-01
        1   -1    0    0  501    0  0.00000000000E+00  0.00000000000E+00  0.25505979725E+04  0.25505979725E+04  0.50400001928E-02 0. -1.
       -1   -1    0    0    0  501  0.00000000000E+00  0.00000000000E+00 -0.46791493663E+03  0.46791493666E+03  0.50400001928E-02 0.  1.
    10030    2    1    2    0    0  0.00000000000E+00  0.00000000000E+00  0.20826830358E+04  0.30185129091E+04  0.21849145418E+04 0.  0.
        1    1    3    3  502    0 -0.55120919380E+02  0.25075831549E+03  0.25083259104E+04  0.25214315222E+04  0.50400001928E-02 0. -1.
       -1    1    3    3    0  502  0.55120919380E+02 -0.25075831549E+03 -0.42564287454E+03  0.49708138691E+03  0.50400001928E-02 0.  1.
</event>
<event>
 5   0  0.2910318E-05  0.2199413E+04  0.7818609E-02  0.8518673E-01
       -1   -1    0    0    0  501  0.00000000000E+00  0.00000000000E+00  0.16675255324E+04  0.16675255324E+04  0.50400001928E-02 0. -1.
        1   -1    0    0  501    0  0.00000000000E+00  0.00000000000E+00 -0.72523865647E+03  0.72523865649E+03  0.50400001928E-02 0.  1.
    10030    2    1    2    0    0  0.00000000000E+00  0.00000000000E+00  0.94228687593E+03  0.23927641889E+04  0.21994126278E+04 0.  0.
        5    1    3    3  502    0  0.98279338009E+03  0.47540100564E+02 -0.63140271291E+02  0.98597752153E+03  0.46999998093E+01 0.  1.
       -5    1    3    3    0  502 -0.98279338009E+03 -0.47540100564E+02  0.10054271472E+04  0.14067866674E+04  0.46999998093E+01 0. -1.
</event>
<event>
 5   0  0.6306919E-05  0.2206532E+04  0.7818609E-02  0.8515714E-01
       -2   -1    0    0    0  501  0.00000000000E+00  0.00000000000E+00  0.64316862728E+03  0.64316862728E+03  0.25500000920E-02 0.  1.
        2   -1    0    0  501    0  0.00000000000E+00  0.00000000000E+00 -0.18924988624E+04  0.18924988624E+04  0.25500000920E-02 0. -1.
    10030    2    1    2    0    0  0.00000000000E+00  0.00000000000E+00 -0.12493302352E+04  0.25356674897E+04  0.22065320260E+04 0.  0.
        3    1    3    3  502    0  0.60918515696E+03  0.35828369194E+03  0.34888930651E+03  0.78816084511E+03  0.10100000352E+00 0.  1.
       -3    1    3    3    0  502 -0.60918515696E+03 -0.35828369194E+03 -0.15982195417E+04  0.17475066446E+04  0.10100000352E+00 0. -1.
</event>
<event>
 5   0  0.2753631E-05  0.2190054E+04  0.7818609E-02  0.8522579E-01
        1   -1    0    0  501    0  0.00000000000E+00  0.00000000000E+00  0.16453079693E+04  0.16453079693E+04  0.50400001928E-02 0. -1.
       -1   -1    0    0    0  501  0.00000000000E+00  0.00000000000E+00 -0.72879017507E+03  0.72879017509E+03  0.50400001928E-02 0.  1.
    10030    2    1    2    0    0  0.00000000000E+00  0.00000000000E+00  0.91651779420E+03  0.23740981444E+04  0.21900541391E+04 0.  0.
        4    1    3    3  502    0 -0.54014286752E+03 -0.92683471797E+03  0.69651458085E+03  0.12790273985E+04  0.12699999809E+01 0.  1.
       -4    1    3    3    0  502  0.54014286752E+03  0.92683471797E+03  0.22000321335E+03  0.10950707459E+04  0.12699999809E+01 0. -1.
</event>
<event>
 5   0  0.6414768E-05  0.2221861E+04  0.7818609E-02  0.8509384E-01
       -2   -1    0    0    0  501  0.00000000000E+00  0.00000000000E+00  0.74757318652E+03  0.74757318653E+03  0.25500000920E-02 0.  1.
        2   -1    0    0  501    0  0.00000000000E+00  0.00000000000E+00 -0.16508976145E+04  0.16508976145E+04  0.25500000920E-02 0. -1.
    10030    2    1    2    0    0  0.00000000000E+00  0.00000000000E+00 -0.90332442794E+03  0.23984708010E+04  0.22218611930E+04 0.  0.
        2    1    3    3  502    0  0.75213265650E+03  0.81057746376E+03 -0.33626592431E+03  0.11557742555E+04  0.25500000920E-02 0.  1.
       -2    1    3    3    0  502 -0.75213265650E+03 -0.81057746376E+03 -0.56705850363E+03  0.12426965455E+04  0.25500000920E-02 0. -1.
</event>
<event>
 5   0  0.2753631E-05  0.2218115E+04  0.7818609E-02  0.8510926E-01
        1   -1    0    0  501    0  0.00000000000E+00  0.00000000000E+00  0.11436144556E+04  0.11436144556E+04  0.50400001928E-02 0.  1.
       -1   -1    0    0    0  501  0.00000000000E+00  0.00000000000E+00 -0.10755449013E+04  0.10755449013E+04  0.50400001928E-02 0. -1.
    10030    2    1    2    0    0  0.00000000000E+00  0.00000000000E+00  0.68069554352E+02  0.22191593569E+04  0.22181151429E+04 0.  0.
        4    1    3    3  502    0  0.66192262094E+02 -0.18916374575E+03  0.11253474204E+04  0.11430541403E+04  0.12699999809E+01 0.  1.
       -4    1    3    3    0  502 -0.66192262094E+02  0.18916374575E+03 -0.10572778660E+04  0.10761052166E+04  0.12699999809E+01 0. -1.
</event>
<event>
 5   0  0.2908031E-05  0.2204233E+04  0.7818609E-02  0.8516668E-01
        1   -1    0    0  501    0  0.00000000000E+00  0.00000000000E+00  0.14561989438E+04  0.14561989438E+04  0.50400001928E-02 0.  1.
       -1   -1    0    0    0  501  0.00000000000E+00  0.00000000000E+00 -0.83413132244E+03  0.83413132246E+03  0.50400001928E-02 0. -1.
    10030    2    1    2    0    0  0.00000000000E+00  0.00000000000E+00  0.62206762134E+03  0.22903302662E+04  0.22042333368E+04 0.  0.
        1    1    3    3  502    0 -0.29789293499E+03 -0.11406393250E+03 -0.78511783526E+03  0.84744368349E+03  0.50400001928E-02 0. -1.
       -1    1    3    3    0  502  0.29789293499E+03  0.11406393250E+03  0.14071854566E+04  0.14428865828E+04  0.50400001928E-02 0.  1.
</event>
<event>
 5   0  0.6445740E-05  0.2181360E+04  0.7818609E-02  0.8526227E-01
        2   -1    0    0  501    0  0.00000000000E+00  0.00000000000E+00  0.23729336070E+04  0.23729336070E+04  0.25500000920E-02 0.  1.
       -2   -1    0    0    0  501  0.00000000000E+00  0.00000000000E+00 -0.50131326825E+03  0.50131326826E+03  0.25500000920E-02 0. -1.
    10030    2    1    2    0    0  0.00000000000E+00  0.00000000000E+00  0.18716203387E+04  0.28742468752E+04  0.21813602196E+04 0.  0.
        5    1    3    3  502    0  0.97006855277E+03  0.29494145897E+03  0.14653924258E+04  0.17819709630E+04  0.46999998093E+01 0.  1.
       -5    1    3    3    0  502 -0.97006855277E+03 -0.29494145897E+03  0.40622791296E+03  0.10922759123E+04  0.46999998093E+01 0. -1.
</event>
<event>
 5   0  0.2820239E-05  0.2192105E+04  0.7818609E-02  0.8521721E-01
       -1   -1    0    0    0  501  0.00000000000E+00  0.00000000000E+00  0.10806900242E+04  0.10806900242E+04  0.50400001928E-02 0.  1.
        1   -1    0    0  501    0  0.00000000000E+00  0.00000000000E+00 -0.11116337022E+04  0.11116337022E+04  0.50400001928E-02 0. -1.
    10030    2    1    2    0    0  0.00000000000E+00  0.00000000000E+00 -0.30943678032E+02  0.21923237264E+04  0.21921053373E+04 0.  0.
        3    1    3    3  502    0  0.36427090057E+03  0.10217638088E+04 -0.17244884809E+03  0.10983775241E+04  0.10100000352E+00 0. -1.
       -3    1    3    3    0  502 -0.36427090057E+03 -0.10217638088E+04  0.14150517006E+03  0.10939462023E+04  0.10100000352E+00 0.  1.
</event>
<event>
 5   0  0.2820239E-05  0.2202350E+04  0.7818609E-02  0.8517451E-01
        1   -1    0    0  501    0  0.00000000000E+00  0.00000000000E+00  0.12401179204E+04  0.12401179204E+04  0.50400001928E-02 0.  1.
       -1   -1    0    0    0  501  0.00000000000E+00  0.00000000000E+00 -0.97779923887E+03  0.97779923888E+03  0.50400001928E-02 0. -1.
    10030    2    1    2    0    0  0.00000000000E+00  0.00000000000E+00  0.26231868150E+03  0.22179171593E+04  0.22023499801E+04 0.  0.
        3    1    3    3  502    0  0.10304012971E+04 -0.13898857312E+03 -0.23409105750E+03  0.10657594897E+04  0.10100000352E+00 0. -1.
       -3    1    3    3    0  502 -0.10304012971E+04  0.13898857312E+03  0.49640973901E+03  0.11521576696E+04  0.10100000352E+00 0.  1.
</event>
<event>
 5   0  0.6414768E-05  0.2225037E+04  0.7818609E-02  0.8508079E-01
       -2   -1    0    0    0  501  0.00000000000E+00  0.00000000000E+00  0.10408020643E+04  0.10408020643E+04  0.25500000920E-02 0. -1.
        2   -1    0    0  501    0  0.00000000000E+00  0.00000000000E+00 -0.11891760699E+04  0.11891760699E+04  0.25500000920E-02 0.  1.
    10030    2    1    2    0    0  0.00000000000E+00  0.00000000000E+00 -0.14837400553E+03  0.22299781342E+04  0.22250365466E+04 0.  0.
        2    1    3    3  502    0 -0.72033308548E+02 -0.95024305296E+03 -0.64952312742E+03  0.11532696780E+04  0.25500000920E-02 0.  1.
       -2    1    3    3    0  502  0.72033308548E+02  0.95024305296E+03  0.50114912189E+03  0.10767084562E+04  0.25500000920E-02 0. -1.
</event>
<event>
 5   0  0.6628798E-05  0.2211299E+04  0.7818609E-02  0.8513740E-01
        2   -1    0    0  501    0  0.00000000000E+00  0.00000000000E+00  0.21176073617E+04  0.21176073617E+04  0.25500000920E-02 0. -1.
       -2   -1    0    0    0  501  0.00000000000E+00  0.00000000000E+00 -0.57728414440E+03  0.57728414441E+03  0.25500000920E-02 0.  1.
    10030    2    1    2    0    0  0.00000000000E+00  0.00000000000E+00  0.15403232173E+04  0.26948915061E+04  0.22112993049E+04 0.  0.
        4    1    3    3  502    0  0.89093072478E+03 -0.50522434921E+03  0.26260868234E+03  0.10573429587E+04  0.12699999809E+01 0.  1.
       -4    1    3    3    0  502 -0.89093072478E+03  0.50522434921E+03  0.12777145350E+04  0.16375485474E+04  0.12699999809E+01 0. -1.
</event>
<event>
 5   0  0.2820239E-05  0.2167334E+04  0.7818609E-02  0.8532149E-01
       -1   -1    0    0    0  501  0.00000000000E+00  0.00000000000E+00  0.50390036241E+03  0.50390036243E+03  0.50400001928E-02 0.  1.
        1   -1    0    0  501    0  0.00000000000E+00  0.00000000000E+00 -0.23304878094E+04  0.23304878094E+04  0.50400001928E-02 0. -1.
    10030    2    1    2    0    0  0.00000000000E+00  0.00000000000E+00 -0.18265874470E+04  0.28343881718E+04  0.21673335247E+04 0.  0.
        3    1    3    3  502    0 -0.60549816408E+02 -0.60478996981E+02  0.49947412331E+03  0.50675279910E+03  0.10100000352E+00 0.  1.
       -3    1    3    3    0  502  0.60549816408E+02  0.60478996981E+02 -0.23260615703E+04  0.23276353727E+04  0.10100000352E+00 0. -1.
</event>
<event>
 5   0  0.6414768E-05  0.2166189E+04  0.7818609E-02  0.8532634E-01
        2   -1    0    0  501    0  0.00000000000E+00  0.00000000000E+00  0.11153347630E+04  0.11153347630E+04  0.25500000920E-02 0. -1.
       -2   -1    0    0    0  501  0.00000000000E+00  0.00000000000E+00 -0.10517865948E+04  0.10517865948E+04  0.25500000920E-02 0.  1.
    10030    2    1    2    0    0  0.00000000000E+00  0.00000000000E+00  0.63548168153E+02  0.21671213578E+04  0.21661894215E+04 0.  0.
        2    1    3    3  502    0  0.10277010472E+04 -0.92130739181E+02 -0.29766477225E+03  0.10739002897E+04  0.25500000920E-02 0.  1.
       -2    1    3    3    0  502 -0.10277010472E+04  0.92130739181E+02  0.36121294040E+03  0.10932210681E+04  0.25500000920E-02 0. -1.
</event>
<event>
 5   0  0.6628798E-05  0.2199693E+04  0.7818609E-02  0.8518556E-01
       -2   -1    0    0    0  501  0.00000000000E+00  0.00000000000E+00  0.13437855080E+04  0.13437855080E+04  0.25500000920E-02 0.  1.
        2   -1    0    0  501    0  0.00000000000E+00  0.00000000000E+00 -0.90019019481E+03  0.90019019481E+03  0.25500000920E-02 0. -1.
    10030    2    1    2    0    0  0.00000000000E+00  0.00000000000E+00  0.44359531316E+03  0.22439757028E+04  0.21996931951E+04 0.  0.
        4    1    3    3  502    0  0.56110066351E+03  0.33450263396E+03 -0.68085129362E+03  0.94354971445E+03  0.12699999809E+01 0. -1.
       -4    1    3    3    0  502 -0.56110066351E+03 -0.33450263396E+03  0.11244466068E+04  0.13004259883E+04  0.12699999809E+01 0.  1.
</event>
<event>
 5   0  0.6306919E-05  0.2223112E+04  0.7818609E-02  0.8508870E-01
       -2   -1    0    0    0  501  0.00000000000E+00  0.00000000000E+00  0.93676169043E+03  0.93676169043E+03  0.25500000920E-02 0.  1.
        2   -1    0    0  501    0  0.00000000000E+00  0.00000000000E+00 -0.13189653273E+04  0.13189653273E+04  0.25500000920E-02 0. -1.
    10030    2    1    2    0    0  0.00000000000E+00  0.00000000000E+00 -0.38220363688E+03  0.22557270177E+04  0.22231115038E+04 0.  0.
        3    1    3    3  502    0 -0.59727566564E+03  0.52002725936E+03 -0.98253852523E+03  0.12619621765E+04  0.10100000352E+00 0. -1.
       -3    1    3    3    0  502  0.59727566564E+03 -0.52002725936E+03  0.60033488835E+03  0.99376484120E+03  0.10100000352E+00 0.  1.
</event>
<event>
 5   0  0.2820239E-05  0.2205892E+04  0.7818609E-02  0.8515980E-01
       -1   -1    0    0    0  501  0.00000000000E+00  0.00000000000E+00  0.57643929235E+03  0.57643929237E+03  0.50400001928E-02 0. -1.
        1   -1    0    0  501    0  0.00000000000E+00  0.00000000000E+00 -0.21103521797E+04  0.21103521797E+04  0.50400001928E-02 0.  1.
    10030    2    1    2    0    0  0.00000000000E+00  0.00000000000E+00 -0.15339128873E+04  0.26867914721E+04  0.22058920346E+04 0.  0.
        3    1    3    3  502    0 -0.20694740091E+03 -0.76137101192E+03  0.17176010179E+03  0.80747420226E+03  0.10100000352E+00 0. -1.
       -3    1    3    3    0  502  0.20694740091E+03  0.76137101192E+03 -0.17056729891E+04  0.18793172698E+04  0.10100000352E+00 0.  1.
</event>
<event>
 5   0  0.6414768E-05  0.2211283E+04  0.7818609E-02  0.8513747E-01
        2   -1    0    0  501    0  0.00000000000E+00  0.00000000000E+00  0.21385970537E+04  0.21385970537E+04  0.25500000920E-02 0. -1.
       -2   -1    0    0    0  501  0.00000000000E+00  0.00000000000E+00 -0.57160975960E+03  0.57160975960E+03  0.25500000920E-02 0.  1.
    10030    2    1    2    0    0  0.00000000000E+00  0.00000000000E+00  0.15669872941E+04  0.27102068133E+04  0.22112828383E+04 0.  0.
        2    1    3    3  502    0 -0.68561361011E+03 -0.16265548245E+03 -0.26075171254E+03  0.75134165594E+03  0.25500000920E-02 0.  1.
       -2    1    3    3    0  502  0.68561361011E+03  0.16265548245E+03  0.18277390066E+04  0.19588651573E+04  0.25500000920E-02 0. -1.
</event>
<event>
 5   0  0.2245375E-05  0.2225688E+04  0.7818609E-02  0.8507811E-01
        3   -1    0    0  501    0  0.00000000000E+00  0.00000000000E+00  0.12774794875E+04  0.12774794915E+04  0.10100000352E+00 0. -1.
       -3   -1    0    0    0  501  0.00000000000E+00  0.00000000000E+00 -0.96942632678E+03  0.96942633204E+03  0.10100000352E+00 0.  1.
    10030    2    1    2    0    0  0.00000000000E+00  0.00000000000E+00  0.30805316072E+03  0.22469058235E+04  0.22256884396E+04 0.  0.
        2    1    3    3  502    0  0.42524529300E+02 -0.10073828631E+04 -0.32141273526E+03  0.10582696796E+04  0.25500000920E-02 0.  1.
       -2    1    3    3    0  502 -0.42524529300E+02  0.10073828631E+04  0.62946589598E+03  0.11886361439E+04  0.25500000920E-02 0. -1.
</event>
<event>
 5   0  0.2753631E-05  0.2169540E+04  0.7818609E-02  0.8531214E-01
        1   -1    0    0  501    0  0.00000000000E+00  0.00000000000E+00  0.69947646467E+03  0.69947646469E+03  0.50400001928E-02 0.  1.
       -1   -1    0    0    0  501  0.00000000000E+00  0.00000000000E+00 -0.16822950565E+04  0.16822950565E+04  0.50400001928E-02 0. -1.
    10030    2    1    2    0    0  0.00000000000E+00  0.00000000000E+00 -0.98281859187E+03  0.23817715212E+04  0.21695398579E+04 0.  0.
        4    1    3    3  502    0 -0.22089306500E+03  0.59398015516E+03 -0.14579416142E+04  0.15897174384E+04  0.12699999809E+01 0. -1.
       -4    1    3    3    0  502  0.22089306500E+03 -0.59398015516E+03  0.47512302228E+03  0.79205408281E+03  0.12699999809E+01 0.  1.
</event>
<event>
 5   0  0.6414768E-05  0.2199114E+04  0.7818609E-02  0.8518797E-01
       -2   -1    0    0    0  501  0.00000000000E+00  0.00000000000E+00  0.13196309576E+04  0.13196309576E+04  0.25500000920E-02 0.  1.
        2   -1    0    0  501    0  0.00000000000E+00  0.00000000000E+00 -0.91618476319E+03  0.91618476319E+03  0.25500000920E-02 0. -1.
    10030    2    1    2    0    0  0.00000000000E+00  0.00000000000E+00  0.40344619444E+03  0.22358157208E+04  0.21991141639E+04 0.  0.
        2    1    3    3  502    0 -0.57176329111E+03  0.47889178672E+03  0.10231521208E+04  0.12661322469E+04  0.25500000920E-02 0.  1.
       -2    1    3    3    0  502  0.57176329111E+03 -0.47889178672E+03 -0.61970592632E+03  0.96968347391E+03  0.25500000920E-02 0. -1.
</event>
<event>
 5   0  0.2910318E-05  0.2107694E+04  0.7818609E-02  0.8557862E-01
        1   -1    0    0  501    0  0.00000000000E+00  0.00000000000E+00  0.16043904949E+04  0.16043904950E+04  0.50400001928E-02 0.  1.
       -1   -1    0    0    0  501  0.00000000000E+00  0.00000000000E+00 -0.69222118897E+03  0.69222118899E+03  0.50400001928E-02 0. -1.
    10030    2    1    2    0    0  0.00000000000E+00  0.00000000000E+00  0.91216930597E+03  0.22966116839E+04  0.21076936172E+04 0.  0.
        5    1    3    3  502    0 -0.10225693405E+03 -0.27233489590E+03  0.15597637386E+04  0.15866656189E+04  0.46999998093E+01 0.  1.
       -5    1    3    3    0  502  0.10225693405E+03  0.27233489590E+03 -0.64759443261E+03  0.70994606502E+03  0.46999998093E+01 0. -1.
</event>
<event>
 5   0  0.2820239E-05  0.2206996E+04  0.7818609E-02  0.8515522E-01
        1   -1    0    0  501    0  0.00000000000E+00  0.00000000000E+00  0.96933472325E+03  0.96933472326E+03  0.50400001928E-02 0.  1.
       -1   -1    0    0    0  501  0.00000000000E+00  0.00000000000E+00 -0.12562310040E+04  0.12562310041E+04  0.50400001928E-02 0. -1.
    10030    2    1    2    0    0  0.00000000000E+00  0.00000000000E+00 -0.28689628080E+03  0.22255657273E+04  0.22069964501E+04 0.  0.
        3    1    3    3  502    0  0.29563546374E+03 -0.58933797659E+03 -0.10357597627E+04  0.12278101947E+04  0.10100000352E+00 0. -1.
       -3    1    3    3    0  502 -0.29563546374E+03  0.58933797659E+03  0.74886348190E+03  0.99775553258E+03  0.10100000352E+00 0.  1.
</event>
<event>
 5   0  0.2820239E-05  0.2214228E+04  0.7818609E-02  0.8512530E-01
       -1   -1    0    0    0  501  0.00000000000E+00  0.00000000000E+00  0.98326291625E+03  0.98326291626E+03  0.50400001928E-02 0. -1.
        1   -1    0    0  501    0  0.00000000000E+00  0.00000000000E+00 -0.12465647243E+04  0.12465647243E+04  0.50400001928E-02 0.  1.
    10030    2    1    2    0    0  0.00000000000E+00  0.00000000000E+00 -0.26330180807E+03  0.22298276406E+04  0.22142275097E+04 0.  0.
        3    1    3    3  502    0 -0.75844136580E+03  0.37055815217E+03 -0.85304569008E+03  0.12000973332E+04  0.10100000352E+00 0.  1.
       -3    1    3    3    0  502  0.75844136580E+03 -0.37055815217E+03  0.58974388201E+03  0.10297303074E+04  0.10100000352E+00 0. -1.
</event>
<event>
 5   0  0.2929471E-05  0.2217332E+04  0.7818609E-02  0.8511249E-01
       -1   -1    0    0    0  501  0.00000000000E+00  0.00000000000E+00  0.94502093731E+03  0.94502093732E+03  0.50400001928E-02 0.  1.
        1   -1    0    0  501    0  0.00000000000E+00  0.00000000000E+00 -0.13006482957E+04  0.13006482958E+04  0.50400001928E-02 0. -1.
    10030    2    1    2    0    0  0.00000000000E+00  0.00000000000E+00 -0.35562735844E+03  0.22456692331E+04  0.22173316140E+04 0.  0.
        2    1    3    3  502    0  0.63376592956E+03 -0.87795348541E+03 -0.41892829146E+03  0.11610178678E+04  0.25500000920E-02 0. -1.
       -2    1    3    3    0  502 -0.63376592956E+03  0.87795348541E+03  0.63300933017E+02  0.10846513653E+04  0.25500000920E-02 0.  1.
</event>
<event>
 5   0  0.6445740E-05  0.2191434E+04  0.7818609E-02  0.8522002E-01
       -2   -1    0    0    0  501  0.00000000000E+00  0.00000000000E+00  0.59920828679E+03  0.59920828679E+03  0.25500000920E-02 0.  1.
        2   -1    0    0  501    0  0.00000000000E+00  0.00000000000E+00 -0.20036369283E+04  0.20036369283E+04  0.25500000920E-02 0. -1.
    10030    2    1    2    0    0  0.00000000000E+00  0.00000000000E+00 -0.14044286415E+04  0.26028452151E+04  0.21914340977E+04 0.  0.
        5    1    3    3  502    0 -0.15404196774E+03  0.27189767870E+03  0.54514403838E+03  0.62837997111E+03  0.46999998093E+01 0.  1.
       -5    1    3    3    0  502  0.15404196774E+03 -0.27189767870E+03 -0.19495726799E+04  0.19744652440E+04  0.46999998093E+01 0. -1.
</event>
<event>
 5   0  0.2753631E-05  0.2198052E+04  0.7818609E-02  0.8519239E-01
       -1   -1    0    0    0  501  0.00000000000E+00  0.00000000000E+00  0.11930674527E+04  0.11930674527E+04  0.50400001928E-02 0. -1.
        1   -1    0    0  501    0  0.00000000000E+00  0.00000000000E+00 -0.10123970786E+04  0.10123970786E+04  0.50400001928E-02 0.  1.
    10030    2    1    2    0    0  0.00000000000E+00  0.00000000000E+00  0.18067037410E+03  0.22054645313E+04  0.21980518681E+04 0.  0.
        4    1    3    3  502    0  0.96691434778E+03  0.33393005929E+02  0.61345503893E+03  0.11455859402E+04  0.12699999809E+01 0. -1.
       -4    1    3    3    0  502 -0.96691434778E+03 -0.33393005929E+02 -0.43278466483E+03  0.10598785911E+04  0.12699999809E+01 0.  1.
</event>
<event>
 5   0  0.2820239E-05  0.2203251E+04  0.7818609E-02  0.8517076E-01
       -1   -1    0    0    0  501  0.00000000000E+00  0.00000000000E+00  0.15589845211E+04  0.15589845211E+04  0.50400001928E-02 0. -1.
        1   -1    0    0  501    0  0.00000000000E+00  0.00000000000E+00 -0.77844186818E+03  0.77844186820E+03  0.50400001928E-02 0.  1.
    10030    2    1    2    0    0  0.00000000000E+00  0.00000000000E+00  0.78054265289E+03  0.23374263893E+04  0.22032510734E+04 0.  0.
        3    1    3    3  502    0 -0.39744621974E+03  0.11467555317E+03  0.14734613691E+04  0.15304255606E+04  0.10100000352E+00 0. -1.
       -3    1    3    3    0  502  0.39744621974E+03 -0.11467555317E+03 -0.69291871619E+03  0.80700082870E+03  0.10100000352E+00 0.  1.
</event>
<event>
 5   0  0.6414768E-05  0.2198329E+04  0.7818609E-02  0.8519124E-01
        2   -1    0    0  501    0  0.00000000000E+00  0.00000000000E+00  0.15805573048E+04  0.15805573048E+04  0.25500000920E-02 0.  1.
       -2   -1    0    0    0  501  0.00000000000E+00  0.00000000000E+00 -0.76438990696E+03  0.76438990696E+03  0.25500000920E-02 0. -1.
    10030    2    1    2    0    0  0.00000000000E+00  0.00000000000E+00  0.81616739785E+03  0.23449472118E+04  0.21983285024E+04 0.  0.
        2    1    3    3  502    0  0.21578308050E+03 -0.32223954126E+03 -0.68898629125E+03  0.79063440940E+03  0.25500000920E-02 0. -1.
       -2    1    3    3    0  502 -0.21578308050E+03  0.32223954126E+03  0.15051536891E+04  0.15543128024E+04  0.25500000920E-02 0.  1.
</event>
<event>
 5   0  0.2929471E-05  0.2190750E+04  0.7818609E-02  0.8522288E-01
       -1   -1    0    0    0  501  0.00000000000E+00  0.00000000000E+00  0.64486275239E+03  0.64486275241E+03  0.50400001928E-02 0.  1.
        1   -1    0    0  501    0  0.00000000000E+00  0.00000000000E+00 -0.18606231255E+04  0.18606231255E+04  0.50400001928E-02 0. -1.
    10030    2    1    2    0    0  0.00000000000E+00  0.00000000000E+00 -0.12157603731E+04  0.25054858779E+04  0.21907501454E+04 0.  0.
        2    1    3    3  502    0 -0.52131213129E+03 -0.83234506052E+03 -0.53135207315E+02  0.98355883823E+03  0.25500000920E-02 0.  1.
       -2    1    3    3    0  502  0.52131213129E+03  0.83234506052E+03 -0.11626251658E+04  0.15219270397E+04  0.25500000920E-02 0. -1.
</event>
<event>
 5   0  0.6445740E-05  0.2164257E+04  0.7818609E-02  0.8533454E-01
        2   -1    0    0  501    0  0.00000000000E+00  0.00000000000E+00  0.13816531455E+04  0.13816531455E+04  0.25500000920E-02 0.  1.
       -2   -1    0    0    0  501  0.00000000000E+00  0.00000000000E+00 -0.84753655884E+03  0.84753655884E+03  0.25500000920E-02 0. -1.
    10030    2    1    2    0    0  0.00000000000E+00  0.00000000000E+00  0.53411658671E+03  0.22291897044E+04  0.21642565028E+04 0.  0.
        5    1    3    3  502    0  0.50696599536E+02  0.19811361774E+03  0.13615591353E+04  0.13768385960E+04  0.46999998093E+01 0.  1.
       -5    1    3    3    0  502 -0.50696599536E+02 -0.19811361774E+03 -0.82744254856E+03  0.85235110835E+03  0.46999998093E+01 0. -1.
</event>
<event>
 5   0  0.2908031E-05  0.2256607E+04  0.7818609E-02  0.8495230E-01
       -1   -1    0    0    0  501  0.00000000000E+00  0.00000000000E+00  0.96689055700E+03  0.96689055701E+03  0.50400001928E-02 0. -1.
        1   -1    0    0  501    0  0.00000000000E+00  0.00000000000E+00 -0.13166628098E+04  0.13166628098E+04  0.50400001928E-02 0.  1.
    10030    2    1    2    0    0  0.00000000000E+00  0.00000000000E+00 -0.34977225280E+03  0.22835533668E+04  0.22566070438E+04 0.  0.
        1    1    3    3  502    0 -0.55541065647E+03 -0.42957374204E+03  0.71886710936E+03  0.10048803501E+04  0.50400001928E-02 0. -1.
       -1    1    3    3    0  502  0.55541065647E+03  0.42957374204E+03 -0.10686393622E+04  0.12786730167E+04  0.50400001928E-02 0.  1.
</event>
<event>
 5   0  0.6306919E-05  0.2194897E+04  0.7818609E-02  0.8520555E-01
       -2   -1    0    0    0  501  0.00000000000E+00  0.00000000000E+00  0.42118047647E+03  0.42118047648E+03  0.25500000920E-02 0. -1.
        2   -1    0    0  501    0  0.00000000000E+00  0.00000000000E+00 -0.28595660363E+04  0.28595660363E+04  0.25500000920E-02 0.  1.
    10030    2    1    2    0    0  0.00000000000E+00  0.00000000000E+00 -0.24383855598E+04  0.32807465128E+04  0.21948971599E+04 0.  0.
        3    1    3    3  502    0 -0.81925782008E+03  0.70393429227E+03 -0.92902347423E+03  0.14247075101E+04  0.10100000352E+00 0.  1.
       -3    1    3    3    0  502  0.81925782008E+03 -0.70393429227E+03 -0.15093620856E+04  0.18560390026E+04  0.10100000352E+00 0. -1.
</event>
<event>
 5   0  0.6445740E-05  0.2159096E+04  0.7818609E-02  0.8535649E-01
        2   -1    0    0  501    0  0.00000000000E+00  0.00000000000E+00  0.18062454105E+04  0.18062454105E+04  0.25500000920E-02 0.  1.
       -2   -1    0    0    0  501  0.00000000000E+00  0.00000000000E+00 -0.64521902408E+03  0.64521902409E+03  0.25500000920E-02 0. -1.
    10030    2    1    2    0    0  0.00000000000E+00  0.00000000000E+00  0.11610263864E+04  0.24514644346E+04  0.21590960155E+04 0.  0.
        5    1    3    3  502    0 -0.60035725755E+03 -0.25030191656E+03 -0.39773664549E+03  0.76242797384E+03  0.46999998093E+01 0. -1.
       -5    1    3    3    0  502  0.60035725755E+03  0.25030191656E+03  0.15587630319E+04  0.16890364608E+04  0.46999998093E+01 0.  1.
</event>
<event>
 5   0  0.2908031E-05  0.2227539E+04  0.7818609E-02  0.8507053E-01
       -1   -1    0    0    0  501  0.00000000000E+00  0.00000000000E+00  0.84342568991E+03  0.84342568992E+03  0.50400001928E-02 0. -1.
        1   -1    0    0  501    0  0.00000000000E+00  0.00000000000E+00 -0.14707665467E+04  0.14707665467E+04  0.50400001928E-02 0.  1.
    10030    2    1    2    0    0  0.00000000000E+00  0.00000000000E+00 -0.62734085683E+03  0.23141922367E+04  0.22275388117E+04 0.  0.
        1    1    3    3  502    0  0.33838546545E+03 -0.66274038248E+03  0.54727248711E+03  0.92370813192E+03  0.50400001928E-02 0. -1.
       -1    1    3    3    0  502 -0.33838546545E+03  0.66274038248E+03 -0.11746133439E+04  0.13904841048E+04  0.50400001928E-02 0.  1.
</event>
<event>
 5   0  0.6414768E-05  0.2198588E+04  0.7818609E-02  0.8519016E-01
       -2   -1    0    0    0  501  0.00000000000E+00  0.00000000000E+00  0.11368843465E+04  0.11368843465E+04  0.25500000920E-02 0.  1.
        2   -1    0    0  501    0  0.00000000000E+00  0.00000000000E+00 -0.10629465933E+04  0.10629465933E+04  0.25500000920E-02 0. -1.
    10030    2    1    2    0    0  0.00000000000E+00  0.00000000000E+00  0.73937753267E+02  0.21998309398E+04  0.21985880406E+04 0.  0.
        2    1    3    3  502    0  0.30335458051E+03 -0.47866650329E+03  0.97946832874E+03  0.11315934915E+04  0.25500000920E-02 0.  1.
       -2    1    3    3    0  502 -0.30335458051E+03  0.47866650329E+03 -0.90553057548E+03  0.10682374483E+04  0.25500000920E-02 0. -1.
</event>
<event>
 5   0  0.6445740E-05  0.2151418E+04  0.7818609E-02  0.8538925E-01
        2   -1    0    0  501    0  0.00000000000E+00  0.00000000000E+00  0.13768550644E+04  0.13768550644E+04  0.25500000920E-02 0. -1.
       -2   -1    0    0    0  501  0.00000000000E+00  0.00000000000E+00 -0.84042992847E+03  0.84042992847E+03  0.25500000920E-02 0.  1.
    10030    2    1    2    0    0  0.00000000000E+00  0.00000000000E+00  0.53642513593E+03  0.22172849929E+04  0.21514183259E+04 0.  0.
        5    1    3    3  502    0 -0.70936153416E+03  0.50487639791E+03  0.91924359439E+03  0.12661456627E+04  0.46999998093E+01 0. -1.
       -5    1    3    3    0  502  0.70936153416E+03 -0.50487639791E+03 -0.38281845846E+03  0.95113933019E+03  0.46999998093E+01 0.  1.
</event>
<event>
 5   0  0.2929471E-05  0.2149928E+04  0.7818609E-02  0.8539563E-01
        1   -1    0    0  501    0  0.00000000000E+00  0.00000000000E+00  0.12138376955E+04  0.12138376955E+04  0.50400001928E-02 0. -1.
       -1   -1    0    0    0  501  0.00000000000E+00  0.00000000000E+00 -0.95197881851E+03  0.95197881852E+03  0.50400001928E-02 0.  1.
    10030    2    1    2    0    0  0.00000000000E+00  0.00000000000E+00  0.26185887699E+03  0.21658165140E+04  0.21499281618E+04 0.  0.
        2    1    3    3  502    0 -0.83237273946E+03  0.47915458163E+03 -0.35545778217E+03  0.10241014234E+04  0.25500000920E-02 0.  1.
       -2    1    3    3    0  502  0.83237273946E+03 -0.47915458163E+03  0.61731665916E+03  0.11417150906E+04  0.25500000920E-02 0. -1.
</event>
<event>
 5   0  0.6445740E-05  0.2244300E+04  0.7818609E-02  0.8500212E-01
       -2   -1    0    0    0  501  0.00000000000E+00  0.00000000000E+00  0.79790968749E+03  0.79790968749E+03  0.25500000920E-02 0. -1.
        2   -1    0    0  501    0  0.00000000000E+00  0.00000000000E+00 -0.15781499272E+04  0.15781499272E+04  0.25500000920E-02 0.  1.
    10030    2    1    2    0    0  0.00000000000E+00  0.00000000000E+00 -0.78024023971E+03  0.23760596147E+04  0.22443004391E+04 0.  0.
        5    1    3    3  502    0 -0.35793701946E+03 -0.52149380640E+03  0.59118563609E+03  0.86579284262E+03  0.46999998093E+01 0. -1.
       -5    1    3    3    0  502  0.35793701946E+03  0.52149380640E+03 -0.13714258758E+04  0.15102667721E+04  0.46999998093E+01 0.  1.
</event>
<event>
 5   0  0.2753631E-05  0.2196940E+04  0.7818609E-02  0.8519703E-01
       -1   -1    0    0    0  501  0.00000000000E+00  0.00000000000E+00  0.15470085798E+04  0.15470085799E+04  0.50400001928E-02 0. -1.
        1   -1    0    0  501    0  0.00000000000E+00  0.00000000000E+00 -0.77998038215E+03  0.77998038216E+03  0.50400001928E-02 0.  1.
    10030    2    1    2    0    0  0.00000000000E+00  0.00000000000E+00  0.76702819770E+03  0.23269889620E+04  0.21969400022E+04 0.  0.
        4    1    3    3  502    0  0.12179454508E+03 -0.33330326126E+03  0.14846239864E+04  0.15264452067E+04  0.12699999809E+01 0. -1.
       -4    1    3    3    0  502 -0.12179454508E+03  0.33330326126E+03 -0.71759578875E+03  0.80054375527E+03  0.12699999809E+01 0.  1.
</event>
<event>
 5   0  0.2910318E-05  0.2185324E+04  0.7818609E-02  0.8524561E-01
       -1   -1    0    0    0  501  0.00000000000E+00  0.00000000000E+00  0.11276839441E+04  0.11276839441E+04  0.50400001928E-02 0. -1.
        1   -1    0    0  501    0  0.00000000000E+00  0.00000000000E+00 -0.10587278120E+04  0.10587278120E+04  0.50400001928E-02 0.  1.
    10030    2    1    2    0    0  0.00000000000E+00  0.00000000000E+00  0.68956132124E+02  0.21864117561E+04  0.21853240993E+04 0.  0.
        5    1    3    3  502    0 -0.26639872853E+03  0.36621960694E+03 -0.96040268070E+03  0.10618288385E+04  0.46999998093E+01 0.  1.
       -5    1    3    3    0  502  0.26639872853E+03 -0.36621960694E+03  0.10293588128E+04  0.11245829176E+04  0.46999998093E+01 0. -1.
</event>
<event>
 5   0  0.2910318E-05  0.2208114E+04  0.7818609E-02  0.8515058E-01
       -1   -1    0    0    0  501  0.00000000000E+00  0.00000000000E+00  0.67783570261E+03  0.67783570263E+03  0.50400001928E-02 0. -1.
        1   -1    0    0  501    0  0.00000000000E+00  0.00000000000E+00 -0.17982852075E+04  0.17982852075E+04  0.50400001928E-02 0.  1.
    10030    2    1    2    0    0  0.00000000000E+00  0.00000000000E+00 -0.11204495049E+04  0.24761209101E+04  0.22081140524E+04 0.  0.
        5    1    3    3  502    0  0.50838861176E+03  0.43758610090E+03  0.42312419402E+03  0.79309315332E+03  0.46999998093E+01 0. -1.
       -5    1    3    3    0  502 -0.50838861176E+03 -0.43758610090E+03 -0.15435736989E+04  0.16830277568E+04  0.46999998093E+01 0.  1.
</event>
<event>
 5   0  0.2245375E-05  0.2197770E+04  0.7818609E-02  0.8519357E-01
       -3   -1    0    0    0  501  0.00000000000E+00  0.00000000000E+00  0.16931332158E+04  0.16931332188E+04  0.10100000352E+00 0. -1.
        3   -1    0    0  501    0  0.00000000000E+00  0.00000000000E+00 -0.71320306481E+03  0.71320307196E+03  0.10100000352E+00 0.  1.
    10030    2    1    2    0    0  0.00000000000E+00  0.00000000000E+00  0.97993015098E+03  0.24063362908E+04  0.21977696065E+04 0.  0.
        4    1    3    3  502    0  0.40171457511E+03  0.11477630430E+02  0.16097852183E+04  0.16591914892E+04  0.12699999809E+01 0. -1.
       -4    1    3    3    0  502 -0.40171457511E+03 -0.11477630430E+02 -0.62985506729E+03  0.74714480159E+03  0.12699999809E+01 0.  1.
</event>
<event>
 5   0  0.6306919E-05  0.2197153E+04  0.7818609E-02  0.8519614E-01
       -2   -1    0    0    0  501  0.00000000000E+00  0.00000000000E+00  0.59961941970E+03  0.59961941971E+03  0.25500000920E-02 0.  1.
        2   -1    0    0  501    0  0.00000000000E+00  0.00000000000E+00 -0.20127273582E+04  0.20127273582E+04  0.25500000920E-02 0. -1.
    10030    2    1    2    0    0  0.00000000000E+00  0.00000000000E+00 -0.14131079385E+04  0.26123467779E+04  0.21971530766E+04 0.  0.
        3    1    3    3  502    0  0.67703211182E+03 -0.31248648448E+03  0.25265008409E+03  0.78730702945E+03  0.10100000352E+00 0.  1.
       -3    1    3    3    0  502 -0.67703211182E+03  0.31248648448E+03 -0.16657580226E+04  0.18250397484E+04  0.10100000352E+00 0. -1.
</event>
<event>
 5   0  0.2910318E-05  0.2199106E+04  0.7818609E-02  0.8518800E-01
       -1   -1    0    0    0  501  0.00000000000E+00  0.00000000000E+00  0.96836670586E+03  0.96836670587E+03  0.50400001928E-02 0.  1.
        1   -1    0    0  501    0  0.00000000000E+00  0.00000000000E+00 -0.12485113900E+04  0.12485113901E+04  0.50400001928E-02 0. -1.
    10030    2    1    2    0    0  0.00000000000E+00  0.00000000000E+00 -0.28014468419E+03  0.22168780959E+04  0.21991060566E+04 0.  0.
        5    1    3    3  502    0 -0.26401382304E+03 -0.10186610270E+04 -0.46142934310E+03  0.11490486132E+04  0.46999998093E+01 0. -1.
       -5    1    3    3    0  502  0.26401382304E+03  0.10186610270E+04  0.18128465891E+03  0.10678294828E+04  0.46999998093E+01 0.  1.
</event>
<event>
 5   0  0.2910318E-05  0.2106340E+04  0.7818609E-02  0.8558456E-01
       -1   -1    0    0    0  501  0.00000000000E+00  0.00000000000E+00  0.12813660909E+04  0.12813660909E+04  0.50400001928E-02 0.  1.
        1   -1    0    0  501    0  0.00000000000E+00  0.00000000000E+00 -0.86561285872E+03  0.86561285874E+03  0.50400001928E-02 0. -1.
    10030    2    1    2    0    0  0.00000000000E+00  0.00000000000E+00  0.41575323213E+03  0.21469789496E+04  0.21063399203E+04 0.  0.
        5    1    3    3  502    0  0.85054614848E+03  0.59657139797E+02 -0.42223911531E+03  0.95147027569E+03  0.46999998093E+01 0. -1.
       -5    1    3    3    0  502 -0.85054614848E+03 -0.59657139797E+02  0.83799234745E+03  0.11955086739E+04  0.46999998093E+01 0.  1.
</event>
<event>
 5   0  0.6306919E-05  0.2214427E+04  0.7818609E-02  0.8512447E-01
       -2   -1    0    0    0  501  0.00000000000E+00  0.00000000000E+00  0.84177657372E+03  0.84177657372E+03  0.25500000920E-02 0. -1.
        2   -1    0    0  501    0  0.00000000000E+00  0.00000000000E+00 -0.14563501170E+04  0.14563501170E+04  0.25500000920E-02 0.  1.
    10030    2    1    2    0    0  0.00000000000E+00  0.00000000000E+00 -0.61457354332E+03  0.22981266908E+04  0.22144267084E+04 0.  0.
        3    1    3    3  502    0  0.82064355923E+03  0.66082046631E+03  0.45841850288E+02  0.10546283826E+04  0.10100000352E+00 0. -1.
       -3    1    3    3    0  502 -0.82064355923E+03 -0.66082046631E+03 -0.66041539361E+03  0.12434983081E+04  0.10100000352E+00 0.  1.
</event>
<event>
 5   0  0.6293013E-05  0.2213176E+04  0.7818609E-02  0.8512964E-01
        2   -1    0    0  501    0  0.00000000000E+00  0.00000000000E+00  0.14065265288E+04  0.14065265288E+04  0.25500000920E-02 0.  1.
       -2   -1    0    0    0  501  0.00000000000E+00  0.00000000000E+00 -0.87061060145E+03  0.87061060145E+03  0.25500000920E-02 0. -1.
    10030    2    1    2    0    0  0.00000000000E+00  0.00000000000E+00  0.53591592739E+03  0.22771371303E+04  0.22131759146E+04 0.  0.
        1    1    3    3  502    0  0.11179836582E+03  0.73633965793E+03 -0.57413379648E+03  0.94038533736E+03  0.50400001928E-02 0. -1.
       -1    1    3    3    0  502 -0.11179836582E+03 -0.73633965793E+03  0.11100497239E+04  0.13367517929E+04  0.50400001928E-02 0.  1.
</event>
<event>
 5   0  0.6628798E-05  0.2188816E+04  0.7818609E-02  0.8523097E-01
       -2   -1    0    0    0  501  0.00000000000E+00  0.00000000000E+00  0.12670214220E+04  0.12670214220E+04  0.25500000920E-02 0.  1.
        2   -1    0    0  501    0  0.00000000000E+00  0.00000000000E+00 -0.94531094166E+03  0.94531094167E+03  0.25500000920E-02 0. -1.
    10030    2    1    2    0    0  0.00000000000E+00  0.00000000000E+00  0.32171048032E+03  0.22123323637E+04  0.21888163135E+04 0.  0.
        4    1    3    3  502    0 -0.14746424528E+03 -0.10771845095E+04  0.28732117185E+03  0.11245564636E+04  0.12699999809E+01 0. -1.
       -4    1    3    3    0  502  0.14746424528E+03  0.10771845095E+04  0.34389308468E+02  0.10877759000E+04  0.12699999809E+01 0.  1.
</event>
<event>
 5   0  0.2929471E-05  0.2106572E+04  0.7818609E-02  0.8558354E-01
       -1   -1    0    0    0  501  0.00000000000E+00  0.00000000000E+00  0.13626364810E+04  0.13626364810E+04  0.50400001928E-02 0. -1.
        1   -1    0    0  501    0  0.00000000000E+00  0.00000000000E+00 -0.81416542545E+03  0.81416542546E+03  0.50400001928E-02 0.  1.
    10030    2    1    2    0    0  0.00000000000E+00  0.00000000000E+00  0.54847105558E+03  0.21768019065E+04  0.21065721068E+04 0.  0.
        2    1    3    3  502    0  0.22729733726E+03  0.37763931868E+03  0.12627553766E+04  0.13374702523E+04  0.25500000920E-02 0. -1.
       -2    1    3    3    0  502 -0.22729733726E+03 -0.37763931868E+03 -0.71428432102E+03  0.83933165424E+03  0.25500000920E-02 0.  1.
</event>
<event>
 5   0  0.6445740E-05  0.2197338E+04  0.7818609E-02  0.8519537E-01
        2   -1    0    0  501    0  0.00000000000E+00  0.00000000000E+00  0.14339972389E+04  0.14339972389E+04  0.25500000920E-02 0. -1.
       -2   -1    0    0    0  501  0.00000000000E+00  0.00000000000E+00 -0.84175431577E+03  0.84175431577E+03  0.25500000920E-02 0.  1.
    10030    2    1    2    0    0  0.00000000000E+00  0.00000000000E+00  0.59224292311E+03  0.22757515546E+04  0.21973378116E+04 0.  0.
        5    1    3    3  502    0  0.24201072820E+03  0.59188516516E+03 -0.62915470422E+03  0.89708136372E+03  0.46999998093E+01 0.  1.
       -5    1    3    3    0  502 -0.24201072820E+03 -0.59188516516E+03  0.12213976273E+04  0.13786701909E+04  0.46999998093E+01 0. -1.
</event>
<event>
 5   0  0.2753631E-05  0.2206066E+04  0.7818609E-02  0.8515908E-01
        1   -1    0    0  501    0  0.00000000000E+00  0.00000000000E+00  0.15876792658E+04  0.15876792658E+04  0.50400001928E-02 0.  1.
       -1   -1    0    0    0  501  0.00000000000E+00  0.00000000000E+00 -0.76632724444E+03  0.76632724446E+03  0.50400001928E-02 0. -1.
    10030    2    1    2    0    0  0.00000000000E+00  0.00000000000E+00  0.82135202139E+03  0.23540065103E+04  0.22060660705E+04 0.  0.
        4    1    3    3  502    0 -0.76992783884E+03 -0.78981644722E+03  0.40105075287E+03  0.11736448426E+04  0.12699999809E+01 0. -1.
       -4    1    3    3    0  502  0.76992783884E+03  0.78981644722E+03  0.42030126852E+03  0.11803616677E+04  0.12699999809E+01 0.  1.
</event>
<event>
 5   0  0.6293013E-05  0.2187669E+04  0.7818609E-02  0.8523578E-01
        2   -1    0    0  501    0  0.00000000000E+00  0.00000000000E+00  0.19405801550E+04  0.19405801550E+04  0.25500000920E-02 0.  1.
       -2   -1    0    0    0  501  0.00000000000E+00  0.00000000000E+00 -0.61655447476E+03  0.61655447477E+03  0.25500000920E-02 0. -1.
    10030    2    1    2    0    0  0.00000000000E+00  0.00000000000E+00  0.13240256803E+04  0.25571346298E+04  0.21876685108E+04 0.  0.
        1    1    3    3  502    0 -0.55777962146E+03 -0.94020027608E+03  0.70541476644E+03  0.13010398372E+04  0.50400001928E-02 0.  1.
       -1    1    3    3    0  502  0.55777962146E+03  0.94020027608E+03  0.61861091384E+03  0.12560947926E+04  0.50400001928E-02 0. -1.
</event>
<event>
 5   0  0.6445740E-05  0.2258225E+04  0.7818609E-02  0.8494577E-01
        2   -1    0    0  501    0  0.00000000000E+00  0.00000000000E+00  0.21890342174E+04  0.21890342174E+04  0.25500000920E-02 0.  1.
       -2   -1    0    0    0  501  0.00000000000E+00  0.00000000000E+00 -0.58240082585E+03  0.58240082585E+03  0.25500000920E-02 0. -1.
    10030    2    1    2    0    0  0.00000000000E+00  0.00000000000E+00  0.16066333916E+04  0.27714350433E+04  0.22582252643E+04 0.  0.
        5    1    3    3  502    0  0.65195903466E+03 -0.91337567176E+03  0.95644219331E+03  0.14744861681E+04  0.46999998093E+01 0.  1.
       -5    1    3    3    0  502 -0.65195903466E+03  0.91337567176E+03  0.65019119826E+03  0.12969488752E+04  0.46999998093E+01 0. -1.
</event>
<event>
 5   0  0.6414768E-05  0.2185081E+04  0.7818609E-02  0.8524663E-01
       -2   -1    0    0    0  501  0.00000000000E+00  0.00000000000E+00  0.11446133554E+04  0.11446133554E+04  0.25500000920E-02 0.  1.
        2   -1    0    0  501    0  0.00000000000E+00  0.00000000000E+00 -0.10428366559E+04  0.10428366559E+04  0.25500000920E-02 0. -1.
    10030    2    1    2    0    0  0.00000000000E+00  0.00000000000E+00  0.10177669950E+03  0.21874500114E+04  0.21850810181E+04 0.  0.
        2    1    3    3  502    0  0.69277820150E+03 -0.34821704801E+03 -0.71965258799E+03  0.10578736202E+04  0.25500000920E-02 0. -1.
       -2    1    3    3    0  502 -0.69277820150E+03  0.34821704801E+03  0.82142928749E+03  0.11295763911E+04  0.25500000920E-02 0.  1.
</event>
<event>
 5   0  0.2908031E-05  0.2171433E+04  0.7818609E-02  0.8530413E-01
       -1   -1    0    0    0  501  0.00000000000E+00  0.00000000000E+00  0.94268819100E+03  0.94268819101E+03  0.50400001928E-02 0. -1.
        1   -1    0    0  501    0  0.00000000000E+00  0.00000000000E+00 -0.12504460646E+04  0.12504460646E+04  0.50400001928E-02 0.  1.
    10030    2    1    2    0    0  0.00000000000E+00  0.00000000000E+00 -0.30775787362E+03  0.21931342556E+04  0.21714333871E+04 0.  0.
        1    1    3    3  502    0 -0.97434111747E+03  0.45813053284E+03 -0.29512121717E+03  0.11163873571E+04  0.50400001928E-02 0.  1.
       -1    1    3    3    0  502  0.97434111747E+03 -0.45813053284E+03 -0.12636656448E+02  0.10767468985E+04  0.50400001928E-02 0. -1.
</event>
<event>
 5   0  0.2753631E-05  0.2188237E+04  0.7818609E-02  0.8523340E-01
       -1   -1    0    0    0  501  0.00000000000E+00  0.00000000000E+00  0.66714494802E+03  0.66714494804E+03  0.50400001928E-02 0.  1.
        1   -1    0    0  501    0  0.00000000000E+00  0.00000000000E+00 -0.17943562905E+04  0.17943562905E+04  0.50400001928E-02 0. -1.
    10030    2    1    2    0    0  0.00000000000E+00  0.00000000000E+00 -0.11272113425E+04  0.24615012386E+04  0.21882374041E+04 0.  0.
        4    1    3    3  502    0 -0.67559774242E+03 -0.86061486325E+03 -0.56581825090E+03  0.12317638403E+04  0.12699999809E+01 0. -1.
       -4    1    3    3    0  502  0.67559774242E+03  0.86061486325E+03 -0.56139309161E+03  0.12297373982E+04  0.12699999809E+01 0.  1.
</event>
<event>
 5   0  0.6414768E-05  0.2156726E+04  0.7818609E-02  0.8536659E-01
       -2   -1    0    0    0  501  0.00000000000E+00  0.00000000000E+00  0.15038932179E+04  0.15038932179E+04  0.25500000920E-02 0. -1.
        2   -1    0    0  501    0  0.00000000000E+00  0.00000000000E+00 -0.77323759185E+03  0.77323759185E+03  0.25500000920E-02 0.  1.
    10030    2    1    2    0    0  0.00000000000E+00  0.00000000000E+00  0.73065562608E+03  0.22771308098E+04  0.21567260097E+04 0.  0.
        2    1    3    3  502    0 -0.35554221641E+03 -0.36756146964E+03  0.13677275780E+04  0.14602021878E+04  0.25500000920E-02 0. -1.
       -2    1    3    3    0  502  0.35554221641E+03  0.36756146964E+03 -0.63707195188E+03  0.81692862203E+03  0.25500000920E-02 0.  1.
</event>
<event>
 5   0  0.6445740E-05  0.2131962E+04  0.7818609E-02  0.8547293E-01
       -2   -1    0    0    0  501  0.00000000000E+00  0.00000000000E+00  0.95993527384E+03  0.95993527384E+03  0.25500000920E-02 0. -1.
        2   -1    0    0  501    0  0.00000000000E+00  0.00000000000E+00 -0.11837415971E+04  0.11837415971E+04  0.25500000920E-02 0.  1.
    10030    2    1    2    0    0  0.00000000000E+00  0.00000000000E+00 -0.22380632325E+03  0.21436768709E+04  0.21319618328E+04 0.  0.
        5    1    3    3  502    0 -0.15920111615E+03  0.32535999425E+02 -0.11712051683E+04  0.11824327562E+04  0.46999998093E+01 0.  1.
       -5    1    3    3    0  502  0.15920111615E+03 -0.32535999425E+02  0.94739884503E+03  0.96124411478E+03  0.46999998093E+01 0. -1.
</event>
<event>
 5   0  0.2753631E-05  0.2144481E+04  0.7818609E-02  0.8541898E-01
        1   -1    0    0  501    0  0.00000000000E+00  0.00000000000E+00  0.14197524387E+04  0.14197524387E+04  0.50400001928E-02 0.  1.
       -1   -1    0    0    0  501  0.00000000000E+00  0.00000000000E+00 -0.80978864290E+03  0.80978864292E+03  0.50400001928E-02 0. -1.
    10030    2    1    2    0    0  0.00000000000E+00  0.00000000000E+00  0.60996379583E+03  0.22295410817E+04  0.21444807303E+04 0.  0.
        4    1    3    3  502    0 -0.81839060386E+03  0.69267293600E+03  0.31723102788E+03  0.11181216905E+04  0.12699999809E+01 0. -1.
       -4    1    3    3    0  502  0.81839060386E+03 -0.69267293600E+03  0.29273276795E+03  0.11114193912E+04  0.12699999809E+01 0.  1.
</event>
<event>
 5   0  0.2929471E-05  0.2197919E+04  0.7818609E-02  0.8519295E-01
       -1   -1    0    0    0  501  0.00000000000E+00  0.00000000000E+00  0.10860066958E+04  0.10860066958E+04  0.50400001928E-02 0. -1.
        1   -1    0    0  501    0  0.00000000000E+00  0.00000000000E+00 -0.11120671979E+04  0.11120671979E+04  0.50400001928E-02 0.  1.
    10030    2    1    2    0    0  0.00000000000E+00  0.00000000000E+00 -0.26060502151E+02  0.21980738937E+04  0.21979194008E+04 0.  0.
        2    1    3    3  502    0  0.89803146029E+03 -0.55408310657E+03  0.29398290789E+03  0.10953969795E+04  0.25500000920E-02 0. -1.
       -2    1    3    3    0  502 -0.89803146029E+03  0.55408310657E+03 -0.32004341004E+03  0.11026769141E+04  0.25500000920E-02 0.  1.
</event>
<event>
 5   0  0.6628798E-05  0.2189320E+04  0.7818609E-02  0.8522887E-01
        2   -1    0    0  501    0  0.00000000000E+00  0.00000000000E+00  0.16274380162E+04  0.16274380162E+04  0.25500000920E-02 0. -1.
       -2   -1    0    0    0  501  0.00000000000E+00  0.00000000000E+00 -0.73629838859E+03  0.73629838859E+03  0.25500000920E-02 0.  1.
    10030    2    1    2    0    0  0.00000000000E+00  0.00000000000E+00  0.89113962764E+03  0.23637364048E+04  0.21893195188E+04 0.  0.
        4    1    3    3  502    0  0.50963372789E+03 -0.88612886155E+03  0.22803968394E+02  0.10224835107E+04  0.12699999809E+01 0.  1.
       -4    1    3    3    0  502 -0.50963372789E+03  0.88612886155E+03  0.86833565924E+03  0.13412528941E+04  0.12699999809E+01 0. -1.
</event>
<event>
 5   0  0.2910318E-05  0.2181352E+04  0.7818609E-02  0.8526230E-01
        1   -1    0    0  501    0  0.00000000000E+00  0.00000000000E+00  0.47338258625E+03  0.47338258628E+03  0.50400001928E-02 0.  1.
       -1   -1    0    0    0  501  0.00000000000E+00  0.00000000000E+00 -0.25129221619E+04  0.25129221619E+04  0.50400001928E-02 0. -1.
    10030    2    1    2    0    0  0.00000000000E+00  0.00000000000E+00 -0.20395395756E+04  0.29863047482E+04  0.21813515004E+04 0.  0.
        5    1    3    3  502    0  0.78585218282E+02 -0.66129904433E+03 -0.22022535526E+04  0.23007465881E+04  0.46999998093E+01 0. -1.
       -5    1    3    3    0  502 -0.78585218282E+02  0.66129904433E+03  0.16271397698E+03  0.68555816009E+03  0.46999998093E+01 0.  1.
</event>
<event>
 5   0  0.6628798E-05  0.2183376E+04  0.7818609E-02  0.8525380E-01
       -2   -1    0    0    0  501  0.00000000000E+00  0.00000000000E+00  0.61269343769E+03  0.61269343770E+03  0.25500000920E-02 0.  1.
        2   -1    0    0  501    0  0.00000000000E+00  0.00000000000E+00 -0.19451527486E+04  0.19451527486E+04  0.25500000920E-02 0. -1.
    10030    2    1    2    0    0  0.00000000000E+00  0.00000000000E+00 -0.13324593109E+04  0.25578461863E+04  0.21833756657E+04 0.  0.
        4    1    3    3  502    0 -0.57288928202E+03  0.23126123834E+03  0.38819225911E+03  0.72964288028E+03  0.12699999809E+01 0.  1.
       -4    1    3    3    0  502  0.57288928202E+03 -0.23126123834E+03 -0.17206515700E+04  0.18282033060E+04  0.12699999809E+01 0. -1.
</event>
<event>
 5   0  0.6628798E-05  0.2168118E+04  0.7818609E-02  0.8531817E-01
       -2   -1    0    0    0  501  0.00000000000E+00  0.00000000000E+00  0.75860630766E+03  0.75860630766E+03  0.25500000920E-02 0. -1.
        2   -1    0    0  501    0  0.00000000000E+00  0.00000000000E+00 -0.15491347612E+04  0.15491347613E+04  0.25500000920E-02 0.  1.
    10030    2    1    2    0    0  0.00000000000E+00  0.00000000000E+00 -0.79052845359E+03  0.23077410689E+04  0.21681175257E+04 0.  0.
        4    1    3    3  502    0 -0.60794570546E+03 -0.88395732134E+03 -0.56085693424E+03  0.12105951595E+04  0.12699999809E+01 0. -1.
       -4    1    3    3    0  502  0.60794570546E+03  0.88395732134E+03 -0.22967151935E+03  0.10971459094E+04  0.12699999809E+01 0.  1.
</event>
<event>
 5   0  0.6306919E-05  0.2239526E+04  0.7818609E-02  0.8502154E-01
       -2   -1    0    0    0  501  0.00000000000E+00  0.00000000000E+00  0.12391966875E+04  0.12391966875E+04  0.25500000920E-02 0.  1.
        2   -1    0    0  501    0  0.00000000000E+00  0.00000000000E+00 -0.10118406396E+04  0.10118406396E+04  0.25500000920E-02 0. -1.
    10030    2    1    2    0    0  0.00000000000E+00  0.00000000000E+00  0.22735604792E+03  0.22510373271E+04  0.22395263507E+04 0.  0.
        3    1    3    3  502    0 -0.48960336681E+03  0.68117426365E+03  0.85921796791E+03  0.12008186211E+04  0.10100000352E+00 0.  1.
       -3    1    3    3    0  502  0.48960336681E+03 -0.68117426365E+03 -0.63186191999E+03  0.10502187060E+04  0.10100000352E+00 0. -1.
</event>
<event>
 5   0  0.2929471E-05  0.2183180E+04  0.7818609E-02  0.8525462E-01
        1   -1    0    0  501    0  0.00000000000E+00  0.00000000000E+00  0.12628987008E+04  0.12628987008E+04  0.50400001928E-02 0. -1.
       -1   -1    0    0    0  501  0.00000000000E+00  0.00000000000E+00 -0.94351894084E+03  0.94351894085E+03  0.50400001928E-02 0.  1.
    10030    2    1    2    0    0  0.00000000000E+00  0.00000000000E+00  0.31937975998E+03  0.22064176417E+04  0.21831801067E+04 0.  0.
        2    1    3    3  502    0  0.54646393155E+02 -0.14356051795E+03 -0.93254126548E+03  0.94510796337E+03  0.25500000920E-02 0.  1.
       -2    1    3    3    0  502 -0.54646393155E+02  0.14356051795E+03  0.12519210255E+04  0.12613096783E+04  0.25500000920E-02 0. -1.
</event>
<event>
 5   0  0.2908031E-05  0.2054417E+04  0.7818609E-02  0.8581593E-01
        1   -1    0    0  501    0  0.00000000000E+00  0.00000000000E+00  0.68615498486E+03  0.68615498488E+03  0.50400001928E-02 0.  1.
       -1   -1    0    0    0  501  0.00000000000E+00  0.00000000000E+00 -0.15377833434E+04  0.15377833434E+04  0.50400001928E-02 0. -1.
    10030    2    1    2    0    0  0.00000000000E+00  0.00000000000E+00 -0.85162835852E+03  0.22239383283E+04  0.20544173936E+04 0.  0.
        1    1    3    3  502    0  0.33070808051E+02  0.33383866485E+03 -0.14768110138E+04  0.15144347800E+04  0.50400001928E-02 0. -1.
       -1    1    3    3    0  502 -0.33070808051E+02 -0.33383866485E+03  0.62518265527E+03  0.70950354824E+03  0.50400001928E-02 0.  1.
</event>
<event>
 5   0  0.2910318E-05  0.2207523E+04  0.7818609E-02  0.8515304E-01
        1   -1    0    0  501    0  0.00000000000E+00  0.00000000000E+00  0.13534535439E+04  0.13534535439E+04  0.50400001928E-02 0. -1.
       -1   -1    0    0    0  501  0.00000000000E+00  0.00000000000E+00 -0.90013370658E+03  0.90013370660E+03  0.50400001928E-02 0.  1.
    10030    2    1    2    0    0  0.00000000000E+00  0.00000000000E+00  0.45331983735E+03  0.22535872505E+04  0.22075227339E+04 0.  0.
        5    1    3    3  502    0 -0.33911027038E+02 -0.79818464824E+03 -0.55082158911E+03  0.97039950715E+03  0.46999998093E+01 0.  1.
       -5    1    3    3    0  502  0.33911027038E+02  0.79818464824E+03  0.10041414265E+04  0.12831877434E+04  0.46999998093E+01 0. -1.
</event>
<event>
 5   0  0.6293013E-05  0.2203252E+04  0.7818609E-02  0.8517076E-01
        2   -1    0    0  501    0  0.00000000000E+00  0.00000000000E+00  0.92201330810E+03  0.92201330811E+03  0.25500000920E-02 0. -1.
       -2   -1    0    0    0  501  0.00000000000E+00  0.00000000000E+00 -0.13162283195E+04  0.13162283195E+04  0.25500000920E-02 0.  1.
    10030    2    1    2    0    0  0.00000000000E+00  0.00000000000E+00 -0.39421501143E+03  0.22382416276E+04  0.22032521663E+04 0.  0.
        1    1    3    3  502    0 -0.21937494268E+03  0.34791964068E+03  0.84108422074E+03  0.93626711373E+03  0.50400001928E-02 0. -1.
       -1    1    3    3    0  502  0.21937494268E+03 -0.34791964068E+03 -0.12352992322E+04  0.13019745139E+04  0.50400001928E-02 0.  1.
</event>
<event>
 5   0  0.6445740E-05  0.2214003E+04  0.7818609E-02  0.8512622E-01
        2   -1    0    0  501    0  0.00000000000E+00  0.00000000000E+00  0.17885140900E+04  0.17885140900E+04  0.25500000920E-02 0.  1.
       -2   -1    0    0    0  501  0.00000000000E+00  0.00000000000E+00 -0.68517872324E+03  0.68517872325E+03  0.25500000920E-02 0. -1.
    10030    2    1    2    0    0  0.00000000000E+00  0.00000000000E+00  0.11033353667E+04  0.24736928132E+04  0.22140025300E+04 0.  0.
        5    1    3    3  502    0  0.35690228765E+02  0.10200093404E+04  0.10305908044E+04  0.14504593559E+04  0.46999998093E+01 0.  1.
       -5    1    3    3    0  502 -0.35690228765E+02 -0.10200093404E+04  0.72744562264E+02  0.10232334573E+04  0.46999998093E+01 0. -1.
</event>
<event>
 5   0  0.6628798E-05  0.2186851E+04  0.7818609E-02  0.8523921E-01
        2   -1    0    0  501    0  0.00000000000E+00  0.00000000000E+00  0.20241432266E+04  0.20241432266E+04  0.25500000920E-02 0.  1.
       -2   -1    0    0    0  501  0.00000000000E+00  0.00000000000E+00 -0.59065930828E+03  0.59065930829E+03  0.25500000920E-02 0. -1.
    10030    2    1    2    0    0  0.00000000000E+00  0.00000000000E+00  0.14334839183E+04  0.26148025348E+04  0.21868507384E+04 0.  0.
        4    1    3    3  502    0  0.52521604066E+03  0.39327070394E+03 -0.32910599411E+03  0.73404775335E+03  0.12699999809E+01 0. -1.
       -4    1    3    3    0  502 -0.52521604066E+03 -0.39327070394E+03  0.17625899124E+04  0.18807547815E+04  0.12699999809E+01 0.  1.
</event>
<event>
 5   0  0.2910318E-05  0.2126920E+04  0.7818609E-02  0.8549477E-01
       -1   -1    0    0    0  501  0.00000000000E+00  0.00000000000E+00  0.44521255242E+03  0.44521255245E+03  0.50400001928E-02 0. -1.
        1   -1    0    0  501    0  0.00000000000E+00  0.00000000000E+00 -0.25402405208E+04  0.25402405208E+04  0.50400001928E-02 0.  1.
    10030    2    1    2    0    0  0.00000000000E+00  0.00000000000E+00 -0.20950279684E+04  0.29854530732E+04  0.21269198067E+04 0.  0.
        5    1    3    3  502    0 -0.27396124787E+03  0.24018097499E+03 -0.24498893160E+04  0.24768369782E+04  0.46999998093E+01 0.  1.
       -5    1    3    3    0  502  0.27396124787E+03 -0.24018097499E+03  0.35486134762E+03  0.50861609502E+03  0.46999998093E+01 0. -1.
</event>
<event>
 5   0  0.2908031E-05  0.2235071E+04  0.7818609E-02  0.8503971E-01
        1   -1    0    0  501    0  0.00000000000E+00  0.00000000000E+00  0.23218069855E+04  0.23218069855E+04  0.50400001928E-02 0. -1.
       -1   -1    0    0    0  501  0.00000000000E+00  0.00000000000E+00 -0.53789372553E+03  0.53789372556E+03  0.50400001928E-02 0.  1.
    10030    2    1    2    0    0  0.00000000000E+00  0.00000000000E+00  0.17839132599E+04  0.28597007110E+04  0.22350708350E+04 0.  0.
        1    1    3    3  502    0 -0.86731320146E+02 -0.47041400713E+02 -0.53230989294E+03  0.54137698273E+03  0.50400001928E-02 0.  1.
       -1    1    3    3    0  502  0.86731320146E+02  0.47041400713E+02  0.23162231529E+04  0.23183237283E+04  0.50400001928E-02 0. -1.
</event>
<event>
 5   0  0.2929471E-05  0.2200189E+04  0.7818609E-02  0.8518349E-01
       -1   -1    0    0    0  501  0.00000000000E+00  0.00000000000E+00  0.83154434865E+03  0.83154434866E+03  0.50400001928E-02 0. -1.
        1   -1    0    0  501    0  0.00000000000E+00  0.00000000000E+00 -0.14553739231E+04  0.14553739231E+04  0.50400001928E-02 0.  1.
    10030    2    1    2    0    0  0.00000000000E+00  0.00000000000E+00 -0.62382957448E+03  0.22869182718E+04  0.22001890473E+04 0.  0.
        2    1    3    3  502    0  0.16679080908E+03  0.96652002332E+03 -0.82977897938E+03  0.12847230379E+04  0.25500000920E-02 0.  1.
       -2    1    3    3    0  502 -0.16679080908E+03 -0.96652002332E+03  0.20594940490E+03  0.10021952339E+04  0.25500000920E-02 0. -1.
</event>
<event>
 5   0  0.2929471E-05  0.2154756E+04  0.7818609E-02  0.8537499E-01
        1   -1    0    0  501    0  0.00000000000E+00  0.00000000000E+00  0.16720385218E+04  0.16720385218E+04  0.50400001928E-02 0.  1.
       -1   -1    0    0    0  501  0.00000000000E+00  0.00000000000E+00 -0.69420877992E+03  0.69420877994E+03  0.50400001928E-02 0. -1.
    10030    2    1    2    0    0  0.00000000000E+00  0.00000000000E+00  0.97782974191E+03  0.23662473018E+04  0.21547564338E+04 0.  0.
        2    1    3    3  502    0 -0.52775695571E+03  0.91068242092E+03  0.74142732806E+03  0.12874720808E+04  0.25500000920E-02 0.  1.
       -2    1    3    3    0  502  0.52775695571E+03 -0.91068242092E+03  0.23640241385E+03  0.10787752210E+04  0.25500000920E-02 0. -1.
</event>
<event>
 5   0  0.2910318E-05  0.2203346E+04  0.7818609E-02  0.8517037E-01
        1   -1    0    0  501    0  0.00000000000E+00  0.00000000000E+00  0.51240467766E+03  0.51240467769E+03  0.50400001928E-02 0.  1.
       -1   -1    0    0    0  501  0.00000000000E+00  0.00000000000E+00 -0.23686024862E+04  0.23686024862E+04  0.50400001928E-02 0. -1.
    10030    2    1    2    0    0  0.00000000000E+00  0.00000000000E+00 -0.18561978085E+04  0.28810071638E+04  0.22033456320E+04 0.  0.
        5    1    3    3  502    0  0.31684367423E+03 -0.99681863708E+02  0.44535886850E+03  0.55560147553E+03  0.46999998093E+01 0.  1.
       -5    1    3    3    0  502 -0.31684367423E+03  0.99681863708E+02 -0.23015566770E+04  0.23254056883E+04  0.46999998093E+01 0. -1.
</event>
<event>
 5   0  0.6293013E-05  0.2160841E+04  0.7818609E-02  0.8534906E-01
       -2   -1    0    0    0  501  0.00000000000E+00  0.00000000000E+00  0.93056001212E+03  0.93056001212E+03  0.25500000920E-02 0. -1.
        2   -1    0    0  501    0  0.00000000000E+00  0.00000000000E+00 -0.12544150139E+04  0.12544150139E+04  0.25500000920E-02 0.  1.
    10030    2    1    2    0    0  0.00000000000E+00  0.00000000000E+00 -0.32385500175E+03  0.21849750260E+04  0.21608409942E+04 0.  0.
        1    1    3    3  502    0 -0.24034169425E+03  0.26283195213E+03 -0.11933512580E+04  0.12453641998E+04  0.50400001928E-02 0.  1.
       -1    1    3    3    0  502  0.24034169425E+03 -0.26283195213E+03  0.86949625627E+03  0.93961082621E+03  0.50400001928E-02 0. -1.
</event>
<event>
 5   0  0.2753631E-05  0.2190942E+04  0.7818609E-02  0.8522208E-01
       -1   -1    0    0    0  501  0.00000000000E+00  0.00000000000E+00  0.72004143172E+03  0.72004143174E+03  0.50400001928E-02 0. -1.
        1   -1    0    0  501    0  0.00000000000E+00  0.00000000000E+00 -0.16666502162E+04  0.16666502162E+04  0.50400001928E-02 0.  1.
    10030    2    1    2    0    0  0.00000000000E+00  0.00000000000E+00 -0.94660878446E+03  0.23866916479E+04  0.21909424528E+04 0.  0.
        4    1    3    3  502    0 -0.57890100671E+03  0.48279727580E+03  0.39259518912E+03  0.84991304291E+03  0.12699999809E+01 0. -1.
       -4    1    3    3    0  502  0.57890100671E+03 -0.48279727580E+03 -0.13392039736E+04  0.15367786050E+04  0.12699999809E+01 0.  1.
</event>
<event>
 5   0  0.2908031E-05  0.2210467E+04  0.7818609E-02  0.8514084E-01
       -1   -1    0    0    0  501  0.00000000000E+00  0.00000000000E+00  0.12591224867E+04  0.12591224867E+04  0.50400001928E-02 0. -1.
        1   -1    0    0  501    0  0.00000000000E+00  0.00000000000E+00 -0.97015243258E+03  0.97015243259E+03  0.50400001928E-02 0.  1.
    10030    2    1    2    0    0  0.00000000000E+00  0.00000000000E+00  0.28897005413E+03  0.22292749193E+04  0.22104666869E+04 0.  0.
        1    1    3    3  502    0 -0.17409016301E+03  0.53152464678E+03  0.11058614836E+04  0.12392560091E+04  0.50400001928E-02 0. -1.
       -1    1    3    3    0  502  0.17409016301E+03 -0.53152464678E+03 -0.81689142951E+03  0.99001891024E+03  0.50400001928E-02 0.  1.
</event>
<event>
 5   0  0.6628798E-05  0.2167375E+04  0.7818609E-02  0.8532131E-01
        2   -1    0    0  501    0  0.00000000000E+00  0.00000000000E+00  0.20582052850E+04  0.20582052850E+04  0.25500000920E-02 0.  1.
       -2   -1    0    0    0  501  0.00000000000E+00  0.00000000000E+00 -0.57058395170E+03  0.57058395171E+03  0.25500000920E-02 0. -1.
    10030    2    1    2    0    0  0.00000000000E+00  0.00000000000E+00  0.14876213333E+04  0.26287892367E+04  0.21673752835E+04 0.  0.
        4    1    3    3  502    0  0.15075271001E+03 -0.99944406444E+03  0.12178670445E+04  0.15826612298E+04  0.12699999809E+01 0.  1.
       -4    1    3    3    0  502 -0.15075271001E+03  0.99944406444E+03  0.26975428883E+03  0.10461280069E+04  0.12699999809E+01 0. -1.
</event>
<event>
 5   0  0.2910318E-05  0.2249659E+04  0.7818609E-02  0.8498039E-01
        1   -1    0    0  501    0  0.00000000000E+00  0.00000000000E+00  0.16625439480E+04  0.16625439480E+04  0.50400001928E-02 0. -1.
       -1   -1    0    0    0  501  0.00000000000E+00  0.00000000000E+00 -0.76102750099E+03  0.76102750100E+03  0.50400001928E-02 0.  1.
    10030    2    1    2    0    0  0.00000000000E+00  0.00000000000E+00  0.90151644702E+03  0.24235714490E+04  0.22496592329E+04 0.  0.
        5    1    3    3  502    0  0.12795134916E+03  0.20694974794E+03  0.16338442194E+04  0.16518682663E+04  0.46999998093E+01 0. -1.
       -5    1    3    3    0  502 -0.12795134916E+03 -0.20694974794E+03 -0.73232777241E+03  0.77170318269E+03  0.46999998093E+01 0.  1.
</event>
<event>
 5   0  0.2910318E-05  0.2198970E+04  0.7818609E-02  0.8518857E-01
        1   -1    0    0  501    0  0.00000000000E+00  0.00000000000E+00  0.13917269315E+04  0.13917269315E+04  0.50400001928E-02 0. -1.
       -1   -1    0    0    0  501  0.00000000000E+00  0.00000000000E+00 -0.86860937672E+03  0.86860937673E+03  0.50400001928E-02 0.  1.
    10030    2    1    2    0    0  0.00000000000E+00  0.00000000000E+00  0.52311755476E+03  0.22603363082E+04  0.21989698157E+04 0.  0.
        5    1    3    3  502    0 -0.56054039974E+03  0.83874696213E+03  0.71095865929E+03  0.12341743440E+04  0.46999998093E+01 0. -1.
       -5    1    3    3    0  502  0.56054039974E+03 -0.83874696213E+03 -0.18784110453E+03  0.10261619642E+04  0.46999998093E+01 0.  1.
</event>
<event>
 5   0  0.2929471E-05  0.2130770E+04  0.7818609E-02  0.8547809E-01
       -1   -1    0    0    0  501  0.00000000000E+00  0.00000000000E+00  0.12902341772E+04  0.12902341772E+04  0.50400001928E-02 0. -1.
        1   -1    0    0  501    0  0.00000000000E+00  0.00000000000E+00 -0.87972066031E+03  0.87972066032E+03  0.50400001928E-02 0.  1.
    10030    2    1    2    0    0  0.00000000000E+00  0.00000000000E+00  0.41051351687E+03  0.21699548375E+04  0.21307704356E+04 0.  0.
        2    1    3    3  502    0  0.31969449476E+02 -0.75549800344E+03  0.96955566577E+03  0.12295680005E+04  0.25500000920E-02 0. -1.
       -2    1    3    3    0  502 -0.31969449476E+02  0.75549800344E+03 -0.55904214890E+03  0.94038683698E+03  0.25500000920E-02 0.  1.
</event>
<event>
 5   0  0.6293013E-05  0.2197255E+04  0.7818609E-02  0.8519572E-01
       -2   -1    0    0    0  501  0.00000000000E+00  0.00000000000E+00  0.70961636687E+03  0.70961636687E+03  0.25500000920E-02 0.  1.
        2   -1    0    0  501    0  0.00000000000E+00  0.00000000000E+00 -0.17008936825E+04  0.17008936825E+04  0.25500000920E-02 0. -1.
    10030    2    1    2    0    0  0.00000000000E+00  0.00000000000E+00 -0.99127731561E+03  0.24105100494E+04  0.21972546465E+04 0.  0.
        1    1    3    3  502    0  0.31724453973E+03  0.10509598797E+04 -0.44882087995E+03  0.11860020864E+04  0.50400001928E-02 0. -1.
       -1    1    3    3    0  502 -0.31724453973E+03 -0.10509598797E+04 -0.54245643566E+03  0.12245079629E+04  0.50400001928E-02 0.  1.
</event>
<event>
 5   0  0.2753631E-05  0.2193882E+04  0.7818609E-02  0.8520979E-01
        1   -1    0    0  501    0  0.00000000000E+00  0.00000000000E+00  0.10831786011E+04  0.10831786011E+04  0.50400001928E-02 0. -1.
       -1   -1    0    0    0  501  0.00000000000E+00  0.00000000000E+00 -0.11108784875E+04  0.11108784875E+04  0.50400001928E-02 0.  1.
    10030    2    1    2    0    0  0.00000000000E+00  0.00000000000E+00 -0.27699886378E+02  0.21940570886E+04  0.21938822266E+04 0.  0.
        4    1    3    3  502    0 -0.10059360099E+03 -0.10301306805E+04 -0.37718304509E+03  0.11016156107E+04  0.12699999809E+01 0.  1.
       -4    1    3    3    0  502  0.10059360099E+03  0.10301306805E+04  0.34948315871E+03  0.10924414779E+04  0.12699999809E+01 0. -1.
</event>
<event>
 5   0  0.6293013E-05  0.2206792E+04  0.7818609E-02  0.8515607E-01
       -2   -1    0    0    0  501  0.00000000000E+00  0.00000000000E+00  0.68605083570E+03  0.68605083570E+03  0.25500000920E-02 0. -1.
        2   -1    0    0  501    0  0.00000000000E+00  0.00000000000E+00 -0.17746242091E+04  0.17746242091E+04  0.25500000920E-02 0.  1.
    10030    2    1    2    0    0  0.00000000000E+00  0.00000000000E+00 -0.10885733734E+04  0.24606750448E+04  0.22067917180E+04 0.  0.
        1    1    3    3  502    0  0.46227212415E+03 -0.99983296278E+03 -0.61586668252E+03  0.12620036612E+04  0.50400001928E-02 0.  1.
       -1    1    3    3    0  502 -0.46227212415E+03  0.99983296278E+03 -0.47270669086E+03  0.11986713836E+04  0.50400001928E-02 0. -1.
</event>
<event>
 5   0  0.6306919E-05  0.2204864E+04  0.7818609E-02  0.8516406E-01
        2   -1    0    0  501    0  0.00000000000E+00  0.00000000000E+00  0.15812724843E+04  0.15812724843E+04  0.25500000920E-02 0.  1.
       -2   -1    0    0    0  501  0.00000000000E+00  0.00000000000E+00 -0.76859367830E+03  0.76859367830E+03  0.25500000920E-02 0. -1.
    10030    2    1    2    0    0  0.00000000000E+00  0.00000000000E+00  0.81267880602E+03  0.23498661626E+04  0.22048637465E+04 0.  0.
        3    1    3    3  502    0 -0.90808468001E+03 -0.32578744279E+03  0.97490347750E+03  0.13715655451E+04  0.10100000352E+00 0.  1.
       -3    1    3    3    0  502  0.90808468001E+03  0.32578744279E+03 -0.16222467148E+03  0.97830061749E+03  0.10100000352E+00 0. -1.
</event>
<event>
 5   0  0.6306919E-05  0.2197609E+04  0.7818609E-02  0.8519424E-01
        2   -1    0    0  501    0  0.00000000000E+00  0.00000000000E+00  0.88529969590E+03  0.88529969590E+03  0.25500000920E-02 0.  1.
       -2   -1    0    0    0  501  0.00000000000E+00  0.00000000000E+00 -0.13637999950E+04  0.13637999950E+04  0.25500000920E-02 0. -1.
    10030    2    1    2    0    0  0.00000000000E+00  0.00000000000E+00 -0.47850029913E+03  0.22490996909E+04  0.21976093564E+04 0.  0.
        3    1    3    3  502    0 -0.53600731354E+02  0.65060058229E+02 -0.13604859015E+04  0.13630949152E+04  0.10100000352E+00 0. -1.
       -3    1    3    3    0  502  0.53600731354E+02 -0.65060058229E+02  0.88198560236E+03  0.88600477569E+03  0.10100000352E+00 0.  1.
</event>
<event>
 5   0  0.2908031E-05  0.2054836E+04  0.7818609E-02  0.8581404E-01
        1   -1    0    0  501    0  0.00000000000E+00  0.00000000000E+00  0.10577807397E+04  0.10577807397E+04  0.50400001928E-02 0. -1.
       -1   -1    0    0    0  501  0.00000000000E+00  0.00000000000E+00 -0.99792708177E+03  0.99792708179E+03  0.50400001928E-02 0.  1.
    10030    2    1    2    0    0  0.00000000000E+00  0.00000000000E+00  0.59853657927E+02  0.20557078215E+04  0.20548362920E+04 0.  0.
        1    1    3    3  502    0  0.56529545631E+03  0.73083610865E+03  0.47945879104E+03  0.10409424110E+04  0.50400001928E-02 0. -1.
       -1    1    3    3    0  502 -0.56529545631E+03 -0.73083610865E+03 -0.41960513312E+03  0.10147654105E+04  0.50400001928E-02 0.  1.
</event>
<event>
 5   0  0.2910318E-05  0.2343347E+04  0.7818609E-02  0.8461023E-01
       -1   -1    0    0    0  501  0.00000000000E+00  0.00000000000E+00  0.12432590639E+04  0.12432590639E+04  0.50400001928E-02 0. -1.
        1   -1    0    0  501    0  0.00000000000E+00  0.00000000000E+00 -0.11042098529E+04  0.11042098529E+04  0.50400001928E-02 0.  1.
    10030    2    1    2    0    0  0.00000000000E+00  0.00000000000E+00  0.13904921106E+03  0.23474689168E+04  0.23433471002E+04 0.  0.
        5    1    3    3  502    0 -0.64108024698E+03 -0.24914481376E+03  0.10197391942E+04  0.12300191606E+04  0.46999998093E+01 0. -1.
       -5    1    3    3    0  502  0.64108024698E+03  0.24914481376E+03 -0.88068998311E+03  0.11174497562E+04  0.46999998093E+01 0.  1.
</event>
<event>
 5   0  0.6306919E-05  0.2188419E+04  0.7818609E-02  0.8523264E-01
       -2   -1    0    0    0  501  0.00000000000E+00  0.00000000000E+00  0.10621296924E+04  0.10621296924E+04  0.25500000920E-02 0. -1.
        2   -1    0    0  501    0  0.00000000000E+00  0.00000000000E+00 -0.11272584728E+04  0.11272584728E+04  0.25500000920E-02 0.  1.
    10030    2    1    2    0    0  0.00000000000E+00  0.00000000000E+00 -0.65128780429E+02  0.21893881652E+04  0.21884192423E+04 0.  0.
        3    1    3    3  502    0 -0.83463796937E+03  0.51173589044E+03 -0.52145295428E+03  0.11092372853E+04  0.10100000352E+00 0.  1.
       -3    1    3    3    0  502  0.83463796937E+03 -0.51173589044E+03  0.45632417385E+03  0.10801508799E+04  0.10100000352E+00 0. -1.
</event>
<event>
 5   0  0.2910318E-05  0.1812175E+04  0.7818609E-02  0.8699852E-01
       -1   -1    0    0    0  501  0.00000000000E+00  0.00000000000E+00  0.50400909762E+03  0.50400909765E+03  0.50400001928E-02 0.  1.
        1   -1    0    0  501    0  0.00000000000E+00  0.00000000000E+00 -0.16289278579E+04  0.16289278579E+04  0.50400001928E-02 0. -1.
    10030    2    1    2    0    0  0.00000000000E+00  0.00000000000E+00 -0.11249187603E+04  0.21329369556E+04  0.18121748920E+04 0.  0.
        5    1    3    3  502    0 -0.44930670417E+03 -0.36020840212E+03 -0.13858119133E+04  0.15007076185E+04  0.46999998093E+01 0. -1.
       -5    1    3    3    0  502  0.44930670417E+03  0.36020840212E+03  0.26089315296E+03  0.63222933705E+03  0.46999998093E+01 0.  1.
</event>
<event>
 5   0  0.6414768E-05  0.2169048E+04  0.7818609E-02  0.8531423E-01
       -2   -1    0    0    0  501  0.00000000000E+00  0.00000000000E+00  0.55331340712E+03  0.55331340713E+03  0.25500000920E-02 0. -1.
        2   -1    0    0  501    0  0.00000000000E+00  0.00000000000E+00 -0.21257247331E+04  0.21257247331E+04  0.25500000920E-02 0.  1.
    10030    2    1    2    0    0  0.00000000000E+00  0.00000000000E+00 -0.15724113259E+04  0.26790381402E+04  0.21690477124E+04 0.  0.
        2    1    3    3  502    0 -0.24651806577E+03 -0.98428733120E+03 -0.12591126396E+04  0.16170829745E+04  0.25500000920E-02 0.  1.
       -2    1    3    3    0  502  0.24651806577E+03  0.98428733120E+03 -0.31329868632E+03  0.10619551657E+04  0.25500000920E-02 0. -1.
</event>
<event>
 5   0  0.2820239E-05  0.2186491E+04  0.7818609E-02  0.8524072E-01
        1   -1    0    0  501    0  0.00000000000E+00  0.00000000000E+00  0.14704345533E+04  0.14704345533E+04  0.50400001928E-02 0. -1.
       -1   -1    0    0    0  501  0.00000000000E+00  0.00000000000E+00 -0.81281130470E+03  0.81281130472E+03  0.50400001928E-02 0.  1.
    10030    2    1    2    0    0  0.00000000000E+00  0.00000000000E+00  0.65762324863E+03  0.22832458581E+04  0.21864910956E+04 0.  0.
        3    1    3    3  502    0  0.20256491942E+03 -0.52547575901E+03  0.13073081126E+04  0.14234506775E+04  0.10100000352E+00 0. -1.
       -3    1    3    3    0  502 -0.20256491942E+03  0.52547575901E+03 -0.64968486393E+03  0.85979518056E+03  0.10100000352E+00 0.  1.
</event>
<event>
 5   0  0.2908031E-05  0.2215817E+04  0.7818609E-02  0.8511873E-01
       -1   -1    0    0    0  501  0.00000000000E+00  0.00000000000E+00  0.10906753882E+04  0.10906753882E+04  0.50400001928E-02 0.  1.
        1   -1    0    0  501    0  0.00000000000E+00  0.00000000000E+00 -0.11254138056E+04  0.11254138056E+04  0.50400001928E-02 0. -1.
    10030    2    1    2    0    0  0.00000000000E+00  0.00000000000E+00 -0.34738417404E+02  0.22160891938E+04  0.22158169051E+04 0.  0.
        1    1    3    3  502    0 -0.27048642896E+03  0.10195397840E+03 -0.10870349367E+04  0.11248121957E+04  0.50400001928E-02 0. -1.
       -1    1    3    3    0  502  0.27048642896E+03 -0.10195397840E+03  0.10522965193E+04  0.10912769981E+04  0.50400001928E-02 0.  1.
</event>
<event>
 5   0  0.2753631E-05  0.2206567E+04  0.7818609E-02  0.8515700E-01
       -1   -1    0    0    0  501  0.00000000000E+00  0.00000000000E+00  0.80023749376E+03  0.80023749378E+03  0.50400001928E-02 0.  1.
        1   -1    0    0  501    0  0.00000000000E+00  0.00000000000E+00 -0.15210920777E+04  0.15210920777E+04  0.50400001928E-02 0. -1.
    10030    2    1    2    0    0  0.00000000000E+00  0.00000000000E+00 -0.72085458398E+03  0.23213295715E+04  0.22065673904E+04 0.  0.
        4    1    3    3  502    0 -0.19376253535E+03 -0.80176779894E+03 -0.11312406496E+04  0.14000294796E+04  0.12699999809E+01 0. -1.
       -4    1    3    3    0  502  0.19376253535E+03  0.80176779894E+03  0.41038606567E+03  0.92130009189E+03  0.12699999809E+01 0.  1.
</event>
<event>
 5   0  0.6628798E-05  0.2218833E+04  0.7818609E-02  0.8510630E-01
        2   -1    0    0  501    0  0.00000000000E+00  0.00000000000E+00  0.14036241688E+04  0.14036241688E+04  0.25500000920E-02 0. -1.
       -2   -1    0    0    0  501  0.00000000000E+00  0.00000000000E+00 -0.87687678943E+03  0.87687678943E+03  0.25500000920E-02 0.  1.
    10030    2    1    2    0    0  0.00000000000E+00  0.00000000000E+00  0.52674737937E+03  0.22805009582E+04  0.22188334365E+04 0.  0.
        4    1    3    3  502    0  0.10201387178E+04  0.21400900587E+03 -0.12708068884E+03  0.10500637945E+04  0.12699999809E+01 0.  1.
       -4    1    3    3    0  502 -0.10201387178E+04 -0.21400900587E+03  0.65382806821E+03  0.12304371637E+04  0.12699999809E+01 0. -1.
</event>
<event>
 5   0  0.2820239E-05  0.2178343E+04  0.7818609E-02  0.8527497E-01
       -1   -1    0    0    0  501  0.00000000000E+00  0.00000000000E+00  0.67766301359E+03  0.67766301360E+03  0.50400001928E-02 0.  1.
        1   -1    0    0  501    0  0.00000000000E+00  0.00000000000E+00 -0.17505668447E+04  0.17505668447E+04  0.50400001928E-02 0. -1.
    10030    2    1    2    0    0  0.00000000000E+00  0.00000000000E+00 -0.10729038311E+04  0.24282298583E+04  0.21783428596E+04 0.  0.
        3    1    3    3  502    0  0.45668862972E+03 -0.17103088080E+03  0.54916665637E+03  0.73443862464E+03  0.10100000352E+00 0.  1.
       -3    1    3    3    0  502 -0.45668862972E+03  0.17103088080E+03 -0.16220704874E+04  0.16937912336E+04  0.10100000352E+00 0. -1.
</event>
<event>
 5   0  0.2910318E-05  0.2206483E+04  0.7818609E-02  0.8515734E-01
       -1   -1    0    0    0  501  0.00000000000E+00  0.00000000000E+00  0.63319794560E+03  0.63319794562E+03  0.50400001928E-02 0. -1.
        1   -1    0    0  501    0  0.00000000000E+00  0.00000000000E+00 -0.19222144113E+04  0.19222144113E+04  0.50400001928E-02 0.  1.
    10030    2    1    2    0    0  0.00000000000E+00  0.00000000000E+00 -0.12890164657E+04  0.25554123569E+04  0.22064833707E+04 0.  0.
        5    1    3    3  502    0  0.31133270508E+03  0.58861640131E+02 -0.18683743573E+04  0.18950560876E+04  0.46999998093E+01 0.  1.
       -5    1    3    3    0  502 -0.31133270508E+03 -0.58861640131E+02  0.57935789161E+03  0.66035626938E+03  0.46999998093E+01 0. -1.
</event>
<event>
 5   0  0.2753631E-05  0.2184139E+04  0.7818609E-02  0.8525059E-01
        1   -1    0    0  501    0  0.00000000000E+00  0.00000000000E+00  0.13477527048E+04  0.13477527048E+04  0.50400001928E-02 0.  1.
       -1   -1    0    0    0  501  0.00000000000E+00  0.00000000000E+00 -0.88489242412E+03  0.88489242414E+03  0.50400001928E-02 0. -1.
    10030    2    1    2    0    0  0.00000000000E+00  0.00000000000E+00  0.46286028068E+03  0.22326451290E+04  0.21841393345E+04 0.  0.
        4    1    3    3  502    0 -0.96631039844E+03 -0.28856636052E+03  0.65976857012E+03  0.12051234416E+04  0.12699999809E+01 0.  1.
       -4    1    3    3    0  502  0.96631039844E+03  0.28856636052E+03 -0.19690828944E+03  0.10275216873E+04  0.12699999809E+01 0. -1.
</event>
<event>
 5   0  0.6414768E-05  0.2248757E+04  0.7818609E-02  0.8498404E-01
        2   -1    0    0  501    0  0.00000000000E+00  0.00000000000E+00  0.15183409721E+04  0.15183409721E+04  0.25500000920E-02 0. -1.
       -2   -1    0    0    0  501  0.00000000000E+00  0.00000000000E+00 -0.83263679082E+03  0.83263679082E+03  0.25500000920E-02 0.  1.
    10030    2    1    2    0    0  0.00000000000E+00  0.00000000000E+00  0.68570418130E+03  0.23509777629E+04  0.22487565937E+04 0.  0.
        2    1    3    3  502    0 -0.52285969489E+03 -0.14393828108E+03  0.13725744857E+04  0.14758256022E+04  0.25500000920E-02 0. -1.
       -2    1    3    3    0  502  0.52285969489E+03  0.14393828108E+03 -0.68687030443E+03  0.87515216072E+03  0.25500000920E-02 0.  1.
</event>
<event>
 5   0  0.6628798E-05  0.2272753E+04  0.7818609E-02  0.8488742E-01
        2   -1    0    0  501    0  0.00000000000E+00  0.00000000000E+00  0.14692793702E+04  0.14692793702E+04  0.25500000920E-02 0.  1.
       -2   -1    0    0    0  501  0.00000000000E+00  0.00000000000E+00 -0.87890127578E+03  0.87890127578E+03  0.25500000920E-02 0. -1.
    10030    2    1    2    0    0  0.00000000000E+00  0.00000000000E+00  0.59037809441E+03  0.23481806460E+04  0.22727529676E+04 0.  0.
        4    1    3    3  502    0  0.23979597346E+03  0.62778809598E+03 -0.65159096047E+03  0.93605149164E+03  0.12699999809E+01 0. -1.
       -4    1    3    3    0  502 -0.23979597346E+03 -0.62778809598E+03  0.12419690549E+04  0.14121291543E+04  0.12699999809E+01 0.  1.
</event>
<event>
 5   0  0.6628798E-05  0.2209780E+04  0.7818609E-02  0.8514368E-01
       -2   -1    0    0    0  501  0.00000000000E+00  0.00000000000E+00  0.46407028916E+03  0.46407028917E+03  0.25500000920E-02 0. -1.
        2   -1    0    0  501    0  0.00000000000E+00  0.00000000000E+00 -0.26305968767E+04  0.26305968767E+04  0.25500000920E-02 0.  1.
    10030    2    1    2    0    0  0.00000000000E+00  0.00000000000E+00 -0.21665265876E+04  0.30946671659E+04  0.22097799467E+04 0.  0.
        4    1    3    3  502    0 -0.23556174664E+03  0.63272508594E+03 -0.23081090630E+04  0.24048283578E+04  0.12699999809E+01 0.  1.
       -4    1    3    3    0  502  0.23556174664E+03 -0.63272508594E+03  0.14158247547E+03  0.68983880807E+03  0.12699999809E+01 0. -1.
</event>
<event>
 5   0  0.2753631E-05  0.2208529E+04  0.7818609E-02  0.8514887E-01
        1   -1    0    0  501    0  0.00000000000E+00  0.00000000000E+00  0.19585739040E+04  0.19585739040E+04  0.50400001928E-02 0. -1.
       -1   -1    0    0    0  501  0.00000000000E+00  0.00000000000E+00 -0.62259564472E+03  0.62259564474E+03  0.50400001928E-02 0.  1.
    10030    2    1    2    0    0  0.00000000000E+00  0.00000000000E+00  0.13359782593E+04  0.25811695487E+04  0.22085285441E+04 0.  0.
        4    1    3    3  502    0  0.10408469998E+04 -0.70424066552E+02  0.24485796583E+03  0.10715778378E+04  0.12699999809E+01 0.  1.
       -4    1    3    3    0  502 -0.10408469998E+04  0.70424066552E+02  0.10911202934E+04  0.15095917110E+04  0.12699999809E+01 0. -1.
</event>
<event>
 5   0  0.6414768E-05  0.2169130E+04  0.7818609E-02  0.8531388E-01
       -2   -1    0    0    0  501  0.00000000000E+00  0.00000000000E+00  0.73499621950E+03  0.73499621950E+03  0.25500000920E-02 0.  1.
        2   -1    0    0  501    0  0.00000000000E+00  0.00000000000E+00 -0.16003910873E+04  0.16003910873E+04  0.25500000920E-02 0. -1.
    10030    2    1    2    0    0  0.00000000000E+00  0.00000000000E+00 -0.86539486777E+03  0.23353873068E+04  0.21691301472E+04 0.  0.
        2    1    3    3  502    0 -0.10272676594E+04 -0.34696248791E+03 -0.45949678976E+03  0.11776243509E+04  0.25500000920E-02 0.  1.
       -2    1    3    3    0  502  0.10272676594E+04  0.34696248791E+03 -0.40589807802E+03  0.11577629558E+04  0.25500000920E-02 0. -1.
</event>
<event>
 5   0  0.6628798E-05  0.2224924E+04  0.7818609E-02  0.8508125E-01
        2   -1    0    0  501    0  0.00000000000E+00  0.00000000000E+00  0.13170964565E+04  0.13170964565E+04  0.25500000920E-02 0.  1.
       -2   -1    0    0    0  501  0.00000000000E+00  0.00000000000E+00 -0.93962119604E+03  0.93962119605E+03  0.25500000920E-02 0. -1.
    10030    2    1    2    0    0  0.00000000000E+00  0.00000000000E+00  0.37747526045E+03  0.22567176525E+04  0.22249240416E+04 0.  0.
        4    1    3    3  502    0  0.11666645415E+03 -0.32164147142E+03  0.12624033791E+04  0.13079480885E+04  0.12699999809E+01 0.  1.
       -4    1    3    3    0  502 -0.11666645415E+03  0.32164147142E+03 -0.88492811865E+03  0.94876956408E+03  0.12699999809E+01 0. -1.
</event>
<event>
 5   0  0.6445740E-05  0.2196326E+04  0.7818609E-02  0.8519959E-01
       -2   -1    0    0    0  501  0.00000000000E+00  0.00000000000E+00  0.49417808607E+03  0.49417808607E+03  0.25500000920E-02 0.  1.
        2   -1    0    0  501    0  0.00000000000E+00  0.00000000000E+00 -0.24403392107E+04  0.24403392107E+04  0.25500000920E-02 0. -1.
    10030    2    1    2    0    0  0.00000000000E+00  0.00000000000E+00 -0.19461611247E+04  0.29345172968E+04  0.21963261693E+04 0.  0.
        5    1    3    3  502    0  0.65304749602E+03 -0.26283322533E+03  0.15304693885E+03  0.72041501364E+03  0.46999998093E+01 0.  1.
       -5    1    3    3    0  502 -0.65304749602E+03  0.26283322533E+03 -0.20992080635E+04  0.22141022832E+04  0.46999998093E+01 0. -1.
</event>
<event>
 5   0  0.2929471E-05  0.2193771E+04  0.7818609E-02  0.8521025E-01
        1   -1    0    0  501    0  0.00000000000E+00  0.00000000000E+00  0.11327448655E+04  0.11327448655E+04  0.50400001928E-02 0. -1.
       -1   -1    0    0    0  501  0.00000000000E+00  0.00000000000E+00 -0.10621615372E+04  0.10621615372E+04  0.50400001928E-02 0.  1.
    10030    2    1    2    0    0  0.00000000000E+00  0.00000000000E+00  0.70583328347E+02  0.21949064027E+04  0.21937712074E+04 0.  0.
        2    1    3    3  502    0  0.39765371049E+03 -0.84868539033E+02 -0.98397338330E+03  0.10646758950E+04  0.25500000920E-02 0.  1.
       -2    1    3    3    0  502 -0.39765371049E+03  0.84868539033E+02  0.10545567117E+04  0.11302305077E+04  0.25500000920E-02 0. -1.
</event>
<event>
 5   0  0.6445740E-05  0.2207979E+04  0.7818609E-02  0.8515114E-01
       -2   -1    0    0    0  501  0.00000000000E+00  0.00000000000E+00  0.65036523188E+03  0.65036523188E+03  0.25500000920E-02 0. -1.
        2   -1    0    0  501    0  0.00000000000E+00  0.00000000000E+00 -0.18740128166E+04  0.18740128166E+04  0.25500000920E-02 0.  1.
    10030    2    1    2    0    0  0.00000000000E+00  0.00000000000E+00 -0.12236475847E+04  0.25243780485E+04  0.22079789673E+04 0.  0.
        5    1    3    3  502    0  0.52391169039E+03  0.90818003336E+03 -0.21660588420E+03  0.10706141375E+04  0.46999998093E+01 0. -1.
       -5    1    3    3    0  502 -0.52391169039E+03 -0.90818003336E+03 -0.10070417005E+04  0.14537639110E+04  0.46999998093E+01 0.  1.
</event>
<event>
 5   0  0.2910318E-05  0.2192967E+04  0.7818609E-02  0.8521361E-01
       -1   -1    0    0    0  501  0.00000000000E+00  0.00000000000E+00  0.13574273482E+04  0.13574273482E+04  0.50400001928E-02 0. -1.
        1   -1    0    0  501    0  0.00000000000E+00  0.00000000000E+00 -0.88570175759E+03  0.88570175761E+03  0.50400001928E-02 0.  1.
    10030    2    1    2    0    0  0.00000000000E+00  0.00000000000E+00  0.47172559063E+03  0.22431291058E+04  0.21929667468E+04 0.  0.
        5    1    3    3  502    0  0.10165421842E+04  0.10608307796E+03 -0.17026085760E+03  0.10361575563E+04  0.46999998093E+01 0.  1.
       -5    1    3    3    0  502 -0.10165421842E+04 -0.10608307796E+03  0.64198644823E+03  0.12069715496E+04  0.46999998093E+01 0. -1.
</event>
<event>
 5   0  0.2929471E-05  0.2182271E+04  0.7818609E-02  0.8525844E-01
        1   -1    0    0  501    0  0.00000000000E+00  0.00000000000E+00  0.17388142658E+04  0.17388142658E+04  0.50400001928E-02 0.  1.
       -1   -1    0    0    0  501  0.00000000000E+00  0.00000000000E+00 -0.68470616348E+03  0.68470616349E+03  0.50400001928E-02 0. -1.
    10030    2    1    2    0    0  0.00000000000E+00  0.00000000000E+00  0.10541081023E+04  0.24235204293E+04  0.21822711518E+04 0.  0.
        2    1    3    3  502    0 -0.45185968899E+03 -0.36873326228E+03  0.15511924515E+04  0.16572083209E+04  0.25500000920E-02 0.  1.
       -2    1    3    3    0  502  0.45185968899E+03  0.36873326228E+03 -0.49708434919E+03  0.76631210839E+03  0.25500000920E-02 0. -1.
</event>
<event>
 5   0  0.6293013E-05  0.2183632E+04  0.7818609E-02  0.8525272E-01
        2   -1    0    0  501    0  0.00000000000E+00  0.00000000000E+00  0.72216698041E+03  0.72216698041E+03  0.25500000920E-02 0.  1.
       -2   -1    0    0    0  501  0.00000000000E+00  0.00000000000E+00 -0.16506742916E+04  0.16506742916E+04  0.25500000920E-02 0. -1.
    10030    2    1    2    0    0  0.00000000000E+00  0.00000000000E+00 -0.92850731119E+03  0.23728412720E+04  0.21836322665E+04 0.  0.
        1    1    3    3  502    0 -0.56681788142E+03 -0.40606009718E+03  0.44872218509E+03  0.82916760226E+03  0.50400001928E-02 0.  1.
       -1    1    3    3    0  502  0.56681788142E+03  0.40606009718E+03 -0.13772294963E+04  0.15436736698E+04  0.50400001928E-02 0. -1.
</event>
<event>
 5   0  0.2753631E-05  0.2151867E+04  0.7818609E-02  0.8538733E-01
        1   -1    0    0  501    0  0.00000000000E+00  0.00000000000E+00  0.21568593564E+04  0.21568593564E+04  0.50400001928E-02 0.  1.
       -1   -1    0    0    0  501  0.00000000000E+00  0.00000000000E+00 -0.53672176720E+03  0.53672176723E+03  0.50400001928E-02 0. -1.
    10030    2    1    2    0    0  0.00000000000E+00  0.00000000000E+00  0.16201375892E+04  0.26935811236E+04  0.21518674359E+04 0.  0.
        4    1    3    3  502    0 -0.10407229994E+03  0.95114425062E+03  0.19413412060E+03  0.97631762188E+03  0.12699999809E+01 0. -1.
       -4    1    3    3    0  502  0.10407229994E+03 -0.95114425062E+03  0.14260034686E+04  0.17172635017E+04  0.12699999809E+01 0.  1.
</event>
<event>
 5   0  0.6306919E-05  0.2191474E+04  0.7818609E-02  0.8521985E-01
        2   -1    0    0  501    0  0.00000000000E+00  0.00000000000E+00  0.12346995146E+04  0.12346995146E+04  0.25500000920E-02 0. -1.
       -2   -1    0    0    0  501  0.00000000000E+00  0.00000000000E+00 -0.97241466680E+03  0.97241466681E+03  0.25500000920E-02 0.  1.
    10030    2    1    2    0    0  0.00000000000E+00  0.00000000000E+00  0.26228484784E+03  0.22071141815E+04  0.21914743139E+04 0.  0.
        3    1    3    3  502    0 -0.33446664463E+03  0.96829977557E+03 -0.26043500798E+03  0.10570235548E+04  0.10100000352E+00 0. -1.
       -3    1    3    3    0  502  0.33446664463E+03 -0.96829977557E+03  0.52271985582E+03  0.11500906267E+04  0.10100000352E+00 0.  1.
</event>
<event>
 5   0  0.2910318E-05  0.2212462E+04  0.7818609E-02  0.8513259E-01
       -1   -1    0    0    0  501  0.00000000000E+00  0.00000000000E+00  0.10213558051E+04  0.10213558051E+04  0.50400001928E-02 0.  1.
        1   -1    0    0  501    0  0.00000000000E+00  0.00000000000E+00 -0.11981593123E+04  0.11981593123E+04  0.50400001928E-02 0. -1.
    10030    2    1    2    0    0  0.00000000000E+00  0.00000000000E+00 -0.17680350717E+03  0.22195151174E+04  0.22124619491E+04 0.  0.
        5    1    3    3  502    0 -0.24144895331E+03  0.81557094889E+03 -0.79795517010E+03  0.11662796034E+04  0.46999998093E+01 0. -1.
       -5    1    3    3    0  502  0.24144895331E+03 -0.81557094889E+03  0.62115166293E+03  0.10532355141E+04  0.46999998093E+01 0.  1.
</event>
<event>
 5   0  0.2820239E-05  0.2206434E+04  0.7818609E-02  0.8515755E-01
       -1   -1    0    0    0  501  0.00000000000E+00  0.00000000000E+00  0.79296496373E+03  0.79296496374E+03  0.50400001928E-02 0.  1.
        1   -1    0    0  501    0  0.00000000000E+00  0.00000000000E+00 -0.15348566828E+04  0.15348566828E+04  0.50400001928E-02 0. -1.
    10030    2    1    2    0    0  0.00000000000E+00  0.00000000000E+00 -0.74189171902E+03  0.23278216465E+04  0.22064338411E+04 0.  0.
        3    1    3    3  502    0 -0.57015352597E+03  0.91944032682E+02  0.62074548935E+03  0.84785241704E+03  0.10100000352E+00 0.  1.
       -3    1    3    3    0  502  0.57015352597E+03 -0.91944032682E+02 -0.13626372084E+04  0.14799692295E+04  0.10100000352E+00 0. -1.
</event>
<event>
 5   0  0.2245375E-05  0.2168471E+04  0.7818609E-02  0.8531667E-01
        3   -1    0    0  501    0  0.00000000000E+00  0.00000000000E+00  0.92193151024E+03  0.92193151578E+03  0.10100000352E+00 0.  1.
       -3   -1    0    0    0  501  0.00000000000E+00  0.00000000000E+00 -0.12751131312E+04  0.12751131352E+04  0.10100000352E+00 0. -1.
    10030    2    1    2    0    0  0.00000000000E+00  0.00000000000E+00 -0.35318162098E+03  0.21970446510E+04  0.21684713374E+04 0.  0.
        4    1    3    3  502    0  0.22456171871E+02  0.38475225193E+03 -0.12033676996E+04  0.12635798385E+04  0.12699999809E+01 0. -1.
       -4    1    3    3    0  502 -0.22456171871E+02 -0.38475225193E+03  0.85018607859E+03  0.93346481249E+03  0.12699999809E+01 0.  1.
</event>
<event>
 5   0  0.6414768E-05  0.2193070E+04  0.7818609E-02  0.8521318E-01
       -2   -1    0    0    0  501  0.00000000000E+00  0.00000000000E+00  0.16928639068E+04  0.16928639068E+04  0.25500000920E-02 0.  1.
        2   -1    0    0  501    0  0.00000000000E+00  0.00000000000E+00 -0.71026908038E+03  0.71026908039E+03  0.25500000920E-02 0. -1.
    10030    2    1    2    0    0  0.00000000000E+00  0.00000000000E+00  0.98259482637E+03  0.24031329871E+04  0.21930698943E+04 0.  0.
        2    1    3    3  502    0  0.99570961947E+03  0.45429100853E+03  0.56538190568E+03  0.12318582167E+04  0.25500000920E-02 0.  1.
       -2    1    3    3    0  502 -0.99570961947E+03 -0.45429100853E+03  0.41721292069E+03  0.11712747705E+04  0.25500000920E-02 0. -1.
</event>
<event>
 5   0  0.6445740E-05  0.2190259E+04  0.7818609E-02  0.8522494E-01
       -2   -1    0    0    0  501  0.00000000000E+00  0.00000000000E+00  0.10281195839E+04  0.10281195839E+04  0.25500000920E-02 0. -1.
        2   -1    0    0  501    0  0.00000000000E+00  0.00000000000E+00 -0.11665068338E+04  0.11665068338E+04  0.25500000920E-02 0.  1.
    10030    2    1    2    0    0  0.00000000000E+00  0.00000000000E+00 -0.13838724990E+03  0.21946264176E+04  0.21902589075E+04 0.  0.
        5    1    3    3  502    0  0.27276495065E+03 -0.25389814077E+03  0.96262746088E+03  0.10322493413E+04  0.46999998093E+01 0. -1.
       -5    1    3    3    0  502 -0.27276495065E+03  0.25389814077E+03 -0.11010147108E+04  0.11623770763E+04  0.46999998093E+01 0.  1.
</event>
<event>
 5   0  0.2753631E-05  0.2202304E+04  0.7818609E-02  0.8517470E-01
        1   -1    0    0  501    0  0.00000000000E+00  0.00000000000E+00  0.14926300522E+04  0.14926300522E+04  0.50400001928E-02 0.  1.
       -1   -1    0    0    0  501  0.00000000000E+00  0.00000000000E+00 -0.81234809584E+03  0.81234809586E+03  0.50400001928E-02 0. -1.
    10030    2    1    2    0    0  0.00000000000E+00  0.00000000000E+00  0.68028195639E+03  0.23049781481E+04  0.22023035038E+04 0.  0.
        4    1    3    3  502    0  0.48200116112E+02  0.14330820734E+03  0.14817133749E+04  0.14894081481E+04  0.12699999809E+01 0.  1.
       -4    1    3    3    0  502 -0.48200116112E+02 -0.14330820734E+03 -0.80143141847E+03  0.81557000000E+03  0.12699999809E+01 0. -1.
</event>
<event>
 5   0  0.6628798E-05  0.2216898E+04  0.7818609E-02  0.8511428E-01
       -2   -1    0    0    0  501  0.00000000000E+00  0.00000000000E+00  0.61725823289E+03  0.61725823290E+03  0.25500000920E-02 0. -1.
        2   -1    0    0  501    0  0.00000000000E+00  0.00000000000E+00 -0.19905109350E+04  0.19905109350E+04  0.25500000920E-02 0.  1.
    10030    2    1    2    0    0  0.00000000000E+00  0.00000000000E+00 -0.13732527021E+04  0.26077691679E+04  0.22168980692E+04 0.  0.
        4    1    3    3  502    0  0.88054304603E+03  0.48494737786E+03 -0.13723886142E+03  0.10145768247E+04  0.12699999809E+01 0. -1.
       -4    1    3    3    0  502 -0.88054304603E+03 -0.48494737786E+03 -0.12360138407E+04  0.15931923432E+04  0.12699999809E+01 0.  1.
</event>
<event>
 5   0  0.2910318E-05  0.2185334E+04  0.7818609E-02  0.8524557E-01
       -1   -1    0    0    0  501  0.00000000000E+00  0.00000000000E+00  0.35014834868E+03  0.35014834872E+03  0.50400001928E-02 0. -1.
        1   -1    0    0  501    0  0.00000000000E+00  0.00000000000E+00 -0.34097586532E+04  0.34097586532E+04  0.50400001928E-02 0.  1.
    10030    2    1    2    0    0  0.00000000000E+00  0.00000000000E+00 -0.30596103045E+04  0.37599070019E+04  0.21853341730E+04 0.  0.
        5    1    3    3  502    0  0.10706355655E+04 -0.18404405693E+03 -0.17316751102E+04  0.20442244266E+04  0.46999998093E+01 0.  1.
       -5    1    3    3    0  502 -0.10706355655E+04  0.18404405693E+03 -0.13279351943E+04  0.17156825753E+04  0.46999998093E+01 0. -1.
</event>
<event>
 5   0  0.6414768E-05  0.2138066E+04  0.7818609E-02  0.8544658E-01
       -2   -1    0    0    0  501  0.00000000000E+00  0.00000000000E+00  0.13214834657E+04  0.13214834657E+04  0.25500000920E-02 0. -1.
        2   -1    0    0  501    0  0.00000000000E+00  0.00000000000E+00 -0.86480941825E+03  0.86480941825E+03  0.25500000920E-02 0.  1.
    10030    2    1    2    0    0  0.00000000000E+00  0.00000000000E+00  0.45667404748E+03  0.21862928840E+04  0.21380658056E+04 0.  0.
        2    1    3    3  502    0  0.38990886640E+03 -0.93102325927E+03  0.58841355221E+03  0.11683594232E+04  0.25500000920E-02 0. -1.
       -2    1    3    3    0  502 -0.38990886640E+03  0.93102325927E+03 -0.13173950473E+03  0.10179334608E+04  0.25500000920E-02 0.  1.
</event>
<event>
 5   0  0.6306919E-05  0.2182387E+04  0.7818609E-02  0.8525795E-01
        2   -1    0    0  501    0  0.00000000000E+00  0.00000000000E+00  0.24288987050E+04  0.24288987050E+04  0.25500000920E-02 0.  1.
       -2   -1    0    0    0  501  0.00000000000E+00  0.00000000000E+00 -0.49022341536E+03  0.49022341537E+03  0.25500000920E-02 0. -1.
    10030    2    1    2    0    0  0.00000000000E+00  0.00000000000E+00  0.19386752896E+04  0.29191221203E+04  0.21823867840E+04 0.  0.
        3    1    3    3  502    0  0.31264571323E+03  0.74329732293E+03 -0.14003543258E+02  0.80649510953E+03  0.10100000352E+00 0. -1.
       -3    1    3    3    0  502 -0.31264571323E+03 -0.74329732293E+03  0.19526788329E+04  0.21126270108E+04  0.10100000352E+00 0.  1.
</event>
<event>
 5   0  0.2929471E-05  0.2155506E+04  0.7818609E-02  0.8537179E-01
        1   -1    0    0  501    0  0.00000000000E+00  0.00000000000E+00  0.83647625194E+03  0.83647625195E+03  0.50400001928E-02 0.  1.
       -1   -1    0    0    0  501  0.00000000000E+00  0.00000000000E+00 -0.13886242420E+04  0.13886242420E+04  0.50400001928E-02 0. -1.
    10030    2    1    2    0    0  0.00000000000E+00  0.00000000000E+00 -0.55214799010E+03  0.22251004940E+04  0.21555056960E+04 0.  0.
        2    1    3    3  502    0 -0.32666260649E+03  0.63686292600E+03 -0.11078490367E+04  0.13189512247E+04  0.25500000920E-02 0. -1.
       -2    1    3    3    0  502  0.32666260649E+03 -0.63686292600E+03  0.55570104662E+03  0.90614926928E+03  0.25500000920E-02 0.  1.
</event>
<event>
 5   0  0.2910318E-05  0.2190142E+04  0.7818609E-02  0.8522543E-01
       -1   -1    0    0    0  501  0.00000000000E+00  0.00000000000E+00  0.10377084877E+04  0.10377084877E+04  0.50400001928E-02 0. -1.
        1   -1    0    0  501    0  0.00000000000E+00  0.00000000000E+00 -0.11556039790E+04  0.11556039790E+04  0.50400001928E-02 0.  1.
    10030    2    1    2    0    0  0.00000000000E+00  0.00000000000E+00 -0.11789549126E+03  0.21933124667E+04  0.21901416004E+04 0.  0.
        5    1    3    3  502    0 -0.35760905916E+03 -0.10033873746E+04  0.19536381268E+03  0.10829864136E+04  0.46999998093E+01 0. -1.
       -5    1    3    3    0  502  0.35760905916E+03  0.10033873746E+04 -0.31325930394E+03  0.11103260531E+04  0.46999998093E+01 0.  1.
</event>
<event>
 5   0  0.6306919E-05  0.2189115E+04  0.7818609E-02  0.8522972E-01
       -2   -1    0    0    0  501  0.00000000000E+00  0.00000000000E+00  0.78898995660E+03  0.78898995660E+03  0.25500000920E-02 0.  1.
        2   -1    0    0  501    0  0.00000000000E+00  0.00000000000E+00 -0.15184678036E+04  0.15184678036E+04  0.25500000920E-02 0. -1.
    10030    2    1    2    0    0  0.00000000000E+00  0.00000000000E+00 -0.72947784702E+03  0.23074577602E+04  0.21891147494E+04 0.  0.
        3    1    3    3  502    0  0.73851302617E+03 -0.80281360397E+03 -0.45986548786E+03  0.11838021159E+04  0.10100000352E+00 0.  1.
       -3    1    3    3    0  502 -0.73851302617E+03  0.80281360397E+03 -0.26961235915E+03  0.11236556443E+04  0.10100000352E+00 0. -1.
</event>
<event>
 5   0  0.6306919E-05  0.2203786E+04  0.7818609E-02  0.8516854E-01
        2   -1    0    0  501    0  0.00000000000E+00  0.00000000000E+00  0.94763096970E+03  0.94763096970E+03  0.25500000920E-02 0. -1.
       -2   -1    0    0    0  501  0.00000000000E+00  0.00000000000E+00 -0.12812673141E+04  0.12812673142E+04  0.25500000920E-02 0.  1.
    10030    2    1    2    0    0  0.00000000000E+00  0.00000000000E+00 -0.33363634445E+03  0.22288982839E+04  0.22037863666E+04 0.  0.
        3    1    3    3  502    0  0.40600904569E+03  0.37843999383E+03  0.79592586344E+03  0.97033920069E+03  0.10100000352E+00 0. -1.
       -3    1    3    3    0  502 -0.40600904569E+03 -0.37843999383E+03 -0.11295622079E+04  0.12585590832E+04  0.10100000352E+00 0.  1.
</event>
<event>
 5   0  0.6414768E-05  0.2112261E+04  0.7818609E-02  0.8555861E-01
        2   -1    0    0  501    0  0.00000000000E+00  0.00000000000E+00  0.21912314936E+04  0.21912314936E+04  0.25500000920E-02 0. -1.
       -2   -1    0    0    0  501  0.00000000000E+00  0.00000000000E+00 -0.50903421800E+03  0.50903421801E+03  0.25500000920E-02 0.  1.
    10030    2    1    2    0    0  0.00000000000E+00  0.00000000000E+00  0.16821972756E+04  0.27002657116E+04  0.21122611674E+04 0.  0.
        2    1    3    3  502    0  0.38968758349E+03  0.60628644908E+03 -0.14579844556E+03  0.73532092164E+03  0.25500000920E-02 0.  1.
       -2    1    3    3    0  502 -0.38968758349E+03 -0.60628644908E+03  0.18279957212E+04  0.19649447900E+04  0.25500000920E-02 0. -1.
</event>
<event>
 5   0  0.2908031E-05  0.2201567E+04  0.7818609E-02  0.8517776E-01
       -1   -1    0    0    0  501  0.00000000000E+00  0.00000000000E+00  0.47768008080E+03  0.47768008083E+03  0.50400001928E-02 0.  1.
        1   -1    0    0  501    0  0.00000000000E+00  0.00000000000E+00 -0.25366868760E+04  0.25366868760E+04  0.50400001928E-02 0. -1.
    10030    2    1    2    0    0  0.00000000000E+00  0.00000000000E+00 -0.20590067952E+04  0.30143669568E+04  0.22015674343E+04 0.  0.
        1    1    3    3  502    0  0.58429574584E+02  0.10912781917E+04 -0.12102298284E+04  0.16306312717E+04  0.50400001928E-02 0. -1.
       -1    1    3    3    0  502 -0.58429574584E+02 -0.10912781917E+04 -0.84877696677E+03  0.13837356851E+04  0.50400001928E-02 0.  1.
</event>
<event>
 5   0  0.6628798E-05  0.2211864E+04  0.7818609E-02  0.8513506E-01
        2   -1    0    0  501    0  0.00000000000E+00  0.00000000000E+00  0.10972792650E+04  0.10972792650E+04  0.25500000920E-02 0.  1.
       -2   -1    0    0    0  501  0.00000000000E+00  0.00000000000E+00 -0.11146531224E+04  0.11146531224E+04  0.25500000920E-02 0. -1.
    10030    2    1    2    0    0  0.00000000000E+00  0.00000000000E+00 -0.17373857424E+02  0.22119323874E+04  0.22118641540E+04 0.  0.
        4    1    3    3  502    0  0.71191686859E+03 -0.15986589056E+03  0.82242319069E+03  0.10994381512E+04  0.12699999809E+01 0.  1.
       -4    1    3    3    0  502 -0.71191686859E+03  0.15986589056E+03 -0.83979704811E+03  0.11124942362E+04  0.12699999809E+01 0. -1.
</event>
<event>
 5   0  0.6306919E-05  0.2121784E+04  0.7818609E-02  0.8551708E-01
        2   -1    0    0  501    0  0.00000000000E+00  0.00000000000E+00  0.11044577133E+04  0.11044577133E+04  0.25500000920E-02 0.  1.
       -2   -1    0    0    0  501  0.00000000000E+00  0.00000000000E+00 -0.10190445464E+04  0.10190445464E+04  0.25500000920E-02 0. -1.
    10030    2    1    2    0    0  0.00000000000E+00  0.00000000000E+00  0.85413166841E+02  0.21235022597E+04  0.21217837868E+04 0.  0.
        3    1    3    3  502    0 -0.76937879699E+03 -0.18023897996E+03 -0.66572389562E+03  0.10332560857E+04  0.10100000352E+00 0. -1.
       -3    1    3    3    0  502  0.76937879699E+03  0.18023897996E+03  0.75113706246E+03  0.10902461740E+04  0.10100000352E+00 0.  1.
</event>
<event>
 5   0  0.2929471E-05  0.2185079E+04  0.7818609E-02  0.8524664E-01
        1   -1    0    0  501    0  0.00000000000E+00  0.00000000000E+00  0.17634571973E+04  0.17634571973E+04  0.50400001928E-02 0. -1.
       -1   -1    0    0    0  501  0.00000000000E+00  0.00000000000E+00 -0.67687637092E+03  0.67687637094E+03  0.50400001928E-02 0.  1.
    10030    2    1    2    0    0  0.00000000000E+00  0.00000000000E+00  0.10865808264E+04  0.24403335682E+04  0.21850789533E+04 0.  0.
        2    1    3    3  502    0 -0.44293341758E+02  0.10915578739E+04  0.52822307057E+03  0.12134579121E+04  0.25500000920E-02 0. -1.
       -2    1    3    3    0  502  0.44293341758E+02 -0.10915578739E+04  0.55835775581E+03  0.12268756561E+04  0.25500000920E-02 0.  1.
</event>
<event>
 5   0  0.2908031E-05  0.2293927E+04  0.7818609E-02  0.8480320E-01
        1   -1    0    0  501    0  0.00000000000E+00  0.00000000000E+00  0.97566109035E+03  0.97566109037E+03  0.50400001928E-02 0. -1.
       -1   -1    0    0    0  501  0.00000000000E+00  0.00000000000E+00 -0.13483418998E+04  0.13483418998E+04  0.50400001928E-02 0.  1.
    10030    2    1    2    0    0  0.00000000000E+00  0.00000000000E+00 -0.37268080942E+03  0.23240029901E+04  0.22939265273E+04 0.  0.
        1    1    3    3  502    0  0.67139643350E+02 -0.31741596295E+03  0.92820368925E+03  0.98327143456E+03  0.50400001928E-02 0. -1.
       -1    1    3    3    0  502 -0.67139643350E+02  0.31741596295E+03 -0.13008844987E+04  0.13407315556E+04  0.50400001928E-02 0.  1.
</event>
<event>
 5   0  0.6293013E-05  0.1916850E+04  0.7818609E-02  0.8646514E-01
       -2   -1    0    0    0  501  0.00000000000E+00  0.00000000000E+00  0.18944437811E+04  0.18944437811E+04  0.25500000920E-02 0. -1.
        2   -1    0    0  501    0  0.00000000000E+00  0.00000000000E+00 -0.48488013092E+03  0.48488013093E+03  0.25500000920E-02 0.  1.
    10030    2    1    2    0    0  0.00000000000E+00  0.00000000000E+00  0.14095636502E+04  0.23793239121E+04  0.19168496536E+04 0.  0.
        1    1    3    3  502    0 -0.15285209716E+03 -0.66285148369E+03  0.15428374166E+04  0.16861444621E+04  0.50400001928E-02 0. -1.
       -1    1    3    3    0  502  0.15285209716E+03  0.66285148369E+03 -0.13327376637E+03  0.69317944997E+03  0.50400001928E-02 0.  1.
</event>
<event>
 5   0  0.2910318E-05  0.2196870E+04  0.7818609E-02  0.8519732E-01
       -1   -1    0    0    0  501  0.00000000000E+00  0.00000000000E+00  0.96581372391E+03  0.96581372393E+03  0.50400001928E-02 0. -1.
        1   -1    0    0  501    0  0.00000000000E+00  0.00000000000E+00 -0.12492671578E+04  0.12492671578E+04  0.50400001928E-02 0.  1.
    10030    2    1    2    0    0  0.00000000000E+00  0.00000000000E+00 -0.28345343387E+03  0.22150808817E+04  0.21968699241E+04 0.  0.
        5    1    3    3  502    0  0.36805536009E+03  0.46934135103E+03 -0.10717562637E+04  0.12265519274E+04  0.46999998093E+01 0.  1.
       -5    1    3    3    0  502 -0.36805536009E+03 -0.46934135103E+03  0.78830282986E+03  0.98852895427E+03  0.46999998093E+01 0. -1.
</event>
<event>
 5   0  0.2908031E-05  0.2123266E+04  0.7818609E-02  0.8551063E-01
       -1   -1    0    0    0  501  0.00000000000E+00  0.00000000000E+00  0.82434669188E+03  0.82434669190E+03  0.50400001928E-02 0.  1.
        1   -1    0    0  501    0  0.00000000000E+00  0.00000000000E+00 -0.13672211737E+04  0.13672211737E+04  0.50400001928E-02 0. -1.
    10030    2    1    2    0    0  0.00000000000E+00  0.00000000000E+00 -0.54287448178E+03  0.21915678656E+04  0.21232656467E+04 0.  0.
        1    1    3    3  502    0  0.40973676919E+03 -0.25407443902E+03  0.70483603157E+03  0.85395074332E+03  0.50400001928E-02 0.  1.
       -1    1    3    3    0  502 -0.40973676919E+03  0.25407443902E+03 -0.12477105133E+04  0.13376171222E+04  0.50400001928E-02 0. -1.
</event>
<event>
 5   0  0.6306919E-05  0.2208531E+04  0.7818609E-02  0.8514886E-01
       -2   -1    0    0    0  501  0.00000000000E+00  0.00000000000E+00  0.12549174866E+04  0.12549174866E+04  0.25500000920E-02 0.  1.
        2   -1    0    0  501    0  0.00000000000E+00  0.00000000000E+00 -0.97169883617E+03  0.97169883617E+03  0.25500000920E-02 0. -1.
    10030    2    1    2    0    0  0.00000000000E+00  0.00000000000E+00  0.28321865046E+03  0.22266163228E+04  0.22085306077E+04 0.  0.
        3    1    3    3  502    0 -0.81408769422E+03  0.54406798497E+03  0.65633213859E+03  0.11787792976E+04  0.10100000352E+00 0.  1.
       -3    1    3    3    0  502  0.81408769422E+03 -0.54406798497E+03 -0.37311348813E+03  0.10478370252E+04  0.10100000352E+00 0. -1.
</event>
<event>
 5   0  0.2908031E-05  0.2090589E+04  0.7818609E-02  0.8565400E-01
       -1   -1    0    0    0  501  0.00000000000E+00  0.00000000000E+00  0.14079066567E+04  0.14079066567E+04  0.50400001928E-02 0. -1.
        1   -1    0    0  501    0  0.00000000000E+00  0.00000000000E+00 -0.77607453366E+03  0.77607453368E+03  0.50400001928E-02 0.  1.
    10030    2    1    2    0    0  0.00000000000E+00  0.00000000000E+00  0.63183212305E+03  0.21839811904E+04  0.20905889142E+04 0.  0.
        1    1    3    3  502    0  0.68809456454E+03  0.41840887723E+03 -0.38026278774E+03  0.89058402526E+03  0.50400001928E-02 0.  1.
       -1    1    3    3    0  502 -0.68809456454E+03 -0.41840887723E+03  0.10120949108E+04  0.12933971651E+04  0.50400001928E-02 0. -1.
</event>
<event>
 5   0  0.2908031E-05  0.2197987E+04  0.7818609E-02  0.8519266E-01
        1   -1    0    0  501    0  0.00000000000E+00  0.00000000000E+00  0.22662066992E+04  0.22662066992E+04  0.50400001928E-02 0.  1.
       -1   -1    0    0    0  501  0.00000000000E+00  0.00000000000E+00 -0.53295545327E+03  0.53295545329E+03  0.50400001928E-02 0. -1.
    10030    2    1    2    0    0  0.00000000000E+00  0.00000000000E+00  0.17332512460E+04  0.27991621525E+04  0.21979874600E+04 0.  0.
        1    1    3    3  502    0 -0.70838123288E+03 -0.40483509662E+03 -0.71021149041E+02  0.81898683151E+03  0.50400001928E-02 0. -1.
       -1    1    3    3    0  502  0.70838123288E+03  0.40483509662E+03  0.18042723950E+04  0.19801753210E+04  0.50400001928E-02 0.  1.
</event>
<event>
 5   0  0.2929471E-05  0.2215473E+04  0.7818609E-02  0.8512016E-01
        1   -1    0    0  501    0  0.00000000000E+00  0.00000000000E+00  0.79207996110E+03  0.79207996112E+03  0.50400001928E-02 0.  1.
       -1   -1    0    0    0  501  0.00000000000E+00  0.00000000000E+00 -0.15491866145E+04  0.15491866145E+04  0.50400001928E-02 0. -1.
    10030    2    1    2    0    0  0.00000000000E+00  0.00000000000E+00 -0.75710665343E+03  0.23412665757E+04  0.22154725667E+04 0.  0.
        2    1    3    3  502    0 -0.32405174989E+03  0.10320007751E+04 -0.12615206695E+03  0.10890130763E+04  0.25500000920E-02 0.  1.
       -2    1    3    3    0  502  0.32405174989E+03 -0.10320007751E+04 -0.63095458648E+03  0.12522534993E+04  0.25500000920E-02 0. -1.
</event>
<event>
 5   0  0.6293013E-05  0.2206539E+04  0.7818609E-02  0.8515712E-01
        2   -1    0    0  501    0  0.00000000000E+00  0.00000000000E+00  0.20601115260E+04  0.20601115260E+04  0.25500000920E-02 0. -1.
       -2   -1    0    0    0  501  0.00000000000E+00  0.00000000000E+00 -0.59084336157E+03  0.59084336158E+03  0.25500000920E-02 0.  1.
    10030    2    1    2    0    0  0.00000000000E+00  0.00000000000E+00  0.14692681644E+04  0.26509548876E+04  0.22065386643E+04 0.  0.
        1    1    3    3  502    0 -0.57925187405E+03 -0.76327937932E+03  0.13916575852E+04  0.16896268757E+04  0.50400001928E-02 0. -1.
       -1    1    3    3    0  502  0.57925187405E+03  0.76327937932E+03  0.77610579233E+02  0.96132801193E+03  0.50400001928E-02 0.  1.
</event>
<event>
 5   0  0.2245375E-05  0.2186685E+04  0.7818609E-02  0.8523991E-01
       -3   -1    0    0    0  501  0.00000000000E+00  0.00000000000E+00  0.65657756622E+03  0.65657757399E+03  0.10100000352E+00 0.  1.
        3   -1    0    0  501    0  0.00000000000E+00  0.00000000000E+00 -0.18206497571E+04  0.18206497599E+04  0.10100000352E+00 0. -1.
    10030    2    1    2    0    0  0.00000000000E+00  0.00000000000E+00 -0.11640721909E+04  0.24772273339E+04  0.21866849792E+04 0.  0.
        4    1    3    3  502    0 -0.40232175709E+03  0.72574032374E+03  0.22447931857E+03  0.85962456404E+03  0.12699999809E+01 0.  1.
       -4    1    3    3    0  502  0.40232175709E+03 -0.72574032374E+03 -0.13885515095E+04  0.16176027699E+04  0.12699999809E+01 0. -1.
</event>
<event>
 5   0  0.6306919E-05  0.2171235E+04  0.7818609E-02  0.8530497E-01
       -2   -1    0    0    0  501  0.00000000000E+00  0.00000000000E+00  0.64375384505E+03  0.64375384505E+03  0.25500000920E-02 0. -1.
        2   -1    0    0  501    0  0.00000000000E+00  0.00000000000E+00 -0.18307700570E+04  0.18307700570E+04  0.25500000920E-02 0.  1.
    10030    2    1    2    0    0  0.00000000000E+00  0.00000000000E+00 -0.11870162119E+04  0.24745239020E+04  0.21712349146E+04 0.  0.
        3    1    3    3  502    0 -0.52772211686E+03 -0.90612039313E+03 -0.91388014044E+03  0.13909427453E+04  0.10100000352E+00 0.  1.
       -3    1    3    3    0  502  0.52772211686E+03  0.90612039313E+03 -0.27313607150E+03  0.10835811567E+04  0.10100000352E+00 0. -1.
</event>
<event>
 5   0  0.6414768E-05  0.2177253E+04  0.7818609E-02  0.8527956E-01
        2   -1    0    0  501    0  0.00000000000E+00  0.00000000000E+00  0.86918586564E+03  0.86918586564E+03  0.25500000920E-02 0. -1.
       -2   -1    0    0    0  501  0.00000000000E+00  0.00000000000E+00 -0.13634685698E+04  0.13634685698E+04  0.25500000920E-02 0.  1.
    10030    2    1    2    0    0  0.00000000000E+00  0.00000000000E+00 -0.49428270420E+03  0.22326544355E+04  0.21772529565E+04 0.  0.
        2    1    3    3  502    0 -0.63643007428E+03  0.22966158207E+03  0.62738995986E+03  0.92271655641E+03  0.25500000920E-02 0. -1.
       -2    1    3    3    0  502  0.63643007428E+03 -0.22966158207E+03 -0.11216726641E+04  0.13099378791E+04  0.25500000920E-02 0.  1.
</event>
<event>
 5   0  0.6293013E-05  0.2190008E+04  0.7818609E-02  0.8522599E-01
       -2   -1    0    0    0  501  0.00000000000E+00  0.00000000000E+00  0.84460257342E+03  0.84460257342E+03  0.25500000920E-02 0.  1.
        2   -1    0    0  501    0  0.00000000000E+00  0.00000000000E+00 -0.14196422635E+04  0.14196422635E+04  0.25500000920E-02 0. -1.
    10030    2    1    2    0    0  0.00000000000E+00  0.00000000000E+00 -0.57503969004E+03  0.22642448369E+04  0.21900077708E+04 0.  0.
        1    1    3    3  502    0 -0.74918325344E+03 -0.14327368552E+03  0.52475211055E+03  0.92583350218E+03  0.50400001928E-02 0.  1.
       -1    1    3    3    0  502  0.74918325344E+03  0.14327368552E+03 -0.10997918006E+04  0.13384113347E+04  0.50400001928E-02 0. -1.
</event>
<event>
 5   0  0.6306919E-05  0.2220622E+04  0.7818609E-02  0.8509894E-01
        2   -1    0    0  501    0  0.00000000000E+00  0.00000000000E+00  0.75457896450E+03  0.75457896450E+03  0.25500000920E-02 0.  1.
       -2   -1    0    0    0  501  0.00000000000E+00  0.00000000000E+00 -0.16337458393E+04  0.16337458393E+04  0.25500000920E-02 0. -1.
    10030    2    1    2    0    0  0.00000000000E+00  0.00000000000E+00 -0.87916687476E+03  0.23883248038E+04  0.22206217541E+04 0.  0.
        3    1    3    3  502    0 -0.69981848330E+03 -0.11674946006E+03  0.47897293169E+03  0.85603237409E+03  0.10100000352E+00 0.  1.
       -3    1    3    3    0  502  0.69981848330E+03  0.11674946006E+03 -0.13581398064E+04  0.15322924297E+04  0.10100000352E+00 0. -1.
</event>
<event>
 5   0  0.2908031E-05  0.2029812E+04  0.7818609E-02  0.8592808E-01
       -1   -1    0    0    0  501  0.00000000000E+00  0.00000000000E+00  0.74483138322E+03  0.74483138324E+03  0.50400001928E-02 0.  1.
        1   -1    0    0  501    0  0.00000000000E+00  0.00000000000E+00 -0.13829088797E+04  0.13829088797E+04  0.50400001928E-02 0. -1.
    10030    2    1    2    0    0  0.00000000000E+00  0.00000000000E+00 -0.63807749647E+03  0.21277402629E+04  0.20298117487E+04 0.  0.
        1    1    3    3  502    0  0.25479186595E+03  0.39838621701E+03 -0.12603625526E+04  0.13461590682E+04  0.50400001928E-02 0. -1.
       -1    1    3    3    0  502 -0.25479186595E+03 -0.39838621701E+03  0.62228505613E+03  0.78158119474E+03  0.50400001928E-02 0.  1.
</event>
<event>
 5   0  0.2245375E-05  0.2181751E+04  0.7818609E-02  0.8526062E-01
       -3   -1    0    0    0  501  0.00000000000E+00  0.00000000000E+00  0.11120884558E+04  0.11120884604E+04  0.10100000352E+00 0. -1.
        3   -1    0    0  501    0  0.00000000000E+00  0.00000000000E+00 -0.10700670956E+04  0.10700671004E+04  0.10100000352E+00 0.  1.
    10030    2    1    2    0    0  0.00000000000E+00  0.00000000000E+00  0.42021360134E+02  0.21821555608E+04  0.21817509245E+04 0.  0.
        2    1    3    3  502    0 -0.79896120806E+03 -0.21403485618E+03  0.73238048354E+03  0.11047764952E+04  0.25500000920E-02 0. -1.
       -2    1    3    3    0  502  0.79896120806E+03  0.21403485618E+03 -0.69035912340E+03  0.10773790656E+04  0.25500000920E-02 0.  1.
</event>
<event>
 5   0  0.2245375E-05  0.1846346E+04  0.7818609E-02  0.8682034E-01
        3   -1    0    0  501    0  0.00000000000E+00  0.00000000000E+00  0.12948892679E+04  0.12948892718E+04  0.10100000352E+00 0.  1.
       -3   -1    0    0    0  501  0.00000000000E+00  0.00000000000E+00 -0.65816318646E+03  0.65816319421E+03  0.10100000352E+00 0. -1.
    10030    2    1    2    0    0  0.00000000000E+00  0.00000000000E+00  0.63672608139E+03  0.19530524660E+04  0.18463460760E+04 0.  0.
        5    1    3    3  502    0 -0.29702367646E+02  0.42053004300E+03  0.11871060747E+04  0.12597502413E+04  0.46999998093E+01 0.  1.
       -5    1    3    3    0  502  0.29702367646E+02 -0.42053004300E+03 -0.55037999336E+03  0.69330222472E+03  0.46999998093E+01 0. -1.
</event>
<event>
 5   0  0.6628798E-05  0.2193331E+04  0.7818609E-02  0.8521209E-01
        2   -1    0    0  501    0  0.00000000000E+00  0.00000000000E+00  0.92358956119E+03  0.92358956119E+03  0.25500000920E-02 0.  1.
       -2   -1    0    0    0  501  0.00000000000E+00  0.00000000000E+00 -0.13021751444E+04  0.13021751444E+04  0.25500000920E-02 0. -1.
    10030    2    1    2    0    0  0.00000000000E+00  0.00000000000E+00 -0.37858558323E+03  0.22257647056E+04  0.21933311380E+04 0.  0.
        4    1    3    3  502    0 -0.10863186229E+04  0.14994728345E+03 -0.19951241017E+03  0.11146206319E+04  0.12699999809E+01 0. -1.
       -4    1    3    3    0  502  0.10863186229E+04 -0.14994728345E+03 -0.17907317306E+03  0.11111440737E+04  0.12699999809E+01 0.  1.
</event>
<event>
 5   0  0.6414768E-05  0.2211534E+04  0.7818609E-02  0.8513643E-01
       -2   -1    0    0    0  501  0.00000000000E+00  0.00000000000E+00  0.69187963413E+03  0.69187963414E+03  0.25500000920E-02 0. -1.
        2   -1    0    0  501    0  0.00000000000E+00  0.00000000000E+00 -0.17672445929E+04  0.17672445929E+04  0.25500000920E-02 0.  1.
    10030    2    1    2    0    0  0.00000000000E+00  0.00000000000E+00 -0.10753649587E+04  0.24591242270E+04  0.22115338952E+04 0.  0.
        2    1    3    3  502    0 -0.82044231713E+03 -0.74073700756E+03 -0.57110834964E+03  0.12441791098E+04  0.25500000920E-02 0.  1.
       -2    1    3    3    0  502  0.82044231713E+03  0.74073700756E+03 -0.50425660910E+03  0.12149451173E+04  0.25500000920E-02 0. -1.
</event>
<event>
 5   0  0.2929471E-05  0.2249761E+04  0.7818609E-02  0.8497997E-01
        1   -1    0    0  501    0  0.00000000000E+00  0.00000000000E+00  0.95703205624E+03  0.95703205625E+03  0.50400001928E-02 0.  1.
       -1   -1    0    0    0  501  0.00000000000E+00  0.00000000000E+00 -0.13221671870E+04  0.13221671870E+04  0.50400001928E-02 0. -1.
    10030    2    1    2    0    0  0.00000000000E+00  0.00000000000E+00 -0.36513513075E+03  0.22791992432E+04  0.22497612155E+04 0.  0.
        2    1    3    3  502    0 -0.13930249029E+03  0.11107408959E+04 -0.70641803006E+02  0.11216687505E+04  0.25500000920E-02 0.  1.
       -2    1    3    3    0  502  0.13930249029E+03 -0.11107408959E+04 -0.29449332774E+03  0.11575304927E+04  0.25500000920E-02 0. -1.
</event>
<event>
 5   0  0.2929471E-05  0.2210486E+04  0.7818609E-02  0.8514076E-01
       -1   -1    0    0    0  501  0.00000000000E+00  0.00000000000E+00  0.70438374364E+03  0.70438374366E+03  0.50400001928E-02 0.  1.
        1   -1    0    0  501    0  0.00000000000E+00  0.00000000000E+00 -0.17342282535E+04  0.17342282536E+04  0.50400001928E-02 0. -1.
    10030    2    1    2    0    0  0.00000000000E+00  0.00000000000E+00 -0.10298445099E+04  0.24386119972E+04  0.22104860910E+04 0.  0.
        2    1    3    3  502    0  0.23183362907E+03 -0.10798250735E+04 -0.46820627124E+03  0.11995774812E+04  0.25500000920E-02 0. -1.
       -2    1    3    3    0  502 -0.23183362907E+03  0.10798250735E+04 -0.56163823867E+03  0.12390345161E+04  0.25500000920E-02 0.  1.
</event>
<event>
 5   0  0.6293013E-05  0.2211227E+04  0.7818609E-02  0.8513770E-01
        2   -1    0    0  501    0  0.00000000000E+00  0.00000000000E+00  0.15507511989E+04  0.15507511989E+04  0.25500000920E-02 0. -1.
       -2   -1    0    0    0  501  0.00000000000E+00  0.00000000000E+00 -0.78825103192E+03  0.78825103192E+03  0.25500000920E-02 0.  1.
    10030    2    1    2    0    0  0.00000000000E+00  0.00000000000E+00  0.76250016702E+03  0.23390022309E+04  0.22112270194E+04 0.  0.
        1    1    3    3  502    0 -0.57677655622E+03 -0.41405344378E+03 -0.51523094150E+03  0.87725388185E+03  0.50400001928E-02 0.  1.
       -1    1    3    3    0  502  0.57677655622E+03  0.41405344378E+03  0.12777311085E+04  0.14617483490E+04  0.50400001928E-02 0. -1.
</event>
<event>
 5   0  0.2908031E-05  0.2156660E+04  0.7818609E-02  0.8536687E-01
       -1   -1    0    0    0  501  0.00000000000E+00  0.00000000000E+00  0.66097803573E+03  0.66097803575E+03  0.50400001928E-02 0. -1.
        1   -1    0    0  501    0  0.00000000000E+00  0.00000000000E+00 -0.17592046081E+04  0.17592046081E+04  0.50400001928E-02 0.  1.
    10030    2    1    2    0    0  0.00000000000E+00  0.00000000000E+00 -0.10982265723E+04  0.24201826438E+04  0.21566600161E+04 0.  0.
        1    1    3    3  502    0  0.75501545216E+03  0.10115501392E+03 -0.14055987336E+04  0.15987459053E+04  0.50400001928E-02 0.  1.
       -1    1    3    3    0  502 -0.75501545216E+03 -0.10115501392E+03  0.30737216126E+03  0.82143673851E+03  0.50400001928E-02 0. -1.
</event>
<event>
 5   0  0.2910318E-05  0.2157781E+04  0.7818609E-02  0.8536209E-01
        1   -1    0    0  501    0  0.00000000000E+00  0.00000000000E+00  0.10530740475E+04  0.10530740476E+04  0.50400001928E-02 0.  1.
       -1   -1    0    0    0  501  0.00000000000E+00  0.00000000000E+00 -0.11053397920E+04  0.11053397920E+04  0.50400001928E-02 0. -1.
    10030    2    1    2    0    0  0.00000000000E+00  0.00000000000E+00 -0.52265744402E+02  0.21584138395E+04  0.21577809422E+04 0.  0.
        5    1    3    3  502    0  0.75866335785E+03  0.25267246061E+03  0.69835098746E+03  0.10616636259E+04  0.46999998093E+01 0.  1.
       -5    1    3    3    0  502 -0.75866335785E+03 -0.25267246061E+03 -0.75061673186E+03  0.10967502136E+04  0.46999998093E+01 0. -1.
</event>
<event>
 5   0  0.2908031E-05  0.2179182E+04  0.7818609E-02  0.8527143E-01
       -1   -1    0    0    0  501  0.00000000000E+00  0.00000000000E+00  0.11699402628E+04  0.11699402628E+04  0.50400001928E-02 0. -1.
        1   -1    0    0  501    0  0.00000000000E+00  0.00000000000E+00 -0.10147597782E+04  0.10147597782E+04  0.50400001928E-02 0.  1.
    10030    2    1    2    0    0  0.00000000000E+00  0.00000000000E+00  0.15518048466E+03  0.21847000410E+04  0.21791817929E+04 0.  0.
        1    1    3    3  502    0  0.61456898933E+03 -0.54252783226E+03 -0.64198550336E+03  0.10412381466E+04  0.50400001928E-02 0.  1.
       -1    1    3    3    0  502 -0.61456898933E+03  0.54252783226E+03  0.79716598802E+03  0.11434618944E+04  0.50400001928E-02 0. -1.
</event>
<event>
 5   0  0.2820239E-05  0.2348688E+04  0.7818609E-02  0.8458968E-01
        1   -1    0    0  501    0  0.00000000000E+00  0.00000000000E+00  0.78609373445E+03  0.78609373447E+03  0.50400001928E-02 0.  1.
       -1   -1    0    0    0  501  0.00000000000E+00  0.00000000000E+00 -0.17543503565E+04  0.17543503565E+04  0.50400001928E-02 0. -1.
    10030    2    1    2    0    0  0.00000000000E+00  0.00000000000E+00 -0.96825662204E+03  0.25404440910E+04  0.23486879940E+04 0.  0.
        3    1    3    3  502    0  0.84731573377E+03 -0.64037761313E+03 -0.10260916865E+04  0.14767842088E+04  0.10100000352E+00 0. -1.
       -3    1    3    3    0  502 -0.84731573377E+03  0.64037761313E+03  0.57835064434E+02  0.10636598822E+04  0.10100000352E+00 0.  1.
</event>
<event>
 5   0  0.6306919E-05  0.2215270E+04  0.7818609E-02  0.8512099E-01
       -2   -1    0    0    0  501  0.00000000000E+00  0.00000000000E+00  0.57724222826E+03  0.57724222827E+03  0.25500000920E-02 0. -1.
        2   -1    0    0  501    0  0.00000000000E+00  0.00000000000E+00 -0.21253735899E+04  0.21253735899E+04  0.25500000920E-02 0.  1.
    10030    2    1    2    0    0  0.00000000000E+00  0.00000000000E+00 -0.15481313616E+04  0.27026158182E+04  0.22152700846E+04 0.  0.
        3    1    3    3  502    0 -0.10690419720E+04 -0.27551074870E+03 -0.66427663243E+03  0.12884177758E+04  0.10100000352E+00 0.  1.
       -3    1    3    3    0  502  0.10690419720E+04  0.27551074870E+03 -0.88385472920E+03  0.14141980423E+04  0.10100000352E+00 0. -1.
</event>
<event>
 5   0  0.6293013E-05  0.1988670E+04  0.7818609E-02  0.8611936E-01
        2   -1    0    0  501    0  0.00000000000E+00  0.00000000000E+00  0.75593987593E+03  0.75593987594E+03  0.25500000920E-02 0.  1.
       -2   -1    0    0    0  501  0.00000000000E+00  0.00000000000E+00 -0.13079109128E+04  0.13079109128E+04  0.25500000920E-02 0. -1.
    10030    2    1    2    0    0  0.00000000000E+00  0.00000000000E+00 -0.55197103688E+03  0.20638507887E+04  0.19886699205E+04 0.  0.
        1    1    3    3  502    0  0.11363312312E+03  0.94316012531E+03 -0.58075129671E+03  0.11134341369E+04  0.50400001928E-02 0. -1.
       -1    1    3    3    0  502 -0.11363312312E+03 -0.94316012531E+03  0.28780259831E+02  0.95041665181E+03  0.50400001928E-02 0.  1.
</event>
<event>
 5   0  0.2245375E-05  0.2220950E+04  0.7818609E-02  0.8509759E-01
        3   -1    0    0  501    0  0.00000000000E+00  0.00000000000E+00  0.13750116309E+04  0.13750116346E+04  0.10100000352E+00 0.  1.
       -3   -1    0    0    0  501  0.00000000000E+00  0.00000000000E+00 -0.89683203664E+03  0.89683204233E+03  0.10100000352E+00 0. -1.
    10030    2    1    2    0    0  0.00000000000E+00  0.00000000000E+00  0.47817959428E+03  0.22718436770E+04  0.22209497897E+04 0.  0.
        1    1    3    3  502    0 -0.70574267725E+01  0.23479700457E+03  0.13493064842E+04  0.13696011934E+04  0.50400001928E-02 0.  1.
       -1    1    3    3    0  502  0.70574267725E+01 -0.23479700457E+03 -0.87112688996E+03  0.90224248352E+03  0.50400001928E-02 0. -1.
</event>
<event>
 5   0  0.6628798E-05  0.2135842E+04  0.7818609E-02  0.8545617E-01
       -2   -1    0    0    0  501  0.00000000000E+00  0.00000000000E+00  0.75602022415E+03  0.75602022415E+03  0.25500000920E-02 0.  1.
        2   -1    0    0  501    0  0.00000000000E+00  0.00000000000E+00 -0.15084990380E+04  0.15084990380E+04  0.25500000920E-02 0. -1.
    10030    2    1    2    0    0  0.00000000000E+00  0.00000000000E+00 -0.75247881381E+03  0.22645192621E+04  0.21358424856E+04 0.  0.
        4    1    3    3  502    0 -0.87753438808E+03 -0.25441223713E+03 -0.96241469900E+03  0.13270402610E+04  0.12699999809E+01 0.  1.
       -4    1    3    3    0  502  0.87753438808E+03  0.25441223713E+03  0.20993588519E+03  0.93747900107E+03  0.12699999809E+01 0. -1.
</event>
<event>
 5   0  0.2929471E-05  0.2202764E+04  0.7818609E-02  0.8517279E-01
       -1   -1    0    0    0  501  0.00000000000E+00  0.00000000000E+00  0.99391405490E+03  0.99391405491E+03  0.50400001928E-02 0. -1.
        1   -1    0    0  501    0  0.00000000000E+00  0.00000000000E+00 -0.12204698911E+04  0.12204698911E+04  0.50400001928E-02 0.  1.
    10030    2    1    2    0    0  0.00000000000E+00  0.00000000000E+00 -0.22655583616E+03  0.22143839460E+04  0.22027638805E+04 0.  0.
        2    1    3    3  502    0  0.92099470611E+03 -0.39161306120E+03  0.34898490376E+03  0.10598974014E+04  0.25500000920E-02 0. -1.
       -2    1    3    3    0  502 -0.92099470611E+03  0.39161306120E+03 -0.57554073992E+03  0.11544865446E+04  0.25500000920E-02 0.  1.
</event>
<event>
 5   0  0.6445740E-05  0.2182432E+04  0.7818609E-02  0.8525776E-01
        2   -1    0    0  501    0  0.00000000000E+00  0.00000000000E+00  0.14523929157E+04  0.14523929157E+04  0.25500000920E-02 0.  1.
       -2   -1    0    0    0  501  0.00000000000E+00  0.00000000000E+00 -0.81985541489E+03  0.81985541489E+03  0.25500000920E-02 0. -1.
    10030    2    1    2    0    0  0.00000000000E+00  0.00000000000E+00  0.63253750083E+03  0.22722483306E+04  0.21824318514E+04 0.  0.
        5    1    3    3  502    0 -0.27239049338E+03  0.10736355097E+03  0.14107228098E+04  0.14407929932E+04  0.46999998093E+01 0.  1.
       -5    1    3    3    0  502  0.27239049338E+03 -0.10736355097E+03 -0.77818530902E+03  0.83145533743E+03  0.46999998093E+01 0. -1.
</event>
<event>
 5   0  0.6445740E-05  0.2178679E+04  0.7818609E-02  0.8527355E-01
       -2   -1    0    0    0  501  0.00000000000E+00  0.00000000000E+00  0.86105332385E+03  0.86105332385E+03  0.25500000920E-02 0.  1.
        2   -1    0    0  501    0  0.00000000000E+00  0.00000000000E+00 -0.13781499253E+04  0.13781499254E+04  0.25500000920E-02 0. -1.
    10030    2    1    2    0    0  0.00000000000E+00  0.00000000000E+00 -0.51709660150E+03  0.22392032492E+04  0.21786790255E+04 0.  0.
        5    1    3    3  502    0 -0.37346707856E+03  0.10215550545E+04 -0.32009591258E+03  0.11338147430E+04  0.46999998093E+01 0.  1.
       -5    1    3    3    0  502  0.37346707856E+03 -0.10215550545E+04 -0.19700068892E+03  0.11053885062E+04  0.46999998093E+01 0. -1.
</event>
<event>
 5   0  0.6306919E-05  0.2193744E+04  0.7818609E-02  0.8521036E-01
       -2   -1    0    0    0  501  0.00000000000E+00  0.00000000000E+00  0.11912611581E+04  0.11912611581E+04  0.25500000920E-02 0.  1.
        2   -1    0    0  501    0  0.00000000000E+00  0.00000000000E+00 -0.10099620968E+04  0.10099620968E+04  0.25500000920E-02 0. -1.
    10030    2    1    2    0    0  0.00000000000E+00  0.00000000000E+00  0.18129906129E+03  0.22012232549E+04  0.21937443945E+04 0.  0.
        3    1    3    3  502    0 -0.46378495558E+03 -0.23733472544E+03  0.10591885679E+04  0.11803832807E+04  0.10100000352E+00 0.  1.
       -3    1    3    3    0  502  0.46378495558E+03  0.23733472544E+03 -0.87788950660E+03  0.10208399742E+04  0.10100000352E+00 0. -1.
</event>
<event>
 5   0  0.6445740E-05  0.2211821E+04  0.7818609E-02  0.8513524E-01
       -2   -1    0    0    0  501  0.00000000000E+00  0.00000000000E+00  0.58764644271E+03  0.58764644271E+03  0.25500000920E-02 0.  1.
        2   -1    0    0  501    0  0.00000000000E+00  0.00000000000E+00 -0.20812479307E+04  0.20812479307E+04  0.25500000920E-02 0. -1.
    10030    2    1    2    0    0  0.00000000000E+00  0.00000000000E+00 -0.14936014880E+04  0.26688943734E+04  0.22118209176E+04 0.  0.
        5    1    3    3  502    0 -0.91044099418E+02  0.87531933005E+03 -0.15549348133E+04  0.17867057176E+04  0.46999998093E+01 0. -1.
       -5    1    3    3    0  502  0.91044099418E+02 -0.87531933005E+03  0.61333325367E+02  0.88218865579E+03  0.46999998093E+01 0.  1.
</event>
<event>
 5   0  0.6414768E-05  0.2215511E+04  0.7818609E-02  0.8512000E-01
       -2   -1    0    0    0  501  0.00000000000E+00  0.00000000000E+00  0.81445421199E+03  0.81445421199E+03  0.25500000920E-02 0.  1.
        2   -1    0    0  501    0  0.00000000000E+00  0.00000000000E+00 -0.15066805267E+04  0.15066805267E+04  0.25500000920E-02 0. -1.
    10030    2    1    2    0    0  0.00000000000E+00  0.00000000000E+00 -0.69222631471E+03  0.23211347387E+04  0.22155110481E+04 0.  0.
        2    1    3    3  502    0  0.71419718774E+03  0.80797223553E+03 -0.80603495563E+02  0.10813850747E+04  0.25500000920E-02 0.  1.
       -2    1    3    3    0  502 -0.71419718774E+03 -0.80797223553E+03 -0.61162281915E+03  0.12397496640E+04  0.25500000920E-02 0. -1.
</event>
<event>
 5   0  0.6445740E-05  0.2228466E+04  0.7818609E-02  0.8506673E-01
        2   -1    0    0  501    0  0.00000000000E+00  0.00000000000E+00  0.10439959242E+04  0.10439959242E+04  0.25500000920E-02 0. -1.
       -2   -1    0    0    0  501  0.00000000000E+00  0.00000000000E+00 -0.11891950785E+04  0.11891950785E+04  0.25500000920E-02 0.  1.
    10030    2    1    2    0    0  0.00000000000E+00  0.00000000000E+00 -0.14519915429E+03  0.22331910027E+04  0.22284656740E+04 0.  0.
        5    1    3    3  502    0  0.82209098289E+03 -0.59899239467E+03 -0.52839062745E+03  0.11462304385E+04  0.46999998093E+01 0.  1.
       -5    1    3    3    0  502 -0.82209098289E+03  0.59899239467E+03  0.38319147316E+03  0.10869605642E+04  0.46999998093E+01 0. -1.
</event>
<event>
 5   0  0.6414768E-05  0.2183632E+04  0.7818609E-02  0.8525272E-01
       -2   -1    0    0    0  501  0.00000000000E+00  0.00000000000E+00  0.59033743935E+03  0.59033743935E+03  0.25500000920E-02 0. -1.
        2   -1    0    0  501    0  0.00000000000E+00  0.00000000000E+00 -0.20192900885E+04  0.20192900885E+04  0.25500000920E-02 0.  1.
    10030    2    1    2    0    0  0.00000000000E+00  0.00000000000E+00 -0.14289526491E+04  0.26096275278E+04  0.21836323318E+04 0.  0.
        2    1    3    3  502    0  0.10626925364E+04 -0.10853293163E+03 -0.98427921282E+03  0.14525496181E+04  0.25500000920E-02 0. -1.
       -2    1    3    3    0  502 -0.10626925364E+04  0.10853293163E+03 -0.44467343631E+03  0.11570779097E+04  0.25500000920E-02 0.  1.
</event>
<event>
 5   0  0.6628798E-05  0.2227555E+04  0.7818609E-02  0.8507046E-01
       -2   -1    0    0    0  501  0.00000000000E+00  0.00000000000E+00  0.46552423656E+03  0.46552423657E+03  0.25500000920E-02 0.  1.
        2   -1    0    0  501    0  0.00000000000E+00  0.00000000000E+00 -0.26647379994E+04  0.26647379994E+04  0.25500000920E-02 0. -1.
    10030    2    1    2    0    0  0.00000000000E+00  0.00000000000E+00 -0.21992137629E+04  0.31302622360E+04  0.22275548234E+04 0.  0.
        4    1    3    3  502    0 -0.46550262034E+03  0.10035994531E+04 -0.12806271957E+04  0.16923097172E+04  0.12699999809E+01 0. -1.
       -4    1    3    3    0  502  0.46550262034E+03 -0.10035994531E+04 -0.91858656720E+03  0.14379525188E+04  0.12699999809E+01 0.  1.
</event>
<event>
 5   0  0.6293013E-05  0.2200380E+04  0.7818609E-02  0.8518270E-01
       -2   -1    0    0    0  501  0.00000000000E+00  0.00000000000E+00  0.41765512835E+03  0.41765512836E+03  0.25500000920E-02 0. -1.
        2   -1    0    0  501    0  0.00000000000E+00  0.00000000000E+00 -0.28981284292E+04  0.28981284292E+04  0.25500000920E-02 0.  1.
    10030    2    1    2    0    0  0.00000000000E+00  0.00000000000E+00 -0.24804733009E+04  0.33157835576E+04  0.22003801500E+04 0.  0.
        1    1    3    3  502    0  0.99044850376E+02  0.36868827684E+03  0.31464538892E+03  0.49471471441E+03  0.50400001928E-02 0. -1.
       -1    1    3    3    0  502 -0.99044850376E+02 -0.36868827684E+03 -0.27951186898E+04  0.28210688432E+04  0.50400001928E-02 0.  1.
</event>
<event>
 5   0  0.2908031E-05  0.2169025E+04  0.7818609E-02  0.8531432E-01
        1   -1    0    0  501    0  0.00000000000E+00  0.00000000000E+00  0.24125732881E+04  0.24125732881E+04  0.50400001928E-02 0. -1.
       -1   -1    0    0    0  501  0.00000000000E+00  0.00000000000E+00 -0.48751584083E+03  0.48751584086E+03  0.50400001928E-02 0.  1.
    10030    2    1    2    0    0  0.00000000000E+00  0.00000000000E+00  0.19250574473E+04  0.29000891290E+04  0.21690253066E+04 0.  0.
        1    1    3    3  502    0  0.55115174956E+03 -0.38335062689E+03  0.21013301348E+04  0.22059724136E+04  0.50400001928E-02 0. -1.
       -1    1    3    3    0  502 -0.55115174956E+03  0.38335062689E+03 -0.17627268751E+03  0.69411671537E+03  0.50400001928E-02 0.  1.
</event>
<event>
 5   0  0.2910318E-05  0.2199522E+04  0.7818609E-02  0.8518627E-01
       -1   -1    0    0    0  501  0.00000000000E+00  0.00000000000E+00  0.77250949004E+03  0.77250949005E+03  0.50400001928E-02 0.  1.
        1   -1    0    0  501    0  0.00000000000E+00  0.00000000000E+00 -0.15656430424E+04  0.15656430424E+04  0.50400001928E-02 0. -1.
    10030    2    1    2    0    0  0.00000000000E+00  0.00000000000E+00 -0.79313355236E+03  0.23381525325E+04  0.21995218647E+04 0.  0.
        5    1    3    3  502    0 -0.76536247676E+03  0.78728040668E+03 -0.33050614062E+03  0.11466675885E+04  0.46999998093E+01 0.  1.
       -5    1    3    3    0  502  0.76536247676E+03 -0.78728040668E+03 -0.46262741175E+03  0.11914849440E+04  0.46999998093E+01 0. -1.
</event>
<event>
 5   0  0.2929471E-05  0.2325184E+04  0.7818609E-02  0.8468057E-01
       -1   -1    0    0    0  501  0.00000000000E+00  0.00000000000E+00  0.88588116768E+03  0.88588116769E+03  0.50400001928E-02 0.  1.
        1   -1    0    0  501    0  0.00000000000E+00  0.00000000000E+00 -0.15257348213E+04  0.15257348213E+04  0.50400001928E-02 0. -1.
    10030    2    1    2    0    0  0.00000000000E+00  0.00000000000E+00 -0.63985365362E+03  0.24116159890E+04  0.23251836444E+04 0.  0.
        2    1    3    3  502    0  0.30817607594E+03 -0.30344436195E+02 -0.14821737872E+04  0.15141771409E+04  0.25500000920E-02 0. -1.
       -2    1    3    3    0  502 -0.30817607594E+03  0.30344436195E+02  0.84232013359E+03  0.89743884808E+03  0.25500000920E-02 0.  1.
</event>
<event>
 5   0  0.2910318E-05  0.2224216E+04  0.7818609E-02  0.8508416E-01
       -1   -1    0    0    0  501  0.00000000000E+00  0.00000000000E+00  0.10289056962E+04  0.10289056962E+04  0.50400001928E-02 0. -1.
        1   -1    0    0  501    0  0.00000000000E+00  0.00000000000E+00 -0.12020381594E+04  0.12020381594E+04  0.50400001928E-02 0.  1.
    10030    2    1    2    0    0  0.00000000000E+00  0.00000000000E+00 -0.17313246325E+03  0.22309438556E+04  0.22242157352E+04 0.  0.
        5    1    3    3  502    0 -0.95736297317E+03  0.13911574336E+03  0.46360439266E+03  0.10727759204E+04  0.46999998093E+01 0. -1.
       -5    1    3    3    0  502  0.95736297317E+03 -0.13911574336E+03 -0.63673685591E+03  0.11581679352E+04  0.46999998093E+01 0.  1.
</event>
<event>
 5   0  0.6293013E-05  0.2194663E+04  0.7818609E-02  0.8520653E-01
       -2   -1    0    0    0  501  0.00000000000E+00  0.00000000000E+00  0.12080762371E+04  0.12080762371E+04  0.25500000920E-02 0.  1.
        2   -1    0    0  501    0  0.00000000000E+00  0.00000000000E+00 -0.99673911288E+03  0.99673911288E+03  0.25500000920E-02 0. -1.
    10030    2    1    2    0    0  0.00000000000E+00  0.00000000000E+00  0.21133712418E+03  0.22048153499E+04  0.21946633790E+04 0.  0.
        1    1    3    3  502    0  0.15828455838E+03 -0.39050325452E+03  0.11235632100E+04  0.11999754498E+04  0.50400001928E-02 0.  1.
       -1    1    3    3    0  502 -0.15828455838E+03  0.39050325452E+03 -0.91222608583E+03  0.10048399001E+04  0.50400001928E-02 0. -1.
</event>
<event>
 5   0  0.6628798E-05  0.2178867E+04  0.7818609E-02  0.8527276E-01
       -2   -1    0    0    0  501  0.00000000000E+00  0.00000000000E+00  0.91921285642E+03  0.91921285642E+03  0.25500000920E-02 0. -1.
        2   -1    0    0  501    0  0.00000000000E+00  0.00000000000E+00 -0.12911754985E+04  0.12911754985E+04  0.25500000920E-02 0.  1.
    10030    2    1    2    0    0  0.00000000000E+00  0.00000000000E+00 -0.37196264207E+03  0.22103883549E+04  0.21788667863E+04 0.  0.
        4    1    3    3  502    0  0.19884194494E+03 -0.21335509232E+03  0.87887318447E+03  0.92600118886E+03  0.12699999809E+01 0. -1.
       -4    1    3    3    0  502 -0.19884194494E+03  0.21335509232E+03 -0.12508358265E+04  0.12843871661E+04  0.12699999809E+01 0.  1.
</event>
<event>
 5   0  0.2753631E-05  0.2184712E+04  0.7818609E-02  0.8524818E-01
        1   -1    0    0  501    0  0.00000000000E+00  0.00000000000E+00  0.12022465509E+04  0.12022465509E+04  0.50400001928E-02 0. -1.
       -1   -1    0    0    0  501  0.00000000000E+00  0.00000000000E+00 -0.99251033237E+03  0.99251033238E+03  0.50400001928E-02 0.  1.
    10030    2    1    2    0    0  0.00000000000E+00  0.00000000000E+00  0.20973621853E+03  0.21947568833E+04  0.21847124514E+04 0.  0.
        4    1    3    3  502    0  0.12923344124E+03  0.35998766864E+03 -0.92304099789E+03  0.99914898818E+03  0.12699999809E+01 0.  1.
       -4    1    3    3    0  502 -0.12923344124E+03 -0.35998766864E+03  0.11327772164E+04  0.11956078951E+04  0.12699999809E+01 0. -1.
</event>
<event>
 5   0  0.2929471E-05  0.2179133E+04  0.7818609E-02  0.8527164E-01
        1   -1    0    0  501    0  0.00000000000E+00  0.00000000000E+00  0.15023350349E+04  0.15023350349E+04  0.50400001928E-02 0.  1.
       -1   -1    0    0    0  501  0.00000000000E+00  0.00000000000E+00 -0.79020657701E+03  0.79020657703E+03  0.50400001928E-02 0. -1.
    10030    2    1    2    0    0  0.00000000000E+00  0.00000000000E+00  0.71212845785E+03  0.22925416119E+04  0.21791328784E+04 0.  0.
        2    1    3    3  502    0 -0.16451611715E+03 -0.28872928497E+02  0.14887857650E+04  0.14981262473E+04  0.25500000920E-02 0.  1.
       -2    1    3    3    0  502  0.16451611715E+03  0.28872928497E+02 -0.77665730713E+03  0.79441536461E+03  0.25500000920E-02 0. -1.
</event>
<event>
 5   0  0.2929471E-05  0.1995966E+04  0.7818609E-02  0.8608509E-01
       -1   -1    0    0    0  501  0.00000000000E+00  0.00000000000E+00  0.13325330875E+04  0.13325330875E+04  0.50400001928E-02 0. -1.
        1   -1    0    0  501    0  0.00000000000E+00  0.00000000000E+00 -0.74742646893E+03  0.74742646894E+03  0.50400001928E-02 0.  1.
    10030    2    1    2    0    0  0.00000000000E+00  0.00000000000E+00  0.58510661855E+03  0.20799595564E+04  0.19959664329E+04 0.  0.
        2    1    3    3  502    0  0.43740410189E+03 -0.37340614439E+03 -0.55737638282E+03  0.80088883695E+03  0.25500000920E-02 0.  1.
       -2    1    3    3    0  502 -0.43740410189E+03  0.37340614439E+03  0.11424830014E+04  0.12790707195E+04  0.25500000920E-02 0. -1.
</event>
<event>
 5   0  0.6414768E-05  0.2410937E+04  0.7818609E-02  0.8435420E-01
        2   -1    0    0  501    0  0.00000000000E+00  0.00000000000E+00  0.21801429119E+04  0.21801429119E+04  0.25500000920E-02 0.  1.
       -2   -1    0    0    0  501  0.00000000000E+00  0.00000000000E+00 -0.66654074507E+03  0.66654074507E+03  0.25500000920E-02 0. -1.
    10030    2    1    2    0    0  0.00000000000E+00  0.00000000000E+00  0.15136021668E+04  0.28466836570E+04  0.24109368145E+04 0.  0.
        2    1    3    3  502    0  0.49221604347E+03  0.14056926316E+02 -0.54237505863E+03  0.73256053324E+03  0.25500000920E-02 0. -1.
       -2    1    3    3    0  502 -0.49221604347E+03 -0.14056926316E+02  0.20559772255E+04  0.21141231237E+04  0.25500000920E-02 0.  1.
</event>
<event>
 5   0  0.2908031E-05  0.2221066E+04  0.7818609E-02  0.8509711E-01
       -1   -1    0    0    0  501  0.00000000000E+00  0.00000000000E+00  0.79772452827E+03  0.79772452829E+03  0.50400001928E-02 0. -1.
        1   -1    0    0  501    0  0.00000000000E+00  0.00000000000E+00 -0.15460011616E+04  0.15460011617E+04  0.50400001928E-02 0.  1.
    10030    2    1    2    0    0  0.00000000000E+00  0.00000000000E+00 -0.74827663337E+03  0.23437256899E+04  0.22210655528E+04 0.  0.
        1    1    3    3  502    0 -0.70934150491E+03  0.56798941138E+03  0.29947746072E+03  0.95679887726E+03  0.50400001928E-02 0. -1.
       -1    1    3    3    0  502  0.70934150491E+03 -0.56798941138E+03 -0.10477540941E+04  0.13869268127E+04  0.50400001928E-02 0.  1.
</event>
<event>
 5   0  0.2753631E-05  0.2226887E+04  0.7818609E-02  0.8507320E-01
       -1   -1    0    0    0  501  0.00000000000E+00  0.00000000000E+00  0.11050090230E+04  0.11050090230E+04  0.50400001928E-02 0.  1.
        1   -1    0    0  501    0  0.00000000000E+00  0.00000000000E+00 -0.11219423871E+04  0.11219423872E+04  0.50400001928E-02 0. -1.
    10030    2    1    2    0    0  0.00000000000E+00  0.00000000000E+00 -0.16933364172E+02  0.22269514101E+04  0.22268870300E+04 0.  0.
        4    1    3    3  502    0  0.41664794106E+03  0.50715655853E+03  0.89097666877E+03  0.11066364890E+04  0.12699999809E+01 0.  1.
       -4    1    3    3    0  502 -0.41664794106E+03 -0.50715655853E+03 -0.90791003295E+03  0.11203149211E+04  0.12699999809E+01 0. -1.
</event>
<event>
 5   0  0.2820239E-05  0.2184935E+04  0.7818609E-02  0.8524725E-01
        1   -1    0    0  501    0  0.00000000000E+00  0.00000000000E+00  0.11805508123E+04  0.11805508124E+04  0.50400001928E-02 0. -1.
       -1   -1    0    0    0  501  0.00000000000E+00  0.00000000000E+00 -0.10109563906E+04  0.10109563906E+04  0.50400001928E-02 0.  1.
    10030    2    1    2    0    0  0.00000000000E+00  0.00000000000E+00  0.16959442172E+03  0.21915072030E+04  0.21849351370E+04 0.  0.
        3    1    3    3  502    0  0.44230762421E+03 -0.76269997095E+03 -0.56223081504E+03  0.10456819687E+04  0.10100000352E+00 0.  1.
       -3    1    3    3    0  502 -0.44230762421E+03  0.76269997095E+03  0.73182523677E+03  0.11458252343E+04  0.10100000352E+00 0. -1.
</event>
<event>
 5   0  0.2753631E-05  0.2177847E+04  0.7818609E-02  0.8527705E-01
       -1   -1    0    0    0  501  0.00000000000E+00  0.00000000000E+00  0.63731842157E+03  0.63731842159E+03  0.50400001928E-02 0.  1.
        1   -1    0    0  501    0  0.00000000000E+00  0.00000000000E+00 -0.18605374913E+04  0.18605374913E+04  0.50400001928E-02 0. -1.
    10030    2    1    2    0    0  0.00000000000E+00  0.00000000000E+00 -0.12232190697E+04  0.24978559129E+04  0.21778473934E+04 0.  0.
        4    1    3    3  502    0  0.38478261797E+03 -0.95593973111E+03 -0.20793498294E+03  0.10512454531E+04  0.12699999809E+01 0.  1.
       -4    1    3    3    0  502 -0.38478261797E+03  0.95593973111E+03 -0.10152840868E+04  0.14466104598E+04  0.12699999809E+01 0. -1.
</event>
<event>
 5   0  0.6628798E-05  0.2183375E+04  0.7818609E-02  0.8525380E-01
        2   -1    0    0  501    0  0.00000000000E+00  0.00000000000E+00  0.99019946843E+03  0.99019946843E+03  0.25500000920E-02 0. -1.
       -2   -1    0    0    0  501  0.00000000000E+00  0.00000000000E+00 -0.12035771059E+04  0.12035771059E+04  0.25500000920E-02 0.  1.
    10030    2    1    2    0    0  0.00000000000E+00  0.00000000000E+00 -0.21337763747E+03  0.21937765743E+04  0.21833748285E+04 0.  0.
        4    1    3    3  502    0  0.28401343074E+03  0.19631524099E+03  0.93389779122E+03  0.99567565001E+03  0.12699999809E+01 0. -1.
       -4    1    3    3    0  502 -0.28401343074E+03 -0.19631524099E+03 -0.11472754287E+04  0.11981009243E+04  0.12699999809E+01 0.  1.
</event>
<event>
 5   0  0.6414768E-05  0.2133805E+04  0.7818609E-02  0.8546497E-01
        2   -1    0    0  501    0  0.00000000000E+00  0.00000000000E+00  0.15719212066E+04  0.15719212066E+04  0.25500000920E-02 0.  1.
       -2   -1    0    0    0  501  0.00000000000E+00  0.00000000000E+00 -0.72413325867E+03  0.72413325868E+03  0.25500000920E-02 0. -1.
    10030    2    1    2    0    0  0.00000000000E+00  0.00000000000E+00  0.84778794791E+03  0.22960544653E+04  0.21338045137E+04 0.  0.
        2    1    3    3  502    0 -0.18967425172E+03  0.37355460151E+02  0.15529180496E+04  0.15649045405E+04  0.25500000920E-02 0.  1.
       -2    1    3    3    0  502  0.18967425172E+03 -0.37355460151E+02 -0.70513010168E+03  0.73114992475E+03  0.25500000920E-02 0. -1.
</event>
<event>
 5   0  0.6445740E-05  0.2196492E+04  0.7818609E-02  0.8519889E-01
       -2   -1    0    0    0  501  0.00000000000E+00  0.00000000000E+00  0.76611049905E+03  0.76611049906E+03  0.25500000920E-02 0. -1.
        2   -1    0    0  501    0  0.00000000000E+00  0.00000000000E+00 -0.15743742720E+04  0.15743742720E+04  0.25500000920E-02 0.  1.
    10030    2    1    2    0    0  0.00000000000E+00  0.00000000000E+00 -0.80826377292E+03  0.23404847710E+04  0.21964923484E+04 0.  0.
        5    1    3    3  502    0 -0.86005956559E+03 -0.31788797529E+03  0.23994986016E+03  0.94781498542E+03  0.46999998093E+01 0. -1.
       -5    1    3    3    0  502  0.86005956559E+03  0.31788797529E+03 -0.10482136331E+04  0.13926697856E+04  0.46999998093E+01 0.  1.
</event>
<event>
 5   0  0.6306919E-05  0.2218293E+04  0.7818609E-02  0.8510853E-01
        2   -1    0    0  501    0  0.00000000000E+00  0.00000000000E+00  0.15524905366E+04  0.15524905366E+04  0.25500000920E-02 0.  1.
       -2   -1    0    0    0  501  0.00000000000E+00  0.00000000000E+00 -0.79240788289E+03  0.79240788289E+03  0.25500000920E-02 0. -1.
    10030    2    1    2    0    0  0.00000000000E+00  0.00000000000E+00  0.76008265367E+03  0.23448984194E+04  0.22182928024E+04 0.  0.
        3    1    3    3  502    0  0.54367950875E+03  0.54697212287E+03 -0.46259926517E+03  0.89931307216E+03  0.10100000352E+00 0. -1.
       -3    1    3    3    0  502 -0.54367950875E+03 -0.54697212287E+03  0.12226819188E+04  0.14455853473E+04  0.10100000352E+00 0.  1.
</event>
<event>
 5   0  0.6293013E-05  0.2207287E+04  0.7818609E-02  0.8515401E-01
        2   -1    0    0  501    0  0.00000000000E+00  0.00000000000E+00  0.24922309778E+04  0.24922309778E+04  0.25500000920E-02 0.  1.
       -2   -1    0    0    0  501  0.00000000000E+00  0.00000000000E+00 -0.48873016849E+03  0.48873016850E+03  0.25500000920E-02 0. -1.
    10030    2    1    2    0    0  0.00000000000E+00  0.00000000000E+00  0.20035008093E+04  0.29809611463E+04  0.22072865385E+04 0.  0.
        1    1    3    3  502    0 -0.19097729162E+03 -0.79228978872E+03 -0.32981133577E+01  0.81498853538E+03  0.50400001928E-02 0. -1.
       -1    1    3    3    0  502  0.19097729162E+03  0.79228978872E+03  0.20067989227E+04  0.21659726109E+04  0.50400001928E-02 0.  1.
</event>
<event>
 5   0  0.2820239E-05  0.2178366E+04  0.7818609E-02  0.8527487E-01
       -1   -1    0    0    0  501  0.00000000000E+00  0.00000000000E+00  0.10340841257E+04  0.10340841257E+04  0.50400001928E-02 0. -1.
        1   -1    0    0  501    0  0.00000000000E+00  0.00000000000E+00 -0.11472180022E+04  0.11472180022E+04  0.50400001928E-02 0.  1.
    10030    2    1    2    0    0  0.00000000000E+00  0.00000000000E+00 -0.11313387643E+03  0.21813021279E+04  0.21783662914E+04 0.  0.
        3    1    3    3  502    0 -0.69938791440E+03 -0.69358709336E+03  0.40893958025E+03  0.10665074315E+04  0.10100000352E+00 0. -1.
       -3    1    3    3    0  502  0.69938791440E+03  0.69358709336E+03 -0.52207345668E+03  0.11147946965E+04  0.10100000352E+00 0.  1.
</event>
<event>
 5   0  0.2820239E-05  0.2253578E+04  0.7818609E-02  0.8496453E-01
        1   -1    0    0  501    0  0.00000000000E+00  0.00000000000E+00  0.16557553201E+04  0.16557553201E+04  0.50400001928E-02 0.  1.
       -1   -1    0    0    0  501  0.00000000000E+00  0.00000000000E+00 -0.76681226742E+03  0.76681226744E+03  0.50400001928E-02 0. -1.
    10030    2    1    2    0    0  0.00000000000E+00  0.00000000000E+00  0.88894305272E+03  0.24225675876E+04  0.22535780362E+04 0.  0.
        3    1    3    3  502    0  0.10163224128E+04  0.43470903867E+03  0.20951786207E+03  0.11250693044E+04  0.10100000352E+00 0. -1.
       -3    1    3    3    0  502 -0.10163224128E+04 -0.43470903867E+03  0.67942519065E+03  0.12974982832E+04  0.10100000352E+00 0.  1.
</event>
<event>
 5   0  0.6445740E-05  0.2200188E+04  0.7818609E-02  0.8518350E-01
       -2   -1    0    0    0  501  0.00000000000E+00  0.00000000000E+00  0.23726347092E+04  0.23726347092E+04  0.25500000920E-02 0.  1.
        2   -1    0    0  501    0  0.00000000000E+00  0.00000000000E+00 -0.51006874022E+03  0.51006874022E+03  0.25500000920E-02 0. -1.
    10030    2    1    2    0    0  0.00000000000E+00  0.00000000000E+00  0.18625659690E+04  0.28827034494E+04  0.22001879894E+04 0.  0.
        5    1    3    3  502    0 -0.35585192339E+03 -0.22715285260E+03  0.22622604566E+04  0.23013199415E+04  0.46999998093E+01 0.  1.
       -5    1    3    3    0  502  0.35585192339E+03  0.22715285260E+03 -0.39969448761E+03  0.58138350789E+03  0.46999998093E+01 0. -1.
</event>
<event>
 5   0  0.2753631E-05  0.2178391E+04  0.7818609E-02  0.8527476E-01
       -1   -1    0    0    0  501  0.00000000000E+00  0.00000000000E+00  0.15702970146E+04  0.15702970146E+04  0.50400001928E-02 0.  1.
        1   -1    0    0  501    0  0.00000000000E+00  0.00000000000E+00 -0.75549221812E+03  0.75549221814E+03  0.50400001928E-02 0. -1.
    10030    2    1    2    0    0  0.00000000000E+00  0.00000000000E+00  0.81480479647E+03  0.23257892327E+04  0.21783913098E+04 0.  0.
        4    1    3    3  502    0  0.10493139782E+03  0.15146943922E+03 -0.73872942699E+03  0.76136480643E+03  0.12699999809E+01 0. -1.
       -4    1    3    3    0  502 -0.10493139782E+03 -0.15146943922E+03  0.15535342235E+04  0.15644244263E+04  0.12699999809E+01 0.  1.
</event>
<event>
 5   0  0.6293013E-05  0.2196449E+04  0.7818609E-02  0.8519907E-01
        2   -1    0    0  501    0  0.00000000000E+00  0.00000000000E+00  0.18791524972E+04  0.18791524972E+04  0.25500000920E-02 0. -1.
       -2   -1    0    0    0  501  0.00000000000E+00  0.00000000000E+00 -0.64183043680E+03  0.64183043680E+03  0.25500000920E-02 0.  1.
    10030    2    1    2    0    0  0.00000000000E+00  0.00000000000E+00  0.12373220604E+04  0.25209829340E+04  0.21964491964E+04 0.  0.
        1    1    3    3  502    0 -0.54201203752E+03  0.19939829068E+02  0.17147043966E+04  0.17984398276E+04  0.50400001928E-02 0. -1.
       -1    1    3    3    0  502  0.54201203752E+03 -0.19939829068E+02 -0.47738233626E+03  0.72254310639E+03  0.50400001928E-02 0.  1.
</event>
<event>
 5   0  0.6306919E-05  0.2210529E+04  0.7818609E-02  0.8514058E-01
        2   -1    0    0  501    0  0.00000000000E+00  0.00000000000E+00  0.18975698376E+04  0.18975698376E+04  0.25500000920E-02 0. -1.
       -2   -1    0    0    0  501  0.00000000000E+00  0.00000000000E+00 -0.64377580386E+03  0.64377580387E+03  0.25500000920E-02 0.  1.
    10030    2    1    2    0    0  0.00000000000E+00  0.00000000000E+00  0.12537940337E+04  0.25413456414E+04  0.22105289390E+04 0.  0.
        3    1    3    3  502    0 -0.97401252756E+03 -0.34292569436E+03  0.10799706423E+04  0.14942004665E+04  0.10100000352E+00 0. -1.
       -3    1    3    3    0  502  0.97401252756E+03  0.34292569436E+03  0.17382339135E+03  0.10471451749E+04  0.10100000352E+00 0.  1.
</event>
<event>
 5   0  0.2908031E-05  0.2237530E+04  0.7818609E-02  0.8502968E-01
        1   -1    0    0  501    0  0.00000000000E+00  0.00000000000E+00  0.12112963048E+04  0.12112963048E+04  0.50400001928E-02 0. -1.
       -1   -1    0    0    0  501  0.00000000000E+00  0.00000000000E+00 -0.10333025281E+04  0.10333025281E+04  0.50400001928E-02 0.  1.
    10030    2    1    2    0    0  0.00000000000E+00  0.00000000000E+00  0.17799377668E+03  0.22445988329E+04  0.22375303655E+04 0.  0.
        1    1    3    3  502    0 -0.98652466774E+03  0.52382138275E+03  0.25426572263E+02  0.11172583728E+04  0.50400001928E-02 0.  1.
       -1    1    3    3    0  502  0.98652466774E+03 -0.52382138275E+03  0.15256720442E+03  0.11273404601E+04  0.50400001928E-02 0. -1.
</event>
<event>
 5   0  0.6306919E-05  0.2152824E+04  0.7818609E-02  0.8538325E-01
        2   -1    0    0  501    0  0.00000000000E+00  0.00000000000E+00  0.17334507024E+04  0.17334507024E+04  0.25500000920E-02 0.  1.
       -2   -1    0    0    0  501  0.00000000000E+00  0.00000000000E+00 -0.66841377128E+03  0.66841377128E+03  0.25500000920E-02 0. -1.
    10030    2    1    2    0    0  0.00000000000E+00  0.00000000000E+00  0.10650369311E+04  0.24018644737E+04  0.21528235611E+04 0.  0.
        3    1    3    3  502    0 -0.10140321297E+03  0.43629512852E+03 -0.55949694574E+03  0.71670976920E+03  0.10100000352E+00 0. -1.
       -3    1    3    3    0  502  0.10140321297E+03 -0.43629512852E+03  0.16245338768E+04  0.16851547045E+04  0.10100000352E+00 0.  1.
</event>
<event>
 5   0  0.6293013E-05  0.2193141E+04  0.7818609E-02  0.8521288E-01
       -2   -1    0    0    0  501  0.00000000000E+00  0.00000000000E+00  0.59723621576E+03  0.59723621577E+03  0.25500000920E-02 0. -1.
        2   -1    0    0  501    0  0.00000000000E+00  0.00000000000E+00 -0.20133864844E+04  0.20133864844E+04  0.25500000920E-02 0.  1.
    10030    2    1    2    0    0  0.00000000000E+00  0.00000000000E+00 -0.14161502686E+04  0.26106227001E+04  0.21931414225E+04 0.  0.
        1    1    3    3  502    0  0.49684487107E+03 -0.51258728770E+03 -0.16989124163E+04  0.18427978597E+04  0.50400001928E-02 0.  1.
       -1    1    3    3    0  502 -0.49684487107E+03  0.51258728770E+03  0.28276214768E+03  0.76782484045E+03  0.50400001928E-02 0. -1.
</event>
<event>
 5   0  0.2929471E-05  0.2193476E+04  0.7818609E-02  0.8521149E-01
       -1   -1    0    0    0  501  0.00000000000E+00  0.00000000000E+00  0.10800109969E+04  0.10800109969E+04  0.50400001928E-02 0. -1.
        1   -1    0    0  501    0  0.00000000000E+00  0.00000000000E+00 -0.11137236271E+04  0.11137236271E+04  0.50400001928E-02 0.  1.
    10030    2    1    2    0    0  0.00000000000E+00  0.00000000000E+00 -0.33712630248E+02  0.21937346240E+04  0.21934755661E+04 0.  0.
        2    1    3    3  502    0 -0.76911231896E+03 -0.75430105617E+03 -0.22262298268E+03  0.11000294700E+04  0.25500000920E-02 0. -1.
       -2    1    3    3    0  502  0.76911231896E+03  0.75430105617E+03  0.18891035243E+03  0.10937051539E+04  0.25500000920E-02 0.  1.
</event>
<event>
 5   0  0.6628798E-05  0.2202230E+04  0.7818609E-02  0.8517500E-01
        2   -1    0    0  501    0  0.00000000000E+00  0.00000000000E+00  0.21046460515E+04  0.21046460515E+04  0.25500000920E-02 0. -1.
       -2   -1    0    0    0  501  0.00000000000E+00  0.00000000000E+00 -0.57608475130E+03  0.57608475131E+03  0.25500000920E-02 0.  1.
    10030    2    1    2    0    0  0.00000000000E+00  0.00000000000E+00  0.15285613002E+04  0.26807308028E+04  0.22022302306E+04 0.  0.
        4    1    3    3  502    0 -0.18979204290E+03  0.84791772109E+03  0.15876042446E+04  0.18098271552E+04  0.12699999809E+01 0. -1.
       -4    1    3    3    0  502  0.18979204290E+03 -0.84791772109E+03 -0.59042944384E+02  0.87090364764E+03  0.12699999809E+01 0.  1.
</event>
<event>
 5   0  0.6414768E-05  0.2190633E+04  0.7818609E-02  0.8522337E-01
       -2   -1    0    0    0  501  0.00000000000E+00  0.00000000000E+00  0.69950587986E+03  0.69950587987E+03  0.25500000920E-02 0.  1.
        2   -1    0    0  501    0  0.00000000000E+00  0.00000000000E+00 -0.17150945751E+04  0.17150945751E+04  0.25500000920E-02 0. -1.
    10030    2    1    2    0    0  0.00000000000E+00  0.00000000000E+00 -0.10155886952E+04  0.24146004549E+04  0.21906334607E+04 0.  0.
        2    1    3    3  502    0  0.52544958807E+03 -0.71951551978E+03  0.19446121936E+03  0.91192928380E+03  0.25500000920E-02 0.  1.
       -2    1    3    3    0  502 -0.52544958807E+03  0.71951551978E+03 -0.12100499146E+04  0.15026711711E+04  0.25500000920E-02 0. -1.
</event>
<event>
 5   0  0.2820239E-05  0.2208319E+04  0.7818609E-02  0.8514973E-01
        1   -1    0    0  501    0  0.00000000000E+00  0.00000000000E+00  0.15752924292E+04  0.15752924292E+04  0.50400001928E-02 0. -1.
       -1   -1    0    0    0  501  0.00000000000E+00  0.00000000000E+00 -0.77393166862E+03  0.77393166863E+03  0.50400001928E-02 0.  1.
    10030    2    1    2    0    0  0.00000000000E+00  0.00000000000E+00  0.80136076054E+03  0.23492240978E+04  0.22083194500E+04 0.  0.
        3    1    3    3  502    0  0.51849584693E+03 -0.70071474835E+03  0.11216629401E+04  0.14205516053E+04  0.10100000352E+00 0. -1.
       -3    1    3    3    0  502 -0.51849584693E+03  0.70071474835E+03 -0.32030217961E+03  0.92867249249E+03  0.10100000352E+00 0.  1.
</event>
<event>
 5   0  0.2753631E-05  0.2193410E+04  0.7818609E-02  0.8521176E-01
        1   -1    0    0  501    0  0.00000000000E+00  0.00000000000E+00  0.26543808672E+04  0.26543808672E+04  0.50400001928E-02 0.  1.
       -1   -1    0    0    0  501  0.00000000000E+00  0.00000000000E+00 -0.45312328912E+03  0.45312328915E+03  0.50400001928E-02 0. -1.
    10030    2    1    2    0    0  0.00000000000E+00  0.00000000000E+00  0.22012575781E+04  0.31075041563E+04  0.21934099381E+04 0.  0.
        4    1    3    3  502    0 -0.36040156477E+03 -0.61647875108E+03 -0.78615103632E+02  0.71841303291E+03  0.12699999809E+01 0. -1.
       -4    1    3    3    0  502  0.36040156477E+03  0.61647875108E+03  0.22798726817E+04  0.23890911234E+04  0.12699999809E+01 0.  1.
</event>
<event>
 5   0  0.2910318E-05  0.2245365E+04  0.7818609E-02  0.8499780E-01
        1   -1    0    0  501    0  0.00000000000E+00  0.00000000000E+00  0.10441890894E+04  0.10441890894E+04  0.50400001928E-02 0.  1.
       -1   -1    0    0    0  501  0.00000000000E+00  0.00000000000E+00 -0.12070759358E+04  0.12070759358E+04  0.50400001928E-02 0. -1.
    10030    2    1    2    0    0  0.00000000000E+00  0.00000000000E+00 -0.16288684638E+03  0.22512650252E+04  0.22453645782E+04 0.  0.
        5    1    3    3  502    0 -0.10910333359E+04 -0.56912793159E+02 -0.34058077940E+03  0.11443820007E+04  0.46999998093E+01 0.  1.
       -5    1    3    3    0  502  0.10910333359E+04  0.56912793159E+02  0.17769393302E+03  0.11068830245E+04  0.46999998093E+01 0. -1.
</event>
<event>
 5   0  0.2753631E-05  0.2210672E+04  0.7818609E-02  0.8513999E-01
       -1   -1    0    0    0  501  0.00000000000E+00  0.00000000000E+00  0.84756657241E+03  0.84756657242E+03  0.50400001928E-02 0.  1.
        1   -1    0    0  501    0  0.00000000000E+00  0.00000000000E+00 -0.14415010100E+04  0.14415010100E+04  0.50400001928E-02 0. -1.
    10030    2    1    2    0    0  0.00000000000E+00  0.00000000000E+00 -0.59393443761E+03  0.22890675825E+04  0.22106723595E+04 0.  0.
        4    1    3    3  502    0  0.77776177160E+03  0.49333889488E+03  0.33582625169E+03  0.98034561395E+03  0.12699999809E+01 0.  1.
       -4    1    3    3    0  502 -0.77776177160E+03 -0.49333889488E+03 -0.92976068931E+03  0.13087219685E+04  0.12699999809E+01 0. -1.
</event>
<event>
 5   0  0.2908031E-05  0.2200828E+04  0.7818609E-02  0.8518084E-01
        1   -1    0    0  501    0  0.00000000000E+00  0.00000000000E+00  0.84782976762E+03  0.84782976764E+03  0.50400001928E-02 0.  1.
       -1   -1    0    0    0  501  0.00000000000E+00  0.00000000000E+00 -0.14282474799E+04  0.14282474799E+04  0.50400001928E-02 0. -1.
    10030    2    1    2    0    0  0.00000000000E+00  0.00000000000E+00 -0.58041771229E+03  0.22760772476E+04  0.22008277797E+04 0.  0.
        1    1    3    3  502    0 -0.22041997842E+03 -0.96338361257E+03  0.21029896194E+03  0.10104051689E+04  0.50400001928E-02 0.  1.
       -1    1    3    3    0  502  0.22041997842E+03  0.96338361257E+03 -0.79071667423E+03  0.12656720787E+04  0.50400001928E-02 0. -1.
</event>
<event>
 5   0  0.6445740E-05  0.2203529E+04  0.7818609E-02  0.8516961E-01
       -2   -1    0    0    0  501  0.00000000000E+00  0.00000000000E+00  0.72067799917E+03  0.72067799917E+03  0.25500000920E-02 0. -1.
        2   -1    0    0  501    0  0.00000000000E+00  0.00000000000E+00 -0.16843654920E+04  0.16843654920E+04  0.25500000920E-02 0.  1.
    10030    2    1    2    0    0  0.00000000000E+00  0.00000000000E+00 -0.96368749279E+03  0.24050434911E+04  0.22035291263E+04 0.  0.
        5    1    3    3  502    0 -0.22258597639E+03  0.58575860487E+03  0.50723310532E+03  0.80620417587E+03  0.46999998093E+01 0. -1.
       -5    1    3    3    0  502  0.22258597639E+03 -0.58575860487E+03 -0.14709205981E+04  0.15988393153E+04  0.46999998093E+01 0.  1.
</event>
<event>
 5   0  0.2753631E-05  0.2275902E+04  0.7818609E-02  0.8487484E-01
        1   -1    0    0  501    0  0.00000000000E+00  0.00000000000E+00  0.58515906226E+03  0.58515906228E+03  0.50400001928E-02 0.  1.
       -1   -1    0    0    0  501  0.00000000000E+00  0.00000000000E+00 -0.22129575013E+04  0.22129575013E+04  0.50400001928E-02 0. -1.
    10030    2    1    2    0    0  0.00000000000E+00  0.00000000000E+00 -0.16277984391E+04  0.27981165636E+04  0.22759016994E+04 0.  0.
        4    1    3    3  502    0 -0.47170374516E+03 -0.43750205858E+03  0.34009784755E+03  0.72772290968E+03  0.12699999809E+01 0.  1.
       -4    1    3    3    0  502  0.47170374516E+03  0.43750205858E+03 -0.19678962866E+04  0.20703936539E+04  0.12699999809E+01 0. -1.
</event>
<event>
 5   0  0.2245375E-05  0.2211938E+04  0.7818609E-02  0.8513476E-01
        4   -1    0    0  501    0  0.00000000000E+00  0.00000000000E+00  0.70552018572E+03  0.70552132878E+03  0.12699999809E+01 0.  1.
       -4   -1    0    0    0  501  0.00000000000E+00  0.00000000000E+00 -0.17337072142E+04  0.17337076793E+04  0.12699999809E+01 0. -1.
    10030    2    1    2    0    0  0.00000000000E+00  0.00000000000E+00 -0.10281870285E+04  0.24392290081E+04  0.22119379712E+04 0.  0.
        1    1    3    3  502    0  0.53534416691E+02 -0.59894217402E+03 -0.15376807220E+04  0.16510783338E+04  0.50400001928E-02 0. -1.
       -1    1    3    3    0  502 -0.53534416691E+02  0.59894217402E+03  0.50949369355E+03  0.78815067429E+03  0.50400001928E-02 0.  1.
</event>
<event>
 5   0  0.6306919E-05  0.2167087E+04  0.7818609E-02  0.8532254E-01
        2   -1    0    0  501    0  0.00000000000E+00  0.00000000000E+00  0.18763544339E+04  0.18763544339E+04  0.25500000920E-02 0. -1.
       -2   -1    0    0    0  501  0.00000000000E+00  0.00000000000E+00 -0.62571660113E+03  0.62571660114E+03  0.25500000920E-02 0.  1.
    10030    2    1    2    0    0  0.00000000000E+00  0.00000000000E+00  0.12506378328E+04  0.25020710350E+04  0.21670866332E+04 0.  0.
        3    1    3    3  502    0  0.88467112431E+02 -0.78053898971E+02 -0.61827881969E+03  0.62943430968E+03  0.10100000352E+00 0.  1.
       -3    1    3    3    0  502 -0.88467112431E+02  0.78053898971E+02  0.18689166525E+04  0.18726367254E+04  0.10100000352E+00 0. -1.
</event>
<event>
 5   0  0.6306919E-05  0.2142454E+04  0.7818609E-02  0.8542769E-01
        2   -1    0    0  501    0  0.00000000000E+00  0.00000000000E+00  0.15937834202E+04  0.15937834202E+04  0.25500000920E-02 0. -1.
       -2   -1    0    0    0  501  0.00000000000E+00  0.00000000000E+00 -0.72000209819E+03  0.72000209819E+03  0.25500000920E-02 0.  1.
    10030    2    1    2    0    0  0.00000000000E+00  0.00000000000E+00  0.87378132204E+03  0.23137855184E+04  0.21424541130E+04 0.  0.
        3    1    3    3  502    0 -0.29916362740E+03 -0.74450047464E+03  0.12034010561E+04  0.14463588575E+04  0.10100000352E+00 0. -1.
       -3    1    3    3    0  502  0.29916362740E+03  0.74450047464E+03 -0.32961973409E+03  0.86742666088E+03  0.10100000352E+00 0.  1.
</event>
<event>
 5   0  0.2910318E-05  0.2155415E+04  0.7818609E-02  0.8537218E-01
       -1   -1    0    0    0  501  0.00000000000E+00  0.00000000000E+00  0.62748650090E+03  0.62748650092E+03  0.50400001928E-02 0.  1.
        1   -1    0    0  501    0  0.00000000000E+00  0.00000000000E+00 -0.18509612716E+04  0.18509612716E+04  0.50400001928E-02 0. -1.
    10030    2    1    2    0    0  0.00000000000E+00  0.00000000000E+00 -0.12234747707E+04  0.24784477725E+04  0.21554147737E+04 0.  0.
        5    1    3    3  502    0  0.35437272562E+03  0.98476083164E+03 -0.31611287470E+03  0.10932901553E+04  0.46999998093E+01 0.  1.
       -5    1    3    3    0  502 -0.35437272562E+03 -0.98476083164E+03 -0.90736189600E+03  0.13851576172E+04  0.46999998093E+01 0. -1.
</event>
<event>
 5   0  0.6445740E-05  0.2312967E+04  0.7818609E-02  0.8472826E-01
        2   -1    0    0  501    0  0.00000000000E+00  0.00000000000E+00  0.16119630883E+04  0.16119630883E+04  0.25500000920E-02 0.  1.
       -2   -1    0    0    0  501  0.00000000000E+00  0.00000000000E+00 -0.82970490838E+03  0.82970490838E+03  0.25500000920E-02 0. -1.
    10030    2    1    2    0    0  0.00000000000E+00  0.00000000000E+00  0.78225817991E+03  0.24416679967E+04  0.23129666547E+04 0.  0.
        5    1    3    3  502    0 -0.86033811459E+03  0.38067503724E+03 -0.31885403677E+03  0.99337059658E+03  0.46999998093E+01 0. -1.
       -5    1    3    3    0  502  0.86033811459E+03 -0.38067503724E+03  0.11011122167E+04  0.14482974001E+04  0.46999998093E+01 0.  1.
</event>
<event>
 5   0  0.6306919E-05  0.2127165E+04  0.7818609E-02  0.8549370E-01
       -2   -1    0    0    0  501  0.00000000000E+00  0.00000000000E+00  0.84640856002E+03  0.84640856002E+03  0.25500000920E-02 0.  1.
        2   -1    0    0  501    0  0.00000000000E+00  0.00000000000E+00 -0.13364797983E+04  0.13364797983E+04  0.25500000920E-02 0. -1.
    10030    2    1    2    0    0  0.00000000000E+00  0.00000000000E+00 -0.49007123826E+03  0.21828883583E+04  0.21271651949E+04 0.  0.
        3    1    3    3  502    0  0.67651933311E+03  0.73593177425E+03 -0.61777783602E+03  0.11751269928E+04  0.10100000352E+00 0. -1.
       -3    1    3    3    0  502 -0.67651933311E+03 -0.73593177425E+03  0.12770659775E+03  0.10077613655E+04  0.10100000352E+00 0.  1.
</event>
<event>
 5   0  0.2820239E-05  0.2195600E+04  0.7818609E-02  0.8520262E-01
       -1   -1    0    0    0  501  0.00000000000E+00  0.00000000000E+00  0.95013388456E+03  0.95013388457E+03  0.50400001928E-02 0. -1.
        1   -1    0    0  501    0  0.00000000000E+00  0.00000000000E+00 -0.12684159874E+04  0.12684159875E+04  0.50400001928E-02 0.  1.
    10030    2    1    2    0    0  0.00000000000E+00  0.00000000000E+00 -0.31828210288E+03  0.22185498720E+04  0.21956001543E+04 0.  0.
        3    1    3    3  502    0 -0.99378892642E+02 -0.10913228197E+04 -0.92855529818E+02  0.10997653480E+04  0.10100000352E+00 0. -1.
       -3    1    3    3    0  502  0.99378892642E+02  0.10913228197E+04 -0.22542657306E+03  0.11187845240E+04  0.10100000352E+00 0.  1.
</event>
<event>
 5   0  0.2820239E-05  0.2181036E+04  0.7818609E-02  0.8526363E-01
       -1   -1    0    0    0  501  0.00000000000E+00  0.00000000000E+00  0.14620522881E+04  0.14620522881E+04  0.50400001928E-02 0. -1.
        1   -1    0    0  501    0  0.00000000000E+00  0.00000000000E+00 -0.81339763877E+03  0.81339763878E+03  0.50400001928E-02 0.  1.
    10030    2    1    2    0    0  0.00000000000E+00  0.00000000000E+00  0.64865464935E+03  0.22754499269E+04  0.21810363399E+04 0.  0.
        3    1    3    3  502    0  0.77351585983E+03 -0.28443111417E+03  0.10693857519E+04  0.13501161952E+04  0.10100000352E+00 0. -1.
       -3    1    3    3    0  502 -0.77351585983E+03  0.28443111417E+03 -0.42073110254E+03  0.92533373167E+03  0.10100000352E+00 0.  1.
</event>
<event>
 5   0  0.2753631E-05  0.2181001E+04  0.7818609E-02  0.8526378E-01
        1   -1    0    0  501    0  0.00000000000E+00  0.00000000000E+00  0.86059841400E+03  0.86059841402E+03  0.50400001928E-02 0. -1.
       -1   -1    0    0    0  501  0.00000000000E+00  0.00000000000E+00 -0.13818188336E+04  0.13818188336E+04  0.50400001928E-02 0.  1.
    10030    2    1    2    0    0  0.00000000000E+00  0.00000000000E+00 -0.52122041955E+03  0.22424172476E+04  0.21810007764E+04 0.  0.
        4    1    3    3  502    0 -0.29581264082E+03  0.99736015173E+03  0.75642196023E+02  0.10430511711E+04  0.12699999809E+01 0. -1.
       -4    1    3    3    0  502  0.29581264082E+03 -0.99736015173E+03 -0.59686261557E+03  0.11993660765E+04  0.12699999809E+01 0.  1.
</event>
<event>
 5   0  0.6293013E-05  0.2214512E+04  0.7818609E-02  0.8512412E-01
        2   -1    0    0  501    0  0.00000000000E+00  0.00000000000E+00  0.11867070194E+04  0.11867070194E+04  0.25500000920E-02 0.  1.
       -2   -1    0    0    0  501  0.00000000000E+00  0.00000000000E+00 -0.10331241830E+04  0.10331241830E+04  0.25500000920E-02 0. -1.
    10030    2    1    2    0    0  0.00000000000E+00  0.00000000000E+00  0.15358283635E+03  0.22198312024E+04  0.22145118829E+04 0.  0.
        1    1    3    3  502    0  0.27962483884E+03  0.25060354025E+03  0.11209381076E+04  0.11821566842E+04  0.50400001928E-02 0.  1.
       -1    1    3    3    0  502 -0.27962483884E+03 -0.25060354025E+03 -0.96735527127E+03  0.10376745182E+04  0.50400001928E-02 0. -1.
</event>
<event>
 5   0  0.2245375E-05  0.2187914E+04  0.7818609E-02  0.8523476E-01
        4   -1    0    0  501    0  0.00000000000E+00  0.00000000000E+00  0.11316083937E+04  0.11316091064E+04  0.12699999809E+01 0.  1.
       -4   -1    0    0    0  501  0.00000000000E+00  0.00000000000E+00 -0.10575566098E+04  0.10575573724E+04  0.12699999809E+01 0. -1.
    10030    2    1    2    0    0  0.00000000000E+00  0.00000000000E+00  0.74051783918E+02  0.21891664788E+04  0.21879136649E+04 0.  0.
        4    1    3    3  502    0 -0.87029951644E+03  0.38111906717E+03  0.57961580384E+03  0.11129371432E+04  0.12699999809E+01 0.  1.
       -4    1    3    3    0  502  0.87029951644E+03 -0.38111906717E+03 -0.50556401992E+03  0.10762293356E+04  0.12699999809E+01 0. -1.
</event>
<event>
 5   0  0.6414768E-05  0.2211422E+04  0.7818609E-02  0.8513689E-01
        2   -1    0    0  501    0  0.00000000000E+00  0.00000000000E+00  0.15561919570E+04  0.15561919570E+04  0.25500000920E-02 0. -1.
       -2   -1    0    0    0  501  0.00000000000E+00  0.00000000000E+00 -0.78563340653E+03  0.78563340653E+03  0.25500000920E-02 0.  1.
    10030    2    1    2    0    0  0.00000000000E+00  0.00000000000E+00  0.77055855046E+03  0.23418253635E+04  0.22114216137E+04 0.  0.
        2    1    3    3  502    0  0.65971475332E+03  0.78691936446E+03 -0.48937428388E+02  0.10280372142E+04  0.25500000920E-02 0.  1.
       -2    1    3    3    0  502 -0.65971475332E+03 -0.78691936446E+03  0.81949597885E+03  0.13137881493E+04  0.25500000920E-02 0. -1.
</event>
<event>
 5   0  0.6306919E-05  0.2212605E+04  0.7818609E-02  0.8513200E-01
        2   -1    0    0  501    0  0.00000000000E+00  0.00000000000E+00  0.94297878489E+03  0.94297878489E+03  0.25500000920E-02 0. -1.
       -2   -1    0    0    0  501  0.00000000000E+00  0.00000000000E+00 -0.12979141933E+04  0.12979141934E+04  0.25500000920E-02 0.  1.
    10030    2    1    2    0    0  0.00000000000E+00  0.00000000000E+00 -0.35493540846E+03  0.22408929782E+04  0.22126052960E+04 0.  0.
        3    1    3    3  502    0  0.49578795254E+03  0.96746008565E+03 -0.38532516413E+03  0.11533690665E+04  0.10100000352E+00 0.  1.
       -3    1    3    3    0  502 -0.49578795254E+03 -0.96746008565E+03  0.30389755669E+02  0.10875239118E+04  0.10100000352E+00 0. -1.
</event>
<event>
 5   0  0.2929471E-05  0.2209615E+04  0.7818609E-02  0.8514437E-01
       -1   -1    0    0    0  501  0.00000000000E+00  0.00000000000E+00  0.47799151255E+03  0.47799151258E+03  0.50400001928E-02 0.  1.
        1   -1    0    0  501    0  0.00000000000E+00  0.00000000000E+00 -0.25536011440E+04  0.25536011440E+04  0.50400001928E-02 0. -1.
    10030    2    1    2    0    0  0.00000000000E+00  0.00000000000E+00 -0.20756096315E+04  0.30315926566E+04  0.22096150555E+04 0.  0.
        2    1    3    3  502    0 -0.57648527929E+03  0.41672332529E+03 -0.21976167556E+04  0.23098729427E+04  0.25500000920E-02 0. -1.
       -2    1    3    3    0  502  0.57648527929E+03 -0.41672332529E+03  0.12200712411E+03  0.72171971389E+03  0.25500000920E-02 0.  1.
</event>
<event>
 5   0  0.2908031E-05  0.2245267E+04  0.7818609E-02  0.8499820E-01
       -1   -1    0    0    0  501  0.00000000000E+00  0.00000000000E+00  0.13639480477E+04  0.13639480477E+04  0.50400001928E-02 0. -1.
        1   -1    0    0  501    0  0.00000000000E+00  0.00000000000E+00 -0.92401288854E+03  0.92401288856E+03  0.50400001928E-02 0.  1.
    10030    2    1    2    0    0  0.00000000000E+00  0.00000000000E+00  0.43993515915E+03  0.22879609363E+04  0.22452666438E+04 0.  0.
        1    1    3    3  502    0  0.37824079614E+03 -0.30646620295E+03 -0.81085987103E+03  0.94577024900E+03  0.50400001928E-02 0.  1.
       -1    1    3    3    0  502 -0.37824079614E+03  0.30646620295E+03  0.12507950302E+04  0.13421906873E+04  0.50400001928E-02 0. -1.
</event>
<event>
 5   0  0.6306919E-05  0.2138713E+04  0.7818609E-02  0.8544379E-01
        2   -1    0    0  501    0  0.00000000000E+00  0.00000000000E+00  0.14667606557E+04  0.14667606557E+04  0.25500000920E-02 0.  1.
       -2   -1    0    0    0  501  0.00000000000E+00  0.00000000000E+00 -0.77962525005E+03  0.77962525005E+03  0.25500000920E-02 0. -1.
    10030    2    1    2    0    0  0.00000000000E+00  0.00000000000E+00  0.68713540566E+03  0.22463859058E+04  0.21387132982E+04 0.  0.
        3    1    3    3  502    0 -0.60042995207E+03 -0.52892758332E+03  0.10886782614E+04  0.13511109810E+04  0.10100000352E+00 0.  1.
       -3    1    3    3    0  502  0.60042995207E+03  0.52892758332E+03 -0.40154285578E+03  0.89527492480E+03  0.10100000352E+00 0. -1.
</event>
<event>
 5   0  0.6445740E-05  0.2182373E+04  0.7818609E-02  0.8525801E-01
        2   -1    0    0  501    0  0.00000000000E+00  0.00000000000E+00  0.68992558474E+03  0.68992558475E+03  0.25500000920E-02 0.  1.
       -2   -1    0    0    0  501  0.00000000000E+00  0.00000000000E+00 -0.17258202680E+04  0.17258202680E+04  0.25500000920E-02 0. -1.
    10030    2    1    2    0    0  0.00000000000E+00  0.00000000000E+00 -0.10358946833E+04  0.24157458528E+04  0.21823726149E+04 0.  0.
        5    1    3    3  502    0  0.71484621538E+03  0.42774733714E+03 -0.12980758913E+04  0.15423994313E+04  0.46999998093E+01 0. -1.
       -5    1    3    3    0  502 -0.71484621538E+03 -0.42774733714E+03  0.26218120803E+03  0.87334642148E+03  0.46999998093E+01 0.  1.
</event>
<event>
 5   0  0.2820239E-05  0.2189174E+04  0.7818609E-02  0.8522948E-01
       -1   -1    0    0    0  501  0.00000000000E+00  0.00000000000E+00  0.75663949299E+03  0.75663949300E+03  0.50400001928E-02 0.  1.
        1   -1    0    0  501    0  0.00000000000E+00  0.00000000000E+00 -0.15834763098E+04  0.15834763098E+04  0.50400001928E-02 0. -1.
    10030    2    1    2    0    0  0.00000000000E+00  0.00000000000E+00 -0.82683681682E+03  0.23401158028E+04  0.21891740107E+04 0.  0.
        3    1    3    3  502    0 -0.92592767627E+03  0.45835769513E+03 -0.26986452139E+02  0.10335192873E+04  0.10100000352E+00 0. -1.
       -3    1    3    3    0  502  0.92592767627E+03 -0.45835769513E+03 -0.79985036468E+03  0.13065965155E+04  0.10100000352E+00 0.  1.
</event>
<event>
 5   0  0.2753631E-05  0.2193019E+04  0.7818609E-02  0.8521339E-01
       -1   -1    0    0    0  501  0.00000000000E+00  0.00000000000E+00  0.11471653610E+04  0.11471653610E+04  0.50400001928E-02 0.  1.
        1   -1    0    0  501    0  0.00000000000E+00  0.00000000000E+00 -0.10480906699E+04  0.10480906699E+04  0.50400001928E-02 0. -1.
    10030    2    1    2    0    0  0.00000000000E+00  0.00000000000E+00  0.99074691081E+02  0.21952560309E+04  0.21930192081E+04 0.  0.
        4    1    3    3  502    0  0.68916093147E+03  0.23368986354E+03  0.87060438859E+03  0.11346838133E+04  0.12699999809E+01 0.  1.
       -4    1    3    3    0  502 -0.68916093147E+03 -0.23368986354E+03 -0.77152969751E+03  0.10605722176E+04  0.12699999809E+01 0. -1.
</event>
<event>
 5   0  0.2929471E-05  0.2193749E+04  0.7818609E-02  0.8521034E-01
        1   -1    0    0  501    0  0.00000000000E+00  0.00000000000E+00  0.88258491887E+03  0.88258491888E+03  0.50400001928E-02 0. -1.
       -1   -1    0    0    0  501  0.00000000000E+00  0.00000000000E+00 -0.13631935069E+04  0.13631935069E+04  0.50400001928E-02 0.  1.
    10030    2    1    2    0    0  0.00000000000E+00  0.00000000000E+00 -0.48060858803E+03  0.22457784258E+04  0.21937493300E+04 0.  0.
        2    1    3    3  502    0 -0.50150210043E+03  0.37539596161E+03  0.68144329853E+03  0.92563030085E+03  0.25500000920E-02 0. -1.
       -2    1    3    3    0  502  0.50150210043E+03 -0.37539596161E+03 -0.11620518866E+04  0.13201481249E+04  0.25500000920E-02 0.  1.
</event>
<event>
 5   0  0.6628798E-05  0.2218843E+04  0.7818609E-02  0.8510626E-01
       -2   -1    0    0    0  501  0.00000000000E+00  0.00000000000E+00  0.20489100177E+04  0.20489100177E+04  0.25500000920E-02 0.  1.
        2   -1    0    0  501    0  0.00000000000E+00  0.00000000000E+00 -0.60071725669E+03  0.60071725670E+03  0.25500000920E-02 0. -1.
    10030    2    1    2    0    0  0.00000000000E+00  0.00000000000E+00  0.14481927610E+04  0.26496272744E+04  0.22188425857E+04 0.  0.
        4    1    3    3  502    0 -0.39520734937E+03  0.14351833882E+03  0.19500789361E+04  0.19948924363E+04  0.12699999809E+01 0.  1.
       -4    1    3    3    0  502  0.39520734937E+03 -0.14351833882E+03 -0.50188617508E+03  0.65473483809E+03  0.12699999809E+01 0. -1.
</event>
<event>
 5   0  0.2910318E-05  0.2228069E+04  0.7818609E-02  0.8506835E-01
       -1   -1    0    0    0  501  0.00000000000E+00  0.00000000000E+00  0.83419384477E+03  0.83419384478E+03  0.50400001928E-02 0.  1.
        1   -1    0    0  501    0  0.00000000000E+00  0.00000000000E+00 -0.14877517250E+04  0.14877517250E+04  0.50400001928E-02 0. -1.
    10030    2    1    2    0    0  0.00000000000E+00  0.00000000000E+00 -0.65355788021E+03  0.23219455698E+04  0.22280694168E+04 0.  0.
        5    1    3    3  502    0  0.10616506366E+04  0.12570856276E+02  0.24763322542E+02  0.10620242053E+04  0.46999998093E+01 0.  1.
       -5    1    3    3    0  502 -0.10616506366E+04 -0.12570856276E+02 -0.67832120275E+03  0.12599213645E+04  0.46999998093E+01 0. -1.
</event>
<event>
 5   0  0.6445740E-05  0.2199389E+04  0.7818609E-02  0.8518683E-01
       -2   -1    0    0    0  501  0.00000000000E+00  0.00000000000E+00  0.92683170277E+03  0.92683170278E+03  0.25500000920E-02 0.  1.
        2   -1    0    0  501    0  0.00000000000E+00  0.00000000000E+00 -0.13047972721E+04  0.13047972721E+04  0.25500000920E-02 0. -1.
    10030    2    1    2    0    0  0.00000000000E+00  0.00000000000E+00 -0.37796556933E+03  0.22316289749E+04  0.21993885309E+04 0.  0.
        5    1    3    3  502    0  0.77991324193E+03  0.73259988539E+03  0.68385041361E+02  0.10722247250E+04  0.46999998093E+01 0. -1.
       -5    1    3    3    0  502 -0.77991324193E+03 -0.73259988539E+03 -0.44635061070E+03  0.11594042499E+04  0.46999998093E+01 0.  1.
</event>
<event>
 5   0  0.2929471E-05  0.2199398E+04  0.7818609E-02  0.8518679E-01
       -1   -1    0    0    0  501  0.00000000000E+00  0.00000000000E+00  0.72889304762E+03  0.72889304764E+03  0.50400001928E-02 0. -1.
        1   -1    0    0  501    0  0.00000000000E+00  0.00000000000E+00 -0.16591436347E+04  0.16591436347E+04  0.50400001928E-02 0.  1.
    10030    2    1    2    0    0  0.00000000000E+00  0.00000000000E+00 -0.93025058708E+03  0.23880366823E+04  0.21993983362E+04 0.  0.
        2    1    3    3  502    0 -0.81144650987E+02  0.10684280875E+04 -0.73376291678E+03  0.12986651033E+04  0.25500000920E-02 0.  1.
       -2    1    3    3    0  502  0.81144650987E+02 -0.10684280875E+04 -0.19648767030E+03  0.10893715790E+04  0.25500000920E-02 0. -1.
</event>
<event>
 5   0  0.6293013E-05  0.2170771E+04  0.7818609E-02  0.8530693E-01
        2   -1    0    0  501    0  0.00000000000E+00  0.00000000000E+00  0.16442022888E+04  0.16442022888E+04  0.25500000920E-02 0. -1.
       -2   -1    0    0    0  501  0.00000000000E+00  0.00000000000E+00 -0.71649432073E+03  0.71649432074E+03  0.25500000920E-02 0.  1.
    10030    2    1    2    0    0  0.00000000000E+00  0.00000000000E+00  0.92770796804E+03  0.23606966095E+04  0.21707709249E+04 0.  0.
        1    1    3    3  502    0 -0.22081651160E+03  0.10571748444E+04  0.34630910482E+03  0.11341554477E+04  0.50400001928E-02 0.  1.
       -1    1    3    3    0  502  0.22081651160E+03 -0.10571748444E+04  0.58139886322E+03  0.12265411618E+04  0.50400001928E-02 0. -1.
</event>
<event>
 5   0  0.2910318E-05  0.2038551E+04  0.7818609E-02  0.8588806E-01
        1   -1    0    0  501    0  0.00000000000E+00  0.00000000000E+00  0.14703656411E+04  0.14703656411E+04  0.50400001928E-02 0.  1.
       -1   -1    0    0    0  501  0.00000000000E+00  0.00000000000E+00 -0.70657440880E+03  0.70657440882E+03  0.50400001928E-02 0. -1.
    10030    2    1    2    0    0  0.00000000000E+00  0.00000000000E+00  0.76379123231E+03  0.21769400499E+04  0.20385511852E+04 0.  0.
        5    1    3    3  502    0  0.90971704761E+03 -0.33342935168E+03  0.71982777221E+03  0.12070353561E+04  0.46999998093E+01 0.  1.
       -5    1    3    3    0  502 -0.90971704761E+03  0.33342935168E+03  0.43963460097E+02  0.96990469382E+03  0.46999998093E+01 0. -1.
</event>
<event>
 5   0  0.2929471E-05  0.2199531E+04  0.7818609E-02  0.8518623E-01
       -1   -1    0    0    0  501  0.00000000000E+00  0.00000000000E+00  0.12185029936E+04  0.12185029936E+04  0.50400001928E-02 0. -1.
        1   -1    0    0  501    0  0.00000000000E+00  0.00000000000E+00 -0.99259864724E+03  0.99259864725E+03  0.50400001928E-02 0.  1.
    10030    2    1    2    0    0  0.00000000000E+00  0.00000000000E+00  0.22590434639E+03  0.22111016409E+04  0.21995312438E+04 0.  0.
        2    1    3    3  502    0 -0.85000994761E+03 -0.63298268508E+03  0.40826686776E+03  0.11357226008E+04  0.25500000920E-02 0. -1.
       -2    1    3    3    0  502  0.85000994761E+03  0.63298268508E+03 -0.18236252137E+03  0.10753790401E+04  0.25500000920E-02 0.  1.
</event>
<event>
 5   0  0.6414768E-05  0.2205773E+04  0.7818609E-02  0.8516029E-01
        2   -1    0    0  501    0  0.00000000000E+00  0.00000000000E+00  0.20180837278E+04  0.20180837278E+04  0.25500000920E-02 0. -1.
       -2   -1    0    0    0  501  0.00000000000E+00  0.00000000000E+00 -0.60272978542E+03  0.60272978543E+03  0.25500000920E-02 0.  1.
    10030    2    1    2    0    0  0.00000000000E+00  0.00000000000E+00  0.14153539424E+04  0.26208135132E+04  0.22057734899E+04 0.  0.
        2    1    3    3  502    0 -0.10887011126E+04  0.16891416783E+03  0.76775919102E+03  0.13428537836E+04  0.25500000920E-02 0. -1.
       -2    1    3    3    0  502  0.10887011126E+04 -0.16891416783E+03  0.64759475135E+03  0.12779597297E+04  0.25500000920E-02 0.  1.
</event>
<event>
 5   0  0.6414768E-05  0.2196661E+04  0.7818609E-02  0.8519819E-01
        2   -1    0    0  501    0  0.00000000000E+00  0.00000000000E+00  0.10579425879E+04  0.10579425879E+04  0.25500000920E-02 0. -1.
       -2   -1    0    0    0  501  0.00000000000E+00  0.00000000000E+00 -0.11402597544E+04  0.11402597544E+04  0.25500000920E-02 0.  1.
    10030    2    1    2    0    0  0.00000000000E+00  0.00000000000E+00 -0.82317166551E+02  0.21982023423E+04  0.21966605158E+04 0.  0.
        2    1    3    3  502    0 -0.88409112230E+03  0.48608557524E+03  0.39323486735E+03  0.10828342255E+04  0.25500000920E-02 0. -1.
       -2    1    3    3    0  502  0.88409112230E+03 -0.48608557524E+03 -0.47555203390E+03  0.11153681168E+04  0.25500000920E-02 0.  1.
</event>
<event>
 5   0  0.6628798E-05  0.2203354E+04  0.7818609E-02  0.8517033E-01
        2   -1    0    0  501    0  0.00000000000E+00  0.00000000000E+00  0.18295725423E+04  0.18295725423E+04  0.25500000920E-02 0. -1.
       -2   -1    0    0    0  501  0.00000000000E+00  0.00000000000E+00 -0.66337493223E+03  0.66337493224E+03  0.25500000920E-02 0.  1.
    10030    2    1    2    0    0  0.00000000000E+00  0.00000000000E+00  0.11661976101E+04  0.24929474745E+04  0.22033543167E+04 0.  0.
        4    1    3    3  502    0 -0.69763319194E+03  0.79212463437E+03  0.22613677385E+03  0.10794873599E+04  0.12699999809E+01 0. -1.
       -4    1    3    3    0  502  0.69763319194E+03 -0.79212463437E+03  0.94006083623E+03  0.14134601146E+04  0.12699999809E+01 0.  1.
</event>
<event>
 5   0  0.6414768E-05  0.2232287E+04  0.7818609E-02  0.8505109E-01
       -2   -1    0    0    0  501  0.00000000000E+00  0.00000000000E+00  0.12242499760E+04  0.12242499760E+04  0.25500000920E-02 0. -1.
        2   -1    0    0  501    0  0.00000000000E+00  0.00000000000E+00 -0.10175829576E+04  0.10175829576E+04  0.25500000920E-02 0.  1.
    10030    2    1    2    0    0  0.00000000000E+00  0.00000000000E+00  0.20666701843E+03  0.22418329336E+04  0.22322866406E+04 0.  0.
        2    1    3    3  502    0 -0.62695424842E+03  0.84476317824E+03  0.47786192539E+03  0.11554429785E+04  0.25500000920E-02 0.  1.
       -2    1    3    3    0  502  0.62695424842E+03 -0.84476317824E+03 -0.27119490696E+03  0.10863899551E+04  0.25500000920E-02 0. -1.
</event>
<event>
 5   0  0.6414768E-05  0.1922203E+04  0.7818609E-02  0.8643883E-01
       -2   -1    0    0    0  501  0.00000000000E+00  0.00000000000E+00  0.75905069088E+03  0.75905069088E+03  0.25500000920E-02 0.  1.
        2   -1    0    0  501    0  0.00000000000E+00  0.00000000000E+00 -0.12169360598E+04  0.12169360598E+04  0.25500000920E-02 0. -1.
    10030    2    1    2    0    0  0.00000000000E+00  0.00000000000E+00 -0.45788536896E+03  0.19759867507E+04  0.19222030663E+04 0.  0.
        2    1    3    3  502    0  0.50891994641E+03 -0.71676019627E+03 -0.62836488404E+03  0.10805494520E+04  0.25500000920E-02 0.  1.
       -2    1    3    3    0  502 -0.50891994641E+03  0.71676019627E+03  0.17047951508E+03  0.89543729868E+03  0.25500000920E-02 0. -1.
</event>
<event>
 5   0  0.6306919E-05  0.2200026E+04  0.7818609E-02  0.8518417E-01
        2   -1    0    0  501    0  0.00000000000E+00  0.00000000000E+00  0.12323561094E+04  0.12323561094E+04  0.25500000920E-02 0. -1.
       -2   -1    0    0    0  501  0.00000000000E+00  0.00000000000E+00 -0.98188208730E+03  0.98188208730E+03  0.25500000920E-02 0.  1.
    10030    2    1    2    0    0  0.00000000000E+00  0.00000000000E+00  0.25047402212E+03  0.22142381967E+04  0.22000258080E+04 0.  0.
        3    1    3    3  502    0 -0.40451237402E+02  0.53161503314E+03  0.10936260861E+04  0.12166630069E+04  0.10100000352E+00 0. -1.
       -3    1    3    3    0  502  0.40451237402E+02 -0.53161503314E+03 -0.84315206399E+03  0.99757518978E+03  0.10100000352E+00 0.  1.
</event>
<event>
 5   0  0.2753631E-05  0.2189133E+04  0.7818609E-02  0.8522965E-01
       -1   -1    0    0    0  501  0.00000000000E+00  0.00000000000E+00  0.80353142772E+03  0.80353142774E+03  0.50400001928E-02 0.  1.
        1   -1    0    0  501    0  0.00000000000E+00  0.00000000000E+00 -0.14910131705E+04  0.14910131705E+04  0.50400001928E-02 0. -1.
    10030    2    1    2    0    0  0.00000000000E+00  0.00000000000E+00 -0.68748174275E+03  0.22945445982E+04  0.21891331085E+04 0.  0.
        4    1    3    3  502    0 -0.51666487629E+03 -0.35777629696E+02 -0.13544616118E+04  0.14501001703E+04  0.12699999809E+01 0. -1.
       -4    1    3    3    0  502  0.51666487629E+03  0.35777629696E+02  0.66697986906E+03  0.84444442790E+03  0.12699999809E+01 0.  1.
</event>
<event>
 5   0  0.2908031E-05  0.2199375E+04  0.7818609E-02  0.8518688E-01
       -1   -1    0    0    0  501  0.00000000000E+00  0.00000000000E+00  0.10780536584E+04  0.10780536584E+04  0.50400001928E-02 0.  1.
        1   -1    0    0  501    0  0.00000000000E+00  0.00000000000E+00 -0.11217552255E+04  0.11217552255E+04  0.50400001928E-02 0. -1.
    10030    2    1    2    0    0  0.00000000000E+00  0.00000000000E+00 -0.43701567060E+02  0.21998088839E+04  0.21993747517E+04 0.  0.
        1    1    3    3  502    0  0.22836225082E+02 -0.18153026580E+03  0.10627237111E+04  0.10783582043E+04  0.50400001928E-02 0.  1.
       -1    1    3    3    0  502 -0.22836225082E+02  0.18153026580E+03 -0.11064252782E+04  0.11214506796E+04  0.50400001928E-02 0. -1.
</event>
<event>
 5   0  0.2820239E-05  0.2216019E+04  0.7818609E-02  0.8511790E-01
        1   -1    0    0  501    0  0.00000000000E+00  0.00000000000E+00  0.15786512617E+04  0.15786512617E+04  0.50400001928E-02 0.  1.
       -1   -1    0    0    0  501  0.00000000000E+00  0.00000000000E+00 -0.77767965231E+03  0.77767965233E+03  0.50400001928E-02 0. -1.
    10030    2    1    2    0    0  0.00000000000E+00  0.00000000000E+00  0.80097160939E+03  0.23563309140E+04  0.22160189208E+04 0.  0.
        3    1    3    3  502    0  0.42106096474E+03  0.78692559110E+03 -0.29770213771E+03  0.94083515823E+03  0.10100000352E+00 0. -1.
       -3    1    3    3    0  502 -0.42106096474E+03 -0.78692559110E+03  0.10986737471E+04  0.14154957558E+04  0.10100000352E+00 0.  1.
</event>
<event>
 5   0  0.2929471E-05  0.2056612E+04  0.7818609E-02  0.8580601E-01
       -1   -1    0    0    0  501  0.00000000000E+00  0.00000000000E+00  0.96018472294E+03  0.96018472295E+03  0.50400001928E-02 0.  1.
        1   -1    0    0  501    0  0.00000000000E+00  0.00000000000E+00 -0.11012601234E+04  0.11012601234E+04  0.50400001928E-02 0. -1.
    10030    2    1    2    0    0  0.00000000000E+00  0.00000000000E+00 -0.14107540043E+03  0.20614448463E+04  0.20566119191E+04 0.  0.
        2    1    3    3  502    0 -0.70190838912E+03 -0.55197074264E+03  0.44062741755E+03  0.99574073360E+03  0.25500000920E-02 0. -1.
       -2    1    3    3    0  502  0.70190838912E+03  0.55197074264E+03 -0.58170281797E+03  0.10657041127E+04  0.25500000920E-02 0.  1.
</event>
<event>
 5   0  0.2908031E-05  0.2204272E+04  0.7818609E-02  0.8516652E-01
        1   -1    0    0  501    0  0.00000000000E+00  0.00000000000E+00  0.48653171013E+03  0.48653171016E+03  0.50400001928E-02 0. -1.
       -1   -1    0    0    0  501  0.00000000000E+00  0.00000000000E+00 -0.24966590170E+04  0.24966590170E+04  0.50400001928E-02 0.  1.
    10030    2    1    2    0    0  0.00000000000E+00  0.00000000000E+00 -0.20101273069E+04  0.29831907272E+04  0.22042720170E+04 0.  0.
        1    1    3    3  502    0 -0.15168461826E+02  0.53431197647E+03 -0.23094914541E+04  0.23705421631E+04  0.50400001928E-02 0.  1.
       -1    1    3    3    0  502  0.15168461826E+02 -0.53431197647E+03  0.29936414720E+03  0.61264856410E+03  0.50400001928E-02 0. -1.
</event>
<event>
 5   0  0.6628798E-05  0.2188037E+04  0.7818609E-02  0.8523424E-01
        2   -1    0    0  501    0  0.00000000000E+00  0.00000000000E+00  0.18106087315E+04  0.18106087315E+04  0.25500000920E-02 0. -1.
       -2   -1    0    0    0  501  0.00000000000E+00  0.00000000000E+00 -0.66103525326E+03  0.66103525326E+03  0.25500000920E-02 0.  1.
    10030    2    1    2    0    0  0.00000000000E+00  0.00000000000E+00  0.11495734782E+04  0.24716439847E+04  0.21880367468E+04 0.  0.
        4    1    3    3  502    0 -0.67149953866E+03 -0.35022298776E+03 -0.31704359914E+03  0.82102742234E+03  0.12699999809E+01 0.  1.
       -4    1    3    3    0  502  0.67149953866E+03  0.35022298776E+03  0.14666170774E+04  0.16506165624E+04  0.12699999809E+01 0. -1.
</event>
<event>
 5   0  0.6628798E-05  0.2240226E+04  0.7818609E-02  0.8501869E-01
        2   -1    0    0  501    0  0.00000000000E+00  0.00000000000E+00  0.93942978096E+03  0.93942978096E+03  0.25500000920E-02 0.  1.
       -2   -1    0    0    0  501  0.00000000000E+00  0.00000000000E+00 -0.13355476180E+04  0.13355476180E+04  0.25500000920E-02 0. -1.
    10030    2    1    2    0    0  0.00000000000E+00  0.00000000000E+00 -0.39611783702E+03  0.22749773989E+04  0.22402260656E+04 0.  0.
        4    1    3    3  502    0  0.79703616614E+03  0.28726565547E+03 -0.94213463914E+03  0.12670467624E+04  0.12699999809E+01 0. -1.
       -4    1    3    3    0  502 -0.79703616614E+03 -0.28726565547E+03  0.54601680213E+03  0.10079306365E+04  0.12699999809E+01 0.  1.
</event>
<event>
 5   0  0.6414768E-05  0.2210332E+04  0.7818609E-02  0.8514140E-01
        2   -1    0    0  501    0  0.00000000000E+00  0.00000000000E+00  0.17993457104E+04  0.17993457104E+04  0.25500000920E-02 0.  1.
       -2   -1    0    0    0  501  0.00000000000E+00  0.00000000000E+00 -0.67879752165E+03  0.67879752166E+03  0.25500000920E-02 0. -1.
    10030    2    1    2    0    0  0.00000000000E+00  0.00000000000E+00  0.11205481888E+04  0.24781432321E+04  0.22103315668E+04 0.  0.
        2    1    3    3  502    0 -0.88420712894E+03 -0.29368631039E+03  0.12266995238E+04  0.15404108600E+04  0.25500000920E-02 0.  1.
       -2    1    3    3    0  502  0.88420712894E+03  0.29368631039E+03 -0.10615133504E+03  0.93773237212E+03  0.25500000920E-02 0. -1.
</event>
<event>
 5   0  0.2245375E-05  0.2246402E+04  0.7818609E-02  0.8499359E-01
        3   -1    0    0  501    0  0.00000000000E+00  0.00000000000E+00  0.13475807730E+04  0.13475807768E+04  0.10100000352E+00 0. -1.
       -3   -1    0    0    0  501  0.00000000000E+00  0.00000000000E+00 -0.93618168421E+03  0.93618168966E+03  0.10100000352E+00 0.  1.
    10030    2    1    2    0    0  0.00000000000E+00  0.00000000000E+00  0.41139908878E+03  0.22837624664E+04  0.22464019660E+04 0.  0.
        2    1    3    3  502    0  0.12515064489E+03 -0.99933270174E+02 -0.92451421941E+03  0.93828347758E+03  0.25500000920E-02 0.  1.
       -2    1    3    3    0  502 -0.12515064489E+03  0.99933270174E+02  0.13359133082E+04  0.13454789888E+04  0.25500000920E-02 0. -1.
</event>
<event>
 5   0  0.2753631E-05  0.2202079E+04  0.7818609E-02  0.8517563E-01
        1   -1    0    0  501    0  0.00000000000E+00  0.00000000000E+00  0.13519920934E+04  0.13519920934E+04  0.50400001928E-02 0. -1.
       -1   -1    0    0    0  501  0.00000000000E+00  0.00000000000E+00 -0.89666834131E+03  0.89666834132E+03  0.50400001928E-02 0.  1.
    10030    2    1    2    0    0  0.00000000000E+00  0.00000000000E+00  0.45532375206E+03  0.22486604347E+04  0.22020794789E+04 0.  0.
        4    1    3    3  502    0 -0.86580766474E+03 -0.45402246775E+03  0.74486116844E+03  0.12290561772E+04  0.12699999809E+01 0. -1.
       -4    1    3    3    0  502  0.86580766474E+03  0.45402246775E+03 -0.28953741638E+03  0.10196042575E+04  0.12699999809E+01 0.  1.
</event>
<event>
 5   0  0.2820239E-05  0.2199818E+04  0.7818609E-02  0.8518504E-01
        1   -1    0    0  501    0  0.00000000000E+00  0.00000000000E+00  0.62353826191E+03  0.62353826193E+03  0.50400001928E-02 0.  1.
       -1   -1    0    0    0  501  0.00000000000E+00  0.00000000000E+00 -0.19402168364E+04  0.19402168364E+04  0.50400001928E-02 0. -1.
    10030    2    1    2    0    0  0.00000000000E+00  0.00000000000E+00 -0.13166785745E+04  0.25637550984E+04  0.21998176597E+04 0.  0.
        3    1    3    3  502    0  0.22879334480E+02  0.44801143629E+03  0.51207898041E+03  0.68078087765E+03  0.10100000352E+00 0.  1.
       -3    1    3    3    0  502 -0.22879334480E+02 -0.44801143629E+03 -0.18287575549E+04  0.18829742207E+04  0.10100000352E+00 0. -1.
</event>
<event>
 5   0  0.2753631E-05  0.2240123E+04  0.7818609E-02  0.8501911E-01
        1   -1    0    0  501    0  0.00000000000E+00  0.00000000000E+00  0.15537326470E+04  0.15537326471E+04  0.50400001928E-02 0.  1.
       -1   -1    0    0    0  501  0.00000000000E+00  0.00000000000E+00 -0.80743508210E+03  0.80743508212E+03  0.50400001928E-02 0. -1.
    10030    2    1    2    0    0  0.00000000000E+00  0.00000000000E+00  0.74629756495E+03  0.23611677292E+04  0.22401234318E+04 0.  0.
        4    1    3    3  502    0 -0.57376361913E+03 -0.82546090927E+03 -0.14744855975E+03  0.10160379393E+04  0.12699999809E+01 0. -1.
       -4    1    3    3    0  502  0.57376361913E+03  0.82546090927E+03  0.89374612469E+03  0.13451297899E+04  0.12699999809E+01 0.  1.
</event>
<event>
 5   0  0.2753631E-05  0.2223370E+04  0.7818609E-02  0.8508764E-01
        1   -1    0    0  501    0  0.00000000000E+00  0.00000000000E+00  0.17063576273E+04  0.17063576274E+04  0.50400001928E-02 0. -1.
       -1   -1    0    0    0  501  0.00000000000E+00  0.00000000000E+00 -0.72425795470E+03  0.72425795471E+03  0.50400001928E-02 0.  1.
    10030    2    1    2    0    0  0.00000000000E+00  0.00000000000E+00  0.98209967265E+03  0.24306155821E+04  0.22233695916E+04 0.  0.
        4    1    3    3  502    0  0.12863383824E+03 -0.45732285865E+03  0.15897967837E+04  0.16592607655E+04  0.12699999809E+01 0. -1.
       -4    1    3    3    0  502 -0.12863383824E+03  0.45732285865E+03 -0.60769711107E+03  0.77135481660E+03  0.12699999809E+01 0.  1.
</event>
<event>
 5   0  0.6293013E-05  0.2302553E+04  0.7818609E-02  0.8476915E-01
       -2   -1    0    0    0  501  0.00000000000E+00  0.00000000000E+00  0.13618434880E+04  0.13618434880E+04  0.25500000920E-02 0.  1.
        2   -1    0    0  501    0  0.00000000000E+00  0.00000000000E+00 -0.97326713996E+03  0.97326713997E+03  0.25500000920E-02 0. -1.
    10030    2    1    2    0    0  0.00000000000E+00  0.00000000000E+00  0.38857634805E+03  0.23351106280E+04  0.23025529455E+04 0.  0.
        1    1    3    3  502    0 -0.32046713917E+03 -0.52178466393E+02 -0.92587309306E+03  0.98115379229E+03  0.50400001928E-02 0. -1.
       -1    1    3    3    0  502  0.32046713917E+03  0.52178466393E+02  0.13144494411E+04  0.13539568357E+04  0.50400001928E-02 0.  1.
</event>
<event>
 5   0  0.6414768E-05  0.2190098E+04  0.7818609E-02  0.8522561E-01
        2   -1    0    0  501    0  0.00000000000E+00  0.00000000000E+00  0.20788822717E+04  0.20788822717E+04  0.25500000920E-02 0. -1.
       -2   -1    0    0    0  501  0.00000000000E+00  0.00000000000E+00 -0.57681604219E+03  0.57681604220E+03  0.25500000920E-02 0.  1.
    10030    2    1    2    0    0  0.00000000000E+00  0.00000000000E+00  0.15020662295E+04  0.26556983139E+04  0.21900983029E+04 0.  0.
        2    1    3    3  502    0  0.44530411774E+03 -0.95532616613E+03  0.11111320635E+04  0.15315215648E+04  0.25500000920E-02 0. -1.
       -2    1    3    3    0  502 -0.44530411774E+03  0.95532616613E+03  0.39093416598E+03  0.11241767490E+04  0.25500000920E-02 0.  1.
</event>
<event>
 5   0  0.6306919E-05  0.2271724E+04  0.7818609E-02  0.8489154E-01
        2   -1    0    0  501    0  0.00000000000E+00  0.00000000000E+00  0.18634547593E+04  0.18634547593E+04  0.25500000920E-02 0. -1.
       -2   -1    0    0    0  501  0.00000000000E+00  0.00000000000E+00 -0.69236066291E+03  0.69236066291E+03  0.25500000920E-02 0.  1.
    10030    2    1    2    0    0  0.00000000000E+00  0.00000000000E+00  0.11710940964E+04  0.25558154222E+04  0.22717242548E+04 0.  0.
        3    1    3    3  502    0 -0.98904558976E+02  0.66083325155E+03  0.16189457522E+04  0.17514188696E+04  0.10100000352E+00 0. -1.
       -3    1    3    3    0  502  0.98904558976E+02 -0.66083325155E+03 -0.44785165575E+03  0.80439655264E+03  0.10100000352E+00 0.  1.
</event>
<event>
 5   0  0.6445740E-05  0.2208345E+04  0.7818609E-02  0.8514963E-01
       -2   -1    0    0    0  501  0.00000000000E+00  0.00000000000E+00  0.67896937885E+03  0.67896937885E+03  0.25500000920E-02 0. -1.
        2   -1    0    0  501    0  0.00000000000E+00  0.00000000000E+00 -0.17956574524E+04  0.17956574524E+04  0.25500000920E-02 0.  1.
    10030    2    1    2    0    0  0.00000000000E+00  0.00000000000E+00 -0.11166880736E+04  0.24746268313E+04  0.22083445611E+04 0.  0.
        5    1    3    3  502    0  0.85102592651E+03  0.33291646463E+03 -0.12528287338E+04  0.15507032038E+04  0.46999998093E+01 0.  1.
       -5    1    3    3    0  502 -0.85102592651E+03 -0.33291646463E+03  0.13614066025E+03  0.92392362746E+03  0.46999998093E+01 0. -1.
</event>
<event>
 5   0  0.2910318E-05  0.2196196E+04  0.7818609E-02  0.8520013E-01
       -1   -1    0    0    0  501  0.00000000000E+00  0.00000000000E+00  0.79786573292E+03  0.79786573294E+03  0.50400001928E-02 0.  1.
        1   -1    0    0  501    0  0.00000000000E+00  0.00000000000E+00 -0.15113063609E+04  0.15113063609E+04  0.50400001928E-02 0. -1.
    10030    2    1    2    0    0  0.00000000000E+00  0.00000000000E+00 -0.71344062798E+03  0.23091720938E+04  0.21961963094E+04 0.  0.
        5    1    3    3  502    0 -0.10295695755E+04  0.15955480155E+03  0.80044764355E+01  0.10419008624E+04  0.46999998093E+01 0.  1.
       -5    1    3    3    0  502  0.10295695755E+04 -0.15955480155E+03 -0.72144510441E+03  0.12672712315E+04  0.46999998093E+01 0. -1.
</event>
<event>
 5   0  0.2929471E-05  0.2219065E+04  0.7818609E-02  0.8510534E-01
        1   -1    0    0  501    0  0.00000000000E+00  0.00000000000E+00  0.99146290910E+03  0.99146290911E+03  0.50400001928E-02 0. -1.
       -1   -1    0    0    0  501  0.00000000000E+00  0.00000000000E+00 -0.12416630807E+04  0.12416630807E+04  0.50400001928E-02 0.  1.
    10030    2    1    2    0    0  0.00000000000E+00  0.00000000000E+00 -0.25020017161E+03  0.22331259898E+04  0.22190654701E+04 0.  0.
        2    1    3    3  502    0 -0.27983255379E+03  0.87148850069E+03 -0.75618157445E+03  0.11872695728E+04  0.25500000920E-02 0.  1.
       -2    1    3    3    0  502  0.27983255379E+03 -0.87148850069E+03  0.50598140284E+03  0.10458564170E+04  0.25500000920E-02 0. -1.
</event>
<event>
 5   0  0.2910318E-05  0.2196308E+04  0.7818609E-02  0.8519966E-01
        1   -1    0    0  501    0  0.00000000000E+00  0.00000000000E+00  0.50593386750E+03  0.50593386753E+03  0.50400001928E-02 0. -1.
       -1   -1    0    0    0  501  0.00000000000E+00  0.00000000000E+00 -0.23835972572E+04  0.23835972572E+04  0.50400001928E-02 0.  1.
    10030    2    1    2    0    0  0.00000000000E+00  0.00000000000E+00 -0.18776633897E+04  0.28895311247E+04  0.21963083380E+04 0.  0.
        5    1    3    3  502    0 -0.84560970523E+01 -0.10976563803E+04 -0.98042424276E+03  0.14717930631E+04  0.46999998093E+01 0.  1.
       -5    1    3    3    0  502  0.84560970523E+01  0.10976563803E+04 -0.89723914693E+03  0.14177380617E+04  0.46999998093E+01 0. -1.
</event>
<event>
 5   0  0.6414768E-05  0.2200736E+04  0.7818609E-02  0.8518122E-01
        2   -1    0    0  501    0  0.00000000000E+00  0.00000000000E+00  0.10135350182E+04  0.10135350182E+04  0.25500000920E-02 0. -1.
       -2   -1    0    0    0  501  0.00000000000E+00  0.00000000000E+00 -0.11946397726E+04  0.11946397726E+04  0.25500000920E-02 0.  1.
    10030    2    1    2    0    0  0.00000000000E+00  0.00000000000E+00 -0.18110475446E+03  0.22081747908E+04  0.22007355531E+04 0.  0.
        2    1    3    3  502    0 -0.73126935990E+03 -0.12549132590E+03  0.72478679190E+03  0.10372168738E+04  0.25500000920E-02 0. -1.
       -2    1    3    3    0  502  0.73126935990E+03  0.12549132590E+03 -0.90589154636E+03  0.11709579170E+04  0.25500000920E-02 0.  1.
</event>
<event>
 5   0  0.6293013E-05  0.2146965E+04  0.7818609E-02  0.8540833E-01
       -2   -1    0    0    0  501  0.00000000000E+00  0.00000000000E+00  0.56060554616E+03  0.56060554617E+03  0.25500000920E-02 0.  1.
        2   -1    0    0  501    0  0.00000000000E+00  0.00000000000E+00 -0.20555712362E+04  0.20555712362E+04  0.25500000920E-02 0. -1.
    10030    2    1    2    0    0  0.00000000000E+00  0.00000000000E+00 -0.14949656900E+04  0.26161767823E+04  0.21469649606E+04 0.  0.
        1    1    3    3  502    0  0.72485252489E+03  0.53244584661E+03 -0.14616123419E+04  0.17161644445E+04  0.50400001928E-02 0. -1.
       -1    1    3    3    0  502 -0.72485252489E+03 -0.53244584661E+03 -0.33353348073E+02  0.90001233784E+03  0.50400001928E-02 0.  1.
</event>
<event>
 5   0  0.6293013E-05  0.2193203E+04  0.7818609E-02  0.8521262E-01
       -2   -1    0    0    0  501  0.00000000000E+00  0.00000000000E+00  0.11078155173E+04  0.11078155173E+04  0.25500000920E-02 0. -1.
        2   -1    0    0  501    0  0.00000000000E+00  0.00000000000E+00 -0.10855010303E+04  0.10855010303E+04  0.25500000920E-02 0.  1.
    10030    2    1    2    0    0  0.00000000000E+00  0.00000000000E+00  0.22314486941E+02  0.21933165476E+04  0.21932030325E+04 0.  0.
        1    1    3    3  502    0  0.91376874046E+03 -0.26471204362E+03 -0.53429660775E+03  0.10911089048E+04  0.50400001928E-02 0.  1.
       -1    1    3    3    0  502 -0.91376874046E+03  0.26471204362E+03  0.55661109469E+03  0.11022076428E+04  0.50400001928E-02 0. -1.
</event>
<event>
 5   0  0.6306919E-05  0.2203489E+04  0.7818609E-02  0.8516977E-01
        2   -1    0    0  501    0  0.00000000000E+00  0.00000000000E+00  0.13817924372E+04  0.13817924372E+04  0.25500000920E-02 0.  1.
       -2   -1    0    0    0  501  0.00000000000E+00  0.00000000000E+00 -0.87845393163E+03  0.87845393163E+03  0.25500000920E-02 0. -1.
    10030    2    1    2    0    0  0.00000000000E+00  0.00000000000E+00  0.50333850560E+03  0.22602463689E+04  0.22034890507E+04 0.  0.
        3    1    3    3  502    0 -0.80386960361E+03 -0.61789820446E+03 -0.19052219964E+03  0.10316507400E+04  0.10100000352E+00 0. -1.
       -3    1    3    3    0  502  0.80386960361E+03  0.61789820446E+03  0.69386070524E+03  0.12285956288E+04  0.10100000352E+00 0.  1.
</event>
<event>
 5   0  0.2753631E-05  0.2186446E+04  0.7818609E-02  0.8524091E-01
        1   -1    0    0  501    0  0.00000000000E+00  0.00000000000E+00  0.18681428270E+04  0.18681428271E+04  0.50400001928E-02 0. -1.
       -1   -1    0    0    0  501  0.00000000000E+00  0.00000000000E+00 -0.63974553420E+03  0.63974553422E+03  0.50400001928E-02 0.  1.
    10030    2    1    2    0    0  0.00000000000E+00  0.00000000000E+00  0.12283972928E+04  0.25078883613E+04  0.21864455455E+04 0.  0.
        4    1    3    3  502    0  0.10315468577E+04 -0.33547112231E+03  0.45816808424E+03  0.11775183225E+04  0.12699999809E+01 0.  1.
       -4    1    3    3    0  502 -0.10315468577E+04  0.33547112231E+03  0.77022920861E+03  0.13303700388E+04  0.12699999809E+01 0. -1.
</event>
<event>
 5   0  0.6306919E-05  0.2186066E+04  0.7818609E-02  0.8524250E-01
       -2   -1    0    0    0  501  0.00000000000E+00  0.00000000000E+00  0.51356126212E+03  0.51356126213E+03  0.25500000920E-02 0. -1.
        2   -1    0    0  501    0  0.00000000000E+00  0.00000000000E+00 -0.23263463016E+04  0.23263463016E+04  0.25500000920E-02 0.  1.
    10030    2    1    2    0    0  0.00000000000E+00  0.00000000000E+00 -0.18127850395E+04  0.28399075637E+04  0.21860661864E+04 0.  0.
        3    1    3    3  502    0  0.40154735396E+03  0.13044733190E+03  0.40335328448E+03  0.58390980997E+03  0.10100000352E+00 0. -1.
       -3    1    3    3    0  502 -0.40154735396E+03 -0.13044733190E+03 -0.22161383239E+04  0.22559977537E+04  0.10100000352E+00 0.  1.
</event>
<event>
 5   0  0.2929471E-05  0.2142236E+04  0.7818609E-02  0.8542863E-01
       -1   -1    0    0    0  501  0.00000000000E+00  0.00000000000E+00  0.75428162341E+03  0.75428162342E+03  0.50400001928E-02 0.  1.
        1   -1    0    0  501    0  0.00000000000E+00  0.00000000000E+00 -0.15210422648E+04  0.15210422648E+04  0.50400001928E-02 0. -1.
    10030    2    1    2    0    0  0.00000000000E+00  0.00000000000E+00 -0.76676064138E+03  0.22753238882E+04  0.21422364284E+04 0.  0.
        2    1    3    3  502    0 -0.72732441502E+03 -0.78553578273E+03 -0.34617622947E+03  0.11251245498E+04  0.25500000920E-02 0. -1.
       -2    1    3    3    0  502  0.72732441502E+03  0.78553578273E+03 -0.42058441190E+03  0.11501993384E+04  0.25500000920E-02 0.  1.
</event>
<event>
 5   0  0.6445740E-05  0.2128041E+04  0.7818609E-02  0.8548991E-01
        2   -1    0    0  501    0  0.00000000000E+00  0.00000000000E+00  0.12479553184E+04  0.12479553184E+04  0.25500000920E-02 0.  1.
       -2   -1    0    0    0  501  0.00000000000E+00  0.00000000000E+00 -0.90719571892E+03  0.90719571893E+03  0.25500000920E-02 0. -1.
    10030    2    1    2    0    0  0.00000000000E+00  0.00000000000E+00  0.34075959946E+03  0.21551510373E+04  0.21280410919E+04 0.  0.
        5    1    3    3  502    0  0.24248278007E+03  0.31691688536E+03  0.11692938077E+04  0.12355178305E+04  0.46999998093E+01 0.  1.
       -5    1    3    3    0  502 -0.24248278007E+03 -0.31691688536E+03 -0.82853420822E+03  0.91963320679E+03  0.46999998093E+01 0. -1.
</event>
<event>
 5   0  0.6306919E-05  0.2200382E+04  0.7818609E-02  0.8518269E-01
       -2   -1    0    0    0  501  0.00000000000E+00  0.00000000000E+00  0.16185469666E+04  0.16185469666E+04  0.25500000920E-02 0.  1.
        2   -1    0    0  501    0  0.00000000000E+00  0.00000000000E+00 -0.74784376033E+03  0.74784376034E+03  0.25500000920E-02 0. -1.
    10030    2    1    2    0    0  0.00000000000E+00  0.00000000000E+00  0.87070320624E+03  0.23663907269E+04  0.22003820121E+04 0.  0.
        3    1    3    3  502    0 -0.76556854890E+03 -0.61829591511E+03 -0.93736057024E+02  0.98851985327E+03  0.10100000352E+00 0. -1.
       -3    1    3    3    0  502  0.76556854890E+03  0.61829591511E+03  0.96443926326E+03  0.13778708736E+04  0.10100000352E+00 0.  1.
</event>
<event>
 5   0  0.2929471E-05  0.2170443E+04  0.7818609E-02  0.8530832E-01
       -1   -1    0    0    0  501  0.00000000000E+00  0.00000000000E+00  0.14206472020E+04  0.14206472020E+04  0.50400001928E-02 0.  1.
        1   -1    0    0  501    0  0.00000000000E+00  0.00000000000E+00 -0.82899237404E+03  0.82899237405E+03  0.50400001928E-02 0. -1.
    10030    2    1    2    0    0  0.00000000000E+00  0.00000000000E+00  0.59165482799E+03  0.22496395761E+04  0.21704429932E+04 0.  0.
        2    1    3    3  502    0 -0.91276457103E+03 -0.43340378765E+03  0.70616134267E+03  0.12327375419E+04  0.25500000920E-02 0.  1.
       -2    1    3    3    0  502  0.91276457103E+03  0.43340378765E+03 -0.11450651468E+03  0.10169020342E+04  0.25500000920E-02 0. -1.
</event>
<event>
 5   0  0.2929471E-05  0.2289036E+04  0.7818609E-02  0.8482257E-01
        1   -1    0    0  501    0  0.00000000000E+00  0.00000000000E+00  0.80023252094E+03  0.80023252096E+03  0.50400001928E-02 0. -1.
       -1   -1    0    0    0  501  0.00000000000E+00  0.00000000000E+00 -0.16369261735E+04  0.16369261735E+04  0.50400001928E-02 0.  1.
    10030    2    1    2    0    0  0.00000000000E+00  0.00000000000E+00 -0.83669365256E+03  0.24371586945E+04  0.22890360927E+04 0.  0.
        2    1    3    3  502    0 -0.51864271710E+02 -0.71013679156E+03  0.53570509457E+03  0.89104663950E+03  0.25500000920E-02 0. -1.
       -2    1    3    3    0  502  0.51864271710E+02  0.71013679156E+03 -0.13723987471E+04  0.15461120550E+04  0.25500000920E-02 0.  1.
</event>
<event>
 5   0  0.2910318E-05  0.2200664E+04  0.7818609E-02  0.8518152E-01
        1   -1    0    0  501    0  0.00000000000E+00  0.00000000000E+00  0.10409207663E+04  0.10409207664E+04  0.50400001928E-02 0.  1.
       -1   -1    0    0    0  501  0.00000000000E+00  0.00000000000E+00 -0.11631345513E+04  0.11631345514E+04  0.50400001928E-02 0. -1.
    10030    2    1    2    0    0  0.00000000000E+00  0.00000000000E+00 -0.12221378501E+03  0.22040553177E+04  0.22006643620E+04 0.  0.
        5    1    3    3  502    0  0.27189465716E+03 -0.51954886314E+03 -0.99358990834E+03  0.11537333842E+04  0.46999998093E+01 0. -1.
       -5    1    3    3    0  502 -0.27189465716E+03  0.51954886314E+03  0.87137612333E+03  0.10503219335E+04  0.46999998093E+01 0.  1.
</event>
<event>
 5   0  0.6414768E-05  0.2231391E+04  0.7818609E-02  0.8505475E-01
        2   -1    0    0  501    0  0.00000000000E+00  0.00000000000E+00  0.14772186652E+04  0.14772186652E+04  0.25500000920E-02 0.  1.
       -2   -1    0    0    0  501  0.00000000000E+00  0.00000000000E+00 -0.84264902785E+03  0.84264902786E+03  0.25500000920E-02 0. -1.
    10030    2    1    2    0    0  0.00000000000E+00  0.00000000000E+00  0.63456963733E+03  0.23198676930E+04  0.22313913795E+04 0.  0.
        2    1    3    3  502    0  0.48183547315E+03 -0.62561406501E+03 -0.50214101748E+03  0.93579056576E+03  0.25500000920E-02 0. -1.
       -2    1    3    3    0  502 -0.48183547315E+03  0.62561406501E+03  0.11367106548E+04  0.13840771273E+04  0.25500000920E-02 0.  1.
</event>
<event>
 5   0  0.6414768E-05  0.2120165E+04  0.7818609E-02  0.8552412E-01
       -2   -1    0    0    0  501  0.00000000000E+00  0.00000000000E+00  0.75190330412E+03  0.75190330412E+03  0.25500000920E-02 0.  1.
        2   -1    0    0  501    0  0.00000000000E+00  0.00000000000E+00 -0.14945741831E+04  0.14945741831E+04  0.25500000920E-02 0. -1.
    10030    2    1    2    0    0  0.00000000000E+00  0.00000000000E+00 -0.74267087897E+03  0.22464774872E+04  0.21201653393E+04 0.  0.
        2    1    3    3  502    0 -0.84244751275E+03 -0.25125529990E+03  0.25634918829E+03  0.91573027896E+03  0.25500000920E-02 0.  1.
       -2    1    3    3    0  502  0.84244751275E+03  0.25125529990E+03 -0.99902006726E+03  0.13307472082E+04  0.25500000920E-02 0. -1.
</event>
<event>
 5   0  0.2820239E-05  0.2206842E+04  0.7818609E-02  0.8515586E-01
        1   -1    0    0  501    0  0.00000000000E+00  0.00000000000E+00  0.14134158823E+04  0.14134158823E+04  0.50400001928E-02 0. -1.
       -1   -1    0    0    0  501  0.00000000000E+00  0.00000000000E+00 -0.86141501322E+03  0.86141501323E+03  0.50400001928E-02 0.  1.
    10030    2    1    2    0    0  0.00000000000E+00  0.00000000000E+00  0.55200086906E+03  0.22748308955E+04  0.22068417804E+04 0.  0.
        3    1    3    3  502    0 -0.97992650408E+02 -0.36770761609E+02 -0.85628656750E+03  0.86265946023E+03  0.10100000352E+00 0.  1.
       -3    1    3    3    0  502  0.97992650408E+02  0.36770761609E+02  0.14082874366E+04  0.14121714353E+04  0.10100000352E+00 0. -1.
</event>
<event>
 5   0  0.6628798E-05  0.2203941E+04  0.7818609E-02  0.8516790E-01
        2   -1    0    0  501    0  0.00000000000E+00  0.00000000000E+00  0.14309141669E+04  0.14309141669E+04  0.25500000920E-02 0. -1.
       -2   -1    0    0    0  501  0.00000000000E+00  0.00000000000E+00 -0.84864552576E+03  0.84864552577E+03  0.25500000920E-02 0.  1.
    10030    2    1    2    0    0  0.00000000000E+00  0.00000000000E+00  0.58226864110E+03  0.22795596926E+04  0.22039409298E+04 0.  0.
        4    1    3    3  502    0 -0.76685584476E+03 -0.69066916255E+03  0.69071240591E+03  0.12418442009E+04  0.12699999809E+01 0. -1.
       -4    1    3    3    0  502  0.76685584476E+03  0.69066916255E+03 -0.10844376481E+03  0.10377154917E+04  0.12699999809E+01 0.  1.
</event>
<event>
 5   0  0.2908031E-05  0.2207301E+04  0.7818609E-02  0.8515395E-01
        1   -1    0    0  501    0  0.00000000000E+00  0.00000000000E+00  0.14516017455E+04  0.14516017456E+04  0.50400001928E-02 0. -1.
       -1   -1    0    0    0  501  0.00000000000E+00  0.00000000000E+00 -0.83910373587E+03  0.83910373589E+03  0.50400001928E-02 0.  1.
    10030    2    1    2    0    0  0.00000000000E+00  0.00000000000E+00  0.61249800967E+03  0.22907054814E+04  0.22073010195E+04 0.  0.
        1    1    3    3  502    0  0.27745125584E+02  0.34431729443E+03  0.13940545213E+04  0.14362145382E+04  0.50400001928E-02 0. -1.
       -1    1    3    3    0  502 -0.27745125584E+02 -0.34431729443E+03 -0.78155651163E+03  0.85449094327E+03  0.50400001928E-02 0.  1.
</event>
<event>
 5   0  0.6414768E-05  0.2199591E+04  0.7818609E-02  0.8518598E-01
        2   -1    0    0  501    0  0.00000000000E+00  0.00000000000E+00  0.94164030428E+03  0.94164030428E+03  0.25500000920E-02 0.  1.
       -2   -1    0    0    0  501  0.00000000000E+00  0.00000000000E+00 -0.12845142331E+04  0.12845142331E+04  0.25500000920E-02 0. -1.
    10030    2    1    2    0    0  0.00000000000E+00  0.00000000000E+00 -0.34287392880E+03  0.22261545374E+04  0.21995912105E+04 0.  0.
        2    1    3    3  502    0 -0.28956314337E+03 -0.84731922648E+03  0.47483048524E+03  0.10135386896E+04  0.25500000920E-02 0.  1.
       -2    1    3    3    0  502  0.28956314337E+03  0.84731922648E+03 -0.81770441404E+03  0.12126158478E+04  0.25500000920E-02 0. -1.
</event>
<event>
 5   0  0.2820239E-05  0.2199888E+04  0.7818609E-02  0.8518475E-01
       -1   -1    0    0    0  501  0.00000000000E+00  0.00000000000E+00  0.17030297771E+04  0.17030297771E+04  0.50400001928E-02 0. -1.
        1   -1    0    0  501    0  0.00000000000E+00  0.00000000000E+00 -0.71042594209E+03  0.71042594211E+03  0.50400001928E-02 0.  1.
    10030    2    1    2    0    0  0.00000000000E+00  0.00000000000E+00  0.99260383498E+03  0.24134557192E+04  0.21998877552E+04 0.  0.
        3    1    3    3  502    0  0.65605848870E+03  0.57228445688E+02  0.14628477825E+04  0.16042479486E+04  0.10100000352E+00 0. -1.
       -3    1    3    3    0  502 -0.65605848870E+03 -0.57228445688E+02 -0.47024394753E+03  0.80920777059E+03  0.10100000352E+00 0.  1.
</event>
<event>
 5   0  0.6293013E-05  0.2195972E+04  0.7818609E-02  0.8520106E-01
        2   -1    0    0  501    0  0.00000000000E+00  0.00000000000E+00  0.29029591810E+04  0.29029591810E+04  0.25500000920E-02 0.  1.
       -2   -1    0    0    0  501  0.00000000000E+00  0.00000000000E+00 -0.41529123851E+03  0.41529123852E+03  0.25500000920E-02 0. -1.
    10030    2    1    2    0    0  0.00000000000E+00  0.00000000000E+00  0.24876679425E+04  0.33182504195E+04  0.21959722345E+04 0.  0.
        1    1    3    3  502    0  0.46907723476E+03  0.13176529362E+03  0.27306591644E+04  0.27737871253E+04  0.50400001928E-02 0.  1.
       -1    1    3    3    0  502 -0.46907723476E+03 -0.13176529362E+03 -0.24299122187E+03  0.54446329418E+03  0.50400001928E-02 0. -1.
</event>
<event>
 5   0  0.2245375E-05  0.2149392E+04  0.7818609E-02  0.8539793E-01
        4   -1    0    0  501    0  0.00000000000E+00  0.00000000000E+00  0.24174131174E+04  0.24174134510E+04  0.12699999809E+01 0. -1.
       -4   -1    0    0    0  501  0.00000000000E+00  0.00000000000E+00 -0.47777049853E+03  0.47777218647E+03  0.12699999809E+01 0.  1.
    10030    2    1    2    0    0  0.00000000000E+00  0.00000000000E+00  0.19396426189E+04  0.28951856375E+04  0.21493920970E+04 0.  0.
        2    1    3    3  502    0  0.86046097286E+03  0.23181967625E+03  0.16069375552E+03  0.90551418055E+03  0.25500000920E-02 0.  1.
       -2    1    3    3    0  502 -0.86046097286E+03 -0.23181967625E+03  0.17789488634E+04  0.19896714569E+04  0.25500000920E-02 0. -1.
</event>
<event>
 5   0  0.2908031E-05  0.2215263E+04  0.7818609E-02  0.8512102E-01
        1   -1    0    0  501    0  0.00000000000E+00  0.00000000000E+00  0.13435709447E+04  0.13435709447E+04  0.50400001928E-02 0.  1.
       -1   -1    0    0    0  501  0.00000000000E+00  0.00000000000E+00 -0.91312478659E+03  0.91312478661E+03  0.50400001928E-02 0. -1.
    10030    2    1    2    0    0  0.00000000000E+00  0.00000000000E+00  0.43044615813E+03  0.22566957313E+04  0.22152633543E+04 0.  0.
        1    1    3    3  502    0 -0.47574320554E+03  0.89385451571E+03 -0.24210592406E+03  0.10411161181E+04  0.50400001928E-02 0. -1.
       -1    1    3    3    0  502  0.47574320554E+03 -0.89385451571E+03  0.67255208219E+03  0.12155796133E+04  0.50400001928E-02 0.  1.
</event>
<event>
 5   0  0.2753631E-05  0.2182646E+04  0.7818609E-02  0.8525686E-01
       -1   -1    0    0    0  501  0.00000000000E+00  0.00000000000E+00  0.16704769861E+04  0.16704769861E+04  0.50400001928E-02 0. -1.
        1   -1    0    0  501    0  0.00000000000E+00  0.00000000000E+00 -0.71296188548E+03  0.71296188550E+03  0.50400001928E-02 0.  1.
    10030    2    1    2    0    0  0.00000000000E+00  0.00000000000E+00  0.95751510058E+03  0.23834388716E+04  0.21826464869E+04 0.  0.
        4    1    3    3  502    0  0.10467355876E+04 -0.30783732815E+03  0.50472770311E+03  0.12021526018E+04  0.12699999809E+01 0.  1.
       -4    1    3    3    0  502 -0.10467355876E+04  0.30783732815E+03  0.45278739747E+03  0.11812862697E+04  0.12699999809E+01 0. -1.
</event>
<event>
 5   0  0.2753631E-05  0.2244516E+04  0.7818609E-02  0.8500125E-01
       -1   -1    0    0    0  501  0.00000000000E+00  0.00000000000E+00  0.90081235057E+03  0.90081235059E+03  0.50400001928E-02 0.  1.
        1   -1    0    0  501    0  0.00000000000E+00  0.00000000000E+00 -0.13981419611E+04  0.13981419612E+04  0.50400001928E-02 0. -1.
    10030    2    1    2    0    0  0.00000000000E+00  0.00000000000E+00 -0.49732961057E+03  0.22989543117E+04  0.22445164704E+04 0.  0.
        4    1    3    3  502    0 -0.48720157578E+03 -0.10098409846E+04 -0.19935420777E+03  0.11388098624E+04  0.12699999809E+01 0.  1.
       -4    1    3    3    0  502  0.48720157578E+03  0.10098409846E+04 -0.29797540280E+03  0.11601444493E+04  0.12699999809E+01 0. -1.
</event>
<event>
 5   0  0.6414768E-05  0.2188252E+04  0.7818609E-02  0.8523334E-01
        2   -1    0    0  501    0  0.00000000000E+00  0.00000000000E+00  0.20610855523E+04  0.20610855523E+04  0.25500000920E-02 0.  1.
       -2   -1    0    0    0  501  0.00000000000E+00  0.00000000000E+00 -0.58081636755E+03  0.58081636756E+03  0.25500000920E-02 0. -1.
    10030    2    1    2    0    0  0.00000000000E+00  0.00000000000E+00  0.14802691847E+04  0.26419019199E+04  0.21882524751E+04 0.  0.
        2    1    3    3  502    0  0.81141554350E+02  0.10131535568E+04  0.25113902715E+03  0.10469646089E+04  0.25500000920E-02 0. -1.
       -2    1    3    3    0  502 -0.81141554350E+02 -0.10131535568E+04  0.12291301576E+04  0.15949373109E+04  0.25500000920E-02 0.  1.
</event>
<event>
 5   0  0.6414768E-05  0.2194070E+04  0.7818609E-02  0.8520900E-01
        2   -1    0    0  501    0  0.00000000000E+00  0.00000000000E+00  0.12236154036E+04  0.12236154036E+04  0.25500000920E-02 0.  1.
       -2   -1    0    0    0  501  0.00000000000E+00  0.00000000000E+00 -0.98354932737E+03  0.98354932737E+03  0.25500000920E-02 0. -1.
    10030    2    1    2    0    0  0.00000000000E+00  0.00000000000E+00  0.24006607622E+03  0.22071647310E+04  0.21940702880E+04 0.  0.
        2    1    3    3  502    0  0.17268978574E+03 -0.35197740841E+03 -0.91066769007E+03  0.99147642427E+03  0.25500000920E-02 0. -1.
       -2    1    3    3    0  502 -0.17268978574E+03  0.35197740841E+03  0.11507337663E+04  0.12156883067E+04  0.25500000920E-02 0.  1.
</event>
<event>
 5   0  0.6628798E-05  0.2156385E+04  0.7818609E-02  0.8536804E-01
        2   -1    0    0  501    0  0.00000000000E+00  0.00000000000E+00  0.15835911814E+04  0.15835911814E+04  0.25500000920E-02 0.  1.
       -2   -1    0    0    0  501  0.00000000000E+00  0.00000000000E+00 -0.73409065216E+03  0.73409065216E+03  0.25500000920E-02 0. -1.
    10030    2    1    2    0    0  0.00000000000E+00  0.00000000000E+00  0.84950052929E+03  0.23176818336E+04  0.21563853859E+04 0.  0.
        4    1    3    3  502    0  0.56025930560E+03 -0.91615692030E+03  0.52819868250E+03  0.11967578925E+04  0.12699999809E+01 0. -1.
       -4    1    3    3    0  502 -0.56025930560E+03  0.91615692030E+03  0.32130184679E+03  0.11209239411E+04  0.12699999809E+01 0.  1.
</event>
<event>
 5   0  0.6445740E-05  0.1966250E+04  0.7818609E-02  0.8622564E-01
       -2   -1    0    0    0  501  0.00000000000E+00  0.00000000000E+00  0.10959902732E+04  0.10959902732E+04  0.25500000920E-02 0. -1.
        2   -1    0    0  501    0  0.00000000000E+00  0.00000000000E+00 -0.88188279576E+03  0.88188279576E+03  0.25500000920E-02 0.  1.
    10030    2    1    2    0    0  0.00000000000E+00  0.00000000000E+00  0.21410747748E+03  0.19778730690E+04  0.19662502041E+04 0.  0.
        5    1    3    3  502    0 -0.85216549542E+03 -0.48130845662E+03  0.20071165605E+03  0.99907513274E+03  0.46999998093E+01 0.  1.
       -5    1    3    3    0  502  0.85216549542E+03  0.48130845662E+03  0.13395821430E+02  0.97879793626E+03  0.46999998093E+01 0. -1.
</event>
<event>
 5   0  0.6414768E-05  0.2187518E+04  0.7818609E-02  0.8523641E-01
        2   -1    0    0  501    0  0.00000000000E+00  0.00000000000E+00  0.89581931209E+03  0.89581931210E+03  0.25500000920E-02 0.  1.
       -2   -1    0    0    0  501  0.00000000000E+00  0.00000000000E+00 -0.13354353335E+04  0.13354353335E+04  0.25500000920E-02 0. -1.
    10030    2    1    2    0    0  0.00000000000E+00  0.00000000000E+00 -0.43961602143E+03  0.22312546456E+04  0.21875180107E+04 0.  0.
        2    1    3    3  502    0  0.34386565886E+03  0.11179591655E+02 -0.12788052597E+04  0.13242777152E+04  0.25500000920E-02 0. -1.
       -2    1    3    3    0  502 -0.34386565886E+03 -0.11179591655E+02  0.83918923832E+03  0.90697693042E+03  0.25500000920E-02 0.  1.
</event>
<event>
 5   0  0.6293013E-05  0.2204762E+04  0.7818609E-02  0.8516449E-01
       -2   -1    0    0    0  501  0.00000000000E+00  0.00000000000E+00  0.57440491446E+03  0.57440491446E+03  0.25500000920E-02 0.  1.
        2   -1    0    0  501    0  0.00000000000E+00  0.00000000000E+00 -0.21156569720E+04  0.21156569720E+04  0.25500000920E-02 0. -1.
    10030    2    1    2    0    0  0.00000000000E+00  0.00000000000E+00 -0.15412520575E+04  0.26900618864E+04  0.22047619028E+04 0.  0.
        1    1    3    3  502    0  0.66171142563E+02 -0.58558618722E+03  0.36608197956E+03  0.69376207634E+03  0.50400001928E-02 0.  1.
       -1    1    3    3    0  502 -0.66171142563E+02  0.58558618722E+03 -0.19073340371E+04  0.19962998101E+04  0.50400001928E-02 0. -1.
</event>
<event>
 5   0  0.6628798E-05  0.2228672E+04  0.7818609E-02  0.8506588E-01
       -2   -1    0    0    0  501  0.00000000000E+00  0.00000000000E+00  0.86918216850E+03  0.86918216850E+03  0.25500000920E-02 0.  1.
        2   -1    0    0  501    0  0.00000000000E+00  0.00000000000E+00 -0.14286354547E+04  0.14286354547E+04  0.25500000920E-02 0. -1.
    10030    2    1    2    0    0  0.00000000000E+00  0.00000000000E+00 -0.55945328621E+03  0.22978176232E+04  0.22286717681E+04 0.  0.
        4    1    3    3  502    0  0.16240084635E+03 -0.46417297743E+03  0.75125371507E+03  0.89789439533E+03  0.12699999809E+01 0.  1.
       -4    1    3    3    0  502 -0.16240084635E+03  0.46417297743E+03 -0.13107070013E+04  0.13999232279E+04  0.12699999809E+01 0. -1.
</event>
<event>
 5   0  0.6628798E-05  0.2180411E+04  0.7818609E-02  0.8526626E-01
       -2   -1    0    0    0  501  0.00000000000E+00  0.00000000000E+00  0.88267145384E+03  0.88267145385E+03  0.25500000920E-02 0. -1.
        2   -1    0    0  501    0  0.00000000000E+00  0.00000000000E+00 -0.13465356464E+04  0.13465356464E+04  0.25500000920E-02 0.  1.
    10030    2    1    2    0    0  0.00000000000E+00  0.00000000000E+00 -0.46386419259E+03  0.22292071003E+04  0.21804114994E+04 0.  0.
        4    1    3    3  502    0  0.24731559411E+03  0.14348290328E+03  0.84365472660E+03  0.89079024311E+03  0.12699999809E+01 0. -1.
       -4    1    3    3    0  502 -0.24731559411E+03 -0.14348290328E+03 -0.13075189192E+04  0.13384168572E+04  0.12699999809E+01 0.  1.
</event>
<event>
 5   0  0.6445740E-05  0.2177770E+04  0.7818609E-02  0.8527738E-01
       -2   -1    0    0    0  501  0.00000000000E+00  0.00000000000E+00  0.86496142772E+03  0.86496142773E+03  0.25500000920E-02 0.  1.
        2   -1    0    0  501    0  0.00000000000E+00  0.00000000000E+00 -0.13707780379E+04  0.13707780379E+04  0.25500000920E-02 0. -1.
    10030    2    1    2    0    0  0.00000000000E+00  0.00000000000E+00 -0.50581661014E+03  0.22357394656E+04  0.21777696193E+04 0.  0.
        5    1    3    3  502    0  0.11208878568E+03  0.49199900500E+03 -0.12434870959E+04  0.13419795693E+04  0.46999998093E+01 0. -1.
       -5    1    3    3    0  502 -0.11208878568E+03 -0.49199900500E+03  0.73767048571E+03  0.89375989633E+03  0.46999998093E+01 0.  1.
</event>
<event>
 5   0  0.2753631E-05  0.2212148E+04  0.7818609E-02  0.8513389E-01
       -1   -1    0    0    0  501  0.00000000000E+00  0.00000000000E+00  0.10402606697E+04  0.10402606697E+04  0.50400001928E-02 0.  1.
        1   -1    0    0  501    0  0.00000000000E+00  0.00000000000E+00 -0.11760506273E+04  0.11760506273E+04  0.50400001928E-02 0. -1.
    10030    2    1    2    0    0  0.00000000000E+00  0.00000000000E+00 -0.13578995753E+03  0.22163112970E+04  0.22121475657E+04 0.  0.
        4    1    3    3  502    0  0.27812324593E+02  0.20738662045E+03  0.10202500551E+04  0.10414866891E+04  0.12699999809E+01 0.  1.
       -4    1    3    3    0  502 -0.27812324593E+02 -0.20738662045E+03 -0.11560400126E+04  0.11748246079E+04  0.12699999809E+01 0. -1.
</event>
<event>
 5   0  0.6445740E-05  0.2182598E+04  0.7818609E-02  0.8525706E-01
       -2   -1    0    0    0  501  0.00000000000E+00  0.00000000000E+00  0.80204287495E+03  0.80204287496E+03  0.25500000920E-02 0. -1.
        2   -1    0    0  501    0  0.00000000000E+00  0.00000000000E+00 -0.14848744447E+04  0.14848744447E+04  0.25500000920E-02 0.  1.
    10030    2    1    2    0    0  0.00000000000E+00  0.00000000000E+00 -0.68283156970E+03  0.22869173196E+04  0.21825975062E+04 0.  0.
        5    1    3    3  502    0 -0.33703155439E+03  0.77984311972E+03 -0.10591105183E+04  0.13577491447E+04  0.46999998093E+01 0.  1.
       -5    1    3    3    0  502  0.33703155439E+03 -0.77984311972E+03  0.37627894862E+03  0.92916817488E+03  0.46999998093E+01 0. -1.
</event>
<event>
 5   0  0.6306919E-05  0.2165219E+04  0.7818609E-02  0.8533046E-01
       -2   -1    0    0    0  501  0.00000000000E+00  0.00000000000E+00  0.74919356233E+03  0.74919356233E+03  0.25500000920E-02 0. -1.
        2   -1    0    0  501    0  0.00000000000E+00  0.00000000000E+00 -0.15644060480E+04  0.15644060480E+04  0.25500000920E-02 0.  1.
    10030    2    1    2    0    0  0.00000000000E+00  0.00000000000E+00 -0.81521248563E+03  0.23135996103E+04  0.21652186402E+04 0.  0.
        3    1    3    3  502    0 -0.68073116075E+03 -0.30830624991E+03 -0.12446100777E+04  0.14517237728E+04  0.10100000352E+00 0.  1.
       -3    1    3    3    0  502  0.68073116075E+03  0.30830624991E+03  0.42939759205E+03  0.86187583746E+03  0.10100000352E+00 0. -1.
</event>
<event>
 5   0  0.2245375E-05  0.2207877E+04  0.7818609E-02  0.8515156E-01
       -4   -1    0    0    0  501  0.00000000000E+00  0.00000000000E+00  0.16705270318E+04  0.16705275145E+04  0.12699999809E+01 0. -1.
        4   -1    0    0  501    0  0.00000000000E+00  0.00000000000E+00 -0.72951755818E+03  0.72951866363E+03  0.12699999809E+01 0.  1.
    10030    2    1    2    0    0  0.00000000000E+00  0.00000000000E+00  0.94100947361E+03  0.24000461782E+04  0.22078774486E+04 0.  0.
        3    1    3    3  502    0 -0.66608094141E+03 -0.32361229887E+03  0.13604773411E+04  0.15489633135E+04  0.10100000352E+00 0. -1.
       -3    1    3    3    0  502  0.66608094141E+03  0.32361229887E+03 -0.41946786754E+03  0.85108286470E+03  0.10100000352E+00 0.  1.
</event>
<event>
 5   0  0.2908031E-05  0.2201409E+04  0.7818609E-02  0.8517842E-01
       -1   -1    0    0    0  501  0.00000000000E+00  0.00000000000E+00  0.11529114046E+04  0.11529114046E+04  0.50400001928E-02 0.  1.
        1   -1    0    0  501    0  0.00000000000E+00  0.00000000000E+00 -0.10508612454E+04  0.10508612455E+04  0.50400001928E-02 0. -1.
    10030    2    1    2    0    0  0.00000000000E+00  0.00000000000E+00  0.10205015916E+03  0.22037726501E+04  0.22014085623E+04 0.  0.
        1    1    3    3  502    0  0.15865876043E+03  0.10867318883E+04 -0.22477984868E+02  0.10984826167E+04  0.50400001928E-02 0. -1.
       -1    1    3    3    0  502 -0.15865876043E+03 -0.10867318883E+04  0.12452814403E+03  0.11052900334E+04  0.50400001928E-02 0.  1.
</event>
<event>
 5   0  0.2910318E-05  0.2200087E+04  0.7818609E-02  0.8518392E-01
        1   -1    0    0  501    0  0.00000000000E+00  0.00000000000E+00  0.15746376725E+04  0.15746376726E+04  0.50400001928E-02 0.  1.
       -1   -1    0    0    0  501  0.00000000000E+00  0.00000000000E+00 -0.76849151449E+03  0.76849151451E+03  0.50400001928E-02 0. -1.
    10030    2    1    2    0    0  0.00000000000E+00  0.00000000000E+00  0.80614615806E+03  0.23431291871E+04  0.22000869890E+04 0.  0.
        5    1    3    3  502    0 -0.96127661946E+03  0.47228901617E+03  0.13583253352E+03  0.10796213323E+04  0.46999998093E+01 0.  1.
       -5    1    3    3    0  502  0.96127661946E+03 -0.47228901617E+03  0.67031362453E+03  0.12635078548E+04  0.46999998093E+01 0. -1.
</event>
<event>
 5   0  0.2910318E-05  0.2196257E+04  0.7818609E-02  0.8519988E-01
        1   -1    0    0  501    0  0.00000000000E+00  0.00000000000E+00  0.21426551664E+04  0.21426551664E+04  0.50400001928E-02 0. -1.
       -1   -1    0    0    0  501  0.00000000000E+00  0.00000000000E+00 -0.56279973669E+03  0.56279973671E+03  0.50400001928E-02 0.  1.
    10030    2    1    2    0    0  0.00000000000E+00  0.00000000000E+00  0.15798554297E+04  0.27054549031E+04  0.21962566002E+04 0.  0.
        5    1    3    3  502    0 -0.49363863361E+03 -0.27257661859E+03  0.19506704134E+04  0.20305453123E+04  0.46999998093E+01 0. -1.
       -5    1    3    3    0  502  0.49363863361E+03  0.27257661859E+03 -0.37081498372E+03  0.67490959079E+03  0.46999998093E+01 0.  1.
</event>
<event>
 5   0  0.6293013E-05  0.2210015E+04  0.7818609E-02  0.8514271E-01
        2   -1    0    0  501    0  0.00000000000E+00  0.00000000000E+00  0.90633740556E+03  0.90633740557E+03  0.25500000920E-02 0. -1.
       -2   -1    0    0    0  501  0.00000000000E+00  0.00000000000E+00 -0.13472263917E+04  0.13472263917E+04  0.25500000920E-02 0.  1.
    10030    2    1    2    0    0  0.00000000000E+00  0.00000000000E+00 -0.44088898615E+03  0.22535637973E+04  0.22100150883E+04 0.  0.
        1    1    3    3  502    0 -0.41140666312E+03  0.97768989956E+03  0.95349306740E+02  0.10649997523E+04  0.50400001928E-02 0.  1.
       -1    1    3    3    0  502  0.41140666312E+03 -0.97768989956E+03 -0.53623829289E+03  0.11885640449E+04  0.50400001928E-02 0. -1.
</event>
<event>
 5   0  0.6293013E-05  0.2181374E+04  0.7818609E-02  0.8526221E-01
        2   -1    0    0  501    0  0.00000000000E+00  0.00000000000E+00  0.16777542148E+04  0.16777542148E+04  0.25500000920E-02 0. -1.
       -2   -1    0    0    0  501  0.00000000000E+00  0.00000000000E+00 -0.70904196986E+03  0.70904196987E+03  0.25500000920E-02 0.  1.
    10030    2    1    2    0    0  0.00000000000E+00  0.00000000000E+00  0.96871224493E+03  0.23867961847E+04  0.21813740197E+04 0.  0.
        1    1    3    3  502    0 -0.52028254387E+03 -0.79566005551E+03  0.10693328309E+04  0.14308184905E+04  0.50400001928E-02 0. -1.
       -1    1    3    3    0  502  0.52028254387E+03  0.79566005551E+03 -0.10062058600E+03  0.95597769417E+03  0.50400001928E-02 0.  1.
</event>
<event>
 5   0  0.2753631E-05  0.2037386E+04  0.7818609E-02  0.8589338E-01
       -1   -1    0    0    0  501  0.00000000000E+00  0.00000000000E+00  0.72735795424E+03  0.72735795425E+03  0.50400001928E-02 0. -1.
        1   -1    0    0  501    0  0.00000000000E+00  0.00000000000E+00 -0.14267183865E+04  0.14267183865E+04  0.50400001928E-02 0.  1.
    10030    2    1    2    0    0  0.00000000000E+00  0.00000000000E+00 -0.69936043226E+03  0.21540763408E+04  0.20373855471E+04 0.  0.
        4    1    3    3  502    0  0.81474661038E+03 -0.33915315782E+03 -0.88764137161E+03  0.12516971363E+04  0.12699999809E+01 0.  1.
       -4    1    3    3    0  502 -0.81474661038E+03  0.33915315782E+03  0.18828093935E+03  0.90237920444E+03  0.12699999809E+01 0. -1.
</event>
<event>
 5   0  0.6414768E-05  0.2191944E+04  0.7818609E-02  0.8521789E-01
       -2   -1    0    0    0  501  0.00000000000E+00  0.00000000000E+00  0.14876889489E+04  0.14876889489E+04  0.25500000920E-02 0. -1.
        2   -1    0    0  501    0  0.00000000000E+00  0.00000000000E+00 -0.80739662613E+03  0.80739662613E+03  0.25500000920E-02 0.  1.
    10030    2    1    2    0    0  0.00000000000E+00  0.00000000000E+00  0.68029232276E+03  0.22950855750E+04  0.21919443771E+04 0.  0.
        2    1    3    3  502    0  0.84325774685E+03 -0.49607951122E+03 -0.17703581122E+03  0.99424352527E+03  0.25500000920E-02 0. -1.
       -2    1    3    3    0  502 -0.84325774685E+03  0.49607951122E+03  0.85732813398E+03  0.13008420497E+04  0.25500000920E-02 0.  1.
</event>
<event>
 5   0  0.2245375E-05  0.2191994E+04  0.7818609E-02  0.8521768E-01
        3   -1    0    0  501    0  0.00000000000E+00  0.00000000000E+00  0.19019551220E+04  0.19019551247E+04  0.10100000352E+00 0. -1.
       -3   -1    0    0    0  501  0.00000000000E+00  0.00000000000E+00 -0.63156574592E+03  0.63156575399E+03  0.10100000352E+00 0.  1.
    10030    2    1    2    0    0  0.00000000000E+00  0.00000000000E+00  0.12703893761E+04  0.25335208787E+04  0.21919942691E+04 0.  0.
        1    1    3    3  502    0  0.93114750681E+02  0.56015791779E+03  0.17186744997E+04  0.18100522880E+04  0.50400001928E-02 0. -1.
       -1    1    3    3    0  502 -0.93114750681E+02 -0.56015791779E+03 -0.44828512354E+03  0.72346859066E+03  0.50400001928E-02 0.  1.
</event>
<event>
 5   0  0.6445740E-05  0.2199207E+04  0.7818609E-02  0.8518758E-01
       -2   -1    0    0    0  501  0.00000000000E+00  0.00000000000E+00  0.70819421785E+03  0.70819421786E+03  0.25500000920E-02 0.  1.
        2   -1    0    0  501    0  0.00000000000E+00  0.00000000000E+00 -0.17073398622E+04  0.17073398622E+04  0.25500000920E-02 0. -1.
    10030    2    1    2    0    0  0.00000000000E+00  0.00000000000E+00 -0.99914564439E+03  0.24155340801E+04  0.21992073284E+04 0.  0.
        5    1    3    3  502    0  0.41825219900E+03  0.74974267410E+03  0.25507493339E+03  0.89561950123E+03  0.46999998093E+01 0.  1.
       -5    1    3    3    0  502 -0.41825219900E+03 -0.74974267410E+03 -0.12542205778E+04  0.15199145789E+04  0.46999998093E+01 0. -1.
</event>
<event>
 5   0  0.6445740E-05  0.1901255E+04  0.7818609E-02  0.8654232E-01
        2   -1    0    0  501    0  0.00000000000E+00  0.00000000000E+00  0.14614074135E+04  0.14614074135E+04  0.25500000920E-02 0.  1.
       -2   -1    0    0    0  501  0.00000000000E+00  0.00000000000E+00 -0.61837156655E+03  0.61837156656E+03  0.25500000920E-02 0. -1.
    10030    2    1    2    0    0  0.00000000000E+00  0.00000000000E+00  0.84303584692E+03  0.20797789800E+04  0.19012551556E+04 0.  0.
        5    1    3    3  502    0 -0.23611718743E+03 -0.29377483941E+03  0.13761691378E+04  0.14268561835E+04  0.46999998093E+01 0.  1.
       -5    1    3    3    0  502  0.23611718743E+03  0.29377483941E+03 -0.53313329086E+03  0.65292279658E+03  0.46999998093E+01 0. -1.
</event>
<event>
 5   0  0.2908031E-05  0.2346729E+04  0.7818609E-02  0.8459721E-01
       -1   -1    0    0    0  501  0.00000000000E+00  0.00000000000E+00  0.10453528977E+04  0.10453528977E+04  0.50400001928E-02 0. -1.
        1   -1    0    0  501    0  0.00000000000E+00  0.00000000000E+00 -0.13170525925E+04  0.13170525925E+04  0.50400001928E-02 0.  1.
    10030    2    1    2    0    0  0.00000000000E+00  0.00000000000E+00 -0.27169969486E+03  0.23624054902E+04  0.23467294211E+04 0.  0.
        1    1    3    3  502    0  0.78498224769E+03 -0.40037619236E+03  0.64410726069E+03  0.10915000632E+04  0.50400001928E-02 0. -1.
       -1    1    3    3    0  502 -0.78498224769E+03  0.40037619236E+03 -0.91580695555E+03  0.12709054270E+04  0.50400001928E-02 0.  1.
</event>
<event>
 5   0  0.2753631E-05  0.2156037E+04  0.7818609E-02  0.8536952E-01
       -1   -1    0    0    0  501  0.00000000000E+00  0.00000000000E+00  0.63418109151E+03  0.63418109153E+03  0.50400001928E-02 0. -1.
        1   -1    0    0  501    0  0.00000000000E+00  0.00000000000E+00 -0.18324803407E+04  0.18324803407E+04  0.50400001928E-02 0.  1.
    10030    2    1    2    0    0  0.00000000000E+00  0.00000000000E+00 -0.11982992492E+04  0.24666614322E+04  0.21560374604E+04 0.  0.
        4    1    3    3  502    0 -0.10023933799E+04  0.37649438356E+03 -0.45633638325E+03  0.11639523257E+04  0.12699999809E+01 0. -1.
       -4    1    3    3    0  502  0.10023933799E+04 -0.37649438356E+03 -0.74196286594E+03  0.13027091065E+04  0.12699999809E+01 0.  1.
</event>
<event>
 5   0  0.6306919E-05  0.2168162E+04  0.7818609E-02  0.8531798E-01
       -2   -1    0    0    0  501  0.00000000000E+00  0.00000000000E+00  0.72890402781E+03  0.72890402782E+03  0.25500000920E-02 0. -1.
        2   -1    0    0  501    0  0.00000000000E+00  0.00000000000E+00 -0.16123271772E+04  0.16123271772E+04  0.25500000920E-02 0.  1.
    10030    2    1    2    0    0  0.00000000000E+00  0.00000000000E+00 -0.88342314938E+03  0.23412312050E+04  0.21681621467E+04 0.  0.
        3    1    3    3  502    0  0.95470316976E+03  0.21354005166E+03 -0.94608745398E+03  0.13609331272E+04  0.10100000352E+00 0.  1.
       -3    1    3    3    0  502 -0.95470316976E+03 -0.21354005166E+03  0.62664304606E+02  0.98029807778E+03  0.10100000352E+00 0. -1.
</event>
<event>
 5   0  0.6293013E-05  0.2185350E+04  0.7818609E-02  0.8524551E-01
        2   -1    0    0  501    0  0.00000000000E+00  0.00000000000E+00  0.21072970033E+04  0.21072970033E+04  0.25500000920E-02 0.  1.
       -2   -1    0    0    0  501  0.00000000000E+00  0.00000000000E+00 -0.56657350113E+03  0.56657350113E+03  0.25500000920E-02 0. -1.
    10030    2    1    2    0    0  0.00000000000E+00  0.00000000000E+00  0.15407235021E+04  0.26738705044E+04  0.21853499867E+04 0.  0.
        1    1    3    3  502    0  0.91071351475E+03  0.48206028932E+03  0.12151621156E+04  0.15932357627E+04  0.50400001928E-02 0.  1.
       -1    1    3    3    0  502 -0.91071351475E+03 -0.48206028932E+03  0.32556138657E+03  0.10806347417E+04  0.50400001928E-02 0. -1.
</event>
<event>
 5   0  0.6445740E-05  0.2206681E+04  0.7818609E-02  0.8515653E-01
       -2   -1    0    0    0  501  0.00000000000E+00  0.00000000000E+00  0.91918358817E+03  0.91918358817E+03  0.25500000920E-02 0. -1.
        2   -1    0    0  501    0  0.00000000000E+00  0.00000000000E+00 -0.13243928464E+04  0.13243928464E+04  0.25500000920E-02 0.  1.
    10030    2    1    2    0    0  0.00000000000E+00  0.00000000000E+00 -0.40520925825E+03  0.22435764346E+04  0.22066809182E+04 0.  0.
        5    1    3    3  502    0  0.46673301799E+03  0.15741247131E+03  0.80118151861E+03  0.94049577988E+03  0.46999998093E+01 0. -1.
       -5    1    3    3    0  502 -0.46673301799E+03 -0.15741247131E+03 -0.12063907769E+04  0.13030806547E+04  0.46999998093E+01 0.  1.
</event>
<event>
 5   0  0.2245375E-05  0.2121038E+04  0.7818609E-02  0.8552032E-01
        4   -1    0    0  501    0  0.00000000000E+00  0.00000000000E+00  0.14203897237E+04  0.14203902914E+04  0.12699999809E+01 0. -1.
       -4   -1    0    0    0  501  0.00000000000E+00  0.00000000000E+00 -0.79182381621E+03  0.79182483468E+03  0.12699999809E+01 0.  1.
    10030    2    1    2    0    0  0.00000000000E+00  0.00000000000E+00  0.62856590745E+03  0.22122151261E+04  0.21210376386E+04 0.  0.
        5    1    3    3  502    0 -0.10008376009E+04  0.21665622958E+03  0.60193241750E+03  0.11878386045E+04  0.46999998093E+01 0. -1.
       -5    1    3    3    0  502  0.10008376009E+04 -0.21665622958E+03  0.26633489944E+02  0.10243765216E+04  0.46999998093E+01 0.  1.
</event>
<event>
 5   0  0.6306919E-05  0.2200605E+04  0.7818609E-02  0.8518176E-01
        2   -1    0    0  501    0  0.00000000000E+00  0.00000000000E+00  0.13154187674E+04  0.13154187674E+04  0.25500000920E-02 0.  1.
       -2   -1    0    0    0  501  0.00000000000E+00  0.00000000000E+00 -0.92036521166E+03  0.92036521166E+03  0.25500000920E-02 0. -1.
    10030    2    1    2    0    0  0.00000000000E+00  0.00000000000E+00  0.39505355569E+03  0.22357839790E+04  0.22006050734E+04 0.  0.
        3    1    3    3  502    0 -0.84750842138E+03  0.65172957178E+03  0.46176851571E+03  0.11645823850E+04  0.10100000352E+00 0.  1.
       -3    1    3    3    0  502  0.84750842138E+03 -0.65172957178E+03 -0.66714960015E+02  0.10712015941E+04  0.10100000352E+00 0. -1.
</event>
<event>
 5   0  0.6628798E-05  0.2198491E+04  0.7818609E-02  0.8519057E-01
       -2   -1    0    0    0  501  0.00000000000E+00  0.00000000000E+00  0.81423340512E+03  0.81423340513E+03  0.25500000920E-02 0.  1.
        2   -1    0    0  501    0  0.00000000000E+00  0.00000000000E+00 -0.14840220361E+04  0.14840220361E+04  0.25500000920E-02 0. -1.
    10030    2    1    2    0    0  0.00000000000E+00  0.00000000000E+00 -0.66978863100E+03  0.22982554412E+04  0.21984906784E+04 0.  0.
        4    1    3    3  502    0  0.72814307620E+03 -0.58025208968E+01 -0.11957386105E+04  0.14000065879E+04  0.12699999809E+01 0. -1.
       -4    1    3    3    0  502 -0.72814307620E+03  0.58025208968E+01  0.52594997951E+03  0.89824885333E+03  0.12699999809E+01 0.  1.
</event>
<event>
 5   0  0.2245375E-05  0.2197492E+04  0.7818609E-02  0.8519473E-01
        3   -1    0    0  501    0  0.00000000000E+00  0.00000000000E+00  0.20037151758E+04  0.20037151783E+04  0.10100000352E+00 0.  1.
       -3   -1    0    0    0  501  0.00000000000E+00  0.00000000000E+00 -0.60250231845E+03  0.60250232691E+03  0.10100000352E+00 0. -1.
    10030    2    1    2    0    0  0.00000000000E+00  0.00000000000E+00  0.14012128573E+04  0.26062175052E+04  0.21974922555E+04 0.  0.
        2    1    3    3  502    0 -0.24158832458E+03 -0.68800629016E+03 -0.27416809806E+03  0.77902870285E+03  0.25500000920E-02 0. -1.
       -2    1    3    3    0  502  0.24158832458E+03  0.68800629016E+03  0.16753809554E+04  0.18271888024E+04  0.25500000920E-02 0.  1.
</event>
<event>
 5   0  0.6306919E-05  0.2249002E+04  0.7818609E-02  0.8498305E-01
        2   -1    0    0  501    0  0.00000000000E+00  0.00000000000E+00  0.20210025347E+04  0.20210025347E+04  0.25500000920E-02 0.  1.
       -2   -1    0    0    0  501  0.00000000000E+00  0.00000000000E+00 -0.62568058776E+03  0.62568058776E+03  0.25500000920E-02 0. -1.
    10030    2    1    2    0    0  0.00000000000E+00  0.00000000000E+00  0.13953219470E+04  0.26466831225E+04  0.22490016041E+04 0.  0.
        3    1    3    3  502    0  0.17253315462E+03  0.96274477073E+03  0.13506210088E+04  0.16675797740E+04  0.10100000352E+00 0.  1.
       -3    1    3    3    0  502 -0.17253315462E+03 -0.96274477073E+03  0.44700938183E+02  0.97910334852E+03  0.10100000352E+00 0. -1.
</event>
<event>
 5   0  0.6628798E-05  0.2196658E+04  0.7818609E-02  0.8519820E-01
        2   -1    0    0  501    0  0.00000000000E+00  0.00000000000E+00  0.12406176026E+04  0.12406176026E+04  0.25500000920E-02 0.  1.
       -2   -1    0    0    0  501  0.00000000000E+00  0.00000000000E+00 -0.97235981322E+03  0.97235981323E+03  0.25500000920E-02 0. -1.
    10030    2    1    2    0    0  0.00000000000E+00  0.00000000000E+00  0.26825778935E+03  0.22129774158E+04  0.21966580984E+04 0.  0.
        4    1    3    3  502    0 -0.27377445780E+03  0.10592640510E+04  0.23145043052E+03  0.11182860538E+04  0.12699999809E+01 0. -1.
       -4    1    3    3    0  502  0.27377445780E+03 -0.10592640510E+04  0.36807358828E+02  0.10946913620E+04  0.12699999809E+01 0.  1.
</event>
<event>
 5   0  0.6293013E-05  0.1912834E+04  0.7818609E-02  0.8648494E-01
        2   -1    0    0  501    0  0.00000000000E+00  0.00000000000E+00  0.11002225028E+04  0.11002225028E+04  0.25500000920E-02 0.  1.
       -2   -1    0    0    0  501  0.00000000000E+00  0.00000000000E+00 -0.83140747949E+03  0.83140747949E+03  0.25500000920E-02 0. -1.
    10030    2    1    2    0    0  0.00000000000E+00  0.00000000000E+00  0.26881502328E+03  0.19316299823E+04  0.19128337282E+04 0.  0.
        1    1    3    3  502    0 -0.55457927732E+03  0.26589894670E+03 -0.60523279139E+03  0.86288304914E+03  0.50400001928E-02 0. -1.
       -1    1    3    3    0  502  0.55457927732E+03 -0.26589894670E+03  0.87404781467E+03  0.10687469331E+04  0.50400001928E-02 0.  1.
</event>
<event>
 5   0  0.2753631E-05  0.2289103E+04  0.7818609E-02  0.8482230E-01
        1   -1    0    0  501    0  0.00000000000E+00  0.00000000000E+00  0.87584389391E+03  0.87584389392E+03  0.50400001928E-02 0. -1.
       -1   -1    0    0    0  501  0.00000000000E+00  0.00000000000E+00 -0.14956988251E+04  0.14956988251E+04  0.50400001928E-02 0.  1.
    10030    2    1    2    0    0  0.00000000000E+00  0.00000000000E+00 -0.61985493115E+03  0.23715427190E+04  0.22891034779E+04 0.  0.
        4    1    3    3  502    0  0.47152067465E+03  0.88293953161E+03  0.26511440699E+03  0.10354714988E+04  0.12699999809E+01 0. -1.
       -4    1    3    3    0  502 -0.47152067465E+03 -0.88293953161E+03 -0.88496933814E+03  0.13360712202E+04  0.12699999809E+01 0.  1.
</event>
<event>
 5   0  0.6306919E-05  0.2222221E+04  0.7818609E-02  0.8509236E-01
       -2   -1    0    0    0  501  0.00000000000E+00  0.00000000000E+00  0.80264599295E+03  0.80264599295E+03  0.25500000920E-02 0. -1.
        2   -1    0    0  501    0  0.00000000000E+00  0.00000000000E+00 -0.15381202838E+04  0.15381202838E+04  0.25500000920E-02 0.  1.
    10030    2    1    2    0    0  0.00000000000E+00  0.00000000000E+00 -0.73547429085E+03  0.23407662768E+04  0.22222205853E+04 0.  0.
        3    1    3    3  502    0  0.10598508878E+04 -0.30543027716E+03 -0.22643754186E+03  0.11259864693E+04  0.10100000352E+00 0. -1.
       -3    1    3    3    0  502 -0.10598508878E+04  0.30543027716E+03 -0.50903674899E+03  0.12147798074E+04  0.10100000352E+00 0.  1.
</event>
<event>
 5   0  0.6445740E-05  0.2205205E+04  0.7818609E-02  0.8516265E-01
        2   -1    0    0  501    0  0.00000000000E+00  0.00000000000E+00  0.11279187498E+04  0.11279187498E+04  0.25500000920E-02 0.  1.
       -2   -1    0    0    0  501  0.00000000000E+00  0.00000000000E+00 -0.10778542613E+04  0.10778542613E+04  0.25500000920E-02 0. -1.
    10030    2    1    2    0    0  0.00000000000E+00  0.00000000000E+00  0.50064488483E+02  0.22057730112E+04  0.22052047805E+04 0.  0.
        5    1    3    3  502    0  0.70767705098E+03 -0.10827788791E+02  0.87070020909E+03  0.11220806538E+04  0.46999998093E+01 0.  1.
       -5    1    3    3    0  502 -0.70767705098E+03  0.10827788791E+02 -0.82063572061E+03  0.10836923574E+04  0.46999998093E+01 0. -1.
</event>
<event>
 5   0  0.2820239E-05  0.2196913E+04  0.7818609E-02  0.8519714E-01
        1   -1    0    0  501    0  0.00000000000E+00  0.00000000000E+00  0.89825672677E+03  0.89825672678E+03  0.50400001928E-02 0.  1.
       -1   -1    0    0    0  501  0.00000000000E+00  0.00000000000E+00 -0.13432757456E+04  0.13432757456E+04  0.50400001928E-02 0. -1.
    10030    2    1    2    0    0  0.00000000000E+00  0.00000000000E+00 -0.44501901886E+03  0.22415324724E+04  0.21969128107E+04 0.  0.
        3    1    3    3  502    0 -0.69613718036E+02 -0.90634129958E+03 -0.85172399533E+03  0.12456863150E+04  0.10100000352E+00 0. -1.
       -3    1    3    3    0  502  0.69613718036E+02  0.90634129958E+03  0.40670497647E+03  0.99584615737E+03  0.10100000352E+00 0.  1.
</event>
<event>
 5   0  0.2753631E-05  0.2251862E+04  0.7818609E-02  0.8497147E-01
       -1   -1    0    0    0  501  0.00000000000E+00  0.00000000000E+00  0.61784091676E+03  0.61784091678E+03  0.50400001928E-02 0.  1.
        1   -1    0    0  501    0  0.00000000000E+00  0.00000000000E+00 -0.20518566663E+04  0.20518566663E+04  0.50400001928E-02 0. -1.
    10030    2    1    2    0    0  0.00000000000E+00  0.00000000000E+00 -0.14340157495E+04  0.26696975830E+04  0.22518623437E+04 0.  0.
        4    1    3    3  502    0 -0.36833999236E+03 -0.25894669210E+03 -0.19404778936E+04  0.19920300720E+04  0.12699999809E+01 0. -1.
       -4    1    3    3    0  502  0.36833999236E+03  0.25894669210E+03  0.50646214406E+03  0.67766751109E+03  0.12699999809E+01 0.  1.
</event>
<event>
 5   0  0.6628798E-05  0.2191761E+04  0.7818609E-02  0.8521865E-01
       -2   -1    0    0    0  501  0.00000000000E+00  0.00000000000E+00  0.90642983962E+03  0.90642983962E+03  0.25500000920E-02 0.  1.
        2   -1    0    0  501    0  0.00000000000E+00  0.00000000000E+00 -0.13249275504E+04  0.13249275504E+04  0.25500000920E-02 0. -1.
    10030    2    1    2    0    0  0.00000000000E+00  0.00000000000E+00 -0.41849771077E+03  0.22313573900E+04  0.21917608145E+04 0.  0.
        4    1    3    3  502    0 -0.34723853762E+03  0.32437296251E+03  0.79609326793E+03  0.92712379160E+03  0.12699999809E+01 0.  1.
       -4    1    3    3    0  502  0.34723853762E+03 -0.32437296251E+03 -0.12145909787E+04  0.13042335984E+04  0.12699999809E+01 0. -1.
</event>
<event>
 5   0  0.2820239E-05  0.2201650E+04  0.7818609E-02  0.8517742E-01
       -1   -1    0    0    0  501  0.00000000000E+00  0.00000000000E+00  0.85509166858E+03  0.85509166859E+03  0.50400001928E-02 0.  1.
        1   -1    0    0  501    0  0.00000000000E+00  0.00000000000E+00 -0.14171767045E+04  0.14171767046E+04  0.50400001928E-02 0. -1.
    10030    2    1    2    0    0  0.00000000000E+00  0.00000000000E+00 -0.56208503597E+03  0.22722683731E+04  0.22016502838E+04 0.  0.
        3    1    3    3  502    0 -0.70734336359E+03 -0.83787355010E+03 -0.18071726762E+03  0.11113169939E+04  0.10100000352E+00 0.  1.
       -3    1    3    3    0  502  0.70734336359E+03  0.83787355010E+03 -0.38136776835E+03  0.11609513792E+04  0.10100000352E+00 0. -1.
</event>
<event>
 5   0  0.6445740E-05  0.2195113E+04  0.7818609E-02  0.8520465E-01
       -2   -1    0    0    0  501  0.00000000000E+00  0.00000000000E+00  0.19235102291E+04  0.19235102291E+04  0.25500000920E-02 0. -1.
        2   -1    0    0  501    0  0.00000000000E+00  0.00000000000E+00 -0.62626681981E+03  0.62626681982E+03  0.25500000920E-02 0.  1.
    10030    2    1    2    0    0  0.00000000000E+00  0.00000000000E+00  0.12972434093E+04  0.25497770489E+04  0.21951133311E+04 0.  0.
        5    1    3    3  502    0  0.61543171948E+03 -0.89126143438E+03  0.44244587652E+03  0.11699929869E+04  0.46999998093E+01 0. -1.
       -5    1    3    3    0  502 -0.61543171948E+03  0.89126143438E+03  0.85479753275E+03  0.13797840620E+04  0.46999998093E+01 0.  1.
</event>
<event>
 5   0  0.6414768E-05  0.2178830E+04  0.7818609E-02  0.8527292E-01
       -2   -1    0    0    0  501  0.00000000000E+00  0.00000000000E+00  0.83405083739E+03  0.83405083740E+03  0.25500000920E-02 0. -1.
        2   -1    0    0  501    0  0.00000000000E+00  0.00000000000E+00 -0.14229647273E+04  0.14229647273E+04  0.25500000920E-02 0.  1.
    10030    2    1    2    0    0  0.00000000000E+00  0.00000000000E+00 -0.58891388995E+03  0.22570155647E+04  0.21788298900E+04 0.  0.
        2    1    3    3  502    0 -0.15770275018E+03 -0.99911118167E+03  0.12470080266E+03  0.10191386564E+04  0.25500000920E-02 0.  1.
       -2    1    3    3    0  502  0.15770275018E+03  0.99911118167E+03 -0.71361469261E+03  0.12378769084E+04  0.25500000920E-02 0. -1.
</event>
<event>
 5   0  0.6445740E-05  0.2206682E+04  0.7818609E-02  0.8515652E-01
       -2   -1    0    0    0  501  0.00000000000E+00  0.00000000000E+00  0.57927917047E+03  0.57927917047E+03  0.25500000920E-02 0.  1.
        2   -1    0    0  501    0  0.00000000000E+00  0.00000000000E+00 -0.21015116025E+04  0.21015116025E+04  0.25500000920E-02 0. -1.
    10030    2    1    2    0    0  0.00000000000E+00  0.00000000000E+00 -0.15222324321E+04  0.26807907730E+04  0.22066824854E+04 0.  0.
        5    1    3    3  502    0 -0.71834603494E+03 -0.48281174429E+03 -0.15923901398E+04  0.18124173508E+04  0.46999998093E+01 0. -1.
       -5    1    3    3    0  502  0.71834603494E+03  0.48281174429E+03  0.70157707733E+02  0.86837342215E+03  0.46999998093E+01 0.  1.
</event>
<event>
 5   0  0.2910318E-05  0.2202871E+04  0.7818609E-02  0.8517234E-01
        1   -1    0    0  501    0  0.00000000000E+00  0.00000000000E+00  0.12909800354E+04  0.12909800354E+04  0.50400001928E-02 0.  1.
       -1   -1    0    0    0  501  0.00000000000E+00  0.00000000000E+00 -0.93972041512E+03  0.93972041513E+03  0.50400001928E-02 0. -1.
    10030    2    1    2    0    0  0.00000000000E+00  0.00000000000E+00  0.35125962030E+03  0.22307004506E+04  0.22028711218E+04 0.  0.
        5    1    3    3  502    0 -0.88277711125E+03 -0.43846772815E+03 -0.32209648901E+03  0.10369752239E+04  0.46999998093E+01 0.  1.
       -5    1    3    3    0  502  0.88277711125E+03  0.43846772815E+03  0.67335610931E+03  0.11937252266E+04  0.46999998093E+01 0. -1.
</event>
<event>
 5   0  0.2753631E-05  0.2102722E+04  0.7818609E-02  0.8560045E-01
       -1   -1    0    0    0  501  0.00000000000E+00  0.00000000000E+00  0.93826041298E+03  0.93826041299E+03  0.50400001928E-02 0. -1.
        1   -1    0    0  501    0  0.00000000000E+00  0.00000000000E+00 -0.11780955818E+04  0.11780955818E+04  0.50400001928E-02 0.  1.
    10030    2    1    2    0    0  0.00000000000E+00  0.00000000000E+00 -0.23983516882E+03  0.21163559948E+04  0.21027224706E+04 0.  0.
        4    1    3    3  502    0  0.69911467024E+02 -0.23788244883E+03  0.90841290605E+03  0.94164286939E+03  0.12699999809E+01 0. -1.
       -4    1    3    3    0  502 -0.69911467024E+02  0.23788244883E+03 -0.11482480749E+04  0.11747131254E+04  0.12699999809E+01 0.  1.
</event>
<event>
 5   0  0.6306919E-05  0.2158781E+04  0.7818609E-02  0.8535783E-01
        2   -1    0    0  501    0  0.00000000000E+00  0.00000000000E+00  0.17336388284E+04  0.17336388284E+04  0.25500000920E-02 0. -1.
       -2   -1    0    0    0  501  0.00000000000E+00  0.00000000000E+00 -0.67204528002E+03  0.67204528002E+03  0.25500000920E-02 0.  1.
    10030    2    1    2    0    0  0.00000000000E+00  0.00000000000E+00  0.10615935483E+04  0.24056841084E+04  0.21587809448E+04 0.  0.
        3    1    3    3  502    0 -0.67436662854E+03  0.83001010915E+03  0.36779102522E+03  0.11309099785E+04  0.10100000352E+00 0.  1.
       -3    1    3    3    0  502  0.67436662854E+03 -0.83001010915E+03  0.69380252313E+03  0.12747741299E+04  0.10100000352E+00 0. -1.
</event>
<event>
 5   0  0.2929471E-05  0.2190334E+04  0.7818609E-02  0.8522462E-01
        1   -1    0    0  501    0  0.00000000000E+00  0.00000000000E+00  0.21734203307E+04  0.21734203307E+04  0.50400001928E-02 0. -1.
       -1   -1    0    0    0  501  0.00000000000E+00  0.00000000000E+00 -0.55184462615E+03  0.55184462617E+03  0.50400001928E-02 0.  1.
    10030    2    1    2    0    0  0.00000000000E+00  0.00000000000E+00  0.16215757046E+04  0.27252649569E+04  0.21903336092E+04 0.  0.
        2    1    3    3  502    0 -0.59166266076E+03 -0.20406477054E+03  0.19289865655E+04  0.20279783787E+04  0.25500000920E-02 0. -1.
       -2    1    3    3    0  502  0.59166266076E+03  0.20406477054E+03 -0.30741086091E+03  0.69728657819E+03  0.25500000920E-02 0.  1.
</event>
<event>
 5   0  0.6628798E-05  0.2091417E+04  0.7818609E-02  0.8565034E-01
        2   -1    0    0  501    0  0.00000000000E+00  0.00000000000E+00  0.13697622672E+04  0.13697622672E+04  0.25500000920E-02 0. -1.
       -2   -1    0    0    0  501  0.00000000000E+00  0.00000000000E+00 -0.79831860875E+03  0.79831860875E+03  0.25500000920E-02 0.  1.
    10030    2    1    2    0    0  0.00000000000E+00  0.00000000000E+00  0.57144365844E+03  0.21680808760E+04  0.20914174212E+04 0.  0.
        4    1    3    3  502    0  0.23558032454E+03 -0.58371754989E+03 -0.57992076769E+03  0.85588198781E+03  0.12699999809E+01 0.  1.
       -4    1    3    3    0  502 -0.23558032454E+03  0.58371754989E+03  0.11513644261E+04  0.13121988881E+04  0.12699999809E+01 0. -1.
</event>
<event>
 5   0  0.2753631E-05  0.1996945E+04  0.7818609E-02  0.8608050E-01
       -1   -1    0    0    0  501  0.00000000000E+00  0.00000000000E+00  0.93787967854E+03  0.93787967856E+03  0.50400001928E-02 0. -1.
        1   -1    0    0  501    0  0.00000000000E+00  0.00000000000E+00 -0.10629802489E+04  0.10629802490E+04  0.50400001928E-02 0.  1.
    10030    2    1    2    0    0  0.00000000000E+00  0.00000000000E+00 -0.12510057040E+03  0.20008599275E+04  0.19969452413E+04 0.  0.
        4    1    3    3  502    0  0.28867474322E+03  0.74909878429E+03  0.53230021359E+03  0.96323788665E+03  0.12699999809E+01 0. -1.
       -4    1    3    3    0  502 -0.28867474322E+03 -0.74909878429E+03 -0.65740078399E+03  0.10376220409E+04  0.12699999809E+01 0.  1.
</event>
<event>
 5   0  0.2908031E-05  0.2189626E+04  0.7818609E-02  0.8522758E-01
       -1   -1    0    0    0  501  0.00000000000E+00  0.00000000000E+00  0.12441073659E+04  0.12441073660E+04  0.50400001928E-02 0.  1.
        1   -1    0    0  501    0  0.00000000000E+00  0.00000000000E+00 -0.96343408572E+03  0.96343408573E+03  0.50400001928E-02 0. -1.
    10030    2    1    2    0    0  0.00000000000E+00  0.00000000000E+00  0.28067328022E+03  0.22075414517E+04  0.21896259431E+04 0.  0.
        1    1    3    3  502    0  0.45990756136E+03  0.45803780194E+03 -0.74852422971E+03  0.99075835373E+03  0.50400001928E-02 0. -1.
       -1    1    3    3    0  502 -0.45990756136E+03 -0.45803780194E+03  0.10291975099E+04  0.12167830980E+04  0.50400001928E-02 0.  1.
</event>
<event>
 5   0  0.2910318E-05  0.2205337E+04  0.7818609E-02  0.8516210E-01
        1   -1    0    0  501    0  0.00000000000E+00  0.00000000000E+00  0.14503313686E+04  0.14503313686E+04  0.50400001928E-02 0.  1.
       -1   -1    0    0    0  501  0.00000000000E+00  0.00000000000E+00 -0.83834447076E+03  0.83834447077E+03  0.50400001928E-02 0. -1.
    10030    2    1    2    0    0  0.00000000000E+00  0.00000000000E+00  0.61198689784E+03  0.22886758394E+04  0.22053365128E+04 0.  0.
        5    1    3    3  502    0  0.26682773867E+02  0.21194899980E+03  0.14286407378E+04  0.14445313415E+04  0.46999998093E+01 0.  1.
       -5    1    3    3    0  502 -0.26682773867E+02 -0.21194899980E+03 -0.81665383996E+03  0.84414449785E+03  0.46999998093E+01 0. -1.
</event>
<event>
 5   0  0.2820239E-05  0.2196599E+04  0.7818609E-02  0.8519845E-01
       -1   -1    0    0    0  501  0.00000000000E+00  0.00000000000E+00  0.75825506086E+03  0.75825506088E+03  0.50400001928E-02 0.  1.
        1   -1    0    0  501    0  0.00000000000E+00  0.00000000000E+00 -0.15908391272E+04  0.15908391272E+04  0.50400001928E-02 0. -1.
    10030    2    1    2    0    0  0.00000000000E+00  0.00000000000E+00 -0.83258406635E+03  0.23490941881E+04  0.21965990251E+04 0.  0.
        3    1    3    3  502    0 -0.44584624868E+03  0.10019724039E+04 -0.47986862739E+03  0.11970804006E+04  0.10100000352E+00 0. -1.
       -3    1    3    3    0  502  0.44584624868E+03 -0.10019724039E+04 -0.35271543896E+03  0.11520137876E+04  0.10100000352E+00 0.  1.
</event>
<event>
 5   0  0.6414768E-05  0.2191811E+04  0.7818609E-02  0.8521844E-01
       -2   -1    0    0    0  501  0.00000000000E+00  0.00000000000E+00  0.54930778446E+03  0.54930778447E+03  0.25500000920E-02 0.  1.
        2   -1    0    0  501    0  0.00000000000E+00  0.00000000000E+00 -0.21864043503E+04  0.21864043503E+04  0.25500000920E-02 0. -1.
    10030    2    1    2    0    0  0.00000000000E+00  0.00000000000E+00 -0.16370965658E+04  0.27357121347E+04  0.21918110590E+04 0.  0.
        2    1    3    3  502    0 -0.54729442969E+03  0.28660246930E+03  0.31124373844E+03  0.69176934950E+03  0.25500000920E-02 0.  1.
       -2    1    3    3    0  502  0.54729442969E+03 -0.28660246930E+03 -0.19483403043E+04  0.20439427852E+04  0.25500000920E-02 0. -1.
</event>
<event>
 5   0  0.2753631E-05  0.2252486E+04  0.7818609E-02  0.8496894E-01
       -1   -1    0    0    0  501  0.00000000000E+00  0.00000000000E+00  0.57372488208E+03  0.57372488210E+03  0.50400001928E-02 0. -1.
        1   -1    0    0  501    0  0.00000000000E+00  0.00000000000E+00 -0.22108565457E+04  0.22108565457E+04  0.50400001928E-02 0.  1.
    10030    2    1    2    0    0  0.00000000000E+00  0.00000000000E+00 -0.16371316636E+04  0.27845814278E+04  0.22524861030E+04 0.  0.
        4    1    3    3  502    0 -0.56305077847E+03  0.95547557634E+03 -0.57612041934E+03  0.12497504177E+04  0.12699999809E+01 0.  1.
       -4    1    3    3    0  502  0.56305077847E+03 -0.95547557634E+03 -0.10610112442E+04  0.15348310101E+04  0.12699999809E+01 0. -1.
</event>
<event>
 5   0  0.6445740E-05  0.2187363E+04  0.7818609E-02  0.8523707E-01
        2   -1    0    0  501    0  0.00000000000E+00  0.00000000000E+00  0.87496219883E+03  0.87496219883E+03  0.25500000920E-02 0. -1.
       -2   -1    0    0    0  501  0.00000000000E+00  0.00000000000E+00 -0.13670747099E+04  0.13670747099E+04  0.25500000920E-02 0.  1.
    10030    2    1    2    0    0  0.00000000000E+00  0.00000000000E+00 -0.49211251103E+03  0.22420369087E+04  0.21873625160E+04 0.  0.
        5    1    3    3  502    0  0.10133482951E+04 -0.40542445344E+03 -0.31760689078E+03  0.11367233532E+04  0.46999998093E+01 0.  1.
       -5    1    3    3    0  502 -0.10133482951E+04  0.40542445344E+03 -0.17450562024E+03  0.11053135555E+04  0.46999998093E+01 0. -1.
</event>
<event>
 5   0  0.6628798E-05  0.2266096E+04  0.7818609E-02  0.8491410E-01
       -2   -1    0    0    0  501  0.00000000000E+00  0.00000000000E+00  0.80409311293E+03  0.80409311293E+03  0.25500000920E-02 0. -1.
        2   -1    0    0  501    0  0.00000000000E+00  0.00000000000E+00 -0.15965789464E+04  0.15965789464E+04  0.25500000920E-02 0.  1.
    10030    2    1    2    0    0  0.00000000000E+00  0.00000000000E+00 -0.79248583350E+03  0.24006720594E+04  0.22660963219E+04 0.  0.
        4    1    3    3  502    0  0.78067904921E+03  0.27128448327E+03 -0.12173471283E+04  0.14713907341E+04  0.12699999809E+01 0.  1.
       -4    1    3    3    0  502 -0.78067904921E+03 -0.27128448327E+03  0.42486129480E+03  0.92928132525E+03  0.12699999809E+01 0. -1.
</event>
<event>
 5   0  0.2908031E-05  0.2181309E+04  0.7818609E-02  0.8526248E-01
       -1   -1    0    0    0  501  0.00000000000E+00  0.00000000000E+00  0.96111644439E+03  0.96111644440E+03  0.50400001928E-02 0.  1.
        1   -1    0    0  501    0  0.00000000000E+00  0.00000000000E+00 -0.12376515626E+04  0.12376515626E+04  0.50400001928E-02 0. -1.
    10030    2    1    2    0    0  0.00000000000E+00  0.00000000000E+00 -0.27653511817E+03  0.21987680070E+04  0.21813090283E+04 0.  0.
        1    1    3    3  502    0 -0.13508563216E+03 -0.48510943535E+03 -0.11134549275E+04  0.12220315740E+04  0.50400001928E-02 0. -1.
       -1    1    3    3    0  502  0.13508563216E+03  0.48510943535E+03  0.83691980931E+03  0.97673643298E+03  0.50400001928E-02 0.  1.
</event>
<event>
 5   0  0.6445740E-05  0.2208687E+04  0.7818609E-02  0.8514821E-01
       -2   -1    0    0    0  501  0.00000000000E+00  0.00000000000E+00  0.10575623126E+04  0.10575623126E+04  0.25500000920E-02 0. -1.
        2   -1    0    0  501    0  0.00000000000E+00  0.00000000000E+00 -0.11531943263E+04  0.11531943263E+04  0.25500000920E-02 0.  1.
    10030    2    1    2    0    0  0.00000000000E+00  0.00000000000E+00 -0.95632013739E+02  0.22107566389E+04  0.22086872650E+04 0.  0.
        5    1    3    3  502    0  0.90035868125E+03 -0.24736321898E+03  0.54241304101E+03  0.10798464308E+04  0.46999998093E+01 0. -1.
       -5    1    3    3    0  502 -0.90035868125E+03  0.24736321898E+03 -0.63804505475E+03  0.11309102081E+04  0.46999998093E+01 0.  1.
</event>
<event>
 5   0  0.6293013E-05  0.2209559E+04  0.7818609E-02  0.8514460E-01
        2   -1    0    0  501    0  0.00000000000E+00  0.00000000000E+00  0.12122377155E+04  0.12122377155E+04  0.25500000920E-02 0. -1.
       -2   -1    0    0    0  501  0.00000000000E+00  0.00000000000E+00 -0.10068466497E+04  0.10068466497E+04  0.25500000920E-02 0.  1.
    10030    2    1    2    0    0  0.00000000000E+00  0.00000000000E+00  0.20539106582E+03  0.22190843652E+04  0.22095587636E+04 0.  0.
        1    1    3    3  502    0 -0.97734176980E+03  0.51336843101E+03  0.60164393345E+02  0.11056056418E+04  0.50400001928E-02 0.  1.
       -1    1    3    3    0  502  0.97734176980E+03 -0.51336843101E+03  0.14522667248E+03  0.11134787234E+04  0.50400001928E-02 0. -1.
</event>
<event>
 5   0  0.6306919E-05  0.2213508E+04  0.7818609E-02  0.8512827E-01
        2   -1    0    0  501    0  0.00000000000E+00  0.00000000000E+00  0.15777319931E+04  0.15777319931E+04  0.25500000920E-02 0.  1.
       -2   -1    0    0    0  501  0.00000000000E+00  0.00000000000E+00 -0.77637062335E+03  0.77637062336E+03  0.25500000920E-02 0. -1.
    10030    2    1    2    0    0  0.00000000000E+00  0.00000000000E+00  0.80136136971E+03  0.23541026164E+04  0.22135083202E+04 0.  0.
        3    1    3    3  502    0  0.73819863276E+03  0.65954448916E+03  0.92706076615E+03  0.13562366419E+04  0.10100000352E+00 0.  1.
       -3    1    3    3    0  502 -0.73819863276E+03 -0.65954448916E+03 -0.12569939644E+03  0.99786597449E+03  0.10100000352E+00 0. -1.
</event>
<event>
 5   0  0.2908031E-05  0.2213683E+04  0.7818609E-02  0.8512754E-01
       -1   -1    0    0    0  501  0.00000000000E+00  0.00000000000E+00  0.11651242906E+04  0.11651242906E+04  0.50400001928E-02 0.  1.
        1   -1    0    0  501    0  0.00000000000E+00  0.00000000000E+00 -0.10514742401E+04  0.10514742401E+04  0.50400001928E-02 0. -1.
    10030    2    1    2    0    0  0.00000000000E+00  0.00000000000E+00  0.11365005056E+03  0.22165985307E+04  0.22136830650E+04 0.  0.
        1    1    3    3  502    0 -0.67775458054E+02 -0.90133283482E+03 -0.58284634042E+03  0.10755018589E+04  0.50400001928E-02 0.  1.
       -1    1    3    3    0  502  0.67775458054E+02  0.90133283482E+03  0.69649639098E+03  0.11410966719E+04  0.50400001928E-02 0. -1.
</event>
<event>
 5   0  0.2929471E-05  0.2012296E+04  0.7818609E-02  0.8600893E-01
       -1   -1    0    0    0  501  0.00000000000E+00  0.00000000000E+00  0.97747780668E+03  0.97747780670E+03  0.50400001928E-02 0. -1.
        1   -1    0    0  501    0  0.00000000000E+00  0.00000000000E+00 -0.10356590978E+04  0.10356590978E+04  0.50400001928E-02 0.  1.
    10030    2    1    2    0    0  0.00000000000E+00  0.00000000000E+00 -0.58181291105E+02  0.20131369045E+04  0.20122959856E+04 0.  0.
        2    1    3    3  502    0 -0.68708634108E+03  0.26915169984E+03  0.65515680130E+03  0.98679314546E+03  0.25500000920E-02 0.  1.
       -2    1    3    3    0  502  0.68708634108E+03 -0.26915169984E+03 -0.71333809241E+03  0.10263437590E+04  0.25500000920E-02 0. -1.
</event>
<event>
 5   0  0.6293013E-05  0.2207004E+04  0.7818609E-02  0.8515519E-01
        2   -1    0    0  501    0  0.00000000000E+00  0.00000000000E+00  0.94839847539E+03  0.94839847539E+03  0.25500000920E-02 0. -1.
       -2   -1    0    0    0  501  0.00000000000E+00  0.00000000000E+00 -0.12839712608E+04  0.12839712608E+04  0.25500000920E-02 0.  1.
    10030    2    1    2    0    0  0.00000000000E+00  0.00000000000E+00 -0.33557278540E+03  0.22323697362E+04  0.22070037482E+04 0.  0.
        1    1    3    3  502    0 -0.97695152999E+03  0.50226680170E+03 -0.27392166893E+03  0.11321392639E+04  0.50400001928E-02 0. -1.
       -1    1    3    3    0  502  0.97695152999E+03 -0.50226680170E+03 -0.61651116475E+02  0.11002304723E+04  0.50400001928E-02 0.  1.
</event>
<event>
 5   0  0.6306919E-05  0.2223891E+04  0.7818609E-02  0.8508549E-01
       -2   -1    0    0    0  501  0.00000000000E+00  0.00000000000E+00  0.54108489999E+03  0.54108489999E+03  0.25500000920E-02 0. -1.
        2   -1    0    0  501    0  0.00000000000E+00  0.00000000000E+00 -0.22850819436E+04  0.22850819436E+04  0.25500000920E-02 0.  1.
    10030    2    1    2    0    0  0.00000000000E+00  0.00000000000E+00 -0.17439970436E+04  0.28261668436E+04  0.22238914856E+04 0.  0.
        3    1    3    3  502    0  0.53723046298E+03  0.27702269143E+03  0.31406932394E+03  0.68117376077E+03  0.10100000352E+00 0. -1.
       -3    1    3    3    0  502 -0.53723046298E+03 -0.27702269143E+03 -0.20580663676E+04  0.21449930828E+04  0.10100000352E+00 0.  1.
</event>
<event>
 5   0  0.2910318E-05  0.2248348E+04  0.7818609E-02  0.8498570E-01
       -1   -1    0    0    0  501  0.00000000000E+00  0.00000000000E+00  0.58510494429E+03  0.58510494431E+03  0.50400001928E-02 0.  1.
        1   -1    0    0  501    0  0.00000000000E+00  0.00000000000E+00 -0.21598975959E+04  0.21598975959E+04  0.50400001928E-02 0. -1.
    10030    2    1    2    0    0  0.00000000000E+00  0.00000000000E+00 -0.15747926516E+04  0.27450025402E+04  0.22483476266E+04 0.  0.
        5    1    3    3  502    0  0.34019579269E+03 -0.58793502411E+03  0.30620636147E+03  0.74510750617E+03  0.46999998093E+01 0.  1.
       -5    1    3    3    0  502 -0.34019579269E+03  0.58793502411E+03 -0.18809990131E+04  0.19998950340E+04  0.46999998093E+01 0. -1.
</event>
<event>
 5   0  0.6306919E-05  0.2140950E+04  0.7818609E-02  0.8543416E-01
        2   -1    0    0  501    0  0.00000000000E+00  0.00000000000E+00  0.22408573476E+04  0.22408573476E+04  0.25500000920E-02 0. -1.
       -2   -1    0    0    0  501  0.00000000000E+00  0.00000000000E+00 -0.51137406470E+03  0.51137406471E+03  0.25500000920E-02 0.  1.
    10030    2    1    2    0    0  0.00000000000E+00  0.00000000000E+00  0.17294832829E+04  0.27522314123E+04  0.21409496307E+04 0.  0.
        3    1    3    3  502    0  0.59843403689E+03 -0.52501531263E+03  0.17847206343E+04  0.19542241754E+04  0.10100000352E+00 0. -1.
       -3    1    3    3    0  502 -0.59843403689E+03  0.52501531263E+03 -0.55237351384E+02  0.79800723693E+03  0.10100000352E+00 0.  1.
</event>
<event>
 5   0  0.2753631E-05  0.1949164E+04  0.7818609E-02  0.8630764E-01
        1   -1    0    0  501    0  0.00000000000E+00  0.00000000000E+00  0.87136093609E+03  0.87136093610E+03  0.50400001928E-02 0. -1.
       -1   -1    0    0    0  501  0.00000000000E+00  0.00000000000E+00 -0.10900307948E+04  0.10900307948E+04  0.50400001928E-02 0.  1.
    10030    2    1    2    0    0  0.00000000000E+00  0.00000000000E+00 -0.21866985871E+03  0.19613917309E+04  0.19491641837E+04 0.  0.
        4    1    3    3  502    0 -0.44441593329E+03  0.46222423740E+03 -0.84786809784E+03  0.10630327801E+04  0.12699999809E+01 0.  1.
       -4    1    3    3    0  502  0.44441593329E+03 -0.46222423740E+03  0.62919823914E+03  0.89835895077E+03  0.12699999809E+01 0. -1.
</event>
<event>
 5   0  0.2753631E-05  0.2204756E+04  0.7818609E-02  0.8516451E-01
        1   -1    0    0  501    0  0.00000000000E+00  0.00000000000E+00  0.12286885465E+04  0.12286885465E+04  0.50400001928E-02 0. -1.
       -1   -1    0    0    0  501  0.00000000000E+00  0.00000000000E+00 -0.98905260923E+03  0.98905260925E+03  0.50400001928E-02 0.  1.
    10030    2    1    2    0    0  0.00000000000E+00  0.00000000000E+00  0.23963593729E+03  0.22177411558E+04  0.22047563248E+04 0.  0.
        4    1    3    3  502    0 -0.25791561568E+03  0.86195584943E+03 -0.52091676126E+03  0.10396365885E+04  0.12699999809E+01 0.  1.
       -4    1    3    3    0  502  0.25791561568E+03 -0.86195584943E+03  0.76055269855E+03  0.11781045672E+04  0.12699999809E+01 0. -1.
</event>
<event>
 5   0  0.6306919E-05  0.2193040E+04  0.7818609E-02  0.8521331E-01
        2   -1    0    0  501    0  0.00000000000E+00  0.00000000000E+00  0.14298698126E+04  0.14298698126E+04  0.25500000920E-02 0. -1.
       -2   -1    0    0    0  501  0.00000000000E+00  0.00000000000E+00 -0.84088495015E+03  0.84088495015E+03  0.25500000920E-02 0.  1.
    10030    2    1    2    0    0  0.00000000000E+00  0.00000000000E+00  0.58898486241E+03  0.22707547627E+04  0.21930399048E+04 0.  0.
        3    1    3    3  502    0 -0.61827616012E+03  0.78985986944E+03 -0.16416290558E+03  0.10164120686E+04  0.10100000352E+00 0.  1.
       -3    1    3    3    0  502  0.61827616012E+03 -0.78985986944E+03  0.75314776799E+03  0.12543426941E+04  0.10100000352E+00 0. -1.
</event>
<event>
 5   0  0.2820239E-05  0.2310866E+04  0.7818609E-02  0.8473649E-01
        1   -1    0    0  501    0  0.00000000000E+00  0.00000000000E+00  0.19916779702E+04  0.19916779703E+04  0.50400001928E-02 0. -1.
       -1   -1    0    0    0  501  0.00000000000E+00  0.00000000000E+00 -0.67030179532E+03  0.67030179534E+03  0.50400001928E-02 0.  1.
    10030    2    1    2    0    0  0.00000000000E+00  0.00000000000E+00  0.13213761749E+04  0.26619797656E+04  0.23108659149E+04 0.  0.
        3    1    3    3  502    0  0.38334704175E+03  0.48199398021E+03 -0.46547852256E+03  0.77197371493E+03  0.10100000352E+00 0.  1.
       -3    1    3    3    0  502 -0.38334704175E+03 -0.48199398021E+03  0.17868546975E+04  0.18900060507E+04  0.10100000352E+00 0. -1.
</event>
<event>
 5   0  0.2908031E-05  0.2348330E+04  0.7818609E-02  0.8459105E-01
       -1   -1    0    0    0  501  0.00000000000E+00  0.00000000000E+00  0.73251319307E+03  0.73251319308E+03  0.50400001928E-02 0. -1.
        1   -1    0    0  501    0  0.00000000000E+00  0.00000000000E+00 -0.18821009051E+04  0.18821009051E+04  0.50400001928E-02 0.  1.
    10030    2    1    2    0    0  0.00000000000E+00  0.00000000000E+00 -0.11495877120E+04  0.26146140982E+04  0.23483302525E+04 0.  0.
        1    1    3    3  502    0  0.76563576857E+01  0.50211772229E+03 -0.17565033661E+04  0.18268784585E+04  0.50400001928E-02 0.  1.
       -1    1    3    3    0  502 -0.76563576857E+01 -0.50211772229E+03  0.60691565409E+03  0.78773563970E+03  0.50400001928E-02 0. -1.
</event>
<event>
 5   0  0.2753631E-05  0.2180218E+04  0.7818609E-02  0.8526707E-01
       -1   -1    0    0    0  501  0.00000000000E+00  0.00000000000E+00  0.13253700840E+04  0.13253700840E+04  0.50400001928E-02 0.  1.
        1   -1    0    0  501    0  0.00000000000E+00  0.00000000000E+00 -0.89660783602E+03  0.89660783604E+03  0.50400001928E-02 0. -1.
    10030    2    1    2    0    0  0.00000000000E+00  0.00000000000E+00  0.42876224794E+03  0.22219779200E+04  0.21802176065E+04 0.  0.
        4    1    3    3  502    0 -0.93446492963E+03  0.37605917128E+02  0.78519544162E+03  0.12211357026E+04  0.12699999809E+01 0.  1.
       -4    1    3    3    0  502  0.93446492963E+03 -0.37605917128E+02 -0.35643319368E+03  0.10008422174E+04  0.12699999809E+01 0. -1.
</event>
<event>
 5   0  0.6414768E-05  0.2219133E+04  0.7818609E-02  0.8510506E-01
        2   -1    0    0  501    0  0.00000000000E+00  0.00000000000E+00  0.14450678952E+04  0.14450678952E+04  0.25500000920E-02 0.  1.
       -2   -1    0    0    0  501  0.00000000000E+00  0.00000000000E+00 -0.85195858026E+03  0.85195858027E+03  0.25500000920E-02 0. -1.
    10030    2    1    2    0    0  0.00000000000E+00  0.00000000000E+00  0.59310931491E+03  0.22970264754E+04  0.22191331572E+04 0.  0.
        2    1    3    3  502    0 -0.30899709869E+03  0.95198657975E+03 -0.19919306989E+03  0.10205074885E+04  0.25500000920E-02 0. -1.
       -2    1    3    3    0  502  0.30899709869E+03 -0.95198657975E+03  0.79230238481E+03  0.12765189869E+04  0.25500000920E-02 0.  1.
</event>
<event>
 5   0  0.6414768E-05  0.2192671E+04  0.7818609E-02  0.8521485E-01
        2   -1    0    0  501    0  0.00000000000E+00  0.00000000000E+00  0.14305005648E+04  0.14305005648E+04  0.25500000920E-02 0.  1.
       -2   -1    0    0    0  501  0.00000000000E+00  0.00000000000E+00 -0.84023106835E+03  0.84023106835E+03  0.25500000920E-02 0. -1.
    10030    2    1    2    0    0  0.00000000000E+00  0.00000000000E+00  0.59026949649E+03  0.22707316332E+04  0.21926705342E+04 0.  0.
        2    1    3    3  502    0 -0.10213080179E+03  0.10794188847E+04  0.12694860352E+03  0.10916463609E+04  0.25500000920E-02 0. -1.
       -2    1    3    3    0  502  0.10213080179E+03 -0.10794188847E+04  0.46332089297E+03  0.11790852723E+04  0.25500000920E-02 0.  1.
</event>
<event>
 5   0  0.6414768E-05  0.2194726E+04  0.7818609E-02  0.8520627E-01
       -2   -1    0    0    0  501  0.00000000000E+00  0.00000000000E+00  0.11771300202E+04  0.11771300202E+04  0.25500000920E-02 0.  1.
        2   -1    0    0  501    0  0.00000000000E+00  0.00000000000E+00 -0.10230011017E+04  0.10230011017E+04  0.25500000920E-02 0. -1.
    10030    2    1    2    0    0  0.00000000000E+00  0.00000000000E+00  0.15412891849E+03  0.22001311219E+04  0.21947257755E+04 0.  0.
        2    1    3    3  502    0  0.85976689720E+03 -0.66810988001E+03  0.21391212859E+03  0.11096523456E+04  0.25500000920E-02 0.  1.
       -2    1    3    3    0  502 -0.85976689720E+03  0.66810988001E+03 -0.59783210101E+02  0.10904787763E+04  0.25500000920E-02 0. -1.
</event>
<event>
 5   0  0.2929471E-05  0.2254976E+04  0.7818609E-02  0.8495888E-01
        1   -1    0    0  501    0  0.00000000000E+00  0.00000000000E+00  0.11095450883E+04  0.11095450883E+04  0.50400001928E-02 0. -1.
       -1   -1    0    0    0  501  0.00000000000E+00  0.00000000000E+00 -0.11457214065E+04  0.11457214065E+04  0.50400001928E-02 0.  1.
    10030    2    1    2    0    0  0.00000000000E+00  0.00000000000E+00 -0.36176318197E+02  0.22552664948E+04  0.22549763273E+04 0.  0.
        2    1    3    3  502    0 -0.53091850769E+03 -0.51452835440E+03  0.83326497981E+03  0.11139768471E+04  0.25500000920E-02 0. -1.
       -2    1    3    3    0  502  0.53091850769E+03  0.51452835440E+03 -0.86944129801E+03  0.11412896477E+04  0.25500000920E-02 0.  1.
</event>
<event>
 5   0  0.2753631E-05  0.2209019E+04  0.7818609E-02  0.8514683E-01
        1   -1    0    0  501    0  0.00000000000E+00  0.00000000000E+00  0.16301116817E+04  0.16301116817E+04  0.50400001928E-02 0.  1.
       -1   -1    0    0    0  501  0.00000000000E+00  0.00000000000E+00 -0.74837909964E+03  0.74837909966E+03  0.50400001928E-02 0. -1.
    10030    2    1    2    0    0  0.00000000000E+00  0.00000000000E+00  0.88173258203E+03  0.23784907813E+04  0.22090192509E+04 0.  0.
        4    1    3    3  502    0  0.40634026354E+03  0.63145621908E+01  0.15466863997E+04  0.15991850160E+04  0.12699999809E+01 0.  1.
       -4    1    3    3    0  502 -0.40634026354E+03 -0.63145621908E+01 -0.66495381763E+03  0.77930576538E+03  0.12699999809E+01 0. -1.
</event>
<event>
 5   0  0.2820239E-05  0.2247810E+04  0.7818609E-02  0.8498788E-01
       -1   -1    0    0    0  501  0.00000000000E+00  0.00000000000E+00  0.12459237770E+04  0.12459237770E+04  0.50400001928E-02 0. -1.
        1   -1    0    0  501    0  0.00000000000E+00  0.00000000000E+00 -0.10138356961E+04  0.10138356961E+04  0.50400001928E-02 0.  1.
    10030    2    1    2    0    0  0.00000000000E+00  0.00000000000E+00  0.23208808092E+03  0.22597594731E+04  0.22478096002E+04 0.  0.
        3    1    3    3  502    0 -0.52465101805E+03 -0.60337419142E+03  0.91008024848E+03  0.12114310440E+04  0.10100000352E+00 0. -1.
       -3    1    3    3    0  502  0.52465101805E+03  0.60337419142E+03 -0.67799216756E+03  0.10483284290E+04  0.10100000352E+00 0.  1.
</event>
<event>
 5   0  0.6445740E-05  0.2206027E+04  0.7818609E-02  0.8515924E-01
       -2   -1    0    0    0  501  0.00000000000E+00  0.00000000000E+00  0.85912145436E+03  0.85912145436E+03  0.25500000920E-02 0. -1.
        2   -1    0    0  501    0  0.00000000000E+00  0.00000000000E+00 -0.14161427221E+04  0.14161427221E+04  0.25500000920E-02 0.  1.
    10030    2    1    2    0    0  0.00000000000E+00  0.00000000000E+00 -0.55702126773E+03  0.22752641764E+04  0.22060268312E+04 0.  0.
        5    1    3    3  502    0 -0.10103424299E+04 -0.31004299734E+03  0.47149279890E+02  0.10579053031E+04  0.46999998093E+01 0.  1.
       -5    1    3    3    0  502  0.10103424299E+04  0.31004299734E+03 -0.60417054762E+03  0.12173588733E+04  0.46999998093E+01 0. -1.
</event>
<event>
 5   0  0.2753631E-05  0.2224062E+04  0.7818609E-02  0.8508479E-01
        1   -1    0    0  501    0  0.00000000000E+00  0.00000000000E+00  0.15140743330E+04  0.15140743330E+04  0.50400001928E-02 0.  1.
       -1   -1    0    0    0  501  0.00000000000E+00  0.00000000000E+00 -0.81674532042E+03  0.81674532043E+03  0.50400001928E-02 0. -1.
    10030    2    1    2    0    0  0.00000000000E+00  0.00000000000E+00  0.69732901260E+03  0.23308196535E+04  0.22240621631E+04 0.  0.
        4    1    3    3  502    0  0.41092570610E+03  0.41972080690E+03 -0.64089832654E+03  0.86935480072E+03  0.12699999809E+01 0. -1.
       -4    1    3    3    0  502 -0.41092570610E+03 -0.41972080690E+03  0.13382273391E+04  0.14614648527E+04  0.12699999809E+01 0.  1.
</event>
<event>
 5   0  0.6445740E-05  0.2041519E+04  0.7818609E-02  0.8587452E-01
        2   -1    0    0  501    0  0.00000000000E+00  0.00000000000E+00  0.19296413804E+04  0.19296413804E+04  0.25500000920E-02 0.  1.
       -2   -1    0    0    0  501  0.00000000000E+00  0.00000000000E+00 -0.53997057245E+03  0.53997057246E+03  0.25500000920E-02 0. -1.
    10030    2    1    2    0    0  0.00000000000E+00  0.00000000000E+00  0.13896708079E+04  0.24696119529E+04  0.20415186120E+04 0.  0.
        5    1    3    3  502    0  0.72473074359E+02  0.10173503785E+04  0.64535122284E+03  0.12069608237E+04  0.46999998093E+01 0. -1.
       -5    1    3    3    0  502 -0.72473074359E+02 -0.10173503785E+04  0.74431958511E+03  0.12626511291E+04  0.46999998093E+01 0.  1.
</event>
<event>
 5   0  0.2753631E-05  0.2192603E+04  0.7818609E-02  0.8521513E-01
       -1   -1    0    0    0  501  0.00000000000E+00  0.00000000000E+00  0.77118846296E+03  0.77118846297E+03  0.50400001928E-02 0. -1.
        1   -1    0    0  501    0  0.00000000000E+00  0.00000000000E+00 -0.15584732354E+04  0.15584732354E+04  0.50400001928E-02 0.  1.
    10030    2    1    2    0    0  0.00000000000E+00  0.00000000000E+00 -0.78728477247E+03  0.23296616984E+04  0.21926026352E+04 0.  0.
        4    1    3    3  502    0  0.20991065938E+03  0.22368011698E+03 -0.15119457376E+04  0.15427497548E+04  0.12699999809E+01 0.  1.
       -4    1    3    3    0  502 -0.20991065938E+03 -0.22368011698E+03  0.72466096514E+03  0.78691194358E+03  0.12699999809E+01 0. -1.
</event>
<event>
 5   0  0.2910318E-05  0.2206644E+04  0.7818609E-02  0.8515668E-01
        1   -1    0    0  501    0  0.00000000000E+00  0.00000000000E+00  0.28872228167E+04  0.28872228167E+04  0.50400001928E-02 0.  1.
       -1   -1    0    0    0  501  0.00000000000E+00  0.00000000000E+00 -0.42162278921E+03  0.42162278924E+03  0.50400001928E-02 0. -1.
    10030    2    1    2    0    0  0.00000000000E+00  0.00000000000E+00  0.24656000275E+04  0.33088456059E+04  0.22066435481E+04 0.  0.
        5    1    3    3  502    0  0.47771152630E+03  0.37687188360E+03  0.26128677810E+04  0.26827860239E+04  0.46999998093E+01 0.  1.
       -5    1    3    3    0  502 -0.47771152630E+03 -0.37687188360E+03 -0.14726775354E+03  0.62605958202E+03  0.46999998093E+01 0. -1.
</event>
<event>
 5   0  0.2820239E-05  0.2216072E+04  0.7818609E-02  0.8511768E-01
       -1   -1    0    0    0  501  0.00000000000E+00  0.00000000000E+00  0.86088260043E+03  0.86088260045E+03  0.50400001928E-02 0.  1.
        1   -1    0    0  501    0  0.00000000000E+00  0.00000000000E+00 -0.14261459580E+04  0.14261459580E+04  0.50400001928E-02 0. -1.
    10030    2    1    2    0    0  0.00000000000E+00  0.00000000000E+00 -0.56526335757E+03  0.22870285585E+04  0.22160724184E+04 0.  0.
        3    1    3    3  502    0  0.50541343579E+03 -0.76156661460E+03 -0.92903954891E+03  0.13032808382E+04  0.10100000352E+00 0. -1.
       -3    1    3    3    0  502 -0.50541343579E+03  0.76156661460E+03  0.36377619134E+03  0.98374772027E+03  0.10100000352E+00 0.  1.
</event>
<event>
 5   0  0.2908031E-05  0.2160018E+04  0.7818609E-02  0.8535256E-01
        1   -1    0    0  501    0  0.00000000000E+00  0.00000000000E+00  0.15939058118E+04  0.15939058118E+04  0.50400001928E-02 0. -1.
       -1   -1    0    0    0  501  0.00000000000E+00  0.00000000000E+00 -0.73179979146E+03  0.73179979148E+03  0.50400001928E-02 0.  1.
    10030    2    1    2    0    0  0.00000000000E+00  0.00000000000E+00  0.86210602036E+03  0.23257056033E+04  0.21600184636E+04 0.  0.
        1    1    3    3  502    0  0.62465415366E+02  0.63017311404E+03  0.13730325388E+04  0.15120312280E+04  0.50400001928E-02 0. -1.
       -1    1    3    3    0  502 -0.62465415366E+02 -0.63017311404E+03 -0.51092651844E+03  0.81367437532E+03  0.50400001928E-02 0.  1.
</event>
<event>
 5   0  0.6628798E-05  0.2210677E+04  0.7818609E-02  0.8513997E-01
        2   -1    0    0  501    0  0.00000000000E+00  0.00000000000E+00  0.10759701196E+04  0.10759701196E+04  0.25500000920E-02 0. -1.
       -2   -1    0    0    0  501  0.00000000000E+00  0.00000000000E+00 -0.11355088910E+04  0.11355088910E+04  0.25500000920E-02 0.  1.
    10030    2    1    2    0    0  0.00000000000E+00  0.00000000000E+00 -0.59538771403E+02  0.22114790107E+04  0.22106773960E+04 0.  0.
        4    1    3    3  502    0 -0.38076661912E+03 -0.35933819930E+03 -0.10036031783E+04  0.11319576459E+04  0.12699999809E+01 0.  1.
       -4    1    3    3    0  502  0.38076661912E+03  0.35933819930E+03  0.94406440689E+03  0.10795213648E+04  0.12699999809E+01 0. -1.
</event>
<event>
 5   0  0.6414768E-05  0.2215514E+04  0.7818609E-02  0.8511998E-01
       -2   -1    0    0    0  501  0.00000000000E+00  0.00000000000E+00  0.13970783323E+04  0.13970783323E+04  0.25500000920E-02 0. -1.
        2   -1    0    0  501    0  0.00000000000E+00  0.00000000000E+00 -0.87835166015E+03  0.87835166015E+03  0.25500000920E-02 0.  1.
    10030    2    1    2    0    0  0.00000000000E+00  0.00000000000E+00  0.51872667211E+03  0.22754299924E+04  0.22155144527E+04 0.  0.
        2    1    3    3  502    0  0.52606789101E+03  0.82946842192E+03  0.78542705451E+03  0.12576410246E+04  0.25500000920E-02 0. -1.
       -2    1    3    3    0  502 -0.52606789101E+03 -0.82946842192E+03 -0.26670038240E+03  0.10177889678E+04  0.25500000920E-02 0.  1.
</event>
<event>
 5   0  0.2820239E-05  0.2155989E+04  0.7818609E-02  0.8536973E-01
       -1   -1    0    0    0  501  0.00000000000E+00  0.00000000000E+00  0.87006793765E+03  0.87006793767E+03  0.50400001928E-02 0.  1.
        1   -1    0    0  501    0  0.00000000000E+00  0.00000000000E+00 -0.13356105275E+04  0.13356105275E+04  0.50400001928E-02 0. -1.
    10030    2    1    2    0    0  0.00000000000E+00  0.00000000000E+00 -0.46554258983E+03  0.22056784652E+04  0.21559887729E+04 0.  0.
        3    1    3    3  502    0 -0.22429443040E+03  0.10322383120E+04 -0.45278108723E+03  0.11492757056E+04  0.10100000352E+00 0.  1.
       -3    1    3    3    0  502  0.22429443040E+03 -0.10322383120E+04 -0.12761502604E+02  0.10564027596E+04  0.10100000352E+00 0. -1.
</event>
<event>
 5   0  0.6306919E-05  0.2187663E+04  0.7818609E-02  0.8523581E-01
        2   -1    0    0  501    0  0.00000000000E+00  0.00000000000E+00  0.16026221666E+04  0.16026221666E+04  0.25500000920E-02 0. -1.
       -2   -1    0    0    0  501  0.00000000000E+00  0.00000000000E+00 -0.74656861858E+03  0.74656861859E+03  0.25500000920E-02 0.  1.
    10030    2    1    2    0    0  0.00000000000E+00  0.00000000000E+00  0.85605354802E+03  0.23491907852E+04  0.21876630609E+04 0.  0.
        3    1    3    3  502    0  0.30156782598E+03 -0.96348025028E+03 -0.24044121356E+02  0.10098591369E+04  0.10100000352E+00 0.  1.
       -3    1    3    3    0  502 -0.30156782598E+03  0.96348025028E+03  0.88009766937E+03  0.13393316483E+04  0.10100000352E+00 0. -1.
</event>
<event>
 5   0  0.2908031E-05  0.2190620E+04  0.7818609E-02  0.8522342E-01
       -1   -1    0    0    0  501  0.00000000000E+00  0.00000000000E+00  0.53269220117E+03  0.53269220119E+03  0.50400001928E-02 0.  1.
        1   -1    0    0  501    0  0.00000000000E+00  0.00000000000E+00 -0.22521524405E+04  0.22521524405E+04  0.50400001928E-02 0. -1.
    10030    2    1    2    0    0  0.00000000000E+00  0.00000000000E+00 -0.17194602393E+04  0.27848446417E+04  0.21906200409E+04 0.  0.
        1    1    3    3  502    0  0.29456314175E+03  0.97907463821E+03 -0.36028651346E+03  0.10840484138E+04  0.50400001928E-02 0.  1.
       -1    1    3    3    0  502 -0.29456314175E+03 -0.97907463821E+03 -0.13591737258E+04  0.17007962279E+04  0.50400001928E-02 0. -1.
</event>
<event>
 5   0  0.2753631E-05  0.2218792E+04  0.7818609E-02  0.8510647E-01
        1   -1    0    0  501    0  0.00000000000E+00  0.00000000000E+00  0.14043118823E+04  0.14043118824E+04  0.50400001928E-02 0.  1.
       -1   -1    0    0    0  501  0.00000000000E+00  0.00000000000E+00 -0.87641474682E+03  0.87641474684E+03  0.50400001928E-02 0. -1.
    10030    2    1    2    0    0  0.00000000000E+00  0.00000000000E+00  0.52789713552E+03  0.22807266292E+04  0.22187921425E+04 0.  0.
        4    1    3    3  502    0 -0.61062292515E+03  0.52752627688E+03 -0.51862636990E+03  0.95922846808E+03  0.12699999809E+01 0. -1.
       -4    1    3    3    0  502  0.61062292515E+03 -0.52752627688E+03  0.10465235054E+04  0.13214981611E+04  0.12699999809E+01 0.  1.
</event>
<event>
 5   0  0.2910318E-05  0.2200096E+04  0.7818609E-02  0.8518388E-01
        1   -1    0    0  501    0  0.00000000000E+00  0.00000000000E+00  0.22423853071E+04  0.22423853071E+04  0.50400001928E-02 0.  1.
       -1   -1    0    0    0  501  0.00000000000E+00  0.00000000000E+00 -0.53965103431E+03  0.53965103434E+03  0.50400001928E-02 0. -1.
    10030    2    1    2    0    0  0.00000000000E+00  0.00000000000E+00  0.17027342728E+04  0.27820363414E+04  0.22000959528E+04 0.  0.
        5    1    3    3  502    0  0.96434033743E+03 -0.52913183393E+03  0.86688899181E+03  0.14005182606E+04  0.46999998093E+01 0.  1.
       -5    1    3    3    0  502 -0.96434033743E+03  0.52913183393E+03  0.83584528098E+03  0.13815180809E+04  0.46999998093E+01 0. -1.
</event>
<event>
 5   0  0.6306919E-05  0.2183606E+04  0.7818609E-02  0.8525283E-01
        2   -1    0    0  501    0  0.00000000000E+00  0.00000000000E+00  0.16159848773E+04  0.16159848773E+04  0.25500000920E-02 0. -1.
       -2   -1    0    0    0  501  0.00000000000E+00  0.00000000000E+00 -0.73765169957E+03  0.73765169957E+03  0.25500000920E-02 0.  1.
    10030    2    1    2    0    0  0.00000000000E+00  0.00000000000E+00  0.87833317770E+03  0.23536365768E+04  0.21836061835E+04 0.  0.
        3    1    3    3  502    0  0.39086922743E+03  0.42699610379E+02  0.15370213839E+04  0.15865171775E+04  0.10100000352E+00 0. -1.
       -3    1    3    3    0  502 -0.39086922743E+03 -0.42699610379E+02 -0.65868820620E+03  0.76711939936E+03  0.10100000352E+00 0.  1.
</event>
<event>
 5   0  0.2908031E-05  0.2209942E+04  0.7818609E-02  0.8514301E-01
        1   -1    0    0  501    0  0.00000000000E+00  0.00000000000E+00  0.14902690242E+04  0.14902690242E+04  0.50400001928E-02 0.  1.
       -1   -1    0    0    0  501  0.00000000000E+00  0.00000000000E+00 -0.81928916174E+03  0.81928916175E+03  0.50400001928E-02 0. -1.
    10030    2    1    2    0    0  0.00000000000E+00  0.00000000000E+00  0.67097986248E+03  0.23095581860E+04  0.22099423157E+04 0.  0.
        1    1    3    3  502    0 -0.67502818178E+03 -0.10083558331E+03  0.12436427748E+04  0.14186184168E+04  0.50400001928E-02 0.  1.
       -1    1    3    3    0  502  0.67502818178E+03  0.10083558331E+03 -0.57266291237E+03  0.89093976917E+03  0.50400001928E-02 0. -1.
</event>
<event>
 5   0  0.6293013E-05  0.2202050E+04  0.7818609E-02  0.8517576E-01
       -2   -1    0    0    0  501  0.00000000000E+00  0.00000000000E+00  0.49895293112E+03  0.49895293113E+03  0.25500000920E-02 0. -1.
        2   -1    0    0  501    0  0.00000000000E+00  0.00000000000E+00 -0.24295991662E+04  0.24295991662E+04  0.25500000920E-02 0.  1.
    10030    2    1    2    0    0  0.00000000000E+00  0.00000000000E+00 -0.19306462351E+04  0.29285520973E+04  0.22020496138E+04 0.  0.
        1    1    3    3  502    0  0.34455652632E+03  0.49423685168E+03 -0.21909204737E+04  0.22722503796E+04  0.50400001928E-02 0.  1.
       -1    1    3    3    0  502 -0.34455652632E+03 -0.49423685168E+03  0.26027423863E+03  0.65630171774E+03  0.50400001928E-02 0. -1.
</event>
<event>
 5   0  0.2753631E-05  0.2179411E+04  0.7818609E-02  0.8527047E-01
        1   -1    0    0  501    0  0.00000000000E+00  0.00000000000E+00  0.20924749087E+04  0.20924749087E+04  0.50400001928E-02 0. -1.
       -1   -1    0    0    0  501  0.00000000000E+00  0.00000000000E+00 -0.56748994294E+03  0.56748994296E+03  0.50400001928E-02 0.  1.
    10030    2    1    2    0    0  0.00000000000E+00  0.00000000000E+00  0.15249849658E+04  0.26599648517E+04  0.21794113578E+04 0.  0.
        4    1    3    3  502    0  0.46550547271E+03  0.92786821586E+03  0.11669580225E+04  0.15618666429E+04  0.12699999809E+01 0.  1.
       -4    1    3    3    0  502 -0.46550547271E+03 -0.92786821586E+03  0.35802694334E+03  0.10980982088E+04  0.12699999809E+01 0. -1.
</event>
<event>
 5   0  0.2910318E-05  0.2200418E+04  0.7818609E-02  0.8518254E-01
       -1   -1    0    0    0  501  0.00000000000E+00  0.00000000000E+00  0.49180373328E+03  0.49180373330E+03  0.50400001928E-02 0.  1.
        1   -1    0    0  501    0  0.00000000000E+00  0.00000000000E+00 -0.24612656498E+04  0.24612656498E+04  0.50400001928E-02 0. -1.
    10030    2    1    2    0    0  0.00000000000E+00  0.00000000000E+00 -0.19694619166E+04  0.29530693832E+04  0.22004178105E+04 0.  0.
        5    1    3    3  502    0 -0.25704698122E+03 -0.63234939538E+03  0.17324742672E+03  0.70425540058E+03  0.46999998093E+01 0. -1.
       -5    1    3    3    0  502  0.25704698122E+03  0.63234939538E+03 -0.21427093433E+04  0.22488139826E+04  0.46999998093E+01 0.  1.
</event>
<event>
 5   0  0.2929471E-05  0.2230935E+04  0.7818609E-02  0.8505661E-01
       -1   -1    0    0    0  501  0.00000000000E+00  0.00000000000E+00  0.11345238024E+04  0.11345238024E+04  0.50400001928E-02 0. -1.
        1   -1    0    0  501    0  0.00000000000E+00  0.00000000000E+00 -0.10967316121E+04  0.10967316121E+04  0.50400001928E-02 0.  1.
    10030    2    1    2    0    0  0.00000000000E+00  0.00000000000E+00  0.37792190296E+02  0.22312554146E+04  0.22309353365E+04 0.  0.
        2    1    3    3  502    0  0.15205857139E+03 -0.21654710280E+03  0.11026814211E+04  0.11339844678E+04  0.25500000920E-02 0. -1.
       -2    1    3    3    0  502 -0.15205857139E+03  0.21654710280E+03 -0.10648892308E+04  0.10972709468E+04  0.25500000920E-02 0.  1.
</event>
<event>
 5   0  0.2753631E-05  0.2186558E+04  0.7818609E-02  0.8524044E-01
        1   -1    0    0  501    0  0.00000000000E+00  0.00000000000E+00  0.10527798772E+04  0.10527798772E+04  0.50400001928E-02 0. -1.
       -1   -1    0    0    0  501  0.00000000000E+00  0.00000000000E+00 -0.11353356769E+04  0.11353356769E+04  0.50400001928E-02 0.  1.
    10030    2    1    2    0    0  0.00000000000E+00  0.00000000000E+00 -0.82555799653E+02  0.21881155541E+04  0.21865576182E+04 0.  0.
        4    1    3    3  502    0  0.34476994471E+03 -0.63022222673E+03  0.78345163161E+03  0.10629414103E+04  0.12699999809E+01 0. -1.
       -4    1    3    3    0  502 -0.34476994471E+03  0.63022222673E+03 -0.86600743126E+03  0.11251741437E+04  0.12699999809E+01 0.  1.
</event>
<event>
 5   0  0.2910318E-05  0.2265704E+04  0.7818609E-02  0.8491568E-01
       -1   -1    0    0    0  501  0.00000000000E+00  0.00000000000E+00  0.95527000141E+03  0.95527000143E+03  0.50400001928E-02 0. -1.
        1   -1    0    0  501    0  0.00000000000E+00  0.00000000000E+00 -0.13434455290E+04  0.13434455290E+04  0.50400001928E-02 0.  1.
    10030    2    1    2    0    0  0.00000000000E+00  0.00000000000E+00 -0.38817552758E+03  0.22987155304E+04  0.22657036103E+04 0.  0.
        5    1    3    3  502    0 -0.30728976979E+03  0.77842974342E+03  0.58054926643E+03  0.10185476959E+04  0.46999998093E+01 0. -1.
       -5    1    3    3    0  502  0.30728976979E+03 -0.77842974342E+03 -0.96872479401E+03  0.12801678345E+04  0.46999998093E+01 0.  1.
</event>
<event>
 5   0  0.6414768E-05  0.2216964E+04  0.7818609E-02  0.8511400E-01
       -2   -1    0    0    0  501  0.00000000000E+00  0.00000000000E+00  0.99682830007E+03  0.99682830007E+03  0.25500000920E-02 0. -1.
        2   -1    0    0  501    0  0.00000000000E+00  0.00000000000E+00 -0.12326420880E+04  0.12326420880E+04  0.25500000920E-02 0.  1.
    10030    2    1    2    0    0  0.00000000000E+00  0.00000000000E+00 -0.23581378789E+03  0.22294703880E+04  0.22169641559E+04 0.  0.
        2    1    3    3  502    0 -0.11033927115E+03  0.74155450503E+03  0.70318828572E+03  0.10278869607E+04  0.25500000920E-02 0. -1.
       -2    1    3    3    0  502  0.11033927115E+03 -0.74155450503E+03 -0.93900207361E+03  0.12015834274E+04  0.25500000920E-02 0.  1.
</event>
<event>
 5   0  0.2908031E-05  0.2198523E+04  0.7818609E-02  0.8519043E-01
       -1   -1    0    0    0  501  0.00000000000E+00  0.00000000000E+00  0.75552432740E+03  0.75552432741E+03  0.50400001928E-02 0. -1.
        1   -1    0    0  501    0  0.00000000000E+00  0.00000000000E+00 -0.15993866918E+04  0.15993866918E+04  0.50400001928E-02 0.  1.
    10030    2    1    2    0    0  0.00000000000E+00  0.00000000000E+00 -0.84386236437E+03  0.23549110192E+04  0.21985227354E+04 0.  0.
        1    1    3    3  502    0  0.28752599580E+03 -0.95865322954E+03 -0.90890042432E+03  0.13519568019E+04  0.50400001928E-02 0.  1.
       -1    1    3    3    0  502 -0.28752599580E+03  0.95865322954E+03  0.65038059954E+02  0.10029542173E+04  0.50400001928E-02 0. -1.
</event>
<event>
 5   0  0.2908031E-05  0.2070971E+04  0.7818609E-02  0.8574140E-01
        1   -1    0    0  501    0  0.00000000000E+00  0.00000000000E+00  0.10107611130E+04  0.10107611131E+04  0.50400001928E-02 0. -1.
       -1   -1    0    0    0  501  0.00000000000E+00  0.00000000000E+00 -0.10608142459E+04  0.10608142459E+04  0.50400001928E-02 0.  1.
    10030    2    1    2    0    0  0.00000000000E+00  0.00000000000E+00 -0.50053132821E+02  0.20715753589E+04  0.20709705820E+04 0.  0.
        1    1    3    3  502    0  0.22673749704E+03 -0.50195009730E+03  0.85207953787E+03  0.10145951565E+04  0.50400001928E-02 0. -1.
       -1    1    3    3    0  502 -0.22673749704E+03  0.50195009730E+03 -0.90213267069E+03  0.10569802024E+04  0.50400001928E-02 0.  1.
</event>
<event>
 5   0  0.2908031E-05  0.2217582E+04  0.7818609E-02  0.8511146E-01
        1   -1    0    0  501    0  0.00000000000E+00  0.00000000000E+00  0.89270049767E+03  0.89270049768E+03  0.50400001928E-02 0. -1.
       -1   -1    0    0    0  501  0.00000000000E+00  0.00000000000E+00 -0.13771893414E+04  0.13771893414E+04  0.50400001928E-02 0.  1.
    10030    2    1    2    0    0  0.00000000000E+00  0.00000000000E+00 -0.48448884371E+03  0.22698898391E+04  0.22175821161E+04 0.  0.
        1    1    3    3  502    0 -0.62587033915E+03  0.34533992130E+03  0.62535971127E+03  0.94976213400E+03  0.50400001928E-02 0. -1.
       -1    1    3    3    0  502  0.62587033915E+03 -0.34533992130E+03 -0.11098485550E+04  0.13201277051E+04  0.50400001928E-02 0.  1.
</event>
<event>
 5   0  0.6628798E-05  0.2200173E+04  0.7818609E-02  0.8518356E-01
       -2   -1    0    0    0  501  0.00000000000E+00  0.00000000000E+00  0.72276719052E+03  0.72276719053E+03  0.25500000920E-02 0. -1.
        2   -1    0    0  501    0  0.00000000000E+00  0.00000000000E+00 -0.16743849565E+04  0.16743849565E+04  0.25500000920E-02 0.  1.
    10030    2    1    2    0    0  0.00000000000E+00  0.00000000000E+00 -0.95161776600E+03  0.23971521471E+04  0.22001731849E+04 0.  0.
        4    1    3    3  502    0  0.86782933323E+03 -0.55585537611E+03 -0.56537080033E+02  0.10321341992E+04  0.12699999809E+01 0. -1.
       -4    1    3    3    0  502 -0.86782933323E+03  0.55585537611E+03 -0.89508068597E+03  0.13650179479E+04  0.12699999809E+01 0.  1.
</event>
<event>
 5   0  0.2820239E-05  0.2220844E+04  0.7818609E-02  0.8509802E-01
        1   -1    0    0  501    0  0.00000000000E+00  0.00000000000E+00  0.76921989956E+03  0.76921989958E+03  0.50400001928E-02 0. -1.
       -1   -1    0    0    0  501  0.00000000000E+00  0.00000000000E+00 -0.16029711804E+04  0.16029711804E+04  0.50400001928E-02 0.  1.
    10030    2    1    2    0    0  0.00000000000E+00  0.00000000000E+00 -0.83375128080E+03  0.23721910800E+04  0.22208442813E+04 0.  0.
        3    1    3    3  502    0 -0.19420478091E+03  0.97678408385E+03 -0.94148184751E+03  0.13704782825E+04  0.10100000352E+00 0.  1.
       -3    1    3    3    0  502  0.19420478091E+03 -0.97678408385E+03  0.10773056671E+03  0.10017127975E+04  0.10100000352E+00 0. -1.
</event>
<event>
 5   0  0.6628798E-05  0.2198976E+04  0.7818609E-02  0.8518854E-01
        2   -1    0    0  501    0  0.00000000000E+00  0.00000000000E+00  0.21454784735E+04  0.21454784735E+04  0.25500000920E-02 0. -1.
       -2   -1    0    0    0  501  0.00000000000E+00  0.00000000000E+00 -0.56345208550E+03  0.56345208550E+03  0.25500000920E-02 0.  1.
    10030    2    1    2    0    0  0.00000000000E+00  0.00000000000E+00  0.15820263880E+04  0.27089305590E+04  0.21989764167E+04 0.  0.
        4    1    3    3  502    0 -0.34174848686E+02  0.60797384935E+03 -0.33675052266E+03  0.69584671386E+03  0.12699999809E+01 0.  1.
       -4    1    3    3    0  502  0.34174848686E+02 -0.60797384935E+03  0.19187769107E+04  0.20130838452E+04  0.12699999809E+01 0. -1.
</event>
<event>
 5   0  0.6306919E-05  0.2134487E+04  0.7818609E-02  0.8546202E-01
       -2   -1    0    0    0  501  0.00000000000E+00  0.00000000000E+00  0.81561062752E+03  0.81561062753E+03  0.25500000920E-02 0. -1.
        2   -1    0    0  501    0  0.00000000000E+00  0.00000000000E+00 -0.13965097324E+04  0.13965097324E+04  0.25500000920E-02 0.  1.
    10030    2    1    2    0    0  0.00000000000E+00  0.00000000000E+00 -0.58089910491E+03  0.22121203600E+04  0.21344865230E+04 0.  0.
        3    1    3    3  502    0 -0.10480267746E+04 -0.89752808853E+02 -0.47754966687E+03  0.11551923569E+04  0.10100000352E+00 0. -1.
       -3    1    3    3    0  502  0.10480267746E+04  0.89752808853E+02 -0.10334943804E+03  0.10569280030E+04  0.10100000352E+00 0.  1.
</event>
<event>
 5   0  0.6293013E-05  0.2341446E+04  0.7818609E-02  0.8461757E-01
       -2   -1    0    0    0  501  0.00000000000E+00  0.00000000000E+00  0.11610801801E+04  0.11610801801E+04  0.25500000920E-02 0. -1.
        2   -1    0    0  501    0  0.00000000000E+00  0.00000000000E+00 -0.11804455344E+04  0.11804455344E+04  0.25500000920E-02 0.  1.
    10030    2    1    2    0    0  0.00000000000E+00  0.00000000000E+00 -0.19365354218E+02  0.23415257145E+04  0.23414456335E+04 0.  0.
        1    1    3    3  502    0 -0.23621669869E+03  0.22539427339E+03  0.11146293208E+04  0.11614643473E+04  0.50400001928E-02 0. -1.
       -1    1    3    3    0  502  0.23621669869E+03 -0.22539427339E+03 -0.11339946751E+04  0.11800613672E+04  0.50400001928E-02 0.  1.
</event>
<event>
 5   0  0.6628798E-05  0.2160561E+04  0.7818609E-02  0.8535025E-01
        2   -1    0    0  501    0  0.00000000000E+00  0.00000000000E+00  0.16170643871E+04  0.16170643871E+04  0.25500000920E-02 0.  1.
       -2   -1    0    0    0  501  0.00000000000E+00  0.00000000000E+00 -0.72168149290E+03  0.72168149290E+03  0.25500000920E-02 0. -1.
    10030    2    1    2    0    0  0.00000000000E+00  0.00000000000E+00  0.89538289418E+03  0.23387458800E+04  0.21605605208E+04 0.  0.
        4    1    3    3  502    0  0.39141343562E+03 -0.33444631395E+03 -0.58034054568E+03  0.77579351400E+03  0.12699999809E+01 0. -1.
       -4    1    3    3    0  502 -0.39141343562E+03  0.33444631395E+03  0.14757234399E+04  0.15629523660E+04  0.12699999809E+01 0.  1.
</event>
<event>
 5   0  0.2820239E-05  0.2185711E+04  0.7818609E-02  0.8524399E-01
        1   -1    0    0  501    0  0.00000000000E+00  0.00000000000E+00  0.15235286345E+04  0.15235286345E+04  0.50400001928E-02 0.  1.
       -1   -1    0    0    0  501  0.00000000000E+00  0.00000000000E+00 -0.78392571629E+03  0.78392571631E+03  0.50400001928E-02 0. -1.
    10030    2    1    2    0    0  0.00000000000E+00  0.00000000000E+00  0.73960291824E+03  0.23074543509E+04  0.21857111210E+04 0.  0.
        3    1    3    3  502    0  0.52784169971E+03 -0.30241378585E+03  0.13282594365E+04  0.14609394576E+04  0.10100000352E+00 0.  1.
       -3    1    3    3    0  502 -0.52784169971E+03  0.30241378585E+03 -0.58865651828E+03  0.84651489327E+03  0.10100000352E+00 0. -1.
</event>
<event>
 5   0  0.6306919E-05  0.2099904E+04  0.7818609E-02  0.8561285E-01
        2   -1    0    0  501    0  0.00000000000E+00  0.00000000000E+00  0.95109621408E+03  0.95109621408E+03  0.25500000920E-02 0. -1.
       -2   -1    0    0    0  501  0.00000000000E+00  0.00000000000E+00 -0.11590832852E+04  0.11590832852E+04  0.25500000920E-02 0.  1.
    10030    2    1    2    0    0  0.00000000000E+00  0.00000000000E+00 -0.20798707113E+03  0.21101794993E+04  0.20999044972E+04 0.  0.
        3    1    3    3  502    0 -0.52878644620E+02  0.26383483566E+03 -0.11238460238E+04  0.11556101708E+04  0.10100000352E+00 0.  1.
       -3    1    3    3    0  502  0.52878644620E+02 -0.26383483566E+03  0.91585895263E+03  0.95456932848E+03  0.10100000352E+00 0. -1.
</event>
<event>
 5   0  0.2820239E-05  0.2106929E+04  0.7818609E-02  0.8558197E-01
        1   -1    0    0  501    0  0.00000000000E+00  0.00000000000E+00  0.12303873954E+04  0.12303873954E+04  0.50400001928E-02 0. -1.
       -1   -1    0    0    0  501  0.00000000000E+00  0.00000000000E+00 -0.90198207828E+03  0.90198207830E+03  0.50400001928E-02 0.  1.
    10030    2    1    2    0    0  0.00000000000E+00  0.00000000000E+00  0.32840531713E+03  0.21323694737E+04  0.21069289310E+04 0.  0.
        3    1    3    3  502    0  0.21141489399E+03 -0.85727838718E+03 -0.41733521903E+03  0.97662233528E+03  0.10100000352E+00 0.  1.
       -3    1    3    3    0  502 -0.21141489399E+03  0.85727838718E+03  0.74574053616E+03  0.11557471384E+04  0.10100000352E+00 0. -1.
</event>
<event>
 5   0  0.6628798E-05  0.2184408E+04  0.7818609E-02  0.8524946E-01
       -2   -1    0    0    0  501  0.00000000000E+00  0.00000000000E+00  0.39829897589E+03  0.39829897590E+03  0.25500000920E-02 0. -1.
        2   -1    0    0  501    0  0.00000000000E+00  0.00000000000E+00 -0.29950092016E+04  0.29950092016E+04  0.25500000920E-02 0.  1.
    10030    2    1    2    0    0  0.00000000000E+00  0.00000000000E+00 -0.25967102257E+04  0.33933081775E+04  0.21844075607E+04 0.  0.
        4    1    3    3  502    0  0.70337872129E+03  0.80077365709E+03 -0.92771677197E+03  0.14130251581E+04  0.12699999809E+01 0. -1.
       -4    1    3    3    0  502 -0.70337872129E+03 -0.80077365709E+03 -0.16689934537E+04  0.19802830194E+04  0.12699999809E+01 0.  1.
</event>
<event>
 5   0  0.6414768E-05  0.2176099E+04  0.7818609E-02  0.8528443E-01
        2   -1    0    0  501    0  0.00000000000E+00  0.00000000000E+00  0.14413737561E+04  0.14413737561E+04  0.25500000920E-02 0.  1.
       -2   -1    0    0    0  501  0.00000000000E+00  0.00000000000E+00 -0.82133542374E+03  0.82133542375E+03  0.25500000920E-02 0. -1.
    10030    2    1    2    0    0  0.00000000000E+00  0.00000000000E+00  0.62003833237E+03  0.22627091799E+04  0.21760986418E+04 0.  0.
        2    1    3    3  502    0  0.66989515612E+03  0.24717516685E+03  0.11636673059E+04  0.13652753137E+04  0.25500000920E-02 0.  1.
       -2    1    3    3    0  502 -0.66989515612E+03 -0.24717516685E+03 -0.54362897354E+03  0.89743386619E+03  0.25500000920E-02 0. -1.
</event>
<event>
 5   0  0.6293013E-05  0.2207198E+04  0.7818609E-02  0.8515438E-01
       -2   -1    0    0    0  501  0.00000000000E+00  0.00000000000E+00  0.59296817971E+03  0.59296817971E+03  0.25500000920E-02 0. -1.
        2   -1    0    0  501    0  0.00000000000E+00  0.00000000000E+00 -0.20539568362E+04  0.20539568362E+04  0.25500000920E-02 0.  1.
    10030    2    1    2    0    0  0.00000000000E+00  0.00000000000E+00 -0.14609886565E+04  0.26469250159E+04  0.22071982660E+04 0.  0.
        1    1    3    3  502    0 -0.92964045389E+03 -0.86853509333E+02 -0.14360581636E+04  0.17129033700E+04  0.50400001928E-02 0.  1.
       -1    1    3    3    0  502  0.92964045389E+03  0.86853509333E+02 -0.24930492908E+02  0.93402164595E+03  0.50400001928E-02 0. -1.
</event>
<event>
 5   0  0.6306919E-05  0.2211110E+04  0.7818609E-02  0.8513818E-01
        2   -1    0    0  501    0  0.00000000000E+00  0.00000000000E+00  0.11552513823E+04  0.11552513823E+04  0.25500000920E-02 0.  1.
       -2   -1    0    0    0  501  0.00000000000E+00  0.00000000000E+00 -0.10579959984E+04  0.10579959984E+04  0.25500000920E-02 0. -1.
    10030    2    1    2    0    0  0.00000000000E+00  0.00000000000E+00  0.97255383961E+02  0.22132473807E+04  0.22111095311E+04 0.  0.
        3    1    3    3  502    0  0.45446568536E+03  0.10055667872E+04 -0.18874197560E+02  0.11036574959E+04  0.10100000352E+00 0. -1.
       -3    1    3    3    0  502 -0.45446568536E+03 -0.10055667872E+04  0.11612958152E+03  0.11095898848E+04  0.10100000352E+00 0.  1.
</event>
<event>
 5   0  0.6414768E-05  0.2228819E+04  0.7818609E-02  0.8506528E-01
        2   -1    0    0  501    0  0.00000000000E+00  0.00000000000E+00  0.18985434190E+04  0.18985434190E+04  0.25500000920E-02 0. -1.
       -2   -1    0    0    0  501  0.00000000000E+00  0.00000000000E+00 -0.65413732421E+03  0.65413732422E+03  0.25500000920E-02 0.  1.
    10030    2    1    2    0    0  0.00000000000E+00  0.00000000000E+00  0.12444060948E+04  0.25526807432E+04  0.22288186216E+04 0.  0.
        2    1    3    3  502    0 -0.33485819452E+03 -0.25859114978E+02  0.18392008318E+04  0.18696145067E+04  0.25500000920E-02 0. -1.
       -2    1    3    3    0  502  0.33485819452E+03  0.25859114978E+02 -0.59479473698E+03  0.68306623647E+03  0.25500000920E-02 0.  1.
</event>
<event>
 5   0  0.2929471E-05  0.2199020E+04  0.7818609E-02  0.8518836E-01
       -1   -1    0    0    0  501  0.00000000000E+00  0.00000000000E+00  0.22814245775E+04  0.22814245775E+04  0.50400001928E-02 0.  1.
        1   -1    0    0  501    0  0.00000000000E+00  0.00000000000E+00 -0.52989775153E+03  0.52989775155E+03  0.50400001928E-02 0. -1.
    10030    2    1    2    0    0  0.00000000000E+00  0.00000000000E+00  0.17515268259E+04  0.28113223290E+04  0.21990195578E+04 0.  0.
        2    1    3    3  502    0  0.12396439334E+03 -0.91282437237E+03  0.10837109589E+03  0.92755582045E+03  0.25500000920E-02 0. -1.
       -2    1    3    3    0  502 -0.12396439334E+03  0.91282437237E+03  0.16431557300E+04  0.18837665086E+04  0.25500000920E-02 0.  1.
</event>
<event>
 5   0  0.2929471E-05  0.2208808E+04  0.7818609E-02  0.8514771E-01
        1   -1    0    0  501    0  0.00000000000E+00  0.00000000000E+00  0.19180299098E+04  0.19180299098E+04  0.50400001928E-02 0.  1.
       -1   -1    0    0    0  501  0.00000000000E+00  0.00000000000E+00 -0.63591738056E+03  0.63591738058E+03  0.50400001928E-02 0. -1.
    10030    2    1    2    0    0  0.00000000000E+00  0.00000000000E+00  0.12821125292E+04  0.25539472904E+04  0.22088083268E+04 0.  0.
        2    1    3    3  502    0  0.57672848181E+03  0.94178851928E+03  0.65409682613E+03  0.12835201653E+04  0.25500000920E-02 0. -1.
       -2    1    3    3    0  502 -0.57672848181E+03 -0.94178851928E+03  0.62801570309E+03  0.12704271251E+04  0.25500000920E-02 0.  1.
</event>
<event>
 5   0  0.2753631E-05  0.2236408E+04  0.7818609E-02  0.8503425E-01
       -1   -1    0    0    0  501  0.00000000000E+00  0.00000000000E+00  0.70602518122E+03  0.70602518124E+03  0.50400001928E-02 0. -1.
        1   -1    0    0  501    0  0.00000000000E+00  0.00000000000E+00 -0.17710141705E+04  0.17710141705E+04  0.50400001928E-02 0.  1.
    10030    2    1    2    0    0  0.00000000000E+00  0.00000000000E+00 -0.10649889892E+04  0.24770393517E+04  0.22364083712E+04 0.  0.
        4    1    3    3  502    0  0.55620787487E+03  0.44211112016E+03  0.42386252887E+03  0.82733940974E+03  0.12699999809E+01 0. -1.
       -4    1    3    3    0  502 -0.55620787487E+03 -0.44211112016E+03 -0.14888515181E+04  0.16496999420E+04  0.12699999809E+01 0.  1.
</event>
<event>
 5   0  0.2910318E-05  0.2160853E+04  0.7818609E-02  0.8534901E-01
       -1   -1    0    0    0  501  0.00000000000E+00  0.00000000000E+00  0.70706564752E+03  0.70706564754E+03  0.50400001928E-02 0. -1.
        1   -1    0    0  501    0  0.00000000000E+00  0.00000000000E+00 -0.16509376748E+04  0.16509376748E+04  0.50400001928E-02 0.  1.
    10030    2    1    2    0    0  0.00000000000E+00  0.00000000000E+00 -0.94387202732E+03  0.23580033224E+04  0.21608529021E+04 0.  0.
        5    1    3    3  502    0  0.10021570909E+03  0.31705211171E+03  0.64982940759E+03  0.72997642349E+03  0.46999998093E+01 0. -1.
       -5    1    3    3    0  502 -0.10021570909E+03 -0.31705211171E+03 -0.15937014349E+04  0.16280268989E+04  0.46999998093E+01 0.  1.
</event>
<event>
 5   0  0.2910318E-05  0.2246641E+04  0.7818609E-02  0.8499262E-01
       -1   -1    0    0    0  501  0.00000000000E+00  0.00000000000E+00  0.11901381530E+04  0.11901381530E+04  0.50400001928E-02 0.  1.
        1   -1    0    0  501    0  0.00000000000E+00  0.00000000000E+00 -0.10602538160E+04  0.10602538160E+04  0.50400001928E-02 0. -1.
    10030    2    1    2    0    0  0.00000000000E+00  0.00000000000E+00  0.12988433699E+03  0.22503919690E+04  0.22466406195E+04 0.  0.
        5    1    3    3  502    0  0.20485731966E+03  0.77652218822E+03  0.85166637543E+03  0.11706028085E+04  0.46999998093E+01 0. -1.
       -5    1    3    3    0  502 -0.20485731966E+03 -0.77652218822E+03 -0.72178203844E+03  0.10797891605E+04  0.46999998093E+01 0.  1.
</event>
<event>
 5   0  0.6306919E-05  0.2048840E+04  0.7818609E-02  0.8584121E-01
        2   -1    0    0  501    0  0.00000000000E+00  0.00000000000E+00  0.12420448525E+04  0.12420448525E+04  0.25500000920E-02 0. -1.
       -2   -1    0    0    0  501  0.00000000000E+00  0.00000000000E+00 -0.84492607811E+03  0.84492607812E+03  0.25500000920E-02 0.  1.
    10030    2    1    2    0    0  0.00000000000E+00  0.00000000000E+00  0.39711877434E+03  0.20869709306E+04  0.20488397556E+04 0.  0.
        3    1    3    3  502    0 -0.65504598387E+03 -0.72335804799E+03 -0.11885521256E+03  0.98308630258E+03  0.10100000352E+00 0.  1.
       -3    1    3    3    0  502  0.65504598387E+03  0.72335804799E+03  0.51597398690E+03  0.11038846280E+04  0.10100000352E+00 0. -1.
</event>
<event>
 5   0  0.6306919E-05  0.2223026E+04  0.7818609E-02  0.8508905E-01
       -2   -1    0    0    0  501  0.00000000000E+00  0.00000000000E+00  0.10437599118E+04  0.10437599118E+04  0.25500000920E-02 0. -1.
        2   -1    0    0  501    0  0.00000000000E+00  0.00000000000E+00 -0.11836641612E+04  0.11836641612E+04  0.25500000920E-02 0.  1.
    10030    2    1    2    0    0  0.00000000000E+00  0.00000000000E+00 -0.13990424943E+03  0.22274240730E+04  0.22230260461E+04 0.  0.
        3    1    3    3  502    0 -0.49555178490E+03 -0.79004655801E+03 -0.67589316890E+03  0.11517711237E+04  0.10100000352E+00 0.  1.
       -3    1    3    3    0  502  0.49555178490E+03  0.79004655801E+03  0.53598891947E+03  0.10756529493E+04  0.10100000352E+00 0. -1.
</event>
<event>
 5   0  0.2910318E-05  0.2200725E+04  0.7818609E-02  0.8518127E-01
        1   -1    0    0  501    0  0.00000000000E+00  0.00000000000E+00  0.14795991338E+04  0.14795991338E+04  0.50400001928E-02 0. -1.
       -1   -1    0    0    0  501  0.00000000000E+00  0.00000000000E+00 -0.81832799725E+03  0.81832799726E+03  0.50400001928E-02 0.  1.
    10030    2    1    2    0    0  0.00000000000E+00  0.00000000000E+00  0.66127113656E+03  0.22979271311E+04  0.22007247860E+04 0.  0.
        5    1    3    3  502    0  0.31375677242E+03  0.81240600131E+03  0.10328948466E+04  0.13510516931E+04  0.46999998093E+01 0. -1.
       -5    1    3    3    0  502 -0.31375677242E+03 -0.81240600131E+03 -0.37162371006E+03  0.94687543800E+03  0.46999998093E+01 0.  1.
</event>
<event>
 5   0  0.6293013E-05  0.2210241E+04  0.7818609E-02  0.8514178E-01
        2   -1    0    0  501    0  0.00000000000E+00  0.00000000000E+00  0.17748604627E+04  0.17748604627E+04  0.25500000920E-02 0. -1.
       -2   -1    0    0    0  501  0.00000000000E+00  0.00000000000E+00 -0.68810527840E+03  0.68810527840E+03  0.25500000920E-02 0.  1.
    10030    2    1    2    0    0  0.00000000000E+00  0.00000000000E+00  0.10867551843E+04  0.24629657411E+04  0.22102405777E+04 0.  0.
        1    1    3    3  502    0  0.10783082498E+04  0.24053369856E+03  0.57255786705E+03  0.12443583298E+04  0.50400001928E-02 0. -1.
       -1    1    3    3    0  502 -0.10783082498E+04 -0.24053369856E+03  0.51419731728E+03  0.12186074113E+04  0.50400001928E-02 0.  1.
</event>
<event>
 5   0  0.2929471E-05  0.2236268E+04  0.7818609E-02  0.8503483E-01
       -1   -1    0    0    0  501  0.00000000000E+00  0.00000000000E+00  0.98025990311E+03  0.98025990313E+03  0.50400001928E-02 0. -1.
        1   -1    0    0  501    0  0.00000000000E+00  0.00000000000E+00 -0.12753997736E+04  0.12753997736E+04  0.50400001928E-02 0.  1.
    10030    2    1    2    0    0  0.00000000000E+00  0.00000000000E+00 -0.29513987050E+03  0.22556596767E+04  0.22362676571E+04 0.  0.
        2    1    3    3  502    0 -0.36023496222E+03 -0.22531849729E+03  0.89565478382E+03  0.99132998795E+03  0.25500000920E-02 0. -1.
       -2    1    3    3    0  502  0.36023496222E+03  0.22531849729E+03 -0.11907946543E+04  0.12643296888E+04  0.25500000920E-02 0.  1.
</event>
<event>
 5   0  0.6306919E-05  0.2201193E+04  0.7818609E-02  0.8517932E-01
       -2   -1    0    0    0  501  0.00000000000E+00  0.00000000000E+00  0.80660228181E+03  0.80660228182E+03  0.25500000920E-02 0.  1.
        2   -1    0    0  501    0  0.00000000000E+00  0.00000000000E+00 -0.15017471516E+04  0.15017471516E+04  0.25500000920E-02 0. -1.
    10030    2    1    2    0    0  0.00000000000E+00  0.00000000000E+00 -0.69514486980E+03  0.23083494334E+04  0.22011930213E+04 0.  0.
        3    1    3    3  502    0 -0.76533368773E+03  0.16861662791E+03  0.46279781321E+03  0.91013682867E+03  0.10100000352E+00 0.  1.
       -3    1    3    3    0  502  0.76533368773E+03 -0.16861662791E+03 -0.11579426830E+04  0.13982126048E+04  0.10100000352E+00 0. -1.
</event>
<event>
 5   0  0.6628798E-05  0.2207239E+04  0.7818609E-02  0.8515421E-01
        2   -1    0    0  501    0  0.00000000000E+00  0.00000000000E+00  0.17024432823E+04  0.17024432823E+04  0.25500000920E-02 0.  1.
       -2   -1    0    0    0  501  0.00000000000E+00  0.00000000000E+00 -0.71542829892E+03  0.71542829892E+03  0.25500000920E-02 0. -1.
    10030    2    1    2    0    0  0.00000000000E+00  0.00000000000E+00  0.98701498340E+03  0.24178715812E+04  0.22072390912E+04 0.  0.
        4    1    3    3  502    0 -0.82585035584E+02  0.48027725042E+03  0.15781958647E+04  0.16517234411E+04  0.12699999809E+01 0.  1.
       -4    1    3    3    0  502  0.82585035584E+02 -0.48027725042E+03 -0.59118088133E+03  0.76614814019E+03  0.12699999809E+01 0. -1.
</event>
<event>
 5   0  0.6445740E-05  0.2193580E+04  0.7818609E-02  0.8521105E-01
       -2   -1    0    0    0  501  0.00000000000E+00  0.00000000000E+00  0.11819371092E+04  0.11819371092E+04  0.25500000920E-02 0. -1.
        2   -1    0    0  501    0  0.00000000000E+00  0.00000000000E+00 -0.10177768432E+04  0.10177768432E+04  0.25500000920E-02 0.  1.
    10030    2    1    2    0    0  0.00000000000E+00  0.00000000000E+00  0.16416026596E+03  0.21997139524E+04  0.21935799232E+04 0.  0.
        5    1    3    3  502    0  0.43613967131E+03  0.50877693456E+03  0.95275592344E+03  0.11648337743E+04  0.46999998093E+01 0. -1.
       -5    1    3    3    0  502 -0.43613967131E+03 -0.50877693456E+03 -0.78859565748E+03  0.10348801781E+04  0.46999998093E+01 0.  1.
</event>
<event>
 5   0  0.2908031E-05  0.2251505E+04  0.7818609E-02  0.8497291E-01
        1   -1    0    0  501    0  0.00000000000E+00  0.00000000000E+00  0.22791560008E+04  0.22791560008E+04  0.50400001928E-02 0.  1.
       -1   -1    0    0    0  501  0.00000000000E+00  0.00000000000E+00 -0.55604737278E+03  0.55604737280E+03  0.50400001928E-02 0. -1.
    10030    2    1    2    0    0  0.00000000000E+00  0.00000000000E+00  0.17231086280E+04  0.28352033736E+04  0.22515050135E+04 0.  0.
        1    1    3    3  502    0 -0.10612219048E+04  0.16999051395E+03  0.12834118198E+04  0.16739876360E+04  0.50400001928E-02 0.  1.
       -1    1    3    3    0  502  0.10612219048E+04 -0.16999051395E+03  0.43969680819E+03  0.11612157376E+04  0.50400001928E-02 0. -1.
</event>
<event>
 5   0  0.2820239E-05  0.2190859E+04  0.7818609E-02  0.8522242E-01
       -1   -1    0    0    0  501  0.00000000000E+00  0.00000000000E+00  0.87607963549E+03  0.87607963550E+03  0.50400001928E-02 0. -1.
        1   -1    0    0  501    0  0.00000000000E+00  0.00000000000E+00 -0.13696993548E+04  0.13696993548E+04  0.50400001928E-02 0.  1.
    10030    2    1    2    0    0  0.00000000000E+00  0.00000000000E+00 -0.49361971929E+03  0.22457789903E+04  0.21908589288E+04 0.  0.
        3    1    3    3  502    0 -0.35418717378E+03  0.78789381000E+03 -0.93729823146E+03  0.12746580698E+04  0.10100000352E+00 0.  1.
       -3    1    3    3    0  502  0.35418717378E+03 -0.78789381000E+03  0.44367851217E+03  0.97112092052E+03  0.10100000352E+00 0. -1.
</event>
<event>
 5   0  0.2753631E-05  0.2161356E+04  0.7818609E-02  0.8534687E-01
        1   -1    0    0  501    0  0.00000000000E+00  0.00000000000E+00  0.95113941675E+03  0.95113941676E+03  0.50400001928E-02 0.  1.
       -1   -1    0    0    0  501  0.00000000000E+00  0.00000000000E+00 -0.12278586147E+04  0.12278586147E+04  0.50400001928E-02 0. -1.
    10030    2    1    2    0    0  0.00000000000E+00  0.00000000000E+00 -0.27671919792E+03  0.21789980314E+04  0.21613558029E+04 0.  0.
        4    1    3    3  502    0  0.42243649947E+03  0.96826281022E+03  0.91266215916E+02  0.10603379654E+04  0.12699999809E+01 0.  1.
       -4    1    3    3    0  502 -0.42243649947E+03 -0.96826281022E+03 -0.36798541384E+03  0.11186600661E+04  0.12699999809E+01 0. -1.
</event>
<event>
 5   0  0.2910318E-05  0.2200404E+04  0.7818609E-02  0.8518260E-01
        1   -1    0    0  501    0  0.00000000000E+00  0.00000000000E+00  0.17306350500E+04  0.17306350500E+04  0.50400001928E-02 0. -1.
       -1   -1    0    0    0  501  0.00000000000E+00  0.00000000000E+00 -0.69942226800E+03  0.69942226801E+03  0.50400001928E-02 0.  1.
    10030    2    1    2    0    0  0.00000000000E+00  0.00000000000E+00  0.10312127820E+04  0.24300573180E+04  0.22004042281E+04 0.  0.
        5    1    3    3  502    0  0.31730841940E+03  0.82086766973E+03 -0.21353973655E+03  0.90561011110E+03  0.46999998093E+01 0.  1.
       -5    1    3    3    0  502 -0.31730841940E+03 -0.82086766973E+03  0.12447525185E+04  0.15244472069E+04  0.46999998093E+01 0. -1.
</event>
<event>
 5   0  0.6306919E-05  0.2260989E+04  0.7818609E-02  0.8493463E-01
       -2   -1    0    0    0  501  0.00000000000E+00  0.00000000000E+00  0.13009417453E+04  0.13009417453E+04  0.25500000920E-02 0. -1.
        2   -1    0    0  501    0  0.00000000000E+00  0.00000000000E+00 -0.98237928616E+03  0.98237928616E+03  0.25500000920E-02 0.  1.
    10030    2    1    2    0    0  0.00000000000E+00  0.00000000000E+00  0.31856245911E+03  0.22833210314E+04  0.22609893614E+04 0.  0.
        3    1    3    3  502    0  0.64770007577E+03 -0.16612989194E+03  0.10798236368E+04  0.12700919754E+04  0.10100000352E+00 0. -1.
       -3    1    3    3    0  502 -0.64770007577E+03  0.16612989194E+03 -0.76126117770E+03  0.10132290560E+04  0.10100000352E+00 0.  1.
</event>
<event>
 5   0  0.2929471E-05  0.2012704E+04  0.7818609E-02  0.8600704E-01
       -1   -1    0    0    0  501  0.00000000000E+00  0.00000000000E+00  0.51114335649E+03  0.51114335651E+03  0.50400001928E-02 0. -1.
        1   -1    0    0  501    0  0.00000000000E+00  0.00000000000E+00 -0.19813303657E+04  0.19813303657E+04  0.50400001928E-02 0.  1.
    10030    2    1    2    0    0  0.00000000000E+00  0.00000000000E+00 -0.14701870093E+04  0.24924737223E+04  0.20127035087E+04 0.  0.
        2    1    3    3  502    0 -0.64822262646E+03  0.87227763016E+02  0.21203173303E+03  0.68757451372E+03  0.25500000920E-02 0. -1.
       -2    1    3    3    0  502  0.64822262646E+03 -0.87227763016E+02 -0.16822187423E+04  0.18048992085E+04  0.25500000920E-02 0.  1.
</event>
<event>
 5   0  0.2753631E-05  0.2194417E+04  0.7818609E-02  0.8520755E-01
        1   -1    0    0  501    0  0.00000000000E+00  0.00000000000E+00  0.90338375127E+03  0.90338375128E+03  0.50400001928E-02 0.  1.
       -1   -1    0    0    0  501  0.00000000000E+00  0.00000000000E+00 -0.13326195357E+04  0.13326195357E+04  0.50400001928E-02 0. -1.
    10030    2    1    2    0    0  0.00000000000E+00  0.00000000000E+00 -0.42923578447E+03  0.22360032870E+04  0.21944173124E+04 0.  0.
        4    1    3    3  502    0 -0.73143392965E+03  0.74705551153E+03 -0.55375817056E+03  0.11831049214E+04  0.12699999809E+01 0. -1.
       -4    1    3    3    0  502  0.73143392965E+03 -0.74705551153E+03  0.12452238608E+03  0.10528983656E+04  0.12699999809E+01 0.  1.
</event>
<event>
 5   0  0.2820239E-05  0.2165728E+04  0.7818609E-02  0.8532830E-01
       -1   -1    0    0    0  501  0.00000000000E+00  0.00000000000E+00  0.80078812011E+03  0.80078812012E+03  0.50400001928E-02 0. -1.
        1   -1    0    0  501    0  0.00000000000E+00  0.00000000000E+00 -0.14643004413E+04  0.14643004414E+04  0.50400001928E-02 0.  1.
    10030    2    1    2    0    0  0.00000000000E+00  0.00000000000E+00 -0.66351232124E+03  0.22650885615E+04  0.21657279587E+04 0.  0.
        3    1    3    3  502    0  0.10302726932E+04  0.96062884797E+02 -0.66562657641E+03  0.12303449312E+04  0.10100000352E+00 0.  1.
       -3    1    3    3    0  502 -0.10302726932E+04 -0.96062884797E+02  0.21142551713E+01  0.10347436303E+04  0.10100000352E+00 0. -1.
</event>
<event>
 5   0  0.2753631E-05  0.2190825E+04  0.7818609E-02  0.8522257E-01
       -1   -1    0    0    0  501  0.00000000000E+00  0.00000000000E+00  0.11323816069E+04  0.11323816069E+04  0.50400001928E-02 0. -1.
        1   -1    0    0  501    0  0.00000000000E+00  0.00000000000E+00 -0.10596498785E+04  0.10596498785E+04  0.50400001928E-02 0.  1.
    10030    2    1    2    0    0  0.00000000000E+00  0.00000000000E+00  0.72731728447E+02  0.21920314854E+04  0.21908245317E+04 0.  0.
        4    1    3    3  502    0 -0.77052206728E+03  0.45280090327E+03 -0.59738146106E+03  0.10749879707E+04  0.12699999809E+01 0.  1.
       -4    1    3    3    0  502  0.77052206728E+03 -0.45280090327E+03  0.67011318951E+03  0.11170435147E+04  0.12699999809E+01 0. -1.
</event>
<event>
 5   0  0.6414768E-05  0.2224813E+04  0.7818609E-02  0.8508171E-01
        2   -1    0    0  501    0  0.00000000000E+00  0.00000000000E+00  0.14264415424E+04  0.14264415424E+04  0.25500000920E-02 0. -1.
       -2   -1    0    0    0  501  0.00000000000E+00  0.00000000000E+00 -0.86750700895E+03  0.86750700895E+03  0.25500000920E-02 0.  1.
    10030    2    1    2    0    0  0.00000000000E+00  0.00000000000E+00  0.55893453346E+03  0.22939485514E+04  0.22248128334E+04 0.  0.
        2    1    3    3  502    0 -0.98790795005E+03  0.45963278236E+03  0.51053761223E+03  0.12032759725E+04  0.25500000920E-02 0. -1.
       -2    1    3    3    0  502  0.98790795005E+03 -0.45963278236E+03  0.48396921234E+02  0.10906725789E+04  0.25500000920E-02 0.  1.
</event>
<event>
 5   0  0.6445740E-05  0.2201726E+04  0.7818609E-02  0.8517710E-01
       -2   -1    0    0    0  501  0.00000000000E+00  0.00000000000E+00  0.49349372090E+03  0.49349372091E+03  0.25500000920E-02 0.  1.
        2   -1    0    0  501    0  0.00000000000E+00  0.00000000000E+00 -0.24557542915E+04  0.24557542915E+04  0.25500000920E-02 0. -1.
    10030    2    1    2    0    0  0.00000000000E+00  0.00000000000E+00 -0.19622605706E+04  0.29492480125E+04  0.22017259802E+04 0.  0.
        5    1    3    3  502    0  0.86250492239E+02 -0.88675928590E+03 -0.11499433929E+03  0.89834679640E+03  0.46999998093E+01 0.  1.
       -5    1    3    3    0  502 -0.86250492239E+02  0.88675928590E+03 -0.18472662313E+04  0.20509012161E+04  0.46999998093E+01 0. -1.
</event>
<event>
 5   0  0.6306919E-05  0.2187983E+04  0.7818609E-02  0.8523446E-01
       -2   -1    0    0    0  501  0.00000000000E+00  0.00000000000E+00  0.52106794956E+03  0.52106794956E+03  0.25500000920E-02 0.  1.
        2   -1    0    0  501    0  0.00000000000E+00  0.00000000000E+00 -0.22968549868E+04  0.22968549869E+04  0.25500000920E-02 0. -1.
    10030    2    1    2    0    0  0.00000000000E+00  0.00000000000E+00 -0.17757870373E+04  0.28179229364E+04  0.21879831064E+04 0.  0.
        3    1    3    3  502    0  0.79001890236E+03  0.58303254299E+03 -0.26653827017E+03  0.10173983841E+04  0.10100000352E+00 0.  1.
       -3    1    3    3    0  502 -0.79001890236E+03 -0.58303254299E+03 -0.15092487671E+04  0.18005245523E+04  0.10100000352E+00 0. -1.
</event>
<event>
 5   0  0.6445740E-05  0.2200568E+04  0.7818609E-02  0.8518192E-01
       -2   -1    0    0    0  501  0.00000000000E+00  0.00000000000E+00  0.50584306940E+03  0.50584306940E+03  0.25500000920E-02 0. -1.
        2   -1    0    0  501    0  0.00000000000E+00  0.00000000000E+00 -0.23932825251E+04  0.23932825251E+04  0.25500000920E-02 0.  1.
    10030    2    1    2    0    0  0.00000000000E+00  0.00000000000E+00 -0.18874394557E+04  0.28991255945E+04  0.22005684524E+04 0.  0.
        5    1    3    3  502    0  0.93865102991E+03  0.56692517034E+03 -0.10625337720E+04  0.15269151946E+04  0.46999998093E+01 0. -1.
       -5    1    3    3    0  502 -0.93865102991E+03 -0.56692517034E+03 -0.82490568367E+03  0.13722103999E+04  0.46999998093E+01 0.  1.
</event>
<event>
 5   0  0.2753631E-05  0.2190199E+04  0.7818609E-02  0.8522519E-01
        1   -1    0    0  501    0  0.00000000000E+00  0.00000000000E+00  0.11338295604E+04  0.11338295604E+04  0.50400001928E-02 0.  1.
       -1   -1    0    0    0  501  0.00000000000E+00  0.00000000000E+00 -0.10576923508E+04  0.10576923508E+04  0.50400001928E-02 0. -1.
    10030    2    1    2    0    0  0.00000000000E+00  0.00000000000E+00  0.76137209610E+02  0.21915219113E+04  0.21901989437E+04 0.  0.
        4    1    3    3  502    0  0.48959821130E+03 -0.97945614702E+03  0.23900678199E+02  0.10952687377E+04  0.12699999809E+01 0.  1.
       -4    1    3    3    0  502 -0.48959821130E+03  0.97945614702E+03  0.52236531411E+02  0.10962531736E+04  0.12699999809E+01 0. -1.
</event>
<event>
 5   0  0.2820239E-05  0.2210134E+04  0.7818609E-02  0.8514222E-01
        1   -1    0    0  501    0  0.00000000000E+00  0.00000000000E+00  0.61051780231E+03  0.61051780233E+03  0.50400001928E-02 0. -1.
       -1   -1    0    0    0  501  0.00000000000E+00  0.00000000000E+00 -0.20002255814E+04  0.20002255815E+04  0.50400001928E-02 0.  1.
    10030    2    1    2    0    0  0.00000000000E+00  0.00000000000E+00 -0.13897077791E+04  0.26107433838E+04  0.22101342277E+04 0.  0.
        3    1    3    3  502    0 -0.98345845740E+03  0.89499380302E+02 -0.12807072648E+04  0.16172234802E+04  0.10100000352E+00 0.  1.
       -3    1    3    3    0  502  0.98345845740E+03 -0.89499380302E+02 -0.10900051432E+03  0.99351990359E+03  0.10100000352E+00 0. -1.
</event>
<event>
 5   0  0.2820239E-05  0.2181779E+04  0.7818609E-02  0.8526050E-01
        1   -1    0    0  501    0  0.00000000000E+00  0.00000000000E+00  0.21735421979E+04  0.21735421979E+04  0.50400001928E-02 0. -1.
       -1   -1    0    0    0  501  0.00000000000E+00  0.00000000000E+00 -0.54751196889E+03  0.54751196892E+03  0.50400001928E-02 0.  1.
    10030    2    1    2    0    0  0.00000000000E+00  0.00000000000E+00  0.16260302290E+04  0.27210541668E+04  0.21817794282E+04 0.  0.
        3    1    3    3  502    0 -0.15132955884E+03  0.37925673994E+03 -0.44860525043E+03  0.60661601618E+03  0.10100000352E+00 0.  1.
       -3    1    3    3    0  502  0.15132955884E+03 -0.37925673994E+03  0.20746354795E+04  0.21144381507E+04  0.10100000352E+00 0. -1.
</event>
<event>
 5   0  0.2910318E-05  0.2231855E+04  0.7818609E-02  0.8505285E-01
       -1   -1    0    0    0  501  0.00000000000E+00  0.00000000000E+00  0.85191300055E+03  0.85191300056E+03  0.50400001928E-02 0. -1.
        1   -1    0    0  501    0  0.00000000000E+00  0.00000000000E+00 -0.14617615579E+04  0.14617615579E+04  0.50400001928E-02 0.  1.
    10030    2    1    2    0    0  0.00000000000E+00  0.00000000000E+00 -0.60984855736E+03  0.23136745585E+04  0.22318545427E+04 0.  0.
        5    1    3    3  502    0  0.52700057739E+03 -0.36564013479E+03  0.64170549570E+03  0.90732042297E+03  0.46999998093E+01 0. -1.
       -5    1    3    3    0  502 -0.52700057739E+03  0.36564013479E+03 -0.12515540531E+04  0.14063541355E+04  0.46999998093E+01 0.  1.
</event>
<event>
 5   0  0.6414768E-05  0.2198356E+04  0.7818609E-02  0.8519113E-01
        2   -1    0    0  501    0  0.00000000000E+00  0.00000000000E+00  0.17684872153E+04  0.17684872153E+04  0.25500000920E-02 0. -1.
       -2   -1    0    0    0  501  0.00000000000E+00  0.00000000000E+00 -0.68317865186E+03  0.68317865186E+03  0.25500000920E-02 0.  1.
    10030    2    1    2    0    0  0.00000000000E+00  0.00000000000E+00  0.10853085634E+04  0.24516658671E+04  0.21983563966E+04 0.  0.
        2    1    3    3  502    0  0.77492244643E+03 -0.75768970403E+03  0.33824740661E+03  0.11353456714E+04  0.25500000920E-02 0.  1.
       -2    1    3    3    0  502 -0.77492244643E+03  0.75768970403E+03  0.74706115681E+03  0.13163201957E+04  0.25500000920E-02 0. -1.
</event>
<event>
 5   0  0.6306919E-05  0.2201732E+04  0.7818609E-02  0.8517708E-01
        2   -1    0    0  501    0  0.00000000000E+00  0.00000000000E+00  0.19786858550E+04  0.19786858550E+04  0.25500000920E-02 0. -1.
       -2   -1    0    0    0  501  0.00000000000E+00  0.00000000000E+00 -0.61248015195E+03  0.61248015196E+03  0.25500000920E-02 0.  1.
    10030    2    1    2    0    0  0.00000000000E+00  0.00000000000E+00  0.13662057031E+04  0.25911660070E+04  0.22017318757E+04 0.  0.
        3    1    3    3  502    0 -0.93192604160E+03 -0.23823819462E+03  0.13132123646E+04  0.16278115091E+04  0.10100000352E+00 0. -1.
       -3    1    3    3    0  502  0.93192604160E+03  0.23823819462E+03  0.52993338411E+02  0.96335449784E+03  0.10100000352E+00 0.  1.
</event>
<event>
 5   0  0.6306919E-05  0.2196994E+04  0.7818609E-02  0.8519680E-01
       -2   -1    0    0    0  501  0.00000000000E+00  0.00000000000E+00  0.14276171384E+04  0.14276171384E+04  0.25500000920E-02 0.  1.
        2   -1    0    0  501    0  0.00000000000E+00  0.00000000000E+00 -0.84525133590E+03  0.84525133590E+03  0.25500000920E-02 0. -1.
    10030    2    1    2    0    0  0.00000000000E+00  0.00000000000E+00  0.58236580254E+03  0.22728684743E+04  0.21969936672E+04 0.  0.
        3    1    3    3  502    0 -0.16034926868E+03  0.68599545714E+03  0.11631398208E+04  0.13598514287E+04  0.10100000352E+00 0.  1.
       -3    1    3    3    0  502  0.16034926868E+03 -0.68599545714E+03 -0.58077401825E+03  0.91301704566E+03  0.10100000352E+00 0. -1.
</event>
<event>
 5   0  0.2929471E-05  0.2183970E+04  0.7818609E-02  0.8525130E-01
       -1   -1    0    0    0  501  0.00000000000E+00  0.00000000000E+00  0.13093954071E+04  0.13093954071E+04  0.50400001928E-02 0. -1.
        1   -1    0    0  501    0  0.00000000000E+00  0.00000000000E+00 -0.91067286707E+03  0.91067286709E+03  0.50400001928E-02 0.  1.
    10030    2    1    2    0    0  0.00000000000E+00  0.00000000000E+00  0.39872254007E+03  0.22200682742E+04  0.21839696606E+04 0.  0.
        2    1    3    3  502    0  0.49973168918E+03  0.82356620453E+03 -0.32337364612E+03  0.10161513516E+04  0.25500000920E-02 0.  1.
       -2    1    3    3    0  502 -0.49973168918E+03 -0.82356620453E+03  0.72209618619E+03  0.12039169226E+04  0.25500000920E-02 0. -1.
</event>
<event>
 5   0  0.6628798E-05  0.1903429E+04  0.7818609E-02  0.8653151E-01
       -2   -1    0    0    0  501  0.00000000000E+00  0.00000000000E+00  0.65247788231E+03  0.65247788232E+03  0.25500000920E-02 0. -1.
        2   -1    0    0  501    0  0.00000000000E+00  0.00000000000E+00 -0.13881856975E+04  0.13881856975E+04  0.25500000920E-02 0.  1.
    10030    2    1    2    0    0  0.00000000000E+00  0.00000000000E+00 -0.73570781516E+03  0.20406635798E+04  0.19034289734E+04 0.  0.
        4    1    3    3  502    0 -0.73294699039E+03 -0.59129906532E+03 -0.51529368694E+03  0.10734873414E+04  0.12699999809E+01 0.  1.
       -4    1    3    3    0  502  0.73294699039E+03  0.59129906532E+03 -0.22041412823E+03  0.96717623844E+03  0.12699999809E+01 0. -1.
</event>
<event>
 5   0  0.6306919E-05  0.2145973E+04  0.7818609E-02  0.8541258E-01
       -2   -1    0    0    0  501  0.00000000000E+00  0.00000000000E+00  0.41073550450E+03  0.41073550451E+03  0.25500000920E-02 0. -1.
        2   -1    0    0  501    0  0.00000000000E+00  0.00000000000E+00 -0.28030217172E+04  0.28030217172E+04  0.25500000920E-02 0.  1.
    10030    2    1    2    0    0  0.00000000000E+00  0.00000000000E+00 -0.23922862127E+04  0.32137572217E+04  0.21459734753E+04 0.  0.
        3    1    3    3  502    0 -0.10066363621E+04 -0.36276597054E+03 -0.13158050473E+04  0.16959536691E+04  0.10100000352E+00 0. -1.
       -3    1    3    3    0  502  0.10066363621E+04  0.36276597054E+03 -0.10764811653E+04  0.15178035526E+04  0.10100000352E+00 0.  1.
</event>
<event>
 5   0  0.6306919E-05  0.2189494E+04  0.7818609E-02  0.8522814E-01
        2   -1    0    0  501    0  0.00000000000E+00  0.00000000000E+00  0.17209784072E+04  0.17209784072E+04  0.25500000920E-02 0. -1.
       -2   -1    0    0    0  501  0.00000000000E+00  0.00000000000E+00 -0.69638907557E+03  0.69638907558E+03  0.25500000920E-02 0.  1.
    10030    2    1    2    0    0  0.00000000000E+00  0.00000000000E+00  0.10245893316E+04  0.24173674828E+04  0.21894936055E+04 0.  0.
        3    1    3    3  502    0  0.62846013588E+02 -0.68270751248E+03  0.14546036219E+04  0.16080767631E+04  0.10100000352E+00 0. -1.
       -3    1    3    3    0  502 -0.62846013588E+02  0.68270751248E+03 -0.43001429022E+03  0.80929071972E+03  0.10100000352E+00 0.  1.
</event>
<event>
 5   0  0.6306919E-05  0.2394317E+04  0.7818609E-02  0.8441634E-01
        2   -1    0    0  501    0  0.00000000000E+00  0.00000000000E+00  0.90592101492E+03  0.90592101492E+03  0.25500000920E-02 0.  1.
       -2   -1    0    0    0  501  0.00000000000E+00  0.00000000000E+00 -0.15820240175E+04  0.15820240175E+04  0.25500000920E-02 0. -1.
    10030    2    1    2    0    0  0.00000000000E+00  0.00000000000E+00 -0.67610300257E+03  0.24879450324E+04  0.23943172752E+04 0.  0.
        3    1    3    3  502    0 -0.11190100309E+04  0.92850540434E+02  0.93375886743E+02  0.11267314403E+04  0.10100000352E+00 0.  1.
       -3    1    3    3    0  502  0.11190100309E+04 -0.92850540434E+02 -0.76947888931E+03  0.13612135921E+04  0.10100000352E+00 0. -1.
</event>
<event>
 5   0  0.6445740E-05  0.2212301E+04  0.7818609E-02  0.8513326E-01
       -2   -1    0    0    0  501  0.00000000000E+00  0.00000000000E+00  0.12388855096E+04  0.12388855096E+04  0.25500000920E-02 0.  1.
        2   -1    0    0  501    0  0.00000000000E+00  0.00000000000E+00 -0.98763678338E+03  0.98763678339E+03  0.25500000920E-02 0. -1.
    10030    2    1    2    0    0  0.00000000000E+00  0.00000000000E+00  0.25124872626E+03  0.22265222930E+04  0.22123009739E+04 0.  0.
        5    1    3    3  502    0  0.77277801740E+02  0.91867078978E+03 -0.48954864843E+03  0.10438428272E+04  0.46999998093E+01 0. -1.
       -5    1    3    3    0  502 -0.77277801740E+02 -0.91867078978E+03  0.74079737469E+03  0.11826794659E+04  0.46999998093E+01 0.  1.
</event>
<event>
 5   0  0.2820239E-05  0.2176146E+04  0.7818609E-02  0.8528423E-01
        1   -1    0    0  501    0  0.00000000000E+00  0.00000000000E+00  0.79903627281E+03  0.79903627282E+03  0.50400001928E-02 0. -1.
       -1   -1    0    0    0  501  0.00000000000E+00  0.00000000000E+00 -0.14816628296E+04  0.14816628296E+04  0.50400001928E-02 0.  1.
    10030    2    1    2    0    0  0.00000000000E+00  0.00000000000E+00 -0.68262655677E+03  0.22806991024E+04  0.21761455328E+04 0.  0.
        3    1    3    3  502    0  0.36426093746E+03  0.10194955112E+04 -0.22724854809E+03  0.11062093115E+04  0.10100000352E+00 0.  1.
       -3    1    3    3    0  502 -0.36426093746E+03 -0.10194955112E+04 -0.45537800869E+03  0.11744897909E+04  0.10100000352E+00 0. -1.
</event>
<event>
 5   0  0.2929471E-05  0.2234296E+04  0.7818609E-02  0.8504287E-01
       -1   -1    0    0    0  501  0.00000000000E+00  0.00000000000E+00  0.12028464103E+04  0.12028464103E+04  0.50400001928E-02 0.  1.
        1   -1    0    0  501    0  0.00000000000E+00  0.00000000000E+00 -0.10375557199E+04  0.10375557199E+04  0.50400001928E-02 0. -1.
    10030    2    1    2    0    0  0.00000000000E+00  0.00000000000E+00  0.16529069046E+03  0.22404021302E+04  0.22342964648E+04 0.  0.
        2    1    3    3  502    0 -0.13146685190E+03  0.64253404029E+03 -0.82419688746E+03  0.10532967461E+04  0.25500000920E-02 0. -1.
       -2    1    3    3    0  502  0.13146685190E+03 -0.64253404029E+03  0.98948757792E+03  0.11871053841E+04  0.25500000920E-02 0.  1.
</event>
<event>
 5   0  0.2753631E-05  0.2222603E+04  0.7818609E-02  0.8509079E-01
       -1   -1    0    0    0  501  0.00000000000E+00  0.00000000000E+00  0.95919498168E+03  0.95919498169E+03  0.50400001928E-02 0. -1.
        1   -1    0    0  501    0  0.00000000000E+00  0.00000000000E+00 -0.12875285347E+04  0.12875285347E+04  0.50400001928E-02 0.  1.
    10030    2    1    2    0    0  0.00000000000E+00  0.00000000000E+00 -0.32833355304E+03  0.22467235164E+04  0.22226028969E+04 0.  0.
        4    1    3    3  502    0  0.76227042708E+03  0.62017964280E+03 -0.68874980902E+03  0.12000237105E+04  0.12699999809E+01 0.  1.
       -4    1    3    3    0  502 -0.76227042708E+03 -0.62017964280E+03  0.36041625598E+03  0.10466998060E+04  0.12699999809E+01 0. -1.
</event>
<event>
 5   0  0.6306919E-05  0.2186122E+04  0.7818609E-02  0.8524227E-01
        2   -1    0    0  501    0  0.00000000000E+00  0.00000000000E+00  0.10398041528E+04  0.10398041528E+04  0.25500000920E-02 0. -1.
       -2   -1    0    0    0  501  0.00000000000E+00  0.00000000000E+00 -0.11490456497E+04  0.11490456497E+04  0.25500000920E-02 0.  1.
    10030    2    1    2    0    0  0.00000000000E+00  0.00000000000E+00 -0.10924149686E+03  0.21888498025E+04  0.21861220811E+04 0.  0.
        3    1    3    3  502    0  0.65726433176E+03 -0.16054532618E+03  0.80494401071E+03  0.10515255937E+04  0.10100000352E+00 0.  1.
       -3    1    3    3    0  502 -0.65726433176E+03  0.16054532618E+03 -0.91418550757E+03  0.11373242088E+04  0.10100000352E+00 0. -1.
</event>
<event>
 5   0  0.6306919E-05  0.2195250E+04  0.7818609E-02  0.8520408E-01
       -2   -1    0    0    0  501  0.00000000000E+00  0.00000000000E+00  0.55226111133E+03  0.55226111134E+03  0.25500000920E-02 0.  1.
        2   -1    0    0  501    0  0.00000000000E+00  0.00000000000E+00 -0.21815421703E+04  0.21815421703E+04  0.25500000920E-02 0. -1.
    10030    2    1    2    0    0  0.00000000000E+00  0.00000000000E+00 -0.16292810590E+04  0.27338032817E+04  0.21952502394E+04 0.  0.
        3    1    3    3  502    0 -0.82849366688E+03 -0.14749165508E+03 -0.16922426600E+04  0.18899314207E+04  0.10100000352E+00 0. -1.
       -3    1    3    3    0  502  0.82849366688E+03  0.14749165508E+03  0.62961600984E+02  0.84387186100E+03  0.10100000352E+00 0.  1.
</event>
<event>
 5   0  0.6293013E-05  0.2173982E+04  0.7818609E-02  0.8529336E-01
       -2   -1    0    0    0  501  0.00000000000E+00  0.00000000000E+00  0.57341047982E+03  0.57341047982E+03  0.25500000920E-02 0. -1.
        2   -1    0    0  501    0  0.00000000000E+00  0.00000000000E+00 -0.20605641179E+04  0.20605641179E+04  0.25500000920E-02 0.  1.
    10030    2    1    2    0    0  0.00000000000E+00  0.00000000000E+00 -0.14871536381E+04  0.26339745977E+04  0.21739816554E+04 0.  0.
        1    1    3    3  502    0 -0.23918141223E+03 -0.75539387054E+03 -0.16451507924E+04  0.18260199279E+04  0.50400001928E-02 0.  1.
       -1    1    3    3    0  502  0.23918141223E+03  0.75539387054E+03  0.15799715429E+03  0.80795466977E+03  0.50400001928E-02 0. -1.
</event>
<event>
 5   0  0.2908031E-05  0.2210897E+04  0.7818609E-02  0.8513906E-01
        1   -1    0    0  501    0  0.00000000000E+00  0.00000000000E+00  0.12774624927E+04  0.12774624928E+04  0.50400001928E-02 0.  1.
       -1   -1    0    0    0  501  0.00000000000E+00  0.00000000000E+00 -0.95659702390E+03  0.95659702391E+03  0.50400001928E-02 0. -1.
    10030    2    1    2    0    0  0.00000000000E+00  0.00000000000E+00  0.32086546885E+03  0.22340595167E+04  0.22108973913E+04 0.  0.
        1    1    3    3  502    0 -0.25314513214E+03 -0.10516736250E+04  0.39067270744E+03  0.11500978375E+04  0.50400001928E-02 0.  1.
       -1    1    3    3    0  502  0.25314513214E+03  0.10516736250E+04 -0.69807238588E+02  0.10839616792E+04  0.50400001928E-02 0. -1.
</event>
<event>
 5   0  0.6414768E-05  0.2438296E+04  0.7818609E-02  0.8425304E-01
       -2   -1    0    0    0  501  0.00000000000E+00  0.00000000000E+00  0.17719627235E+04  0.17719627235E+04  0.25500000920E-02 0.  1.
        2   -1    0    0  501    0  0.00000000000E+00  0.00000000000E+00 -0.83879992177E+03  0.83879992177E+03  0.25500000920E-02 0. -1.
    10030    2    1    2    0    0  0.00000000000E+00  0.00000000000E+00  0.93316280172E+03  0.26107626453E+04  0.24382962854E+04 0.  0.
        2    1    3    3  502    0 -0.45318883992E+03 -0.10462358730E+04  0.92877645835E+03  0.14705833319E+04  0.25500000920E-02 0.  1.
       -2    1    3    3    0  502  0.45318883992E+03  0.10462358730E+04  0.43863433626E+01  0.11401793133E+04  0.25500000920E-02 0. -1.
</event>
<event>
 5   0  0.6306919E-05  0.2202277E+04  0.7818609E-02  0.8517481E-01
       -2   -1    0    0    0  501  0.00000000000E+00  0.00000000000E+00  0.18606211202E+04  0.18606211202E+04  0.25500000920E-02 0. -1.
        2   -1    0    0  501    0  0.00000000000E+00  0.00000000000E+00 -0.65166737219E+03  0.65166737220E+03  0.25500000920E-02 0.  1.
    10030    2    1    2    0    0  0.00000000000E+00  0.00000000000E+00  0.12089537480E+04  0.25122884924E+04  0.22022770726E+04 0.  0.
        3    1    3    3  502    0 -0.67210900196E+03 -0.39209788967E+02  0.15984772808E+04  0.17344732761E+04  0.10100000352E+00 0. -1.
       -3    1    3    3    0  502  0.67210900196E+03  0.39209788967E+02 -0.38952353273E+03  0.77781521637E+03  0.10100000352E+00 0.  1.
</event>
<event>
 5   0  0.2908031E-05  0.2201762E+04  0.7818609E-02  0.8517695E-01
        1   -1    0    0  501    0  0.00000000000E+00  0.00000000000E+00  0.14913835030E+04  0.14913835030E+04  0.50400001928E-02 0. -1.
       -1   -1    0    0    0  501  0.00000000000E+00  0.00000000000E+00 -0.81262765354E+03  0.81262765355E+03  0.50400001928E-02 0.  1.
    10030    2    1    2    0    0  0.00000000000E+00  0.00000000000E+00  0.67875584945E+03  0.23040111566E+04  0.22017624546E+04 0.  0.
        1    1    3    3  502    0 -0.66844829409E+03  0.61463835761E+03  0.99064342447E+03  0.13438667445E+04  0.50400001928E-02 0. -1.
       -1    1    3    3    0  502  0.66844829409E+03 -0.61463835761E+03 -0.31188757501E+03  0.96014441205E+03  0.50400001928E-02 0.  1.
</event>
<event>
 5   0  0.6628798E-05  0.2176585E+04  0.7818609E-02  0.8528238E-01
        2   -1    0    0  501    0  0.00000000000E+00  0.00000000000E+00  0.12211151894E+04  0.12211151894E+04  0.25500000920E-02 0. -1.
       -2   -1    0    0    0  501  0.00000000000E+00  0.00000000000E+00 -0.96991697338E+03  0.96991697338E+03  0.25500000920E-02 0.  1.
    10030    2    1    2    0    0  0.00000000000E+00  0.00000000000E+00  0.25119821599E+03  0.21910321627E+04  0.21765848007E+04 0.  0.
        4    1    3    3  502    0  0.77933200984E+00  0.80470496407E+03  0.86314790740E+03  0.11800748322E+04  0.12699999809E+01 0. -1.
       -4    1    3    3    0  502 -0.77933200984E+00 -0.80470496407E+03 -0.61194969141E+03  0.10109573306E+04  0.12699999809E+01 0.  1.
</event>
<event>
 5   0  0.2910318E-05  0.2202860E+04  0.7818609E-02  0.8517239E-01
        1   -1    0    0  501    0  0.00000000000E+00  0.00000000000E+00  0.92050821224E+03  0.92050821225E+03  0.50400001928E-02 0.  1.
       -1   -1    0    0    0  501  0.00000000000E+00  0.00000000000E+00 -0.13179116310E+04  0.13179116310E+04  0.50400001928E-02 0. -1.
    10030    2    1    2    0    0  0.00000000000E+00  0.00000000000E+00 -0.39740341872E+03  0.22384198432E+04  0.22028603944E+04 0.  0.
        5    1    3    3  502    0  0.34560226278E+02 -0.37506492809E+03  0.85302200897E+03  0.93248954273E+03  0.46999998093E+01 0.  1.
       -5    1    3    3    0  502 -0.34560226278E+02  0.37506492809E+03 -0.12504254277E+04  0.13059303005E+04  0.46999998093E+01 0. -1.
</event>
<event>
 5   0  0.6445740E-05  0.2267217E+04  0.7818609E-02  0.8490960E-01
        2   -1    0    0  501    0  0.00000000000E+00  0.00000000000E+00  0.13141468639E+04  0.13141468639E+04  0.25500000920E-02 0.  1.
       -2   -1    0    0    0  501  0.00000000000E+00  0.00000000000E+00 -0.97787258552E+03  0.97787258552E+03  0.25500000920E-02 0. -1.
    10030    2    1    2    0    0  0.00000000000E+00  0.00000000000E+00  0.33627427841E+03  0.22920194495E+04  0.22672169650E+04 0.  0.
        5    1    3    3  502    0  0.23353758888E+03  0.59288664328E+03  0.11159391137E+04  0.12850667581E+04  0.46999998093E+01 0.  1.
       -5    1    3    3    0  502 -0.23353758888E+03 -0.59288664328E+03 -0.77966483533E+03  0.10069526914E+04  0.46999998093E+01 0. -1.
</event>
<event>
 5   0  0.6628798E-05  0.2199509E+04  0.7818609E-02  0.8518633E-01
       -2   -1    0    0    0  501  0.00000000000E+00  0.00000000000E+00  0.64865836488E+03  0.64865836488E+03  0.25500000920E-02 0.  1.
        2   -1    0    0  501    0  0.00000000000E+00  0.00000000000E+00 -0.18645561604E+04  0.18645561604E+04  0.25500000920E-02 0. -1.
    10030    2    1    2    0    0  0.00000000000E+00  0.00000000000E+00 -0.12158977956E+04  0.25132145253E+04  0.21995089909E+04 0.  0.
        4    1    3    3  502    0  0.30962856774E+03 -0.69407926306E+03  0.30030699556E+03  0.81719139610E+03  0.12699999809E+01 0.  1.
       -4    1    3    3    0  502 -0.30962856774E+03  0.69407926306E+03 -0.15162047911E+04  0.16960231292E+04  0.12699999809E+01 0. -1.
</event>
<event>
 5   0  0.6306919E-05  0.2078427E+04  0.7818609E-02  0.8570807E-01
        2   -1    0    0  501    0  0.00000000000E+00  0.00000000000E+00  0.21795591866E+04  0.21795591866E+04  0.25500000920E-02 0.  1.
       -2   -1    0    0    0  501  0.00000000000E+00  0.00000000000E+00 -0.49549667517E+03  0.49549667518E+03  0.25500000920E-02 0. -1.
    10030    2    1    2    0    0  0.00000000000E+00  0.00000000000E+00  0.16840625114E+04  0.26750558617E+04  0.20784266456E+04 0.  0.
        3    1    3    3  502    0  0.88773297944E+03  0.26010708363E+02  0.15365871515E+04  0.17747806862E+04  0.10100000352E+00 0.  1.
       -3    1    3    3    0  502 -0.88773297944E+03 -0.26010708363E+02  0.14747535990E+03  0.90027517555E+03  0.10100000352E+00 0. -1.
</event>
<event>
 5   0  0.6306919E-05  0.2182351E+04  0.7818609E-02  0.8525810E-01
        2   -1    0    0  501    0  0.00000000000E+00  0.00000000000E+00  0.24070498234E+04  0.24070498234E+04  0.25500000920E-02 0. -1.
       -2   -1    0    0    0  501  0.00000000000E+00  0.00000000000E+00 -0.49465719492E+03  0.49465719493E+03  0.25500000920E-02 0.  1.
    10030    2    1    2    0    0  0.00000000000E+00  0.00000000000E+00  0.19123926285E+04  0.29017070183E+04  0.21823514966E+04 0.  0.
        3    1    3    3  502    0 -0.10138194459E+04 -0.37581280216E+03  0.76078512607E+03  0.13220662424E+04  0.10100000352E+00 0. -1.
       -3    1    3    3    0  502  0.10138194459E+04  0.37581280216E+03  0.11516075024E+04  0.15796407759E+04  0.10100000352E+00 0.  1.
</event>
<event>
 5   0  0.6628798E-05  0.2210834E+04  0.7818609E-02  0.8513932E-01
       -2   -1    0    0    0  501  0.00000000000E+00  0.00000000000E+00  0.11479903166E+04  0.11479903166E+04  0.25500000920E-02 0. -1.
        2   -1    0    0  501    0  0.00000000000E+00  0.00000000000E+00 -0.10644224540E+04  0.10644224540E+04  0.25500000920E-02 0.  1.
    10030    2    1    2    0    0  0.00000000000E+00  0.00000000000E+00  0.83567862647E+02  0.22124127706E+04  0.22108339332E+04 0.  0.
        4    1    3    3  502    0 -0.13652479905E+03  0.59363058088E+03  0.96488984831E+03  0.11410741955E+04  0.12699999809E+01 0. -1.
       -4    1    3    3    0  502  0.13652479905E+03 -0.59363058088E+03 -0.88132198567E+03  0.10713385752E+04  0.12699999809E+01 0.  1.
</event>
<event>
 5   0  0.6306919E-05  0.2193349E+04  0.7818609E-02  0.8521201E-01
        2   -1    0    0  501    0  0.00000000000E+00  0.00000000000E+00  0.20976865755E+04  0.20976865755E+04  0.25500000920E-02 0.  1.
       -2   -1    0    0    0  501  0.00000000000E+00  0.00000000000E+00 -0.57334356277E+03  0.57334356278E+03  0.25500000920E-02 0. -1.
    10030    2    1    2    0    0  0.00000000000E+00  0.00000000000E+00  0.15243430127E+04  0.26710301382E+04  0.21933491238E+04 0.  0.
        3    1    3    3  502    0  0.14157353269E+03 -0.68142925491E+03 -0.26993811679E+03  0.74649547333E+03  0.10100000352E+00 0. -1.
       -3    1    3    3    0  502 -0.14157353269E+03  0.68142925491E+03  0.17942811295E+04  0.19245346649E+04  0.10100000352E+00 0.  1.
</event>
<event>
 5   0  0.2910318E-05  0.2164968E+04  0.7818609E-02  0.8533152E-01
       -1   -1    0    0    0  501  0.00000000000E+00  0.00000000000E+00  0.15557544018E+04  0.15557544018E+04  0.50400001928E-02 0. -1.
        1   -1    0    0  501    0  0.00000000000E+00  0.00000000000E+00 -0.75318541831E+03  0.75318541832E+03  0.50400001928E-02 0.  1.
    10030    2    1    2    0    0  0.00000000000E+00  0.00000000000E+00  0.80256898351E+03  0.23089398202E+04  0.21649679258E+04 0.  0.
        5    1    3    3  502    0 -0.90337509611E+03  0.45796819109E+03  0.80869336121E+03  0.12960819692E+04  0.46999998093E+01 0. -1.
       -5    1    3    3    0  502  0.90337509611E+03 -0.45796819109E+03 -0.61243776930E+01  0.10128578510E+04  0.46999998093E+01 0.  1.
</event>
<event>
 5   0  0.6293013E-05  0.2196832E+04  0.7818609E-02  0.8519748E-01
       -2   -1    0    0    0  501  0.00000000000E+00  0.00000000000E+00  0.76819464536E+03  0.76819464537E+03  0.25500000920E-02 0.  1.
        2   -1    0    0  501    0  0.00000000000E+00  0.00000000000E+00 -0.15705883990E+04  0.15705883990E+04  0.25500000920E-02 0. -1.
    10030    2    1    2    0    0  0.00000000000E+00  0.00000000000E+00 -0.80239375367E+03  0.23387830444E+04  0.21968318991E+04 0.  0.
        1    1    3    3  502    0  0.48897079534E+03  0.43726298375E+03 -0.13391632549E+04  0.14911906582E+04  0.50400001928E-02 0. -1.
       -1    1    3    3    0  502 -0.48897079534E+03 -0.43726298375E+03  0.53676950126E+03  0.84759238622E+03  0.50400001928E-02 0.  1.
</event>
<event>
 5   0  0.2820239E-05  0.2201705E+04  0.7818609E-02  0.8517719E-01
       -1   -1    0    0    0  501  0.00000000000E+00  0.00000000000E+00  0.19246398198E+04  0.19246398198E+04  0.50400001928E-02 0.  1.
        1   -1    0    0  501    0  0.00000000000E+00  0.00000000000E+00 -0.62966402214E+03  0.62966402216E+03  0.50400001928E-02 0. -1.
    10030    2    1    2    0    0  0.00000000000E+00  0.00000000000E+00  0.12949757977E+04  0.25543038420E+04  0.22017052029E+04 0.  0.
        3    1    3    3  502    0  0.10418410549E+04  0.32349959072E+03  0.47622682830E+03  0.11903263297E+04  0.10100000352E+00 0. -1.
       -3    1    3    3    0  502 -0.10418410549E+04 -0.32349959072E+03  0.81874896937E+03  0.13639775123E+04  0.10100000352E+00 0.  1.
</event>
<event>
 5   0  0.6628798E-05  0.2198289E+04  0.7818609E-02  0.8519141E-01
       -2   -1    0    0    0  501  0.00000000000E+00  0.00000000000E+00  0.16021658735E+04  0.16021658735E+04  0.25500000920E-02 0.  1.
        2   -1    0    0  501    0  0.00000000000E+00  0.00000000000E+00 -0.75405342247E+03  0.75405342247E+03  0.25500000920E-02 0. -1.
    10030    2    1    2    0    0  0.00000000000E+00  0.00000000000E+00  0.84811245100E+03  0.23562192959E+04  0.21982890258E+04 0.  0.
        4    1    3    3  502    0 -0.10806206063E+04  0.96722683594E+01  0.20893183011E+03  0.11006764148E+04  0.12699999809E+01 0. -1.
       -4    1    3    3    0  502  0.10806206063E+04 -0.96722683594E+01  0.63918062089E+03  0.12555428812E+04  0.12699999809E+01 0.  1.
</event>
<event>
 5   0  0.6628798E-05  0.2230599E+04  0.7818609E-02  0.8505799E-01
       -2   -1    0    0    0  501  0.00000000000E+00  0.00000000000E+00  0.67904348505E+03  0.67904348506E+03  0.25500000920E-02 0.  1.
        2   -1    0    0  501    0  0.00000000000E+00  0.00000000000E+00 -0.18318318017E+04  0.18318318017E+04  0.25500000920E-02 0. -1.
    10030    2    1    2    0    0  0.00000000000E+00  0.00000000000E+00 -0.11527883166E+04  0.25108752868E+04  0.22305994268E+04 0.  0.
        4    1    3    3  502    0 -0.45180852771E+03  0.39882374368E+03 -0.16327681027E+04  0.17404380524E+04  0.12699999809E+01 0. -1.
       -4    1    3    3    0  502  0.45180852771E+03 -0.39882374368E+03  0.47997978601E+03  0.77043723437E+03  0.12699999809E+01 0.  1.
</event>
<event>
 5   0  0.2245375E-05  0.2105560E+04  0.7818609E-02  0.8558798E-01
        3   -1    0    0  501    0  0.00000000000E+00  0.00000000000E+00  0.23746152599E+04  0.23746152621E+04  0.10100000352E+00 0.  1.
       -3   -1    0    0    0  501  0.00000000000E+00  0.00000000000E+00 -0.46674766176E+03  0.46674767269E+03  0.10100000352E+00 0. -1.
    10030    2    1    2    0    0  0.00000000000E+00  0.00000000000E+00  0.19078675982E+04  0.28413629348E+04  0.21055603898E+04 0.  0.
        3    1    3    3  502    0  0.87268520380E+02  0.12518654109E+03  0.23596110564E+04  0.23645405077E+04  0.10100000352E+00 0.  1.
       -3    1    3    3    0  502 -0.87268520380E+02 -0.12518654109E+03 -0.45174345823E+03  0.47682242709E+03  0.10100000352E+00 0. -1.
</event>
<event>
 5   0  0.6628798E-05  0.2195223E+04  0.7818609E-02  0.8520419E-01
       -2   -1    0    0    0  501  0.00000000000E+00  0.00000000000E+00  0.76682525521E+03  0.76682525522E+03  0.25500000920E-02 0. -1.
        2   -1    0    0  501    0  0.00000000000E+00  0.00000000000E+00 -0.15710896884E+04  0.15710896884E+04  0.25500000920E-02 0.  1.
    10030    2    1    2    0    0  0.00000000000E+00  0.00000000000E+00 -0.80426443317E+03  0.23379149436E+04  0.21952232244E+04 0.  0.
        4    1    3    3  502    0 -0.64056541780E+03 -0.48115329802E+03  0.39691461598E+03  0.89407794736E+03  0.12699999809E+01 0. -1.
       -4    1    3    3    0  502  0.64056541780E+03  0.48115329802E+03 -0.12011790492E+04  0.14438369962E+04  0.12699999809E+01 0.  1.
</event>
<event>
 5   0  0.6293013E-05  0.2184419E+04  0.7818609E-02  0.8524941E-01
        2   -1    0    0  501    0  0.00000000000E+00  0.00000000000E+00  0.19066744376E+04  0.19066744376E+04  0.25500000920E-02 0.  1.
       -2   -1    0    0    0  501  0.00000000000E+00  0.00000000000E+00 -0.62565564359E+03  0.62565564360E+03  0.25500000920E-02 0. -1.
    10030    2    1    2    0    0  0.00000000000E+00  0.00000000000E+00  0.12810187940E+04  0.25323300812E+04  0.21844190279E+04 0.  0.
        1    1    3    3  502    0 -0.95640125219E+02  0.11311586564E+03  0.18949756673E+04  0.19007564316E+04  0.50400001928E-02 0.  1.
       -1    1    3    3    0  502  0.95640125219E+02 -0.11311586564E+03 -0.61395687327E+03  0.63157364961E+03  0.50400001928E-02 0. -1.
</event>
<event>
 5   0  0.2753631E-05  0.2213815E+04  0.7818609E-02  0.8512700E-01
        1   -1    0    0  501    0  0.00000000000E+00  0.00000000000E+00  0.14995665742E+04  0.14995665742E+04  0.50400001928E-02 0. -1.
       -1   -1    0    0    0  501  0.00000000000E+00  0.00000000000E+00 -0.81706581478E+03  0.81706581479E+03  0.50400001928E-02 0.  1.
    10030    2    1    2    0    0  0.00000000000E+00  0.00000000000E+00  0.68250075940E+03  0.23166323890E+04  0.22138153354E+04 0.  0.
        4    1    3    3  502    0  0.19861415099E+03  0.83551412512E+02 -0.79490695549E+03  0.82359401424E+03  0.12699999809E+01 0.  1.
       -4    1    3    3    0  502 -0.19861415099E+03 -0.83551412512E+02  0.14774077149E+04  0.14930383747E+04  0.12699999809E+01 0. -1.
</event>
<event>
 5   0  0.2245375E-05  0.2193517E+04  0.7818609E-02  0.8521131E-01
       -3   -1    0    0    0  501  0.00000000000E+00  0.00000000000E+00  0.53735674688E+03  0.53735675637E+03  0.10100000352E+00 0. -1.
        3   -1    0    0  501    0  0.00000000000E+00  0.00000000000E+00 -0.22385118538E+04  0.22385118561E+04  0.10100000352E+00 0.  1.
    10030    2    1    2    0    0  0.00000000000E+00  0.00000000000E+00 -0.17011551070E+04  0.27758686125E+04  0.21935172340E+04 0.  0.
        5    1    3    3  502    0 -0.53762072849E+03 -0.24059727870E+03 -0.20213650192E+04  0.21054362325E+04  0.46999998093E+01 0.  1.
       -5    1    3    3    0  502  0.53762072849E+03  0.24059727870E+03  0.32020991227E+03  0.67043237998E+03  0.46999998093E+01 0. -1.
</event>
<event>
 5   0  0.2910318E-05  0.2202035E+04  0.7818609E-02  0.8517582E-01
       -1   -1    0    0    0  501  0.00000000000E+00  0.00000000000E+00  0.10776059998E+04  0.10776059998E+04  0.50400001928E-02 0.  1.
        1   -1    0    0  501    0  0.00000000000E+00  0.00000000000E+00 -0.11249378199E+04  0.11249378199E+04  0.50400001928E-02 0. -1.
    10030    2    1    2    0    0  0.00000000000E+00  0.00000000000E+00 -0.47331820112E+02  0.22025438197E+04  0.22020351897E+04 0.  0.
        5    1    3    3  502    0 -0.32597891724E+03  0.35510270565E+03 -0.10137720553E+04  0.11225489104E+04  0.46999998093E+01 0. -1.
       -5    1    3    3    0  502  0.32597891724E+03 -0.35510270565E+03  0.96644023518E+03  0.10799949093E+04  0.46999998093E+01 0.  1.
</event>
<event>
 5   0  0.6628798E-05  0.2201005E+04  0.7818609E-02  0.8518010E-01
        2   -1    0    0  501    0  0.00000000000E+00  0.00000000000E+00  0.14121488250E+04  0.14121488250E+04  0.25500000920E-02 0.  1.
       -2   -1    0    0    0  501  0.00000000000E+00  0.00000000000E+00 -0.85763360236E+03  0.85763360237E+03  0.25500000920E-02 0. -1.
    10030    2    1    2    0    0  0.00000000000E+00  0.00000000000E+00  0.55451522262E+03  0.22697824274E+04  0.22010054828E+04 0.  0.
        4    1    3    3  502    0  0.11171770170E+03 -0.58501584650E+02 -0.85015697635E+03  0.85946016640E+03  0.12699999809E+01 0. -1.
       -4    1    3    3    0  502 -0.11171770170E+03  0.58501584650E+02  0.14046721990E+04  0.14103222610E+04  0.12699999809E+01 0.  1.
</event>
<event>
 5   0  0.6293013E-05  0.2016134E+04  0.7818609E-02  0.8599114E-01
       -2   -1    0    0    0  501  0.00000000000E+00  0.00000000000E+00  0.97440148196E+03  0.97440148196E+03  0.25500000920E-02 0. -1.
        2   -1    0    0  501    0  0.00000000000E+00  0.00000000000E+00 -0.10428959835E+04  0.10428959835E+04  0.25500000920E-02 0.  1.
    10030    2    1    2    0    0  0.00000000000E+00  0.00000000000E+00 -0.68494501532E+02  0.20172974655E+04  0.20161343128E+04 0.  0.
        1    1    3    3  502    0 -0.43624575573E+03 -0.82430968457E+02  0.87131309935E+03  0.97790170318E+03  0.50400001928E-02 0. -1.
       -1    1    3    3    0  502  0.43624575573E+03  0.82430968457E+02 -0.93980760088E+03  0.10393957623E+04  0.50400001928E-02 0.  1.
</event>
<event>
 5   0  0.6414768E-05  0.2179437E+04  0.7818609E-02  0.8527036E-01
        2   -1    0    0  501    0  0.00000000000E+00  0.00000000000E+00  0.56064303424E+03  0.56064303425E+03  0.25500000920E-02 0.  1.
       -2   -1    0    0    0  501  0.00000000000E+00  0.00000000000E+00 -0.21180790574E+04  0.21180790574E+04  0.25500000920E-02 0. -1.
    10030    2    1    2    0    0  0.00000000000E+00  0.00000000000E+00 -0.15574360232E+04  0.26787220917E+04  0.21794368718E+04 0.  0.
        2    1    3    3  502    0 -0.22322848176E+03  0.38816403031E+03 -0.19997819952E+04  0.20492999531E+04  0.25500000920E-02 0. -1.
       -2    1    3    3    0  502  0.22322848176E+03 -0.38816403031E+03  0.44234597204E+03  0.62942213854E+03  0.25500000920E-02 0.  1.
</event>
<event>
 5   0  0.6445740E-05  0.2166548E+04  0.7818609E-02  0.8532482E-01
       -2   -1    0    0    0  501  0.00000000000E+00  0.00000000000E+00  0.91389319804E+03  0.91389319804E+03  0.25500000920E-02 0.  1.
        2   -1    0    0  501    0  0.00000000000E+00  0.00000000000E+00 -0.12840482679E+04  0.12840482679E+04  0.25500000920E-02 0. -1.
    10030    2    1    2    0    0  0.00000000000E+00  0.00000000000E+00 -0.37015506986E+03  0.21979414659E+04  0.21665483867E+04 0.  0.
        5    1    3    3  502    0  0.73217090038E+03 -0.43602947133E+03  0.49339171305E+03  0.98470980483E+03  0.46999998093E+01 0.  1.
       -5    1    3    3    0  502 -0.73217090038E+03  0.43602947133E+03 -0.86354678290E+03  0.12132316611E+04  0.46999998093E+01 0. -1.
</event>
<event>
 5   0  0.6414768E-05  0.2199591E+04  0.7818609E-02  0.8518598E-01
        2   -1    0    0  501    0  0.00000000000E+00  0.00000000000E+00  0.85291724359E+03  0.85291724360E+03  0.25500000920E-02 0.  1.
       -2   -1    0    0    0  501  0.00000000000E+00  0.00000000000E+00 -0.14181336311E+04  0.14181336311E+04  0.25500000920E-02 0. -1.
    10030    2    1    2    0    0  0.00000000000E+00  0.00000000000E+00 -0.56521638748E+03  0.22710508747E+04  0.21995914418E+04 0.  0.
        2    1    3    3  502    0 -0.80471560795E+02 -0.42667107292E+03 -0.13258942483E+04  0.13951772054E+04  0.25500000920E-02 0. -1.
       -2    1    3    3    0  502  0.80471560795E+02  0.42667107292E+03  0.76067786087E+03  0.87587366931E+03  0.25500000920E-02 0.  1.
</event>
<event>
 5   0  0.2820239E-05  0.1966877E+04  0.7818609E-02  0.8622265E-01
        1   -1    0    0  501    0  0.00000000000E+00  0.00000000000E+00  0.13493621701E+04  0.13493621701E+04  0.50400001928E-02 0.  1.
       -1   -1    0    0    0  501  0.00000000000E+00  0.00000000000E+00 -0.71674701826E+03  0.71674701828E+03  0.50400001928E-02 0. -1.
    10030    2    1    2    0    0  0.00000000000E+00  0.00000000000E+00  0.63261515185E+03  0.20661091884E+04  0.19668770292E+04 0.  0.
        3    1    3    3  502    0  0.80503934333E+03 -0.54160543599E+03  0.14782053949E+03  0.98146610471E+03  0.10100000352E+00 0. -1.
       -3    1    3    3    0  502 -0.80503934333E+03  0.54160543599E+03  0.48479461236E+03  0.10846430837E+04  0.10100000352E+00 0.  1.
</event>
<event>
 5   0  0.6293013E-05  0.2164408E+04  0.7818609E-02  0.8533390E-01
       -2   -1    0    0    0  501  0.00000000000E+00  0.00000000000E+00  0.48459220316E+03  0.48459220317E+03  0.25500000920E-02 0. -1.
        2   -1    0    0  501    0  0.00000000000E+00  0.00000000000E+00 -0.24168058289E+04  0.24168058289E+04  0.25500000920E-02 0.  1.
    10030    2    1    2    0    0  0.00000000000E+00  0.00000000000E+00 -0.19322136258E+04  0.29013980321E+04  0.21644077816E+04 0.  0.
        1    1    3    3  502    0 -0.49525519998E+03 -0.38250970994E+03 -0.21496847540E+04  0.22389140074E+04  0.50400001928E-02 0.  1.
       -1    1    3    3    0  502  0.49525519998E+03  0.38250970994E+03  0.21747112819E+03  0.66248402466E+03  0.50400001928E-02 0. -1.
</event>
<event>
 5   0  0.2929471E-05  0.2195272E+04  0.7818609E-02  0.8520399E-01
       -1   -1    0    0    0  501  0.00000000000E+00  0.00000000000E+00  0.49758694069E+03  0.49758694072E+03  0.50400001928E-02 0.  1.
        1   -1    0    0  501    0  0.00000000000E+00  0.00000000000E+00 -0.24212945051E+04  0.24212945051E+04  0.50400001928E-02 0. -1.
    10030    2    1    2    0    0  0.00000000000E+00  0.00000000000E+00 -0.19237075644E+04  0.29188814459E+04  0.21952717603E+04 0.  0.
        2    1    3    3  502    0  0.69865749583E+03 -0.10860850267E+03  0.15446372975E+03  0.72372449671E+03  0.25500000920E-02 0.  1.
       -2    1    3    3    0  502 -0.69865749583E+03  0.10860850267E+03 -0.20781712942E+04  0.21951569491E+04  0.25500000920E-02 0. -1.
</event>
<event>
 5   0  0.2753631E-05  0.2177076E+04  0.7818609E-02  0.8528030E-01
        1   -1    0    0  501    0  0.00000000000E+00  0.00000000000E+00  0.87547228459E+03  0.87547228460E+03  0.50400001928E-02 0.  1.
       -1   -1    0    0    0  501  0.00000000000E+00  0.00000000000E+00 -0.13534585174E+04  0.13534585174E+04  0.50400001928E-02 0. -1.
    10030    2    1    2    0    0  0.00000000000E+00  0.00000000000E+00 -0.47798623278E+03  0.22289308020E+04  0.21770764069E+04 0.  0.
        4    1    3    3  502    0 -0.21535658394E+03  0.83488260147E+03  0.44129269298E+03  0.96858054402E+03  0.12699999809E+01 0.  1.
       -4    1    3    3    0  502  0.21535658394E+03 -0.83488260147E+03 -0.91927892575E+03  0.12603502580E+04  0.12699999809E+01 0. -1.
</event>
<event>
 5   0  0.6306919E-05  0.2197965E+04  0.7818609E-02  0.8519275E-01
       -2   -1    0    0    0  501  0.00000000000E+00  0.00000000000E+00  0.50816484449E+03  0.50816484450E+03  0.25500000920E-02 0. -1.
        2   -1    0    0  501    0  0.00000000000E+00  0.00000000000E+00 -0.23767148630E+04  0.23767148630E+04  0.25500000920E-02 0.  1.
    10030    2    1    2    0    0  0.00000000000E+00  0.00000000000E+00 -0.18685500185E+04  0.28848797075E+04  0.21979653671E+04 0.  0.
        3    1    3    3  502    0 -0.32663438349E+03  0.10428161967E+04 -0.10873811649E+04  0.15416074236E+04  0.10100000352E+00 0.  1.
       -3    1    3    3    0  502  0.32663438349E+03 -0.10428161967E+04 -0.78116885357E+03  0.13432722838E+04  0.10100000352E+00 0. -1.
</event>
<event>
 5   0  0.6445740E-05  0.2178392E+04  0.7818609E-02  0.8527476E-01
        2   -1    0    0  501    0  0.00000000000E+00  0.00000000000E+00  0.16904298309E+04  0.16904298309E+04  0.25500000920E-02 0. -1.
       -2   -1    0    0    0  501  0.00000000000E+00  0.00000000000E+00 -0.70180243648E+03  0.70180243648E+03  0.25500000920E-02 0.  1.
    10030    2    1    2    0    0  0.00000000000E+00  0.00000000000E+00  0.98862739443E+03  0.23922322674E+04  0.21783918601E+04 0.  0.
        5    1    3    3  502    0  0.47387575786E+03  0.26021099152E+03  0.15326788622E+04  0.16252367762E+04  0.46999998093E+01 0. -1.
       -5    1    3    3    0  502 -0.47387575786E+03 -0.26021099152E+03 -0.54405146776E+03  0.76699549123E+03  0.46999998093E+01 0.  1.
</event>
<event>
 5   0  0.2245375E-05  0.2195615E+04  0.7818609E-02  0.8520256E-01
       -3   -1    0    0    0  501  0.00000000000E+00  0.00000000000E+00  0.91334283296E+03  0.91334283855E+03  0.10100000352E+00 0. -1.
        3   -1    0    0  501    0  0.00000000000E+00  0.00000000000E+00 -0.13195273723E+04  0.13195273761E+04  0.10100000352E+00 0.  1.
    10030    2    1    2    0    0  0.00000000000E+00  0.00000000000E+00 -0.40618453930E+03  0.22328702147E+04  0.21956146100E+04 0.  0.
        3    1    3    3  502    0  0.18603458425E+03  0.88481322402E+03  0.43011034665E+03  0.10012483350E+04  0.10100000352E+00 0. -1.
       -3    1    3    3    0  502 -0.18603458425E+03 -0.88481322402E+03 -0.83629488594E+03  0.12316218796E+04  0.10100000352E+00 0.  1.
</event>
<event>
 5   0  0.6445740E-05  0.2200821E+04  0.7818609E-02  0.8518087E-01
        2   -1    0    0  501    0  0.00000000000E+00  0.00000000000E+00  0.18448335996E+04  0.18448335996E+04  0.25500000920E-02 0. -1.
       -2   -1    0    0    0  501  0.00000000000E+00  0.00000000000E+00 -0.65637511263E+03  0.65637511263E+03  0.25500000920E-02 0.  1.
    10030    2    1    2    0    0  0.00000000000E+00  0.00000000000E+00  0.11884584870E+04  0.25012087122E+04  0.22008206303E+04 0.  0.
        5    1    3    3  502    0  0.73113095798E+03 -0.81891383303E+03  0.50836278510E+03  0.12098045937E+04  0.46999998093E+01 0. -1.
       -5    1    3    3    0  502 -0.73113095798E+03  0.81891383303E+03  0.68009570186E+03  0.12914041185E+04  0.46999998093E+01 0.  1.
</event>
<event>
 5   0  0.6293013E-05  0.2195620E+04  0.7818609E-02  0.8520254E-01
       -2   -1    0    0    0  501  0.00000000000E+00  0.00000000000E+00  0.93807553708E+03  0.93807553709E+03  0.25500000920E-02 0. -1.
        2   -1    0    0  501    0  0.00000000000E+00  0.00000000000E+00 -0.12847434248E+04  0.12847434248E+04  0.25500000920E-02 0.  1.
    10030    2    1    2    0    0  0.00000000000E+00  0.00000000000E+00 -0.34666788776E+03  0.22228189619E+04  0.21956196194E+04 0.  0.
        1    1    3    3  502    0  0.49681236849E+03 -0.20175369059E+03  0.79647843789E+03  0.96015883228E+03  0.50400001928E-02 0. -1.
       -1    1    3    3    0  502 -0.49681236849E+03  0.20175369059E+03 -0.11431463256E+04  0.12626601297E+04  0.50400001928E-02 0.  1.
</event>
<event>
 5   0  0.2753631E-05  0.2163318E+04  0.7818609E-02  0.8533853E-01
       -1   -1    0    0    0  501  0.00000000000E+00  0.00000000000E+00  0.11187171766E+04  0.11187171766E+04  0.50400001928E-02 0. -1.
        1   -1    0    0  501    0  0.00000000000E+00  0.00000000000E+00 -0.10458283294E+04  0.10458283294E+04  0.50400001928E-02 0.  1.
    10030    2    1    2    0    0  0.00000000000E+00  0.00000000000E+00  0.72888847132E+02  0.21645455060E+04  0.21633179294E+04 0.  0.
        4    1    3    3  502    0  0.66205237899E+03 -0.23012917400E+03  0.86075152860E+03  0.11100304483E+04  0.12699999809E+01 0. -1.
       -4    1    3    3    0  502 -0.66205237899E+03  0.23012917400E+03 -0.78786268147E+03  0.10545150577E+04  0.12699999809E+01 0.  1.
</event>
<event>
 5   0  0.2910318E-05  0.2197005E+04  0.7818609E-02  0.8519676E-01
       -1   -1    0    0    0  501  0.00000000000E+00  0.00000000000E+00  0.88637828788E+03  0.88637828789E+03  0.50400001928E-02 0. -1.
        1   -1    0    0  501    0  0.00000000000E+00  0.00000000000E+00 -0.13613916231E+04  0.13613916231E+04  0.50400001928E-02 0.  1.
    10030    2    1    2    0    0  0.00000000000E+00  0.00000000000E+00 -0.47501333519E+03  0.22477699110E+04  0.21970052126E+04 0.  0.
        5    1    3    3  502    0  0.94953688060E+02 -0.10353637515E+04  0.12521530763E+03  0.10472321921E+04  0.46999998093E+01 0. -1.
       -5    1    3    3    0  502 -0.94953688060E+02  0.10353637515E+04 -0.60022864282E+03  0.12005377189E+04  0.46999998093E+01 0.  1.
</event>
<event>
 5   0  0.6445740E-05  0.2181346E+04  0.7818609E-02  0.8526233E-01
       -2   -1    0    0    0  501  0.00000000000E+00  0.00000000000E+00  0.66687028028E+03  0.66687028029E+03  0.25500000920E-02 0.  1.
        2   -1    0    0  501    0  0.00000000000E+00  0.00000000000E+00 -0.17838060594E+04  0.17838060594E+04  0.25500000920E-02 0. -1.
    10030    2    1    2    0    0  0.00000000000E+00  0.00000000000E+00 -0.11169357791E+04  0.24506763397E+04  0.21813456827E+04 0.  0.
        5    1    3    3  502    0 -0.10189513686E+04  0.18328739377E+03 -0.94388358195E+03  0.14009976683E+04  0.46999998093E+01 0. -1.
       -5    1    3    3    0  502  0.10189513686E+04 -0.18328739377E+03 -0.17305219720E+03  0.10496786714E+04  0.46999998093E+01 0.  1.
</event>
<event>
 5   0  0.6414768E-05  0.2155855E+04  0.7818609E-02  0.8537030E-01
       -2   -1    0    0    0  501  0.00000000000E+00  0.00000000000E+00  0.58912467633E+03  0.58912467634E+03  0.25500000920E-02 0. -1.
        2   -1    0    0  501    0  0.00000000000E+00  0.00000000000E+00 -0.19722953965E+04  0.19722953965E+04  0.25500000920E-02 0.  1.
    10030    2    1    2    0    0  0.00000000000E+00  0.00000000000E+00 -0.13831707201E+04  0.25614200728E+04  0.21558551780E+04 0.  0.
        2    1    3    3  502    0  0.12676459838E+03 -0.10668388773E+04 -0.58723712757E+03  0.12243618328E+04  0.25500000920E-02 0.  1.
       -2    1    3    3    0  502 -0.12676459838E+03  0.10668388773E+04 -0.79593359256E+03  0.13370582400E+04  0.25500000920E-02 0. -1.
</event>
<event>
 5   0  0.6306919E-05  0.2070169E+04  0.7818609E-02  0.8574499E-01
        2   -1    0    0  501    0  0.00000000000E+00  0.00000000000E+00  0.11603137351E+04  0.11603137351E+04  0.25500000920E-02 0.  1.
       -2   -1    0    0    0  501  0.00000000000E+00  0.00000000000E+00 -0.92337085535E+03  0.92337085535E+03  0.25500000920E-02 0. -1.
    10030    2    1    2    0    0  0.00000000000E+00  0.00000000000E+00  0.23694287976E+03  0.20836845905E+04  0.20701689651E+04 0.  0.
        3    1    3    3  502    0 -0.59497939086E+03 -0.63976097071E+03 -0.44022482948E+03  0.97831103739E+03  0.10100000352E+00 0.  1.
       -3    1    3    3    0  502  0.59497939086E+03  0.63976097071E+03  0.67716770924E+03  0.11053735531E+04  0.10100000352E+00 0. -1.
</event>
<event>
 5   0  0.2908031E-05  0.2190077E+04  0.7818609E-02  0.8522570E-01
        1   -1    0    0  501    0  0.00000000000E+00  0.00000000000E+00  0.13955646733E+04  0.13955646733E+04  0.50400001928E-02 0. -1.
       -1   -1    0    0    0  501  0.00000000000E+00  0.00000000000E+00 -0.85922870457E+03  0.85922870458E+03  0.50400001928E-02 0.  1.
    10030    2    1    2    0    0  0.00000000000E+00  0.00000000000E+00  0.53633596875E+03  0.22547933779E+04  0.21900769178E+04 0.  0.
        1    1    3    3  502    0 -0.10284219748E+04 -0.21521389071E+03 -0.49395078263E+02  0.10518596156E+04  0.50400001928E-02 0.  1.
       -1    1    3    3    0  502  0.10284219748E+04  0.21521389071E+03  0.58573104702E+03  0.12029337623E+04  0.50400001928E-02 0. -1.
</event>
<event>
 5   0  0.6306919E-05  0.2210867E+04  0.7818609E-02  0.8513919E-01
        2   -1    0    0  501    0  0.00000000000E+00  0.00000000000E+00  0.10012830645E+04  0.10012830645E+04  0.25500000920E-02 0.  1.
       -2   -1    0    0    0  501  0.00000000000E+00  0.00000000000E+00 -0.12204171813E+04  0.12204171813E+04  0.25500000920E-02 0. -1.
    10030    2    1    2    0    0  0.00000000000E+00  0.00000000000E+00 -0.21913411674E+03  0.22217002458E+04  0.22108668483E+04 0.  0.
        3    1    3    3  502    0 -0.10061016190E+04 -0.41437594097E+03 -0.30554874086E+03  0.11301804862E+04  0.10100000352E+00 0.  1.
       -3    1    3    3    0  502  0.10061016190E+04  0.41437594097E+03  0.86414624126E+02  0.10915197596E+04  0.10100000352E+00 0. -1.
</event>
<event>
 5   0  0.6445740E-05  0.2210381E+04  0.7818609E-02  0.8514120E-01
        2   -1    0    0  501    0  0.00000000000E+00  0.00000000000E+00  0.11065164041E+04  0.11065164041E+04  0.25500000920E-02 0. -1.
       -2   -1    0    0    0  501  0.00000000000E+00  0.00000000000E+00 -0.11038663139E+04  0.11038663139E+04  0.25500000920E-02 0.  1.
    10030    2    1    2    0    0  0.00000000000E+00  0.00000000000E+00  0.26500902468E+01  0.22103827180E+04  0.22103811293E+04 0.  0.
        5    1    3    3  502    0 -0.21151736135E+03 -0.41986089475E+03  0.10015264084E+04  0.11063905286E+04  0.46999998093E+01 0. -1.
       -5    1    3    3    0  502  0.21151736135E+03  0.41986089475E+03 -0.99887631818E+03  0.11039921893E+04  0.46999998093E+01 0.  1.
</event>
<event>
 5   0  0.2908031E-05  0.2050479E+04  0.7818609E-02  0.8583377E-01
       -1   -1    0    0    0  501  0.00000000000E+00  0.00000000000E+00  0.12011369902E+04  0.12011369903E+04  0.50400001928E-02 0.  1.
        1   -1    0    0  501    0  0.00000000000E+00  0.00000000000E+00 -0.87510079532E+03  0.87510079534E+03  0.50400001928E-02 0. -1.
    10030    2    1    2    0    0  0.00000000000E+00  0.00000000000E+00  0.32603619492E+03  0.20762377856E+04  0.20504789055E+04 0.  0.
        1    1    3    3  502    0 -0.74016632311E+03 -0.43986390947E+03  0.72659751657E+03  0.11266190110E+04  0.50400001928E-02 0.  1.
       -1    1    3    3    0  502  0.74016632311E+03  0.43986390947E+03 -0.40056132165E+03  0.94961877464E+03  0.50400001928E-02 0. -1.
</event>
<event>
 5   0  0.2929471E-05  0.2185133E+04  0.7818609E-02  0.8524642E-01
       -1   -1    0    0    0  501  0.00000000000E+00  0.00000000000E+00  0.96088194273E+03  0.96088194274E+03  0.50400001928E-02 0. -1.
        1   -1    0    0  501    0  0.00000000000E+00  0.00000000000E+00 -0.12422980454E+04  0.12422980454E+04  0.50400001928E-02 0.  1.
    10030    2    1    2    0    0  0.00000000000E+00  0.00000000000E+00 -0.28141610262E+03  0.22031799881E+04  0.21851331852E+04 0.  0.
        2    1    3    3  502    0  0.74115785926E+03  0.78750720041E+03  0.16202420586E+02  0.10815475401E+04  0.25500000920E-02 0.  1.
       -2    1    3    3    0  502 -0.74115785926E+03 -0.78750720041E+03 -0.29761852321E+03  0.11216324480E+04  0.25500000920E-02 0. -1.
</event>
<event>
 5   0  0.6628798E-05  0.2289660E+04  0.7818609E-02  0.8482009E-01
       -2   -1    0    0    0  501  0.00000000000E+00  0.00000000000E+00  0.92249563579E+03  0.92249563579E+03  0.25500000920E-02 0. -1.
        2   -1    0    0  501    0  0.00000000000E+00  0.00000000000E+00 -0.14207505416E+04  0.14207505416E+04  0.25500000920E-02 0.  1.
    10030    2    1    2    0    0  0.00000000000E+00  0.00000000000E+00 -0.49825490582E+03  0.23432461774E+04  0.22896603889E+04 0.  0.
        4    1    3    3  502    0  0.34442951067E+02 -0.11443054043E+04 -0.25287177660E+03  0.11724192610E+04  0.12699999809E+01 0. -1.
       -4    1    3    3    0  502 -0.34442951067E+02  0.11443054043E+04 -0.24538312922E+03  0.11708269164E+04  0.12699999809E+01 0.  1.
</event>
<event>
 5   0  0.6628798E-05  0.2182818E+04  0.7818609E-02  0.8525614E-01
        2   -1    0    0  501    0  0.00000000000E+00  0.00000000000E+00  0.10483595340E+04  0.10483595340E+04  0.25500000920E-02 0. -1.
       -2   -1    0    0    0  501  0.00000000000E+00  0.00000000000E+00 -0.11362264476E+04  0.11362264476E+04  0.25500000920E-02 0.  1.
    10030    2    1    2    0    0  0.00000000000E+00  0.00000000000E+00 -0.87866913577E+02  0.21845859817E+04  0.21828182052E+04 0.  0.
        4    1    3    3  502    0 -0.16180957955E+03 -0.50925019207E+03  0.90849586745E+03  0.10539850342E+04  0.12699999809E+01 0. -1.
       -4    1    3    3    0  502  0.16180957955E+03  0.50925019207E+03 -0.99636278103E+03  0.11306009475E+04  0.12699999809E+01 0.  1.
</event>
<event>
 5   0  0.6414768E-05  0.2197217E+04  0.7818609E-02  0.8519587E-01
        2   -1    0    0  501    0  0.00000000000E+00  0.00000000000E+00  0.18666010112E+04  0.18666010112E+04  0.25500000920E-02 0. -1.
       -2   -1    0    0    0  501  0.00000000000E+00  0.00000000000E+00 -0.64659803324E+03  0.64659803324E+03  0.25500000920E-02 0.  1.
    10030    2    1    2    0    0  0.00000000000E+00  0.00000000000E+00  0.12200029779E+04  0.25131990444E+04  0.21972169148E+04 0.  0.
        2    1    3    3  502    0 -0.10377872552E+03 -0.52684644300E+03 -0.48626960593E+03  0.72442758646E+03  0.25500000920E-02 0.  1.
       -2    1    3    3    0  502  0.10377872552E+03  0.52684644300E+03  0.17062725839E+04  0.17887714579E+04  0.25500000920E-02 0. -1.
</event>
<event>
 5   0  0.6293013E-05  0.2182806E+04  0.7818609E-02  0.8525619E-01
        2   -1    0    0  501    0  0.00000000000E+00  0.00000000000E+00  0.17970303500E+04  0.17970303500E+04  0.25500000920E-02 0.  1.
       -2   -1    0    0    0  501  0.00000000000E+00  0.00000000000E+00 -0.66284950942E+03  0.66284950943E+03  0.25500000920E-02 0. -1.
    10030    2    1    2    0    0  0.00000000000E+00  0.00000000000E+00  0.11341808406E+04  0.24598798595E+04  0.21828061627E+04 0.  0.
        1    1    3    3  502    0 -0.56761511606E+03 -0.78371429918E+03  0.11359029738E+04  0.14922032665E+04  0.50400001928E-02 0.  1.
       -1    1    3    3    0  502  0.56761511606E+03  0.78371429918E+03 -0.17221332077E+01  0.96767659292E+03  0.50400001928E-02 0. -1.
</event>
<event>
 5   0  0.6628798E-05  0.2199623E+04  0.7818609E-02  0.8518585E-01
       -2   -1    0    0    0  501  0.00000000000E+00  0.00000000000E+00  0.59797431204E+03  0.59797431205E+03  0.25500000920E-02 0.  1.
        2   -1    0    0  501    0  0.00000000000E+00  0.00000000000E+00 -0.20228056424E+04  0.20228056424E+04  0.25500000920E-02 0. -1.
    10030    2    1    2    0    0  0.00000000000E+00  0.00000000000E+00 -0.14248313303E+04  0.26207799544E+04  0.21996234336E+04 0.  0.
        4    1    3    3  502    0  0.75840375062E+03  0.70381430654E+03 -0.26811907144E+03  0.10688406225E+04  0.12699999809E+01 0.  1.
       -4    1    3    3    0  502 -0.75840375062E+03 -0.70381430654E+03 -0.11567122589E+04  0.15519393319E+04  0.12699999809E+01 0. -1.
</event>
<event>
 5   0  0.6306919E-05  0.2202621E+04  0.7818609E-02  0.8517338E-01
       -2   -1    0    0    0  501  0.00000000000E+00  0.00000000000E+00  0.10388550145E+04  0.10388550145E+04  0.25500000920E-02 0.  1.
        2   -1    0    0  501    0  0.00000000000E+00  0.00000000000E+00 -0.11675208626E+04  0.11675208626E+04  0.25500000920E-02 0. -1.
    10030    2    1    2    0    0  0.00000000000E+00  0.00000000000E+00 -0.12866584807E+03  0.22063758771E+04  0.22026210774E+04 0.  0.
        3    1    3    3  502    0 -0.35773718985E+03  0.77675359516E+03  0.63079733999E+03  0.10626510899E+04  0.10100000352E+00 0. -1.
       -3    1    3    3    0  502  0.35773718985E+03 -0.77675359516E+03 -0.75946318806E+03  0.11437247872E+04  0.10100000352E+00 0.  1.
</event>
<event>
 5   0  0.2820239E-05  0.2188916E+04  0.7818609E-02  0.8523056E-01
        1   -1    0    0  501    0  0.00000000000E+00  0.00000000000E+00  0.10119169900E+04  0.10119169900E+04  0.50400001928E-02 0. -1.
       -1   -1    0    0    0  501  0.00000000000E+00  0.00000000000E+00 -0.11837313512E+04  0.11837313512E+04  0.50400001928E-02 0.  1.
    10030    2    1    2    0    0  0.00000000000E+00  0.00000000000E+00 -0.17181436119E+03  0.21956483412E+04  0.21889155907E+04 0.  0.
        3    1    3    3  502    0 -0.55662804401E+03  0.30766254603E+02  0.85882653368E+03  0.10238966583E+04  0.10100000352E+00 0. -1.
       -3    1    3    3    0  502  0.55662804401E+03 -0.30766254603E+02 -0.10306408949E+04  0.11717516828E+04  0.10100000352E+00 0.  1.
</event>
<event>
 5   0  0.2820239E-05  0.2202354E+04  0.7818609E-02  0.8517449E-01
        1   -1    0    0  501    0  0.00000000000E+00  0.00000000000E+00  0.11520151802E+04  0.11520151802E+04  0.50400001928E-02 0.  1.
       -1   -1    0    0    0  501  0.00000000000E+00  0.00000000000E+00 -0.10525824041E+04  0.10525824041E+04  0.50400001928E-02 0. -1.
    10030    2    1    2    0    0  0.00000000000E+00  0.00000000000E+00  0.99432776139E+02  0.22045975843E+04  0.22023541113E+04 0.  0.
        3    1    3    3  502    0  0.36764887749E+03  0.20920865429E+03  0.10674412643E+04  0.11482006885E+04  0.10100000352E+00 0.  1.
       -3    1    3    3    0  502 -0.36764887749E+03 -0.20920865429E+03 -0.96800848813E+03  0.10563968958E+04  0.10100000352E+00 0. -1.
</event>
<event>
 5   0  0.2753631E-05  0.2209383E+04  0.7818609E-02  0.8514533E-01
        1   -1    0    0  501    0  0.00000000000E+00  0.00000000000E+00  0.17022588401E+04  0.17022588401E+04  0.50400001928E-02 0. -1.
       -1   -1    0    0    0  501  0.00000000000E+00  0.00000000000E+00 -0.71689642274E+03  0.71689642276E+03  0.50400001928E-02 0.  1.
    10030    2    1    2    0    0  0.00000000000E+00  0.00000000000E+00  0.98536241734E+03  0.24191552628E+04  0.22093829664E+04 0.  0.
        4    1    3    3  502    0 -0.99446337397E+02 -0.61032915953E+03  0.14949908277E+04  0.16178351105E+04  0.12699999809E+01 0. -1.
       -4    1    3    3    0  502  0.99446337397E+02  0.61032915953E+03 -0.50962841036E+03  0.80132015234E+03  0.12699999809E+01 0.  1.
</event>
<event>
 5   0  0.2908031E-05  0.2140824E+04  0.7818609E-02  0.8543470E-01
       -1   -1    0    0    0  501  0.00000000000E+00  0.00000000000E+00  0.11926980538E+04  0.11926980538E+04  0.50400001928E-02 0.  1.
        1   -1    0    0  501    0  0.00000000000E+00  0.00000000000E+00 -0.96066367381E+03  0.96066367382E+03  0.50400001928E-02 0. -1.
    10030    2    1    2    0    0  0.00000000000E+00  0.00000000000E+00  0.23203438001E+03  0.21533617277E+04  0.21408238546E+04 0.  0.
        1    1    3    3  502    0  0.58604365193E+03  0.51760165653E+03 -0.61930665287E+03  0.99744642319E+03  0.50400001928E-02 0. -1.
       -1    1    3    3    0  502 -0.58604365193E+03 -0.51760165653E+03  0.85134103288E+03  0.11559153045E+04  0.50400001928E-02 0.  1.
</event>
<event>
 5   0  0.6293013E-05  0.2256659E+04  0.7818609E-02  0.8495209E-01
        2   -1    0    0  501    0  0.00000000000E+00  0.00000000000E+00  0.10356501444E+04  0.10356501444E+04  0.25500000920E-02 0.  1.
       -2   -1    0    0    0  501  0.00000000000E+00  0.00000000000E+00 -0.12293027867E+04  0.12293027867E+04  0.25500000920E-02 0. -1.
    10030    2    1    2    0    0  0.00000000000E+00  0.00000000000E+00 -0.19365264235E+03  0.22649529311E+04  0.22566591311E+04 0.  0.
        1    1    3    3  502    0  0.38119610106E+03 -0.51949218655E+03 -0.10264837489E+04  0.12119618336E+04  0.50400001928E-02 0. -1.
       -1    1    3    3    0  502 -0.38119610106E+03  0.51949218655E+03  0.83283110653E+03  0.10529910975E+04  0.50400001928E-02 0.  1.
</event>
<event>
 5   0  0.6628798E-05  0.2208607E+04  0.7818609E-02  0.8514854E-01
        2   -1    0    0  501    0  0.00000000000E+00  0.00000000000E+00  0.22637330913E+04  0.22637330913E+04  0.25500000920E-02 0.  1.
       -2   -1    0    0    0  501  0.00000000000E+00  0.00000000000E+00 -0.53870594425E+03  0.53870594425E+03  0.25500000920E-02 0. -1.
    10030    2    1    2    0    0  0.00000000000E+00  0.00000000000E+00  0.17250271471E+04  0.28024390356E+04  0.22086072285E+04 0.  0.
        4    1    3    3  502    0 -0.64420097641E+03  0.19576125564E+03  0.19731695174E+04  0.20848781558E+04  0.12699999809E+01 0.  1.
       -4    1    3    3    0  502  0.64420097641E+03 -0.19576125564E+03 -0.24814237039E+03  0.71756087972E+03  0.12699999809E+01 0. -1.
</event>
<event>
 5   0  0.6414768E-05  0.1787710E+04  0.7818609E-02  0.8712862E-01
       -2   -1    0    0    0  501  0.00000000000E+00  0.00000000000E+00  0.45794008636E+03  0.45794008637E+03  0.25500000920E-02 0.  1.
        2   -1    0    0  501    0  0.00000000000E+00  0.00000000000E+00 -0.17447196863E+04  0.17447196863E+04  0.25500000920E-02 0. -1.
    10030    2    1    2    0    0  0.00000000000E+00  0.00000000000E+00 -0.12867796000E+04  0.22026597727E+04  0.17877103612E+04 0.  0.
        2    1    3    3  502    0  0.83489554646E+03 -0.27901656222E+02 -0.10352479917E+04  0.13302509088E+04  0.25500000920E-02 0.  1.
       -2    1    3    3    0  502 -0.83489554646E+03  0.27901656222E+02 -0.25153160826E+03  0.87240886394E+03  0.25500000920E-02 0. -1.
</event>
<event>
 5   0  0.2910318E-05  0.2206122E+04  0.7818609E-02  0.8515884E-01
        1   -1    0    0  501    0  0.00000000000E+00  0.00000000000E+00  0.15692852956E+04  0.15692852956E+04  0.50400001928E-02 0. -1.
       -1   -1    0    0    0  501  0.00000000000E+00  0.00000000000E+00 -0.77534863324E+03  0.77534863326E+03  0.50400001928E-02 0.  1.
    10030    2    1    2    0    0  0.00000000000E+00  0.00000000000E+00  0.79393666237E+03  0.23446339289E+04  0.22061216731E+04 0.  0.
        5    1    3    3  502    0  0.53145635968E+03  0.89540451293E+03  0.78386603645E+03  0.13033277244E+04  0.46999998093E+01 0. -1.
       -5    1    3    3    0  502 -0.53145635968E+03 -0.89540451293E+03  0.10070625917E+02  0.10413062045E+04  0.46999998093E+01 0.  1.
</event>
<event>
 5   0  0.2820239E-05  0.2180449E+04  0.7818609E-02  0.8526610E-01
        1   -1    0    0  501    0  0.00000000000E+00  0.00000000000E+00  0.60554219860E+03  0.60554219862E+03  0.50400001928E-02 0. -1.
       -1   -1    0    0    0  501  0.00000000000E+00  0.00000000000E+00 -0.19628513316E+04  0.19628513316E+04  0.50400001928E-02 0.  1.
    10030    2    1    2    0    0  0.00000000000E+00  0.00000000000E+00 -0.13573091330E+04  0.25683935302E+04  0.21804488629E+04 0.  0.
        3    1    3    3  502    0  0.82084564470E+02  0.85275170159E+03  0.11560395305E+03  0.86445799461E+03  0.10100000352E+00 0. -1.
       -3    1    3    3    0  502 -0.82084564470E+02 -0.85275170159E+03 -0.14729130861E+04  0.17039355356E+04  0.10100000352E+00 0.  1.
</event>
<event>
 5   0  0.6293013E-05  0.2210231E+04  0.7818609E-02  0.8514182E-01
       -2   -1    0    0    0  501  0.00000000000E+00  0.00000000000E+00  0.10522051005E+04  0.10522051005E+04  0.25500000920E-02 0. -1.
        2   -1    0    0  501    0  0.00000000000E+00  0.00000000000E+00 -0.11606861980E+04  0.11606861980E+04  0.25500000920E-02 0.  1.
    10030    2    1    2    0    0  0.00000000000E+00  0.00000000000E+00 -0.10848109747E+03  0.22128912985E+04  0.22102307007E+04 0.  0.
        1    1    3    3  502    0  0.45819556262E+03  0.10285385584E+02 -0.10610508628E+04  0.11558018412E+04  0.50400001928E-02 0.  1.
       -1    1    3    3    0  502 -0.45819556262E+03 -0.10285385584E+02  0.95256976531E+03  0.10570894572E+04  0.50400001928E-02 0. -1.
</event>
<event>
 5   0  0.2753631E-05  0.2211183E+04  0.7818609E-02  0.8513788E-01
        1   -1    0    0  501    0  0.00000000000E+00  0.00000000000E+00  0.17460728887E+04  0.17460728887E+04  0.50400001928E-02 0.  1.
       -1   -1    0    0    0  501  0.00000000000E+00  0.00000000000E+00 -0.70004680568E+03  0.70004680570E+03  0.50400001928E-02 0. -1.
    10030    2    1    2    0    0  0.00000000000E+00  0.00000000000E+00  0.10460260830E+04  0.24461196944E+04  0.22111831658E+04 0.  0.
        4    1    3    3  502    0  0.15249733792E+03  0.10795355853E+03 -0.68245438734E+03  0.70756979343E+03  0.12699999809E+01 0. -1.
       -4    1    3    3    0  502 -0.15249733792E+03 -0.10795355853E+03  0.17284804703E+04  0.17385499009E+04  0.12699999809E+01 0.  1.
</event>
<event>
 5   0  0.2820239E-05  0.2167295E+04  0.7818609E-02  0.8532165E-01
       -1   -1    0    0    0  501  0.00000000000E+00  0.00000000000E+00  0.12372964570E+04  0.12372964570E+04  0.50400001928E-02 0.  1.
        1   -1    0    0  501    0  0.00000000000E+00  0.00000000000E+00 -0.94907859996E+03  0.94907859998E+03  0.50400001928E-02 0. -1.
    10030    2    1    2    0    0  0.00000000000E+00  0.00000000000E+00  0.28821785702E+03  0.21863750570E+04  0.21672947092E+04 0.  0.
        3    1    3    3  502    0 -0.10427603133E+04  0.16278656280E+02 -0.15289344154E+03  0.10540353316E+04  0.10100000352E+00 0. -1.
       -3    1    3    3    0  502  0.10427603133E+04 -0.16278656280E+02  0.44111129856E+03  0.11323397253E+04  0.10100000352E+00 0.  1.
</event>
<event>
 5   0  0.2908031E-05  0.2191666E+04  0.7818609E-02  0.8521905E-01
       -1   -1    0    0    0  501  0.00000000000E+00  0.00000000000E+00  0.10707302071E+04  0.10707302072E+04  0.50400001928E-02 0.  1.
        1   -1    0    0  501    0  0.00000000000E+00  0.00000000000E+00 -0.11215241113E+04  0.11215241113E+04  0.50400001928E-02 0. -1.
    10030    2    1    2    0    0  0.00000000000E+00  0.00000000000E+00 -0.50793904165E+02  0.21922543185E+04  0.21916657994E+04 0.  0.
        1    1    3    3  502    0 -0.36177393829E+03 -0.88321649598E+03 -0.56396328409E+03  0.11086055868E+04  0.50400001928E-02 0.  1.
       -1    1    3    3    0  502  0.36177393829E+03  0.88321649598E+03  0.51316937993E+03  0.10836487317E+04  0.50400001928E-02 0. -1.
</event>
<event>
 5   0  0.2910318E-05  0.2202642E+04  0.7818609E-02  0.8517329E-01
       -1   -1    0    0    0  501  0.00000000000E+00  0.00000000000E+00  0.67632004427E+03  0.67632004429E+03  0.50400001928E-02 0. -1.
        1   -1    0    0  501    0  0.00000000000E+00  0.00000000000E+00 -0.17933936836E+04  0.17933936836E+04  0.50400001928E-02 0.  1.
    10030    2    1    2    0    0  0.00000000000E+00  0.00000000000E+00 -0.11170736393E+04  0.24697137279E+04  0.22026421366E+04 0.  0.
        5    1    3    3  502    0 -0.93223974976E+03 -0.17272051214E+03 -0.11868201226E+04  0.15190350291E+04  0.46999998093E+01 0.  1.
       -5    1    3    3    0  502  0.93223974976E+03  0.17272051214E+03  0.69746483264E+02  0.95067869876E+03  0.46999998093E+01 0. -1.
</event>
<event>
 5   0  0.2820239E-05  0.2203313E+04  0.7818609E-02  0.8517050E-01
        1   -1    0    0  501    0  0.00000000000E+00  0.00000000000E+00  0.99657560638E+03  0.99657560639E+03  0.50400001928E-02 0. -1.
       -1   -1    0    0    0  501  0.00000000000E+00  0.00000000000E+00 -0.12178178305E+04  0.12178178305E+04  0.50400001928E-02 0.  1.
    10030    2    1    2    0    0  0.00000000000E+00  0.00000000000E+00 -0.22124222413E+03  0.22143934369E+04  0.22033134529E+04 0.  0.
        3    1    3    3  502    0 -0.19532618377E+03  0.10370781340E+04  0.20713993436E+03  0.10754489001E+04  0.10100000352E+00 0. -1.
       -3    1    3    3    0  502  0.19532618377E+03 -0.10370781340E+04 -0.42838215848E+03  0.11389445368E+04  0.10100000352E+00 0.  1.
</event>
<event>
 5   0  0.6628798E-05  0.2192059E+04  0.7818609E-02  0.8521741E-01
       -2   -1    0    0    0  501  0.00000000000E+00  0.00000000000E+00  0.57334834521E+03  0.57334834521E+03  0.25500000920E-02 0. -1.
        2   -1    0    0  501    0  0.00000000000E+00  0.00000000000E+00 -0.20952018464E+04  0.20952018465E+04  0.25500000920E-02 0.  1.
    10030    2    1    2    0    0  0.00000000000E+00  0.00000000000E+00 -0.15218535012E+04  0.26685501917E+04  0.21920588601E+04 0.  0.
        4    1    3    3  502    0  0.87882575183E+03 -0.47176240097E+03 -0.13139732315E+04  0.16496732195E+04  0.12699999809E+01 0.  1.
       -4    1    3    3    0  502 -0.87882575183E+03  0.47176240097E+03 -0.20788026977E+03  0.10188769722E+04  0.12699999809E+01 0. -1.
</event>
<event>
 5   0  0.6293013E-05  0.2204093E+04  0.7818609E-02  0.8516726E-01
       -2   -1    0    0    0  501  0.00000000000E+00  0.00000000000E+00  0.72047618063E+03  0.72047618064E+03  0.25500000920E-02 0. -1.
        2   -1    0    0  501    0  0.00000000000E+00  0.00000000000E+00 -0.16856999968E+04  0.16856999968E+04  0.25500000920E-02 0.  1.
    10030    2    1    2    0    0  0.00000000000E+00  0.00000000000E+00 -0.96522381615E+03  0.24061761774E+04  0.22040931880E+04 0.  0.
        1    1    3    3  502    0  0.67502130645E+03  0.16882423825E+03 -0.14155726641E+04  0.15773399617E+04  0.50400001928E-02 0.  1.
       -1    1    3    3    0  502 -0.67502130645E+03 -0.16882423825E+03  0.45034884793E+03  0.82883621569E+03  0.50400001928E-02 0. -1.
</event>
<event>
 5   0  0.2753631E-05  0.2205908E+04  0.7818609E-02  0.8515973E-01
       -1   -1    0    0    0  501  0.00000000000E+00  0.00000000000E+00  0.86925337521E+03  0.86925337523E+03  0.50400001928E-02 0.  1.
        1   -1    0    0  501    0  0.00000000000E+00  0.00000000000E+00 -0.13994849791E+04  0.13994849791E+04  0.50400001928E-02 0. -1.
    10030    2    1    2    0    0  0.00000000000E+00  0.00000000000E+00 -0.53023160386E+03  0.22687383543E+04  0.22059075607E+04 0.  0.
        4    1    3    3  502    0 -0.50699454633E+03 -0.47940689336E+03 -0.11436299086E+04  0.13396885534E+04  0.12699999809E+01 0. -1.
       -4    1    3    3    0  502  0.50699454633E+03  0.47940689336E+03  0.61339830473E+03  0.92904980090E+03  0.12699999809E+01 0.  1.
</event>
<event>
 5   0  0.6445740E-05  0.2192816E+04  0.7818609E-02  0.8521424E-01
       -2   -1    0    0    0  501  0.00000000000E+00  0.00000000000E+00  0.64950262112E+03  0.64950262113E+03  0.25500000920E-02 0.  1.
        2   -1    0    0  501    0  0.00000000000E+00  0.00000000000E+00 -0.18508177870E+04  0.18508177870E+04  0.25500000920E-02 0. -1.
    10030    2    1    2    0    0  0.00000000000E+00  0.00000000000E+00 -0.12013151659E+04  0.25003204081E+04  0.21928164573E+04 0.  0.
        5    1    3    3  502    0 -0.52997626265E+02  0.34717443987E+03 -0.17849359684E+04  0.18191639127E+04  0.46999998093E+01 0. -1.
       -5    1    3    3    0  502  0.52997626265E+02 -0.34717443987E+03  0.58362080252E+03  0.68115649540E+03  0.46999998093E+01 0.  1.
</event>
<event>
 5   0  0.2753631E-05  0.2214580E+04  0.7818609E-02  0.8512384E-01
       -1   -1    0    0    0  501  0.00000000000E+00  0.00000000000E+00  0.54629486802E+03  0.54629486805E+03  0.50400001928E-02 0. -1.
        1   -1    0    0  501    0  0.00000000000E+00  0.00000000000E+00 -0.22443763354E+04  0.22443763354E+04  0.50400001928E-02 0.  1.
    10030    2    1    2    0    0  0.00000000000E+00  0.00000000000E+00 -0.16980814674E+04  0.27906712034E+04  0.22145801173E+04 0.  0.
        4    1    3    3  502    0  0.28117169148E+03 -0.89062770493E+02  0.49588465982E+03  0.57696872179E+03  0.12699999809E+01 0. -1.
       -4    1    3    3    0  502 -0.28117169148E+03  0.89062770493E+02 -0.21939661272E+04  0.22137024816E+04  0.12699999809E+01 0.  1.
</event>
<event>
 5   0  0.2908031E-05  0.2212910E+04  0.7818609E-02  0.8513074E-01
        1   -1    0    0  501    0  0.00000000000E+00  0.00000000000E+00  0.80048482657E+03  0.80048482658E+03  0.50400001928E-02 0. -1.
       -1   -1    0    0    0  501  0.00000000000E+00  0.00000000000E+00 -0.15293769270E+04  0.15293769270E+04  0.50400001928E-02 0.  1.
    10030    2    1    2    0    0  0.00000000000E+00  0.00000000000E+00 -0.72889210045E+03  0.23298617536E+04  0.22129103228E+04 0.  0.
        1    1    3    3  502    0  0.15148781294E+03 -0.19964525542E+03 -0.14991015532E+04  0.15199053432E+04  0.50400001928E-02 0.  1.
       -1    1    3    3    0  502 -0.15148781294E+03  0.19964525542E+03  0.77020945279E+03  0.80995641036E+03  0.50400001928E-02 0. -1.
</event>
<event>
 5   0  0.2908031E-05  0.2206924E+04  0.7818609E-02  0.8515552E-01
       -1   -1    0    0    0  501  0.00000000000E+00  0.00000000000E+00  0.96199454855E+03  0.96199454856E+03  0.50400001928E-02 0. -1.
        1   -1    0    0  501    0  0.00000000000E+00  0.00000000000E+00 -0.12657328164E+04  0.12657328164E+04  0.50400001928E-02 0.  1.
    10030    2    1    2    0    0  0.00000000000E+00  0.00000000000E+00 -0.30373826783E+03  0.22277273650E+04  0.22069237135E+04 0.  0.
        1    1    3    3  502    0 -0.27341355194E+03 -0.67346243735E+03 -0.98994939711E+03  0.12281312771E+04  0.50400001928E-02 0.  1.
       -1    1    3    3    0  502  0.27341355194E+03  0.67346243735E+03  0.68621112928E+03  0.99959608787E+03  0.50400001928E-02 0. -1.
</event>
<event>
 5   0  0.2820239E-05  0.2158094E+04  0.7818609E-02  0.8536076E-01
       -1   -1    0    0    0  501  0.00000000000E+00  0.00000000000E+00  0.90546513256E+03  0.90546513257E+03  0.50400001928E-02 0.  1.
        1   -1    0    0  501    0  0.00000000000E+00  0.00000000000E+00 -0.12859048903E+04  0.12859048903E+04  0.50400001928E-02 0. -1.
    10030    2    1    2    0    0  0.00000000000E+00  0.00000000000E+00 -0.38043975774E+03  0.21913700229E+04  0.21580936421E+04 0.  0.
        3    1    3    3  502    0 -0.19126868592E+03 -0.98635532521E+03 -0.58981221799E+03  0.11650575095E+04  0.10100000352E+00 0.  1.
       -3    1    3    3    0  502  0.19126868592E+03  0.98635532521E+03  0.20937246025E+03  0.10263125134E+04  0.10100000352E+00 0. -1.
</event>
<event>
 5   0  0.6445740E-05  0.2294080E+04  0.7818609E-02  0.8480259E-01
       -2   -1    0    0    0  501  0.00000000000E+00  0.00000000000E+00  0.50027246195E+03  0.50027246196E+03  0.25500000920E-02 0.  1.
        2   -1    0    0  501    0  0.00000000000E+00  0.00000000000E+00 -0.26299679083E+04  0.26299679083E+04  0.25500000920E-02 0. -1.
    10030    2    1    2    0    0  0.00000000000E+00  0.00000000000E+00 -0.21296954463E+04  0.31302403703E+04  0.22940797897E+04 0.  0.
        5    1    3    3  502    0  0.19391200287E+03  0.10709842761E+04 -0.15588393294E+04  0.19012131204E+04  0.46999998093E+01 0. -1.
       -5    1    3    3    0  502 -0.19391200287E+03 -0.10709842761E+04 -0.57085611696E+03  0.12290272498E+04  0.46999998093E+01 0.  1.
</event>
<event>
 5   0  0.6293013E-05  0.2223872E+04  0.7818609E-02  0.8508557E-01
       -2   -1    0    0    0  501  0.00000000000E+00  0.00000000000E+00  0.23403067029E+04  0.23403067029E+04  0.25500000920E-02 0. -1.
        2   -1    0    0  501    0  0.00000000000E+00  0.00000000000E+00 -0.52830760327E+03  0.52830760327E+03  0.25500000920E-02 0.  1.
    10030    2    1    2    0    0  0.00000000000E+00  0.00000000000E+00  0.18119990996E+04  0.28686143062E+04  0.22238721412E+04 0.  0.
        1    1    3    3  502    0 -0.62234437723E+03  0.64974628314E+03  0.17488201116E+04  0.19666861821E+04  0.50400001928E-02 0. -1.
       -1    1    3    3    0  502  0.62234437723E+03 -0.64974628314E+03  0.63178988034E+02  0.90192812401E+03  0.50400001928E-02 0.  1.
</event>
<event>
 5   0  0.2753631E-05  0.2120233E+04  0.7818609E-02  0.8552383E-01
        1   -1    0    0  501    0  0.00000000000E+00  0.00000000000E+00  0.65775329784E+03  0.65775329786E+03  0.50400001928E-02 0.  1.
       -1   -1    0    0    0  501  0.00000000000E+00  0.00000000000E+00 -0.17086140384E+04  0.17086140384E+04  0.50400001928E-02 0. -1.
    10030    2    1    2    0    0  0.00000000000E+00  0.00000000000E+00 -0.10508607405E+04  0.23663673363E+04  0.21202325519E+04 0.  0.
        4    1    3    3  502    0 -0.53150936033E+03 -0.60230663886E+03 -0.12975260732E+04  0.15260573419E+04  0.12699999809E+01 0. -1.
       -4    1    3    3    0  502  0.53150936033E+03  0.60230663886E+03  0.24666533265E+03  0.84030999433E+03  0.12699999809E+01 0.  1.
</event>
<event>
 5   0  0.2820239E-05  0.2201884E+04  0.7818609E-02  0.8517644E-01
        1   -1    0    0  501    0  0.00000000000E+00  0.00000000000E+00  0.15443250258E+04  0.15443250258E+04  0.50400001928E-02 0. -1.
       -1   -1    0    0    0  501  0.00000000000E+00  0.00000000000E+00 -0.78485627027E+03  0.78485627029E+03  0.50400001928E-02 0.  1.
    10030    2    1    2    0    0  0.00000000000E+00  0.00000000000E+00  0.75946875556E+03  0.23291812961E+04  0.22018839024E+04 0.  0.
        3    1    3    3  502    0  0.94984298944E+03 -0.54124349114E+03  0.51735965691E+03  0.12094656862E+04  0.10100000352E+00 0.  1.
       -3    1    3    3    0  502 -0.94984298944E+03  0.54124349114E+03  0.24210909866E+03  0.11197156099E+04  0.10100000352E+00 0. -1.
</event>
<event>
 5   0  0.6445740E-05  0.2254663E+04  0.7818609E-02  0.8496014E-01
       -2   -1    0    0    0  501  0.00000000000E+00  0.00000000000E+00  0.80794294588E+03  0.80794294588E+03  0.25500000920E-02 0. -1.
        2   -1    0    0  501    0  0.00000000000E+00  0.00000000000E+00 -0.15729776500E+04  0.15729776500E+04  0.25500000920E-02 0.  1.
    10030    2    1    2    0    0  0.00000000000E+00  0.00000000000E+00 -0.76503470415E+03  0.23809205959E+04  0.22546628984E+04 0.  0.
        5    1    3    3  502    0 -0.34984216562E+02  0.11784062502E+03 -0.15658689851E+04  0.15706935019E+04  0.46999998093E+01 0.  1.
       -5    1    3    3    0  502  0.34984216562E+02 -0.11784062502E+03  0.80083428097E+03  0.81022709402E+03  0.46999998093E+01 0. -1.
</event>
<event>
 5   0  0.2820239E-05  0.2201600E+04  0.7818609E-02  0.8517763E-01
       -1   -1    0    0    0  501  0.00000000000E+00  0.00000000000E+00  0.11920249214E+04  0.11920249214E+04  0.50400001928E-02 0.  1.
        1   -1    0    0  501    0  0.00000000000E+00  0.00000000000E+00 -0.10165561058E+04  0.10165561058E+04  0.50400001928E-02 0. -1.
    10030    2    1    2    0    0  0.00000000000E+00  0.00000000000E+00  0.17546881555E+03  0.22085810272E+04  0.22015996113E+04 0.  0.
        3    1    3    3  502    0 -0.45489040541E+03  0.77626712964E+03  0.72397288099E+03  0.11548388113E+04  0.10100000352E+00 0.  1.
       -3    1    3    3    0  502  0.45489040541E+03 -0.77626712964E+03 -0.54850406544E+03  0.10537422159E+04  0.10100000352E+00 0. -1.
</event>
<event>
 5   0  0.2820239E-05  0.2335639E+04  0.7818609E-02  0.8464000E-01
        1   -1    0    0  501    0  0.00000000000E+00  0.00000000000E+00  0.97225365285E+03  0.97225365286E+03  0.50400001928E-02 0. -1.
       -1   -1    0    0    0  501  0.00000000000E+00  0.00000000000E+00 -0.14027225313E+04  0.14027225313E+04  0.50400001928E-02 0.  1.
    10030    2    1    2    0    0  0.00000000000E+00  0.00000000000E+00 -0.43046887849E+03  0.23749761842E+04  0.23356387606E+04 0.  0.
        3    1    3    3  502    0 -0.45071547574E+03  0.10605677626E+04 -0.40777420013E+03  0.12223862841E+04  0.10100000352E+00 0.  1.
       -3    1    3    3    0  502  0.45071547574E+03 -0.10605677626E+04 -0.22694678354E+02  0.11525899001E+04  0.10100000352E+00 0. -1.
</event>
<event>
 5   0  0.6628798E-05  0.2202496E+04  0.7818609E-02  0.8517390E-01
       -2   -1    0    0    0  501  0.00000000000E+00  0.00000000000E+00  0.10002127223E+04  0.10002127223E+04  0.25500000920E-02 0.  1.
        2   -1    0    0  501    0  0.00000000000E+00  0.00000000000E+00 -0.12124889875E+04  0.12124889875E+04  0.25500000920E-02 0. -1.
    10030    2    1    2    0    0  0.00000000000E+00  0.00000000000E+00 -0.21227626519E+03  0.22127017098E+04  0.22024957761E+04 0.  0.
        4    1    3    3  502    0  0.24268693902E+03 -0.88853409693E+03  0.50027759424E+03  0.10481741630E+04  0.12699999809E+01 0.  1.
       -4    1    3    3    0  502 -0.24268693902E+03  0.88853409693E+03 -0.71255385944E+03  0.11645275468E+04  0.12699999809E+01 0. -1.
</event>
<event>
 5   0  0.6414768E-05  0.2204495E+04  0.7818609E-02  0.8516559E-01
       -2   -1    0    0    0  501  0.00000000000E+00  0.00000000000E+00  0.10284077625E+04  0.10284077625E+04  0.25500000920E-02 0. -1.
        2   -1    0    0  501    0  0.00000000000E+00  0.00000000000E+00 -0.11813892566E+04  0.11813892566E+04  0.25500000920E-02 0.  1.
    10030    2    1    2    0    0  0.00000000000E+00  0.00000000000E+00 -0.15298149403E+03  0.22097970191E+04  0.22044953001E+04 0.  0.
        2    1    3    3  502    0  0.86443465033E+03  0.66990476760E+03 -0.21440877327E+03  0.11144464027E+04  0.25500000920E-02 0. -1.
       -2    1    3    3    0  502 -0.86443465033E+03 -0.66990476760E+03  0.61427279239E+02  0.10953506165E+04  0.25500000920E-02 0.  1.
</event>
<event>
 5   0  0.2929471E-05  0.2264121E+04  0.7818609E-02  0.8492203E-01
        1   -1    0    0  501    0  0.00000000000E+00  0.00000000000E+00  0.14005122668E+04  0.14005122668E+04  0.50400001928E-02 0. -1.
       -1   -1    0    0    0  501  0.00000000000E+00  0.00000000000E+00 -0.91506601925E+03  0.91506601927E+03  0.50400001928E-02 0.  1.
    10030    2    1    2    0    0  0.00000000000E+00  0.00000000000E+00  0.48544624755E+03  0.23155782861E+04  0.22641211848E+04 0.  0.
        2    1    3    3  502    0 -0.11136378323E+03  0.61306401063E+03 -0.72390925472E+03  0.95514081811E+03  0.25500000920E-02 0.  1.
       -2    1    3    3    0  502  0.11136378323E+03 -0.61306401063E+03  0.12093555023E+04  0.13604374680E+04  0.25500000920E-02 0. -1.
</event>
<event>
 5   0  0.6414768E-05  0.2189507E+04  0.7818609E-02  0.8522808E-01
        2   -1    0    0  501    0  0.00000000000E+00  0.00000000000E+00  0.10990778113E+04  0.10990778114E+04  0.25500000920E-02 0.  1.
       -2   -1    0    0    0  501  0.00000000000E+00  0.00000000000E+00 -0.10904459595E+04  0.10904459595E+04  0.25500000920E-02 0. -1.
    10030    2    1    2    0    0  0.00000000000E+00  0.00000000000E+00  0.86318518726E+01  0.21895237708E+04  0.21895067559E+04 0.  0.
        2    1    3    3  502    0  0.98796179466E+03  0.34409688962E+03 -0.31819825670E+03  0.10934904242E+04  0.25500000920E-02 0. -1.
       -2    1    3    3    0  502 -0.98796179466E+03 -0.34409688962E+03  0.32683010857E+03  0.10960333467E+04  0.25500000920E-02 0.  1.
</event>
<event>
 5   0  0.2929471E-05  0.2244577E+04  0.7818609E-02  0.8500100E-01
        1   -1    0    0  501    0  0.00000000000E+00  0.00000000000E+00  0.12137156572E+04  0.12137156572E+04  0.50400001928E-02 0.  1.
       -1   -1    0    0    0  501  0.00000000000E+00  0.00000000000E+00 -0.10377483621E+04  0.10377483621E+04  0.50400001928E-02 0. -1.
    10030    2    1    2    0    0  0.00000000000E+00  0.00000000000E+00  0.17596729504E+03  0.22514640193E+04  0.22445769627E+04 0.  0.
        2    1    3    3  502    0 -0.81597734905E+03 -0.76892147645E+03  0.13785706954E+03  0.11296299583E+04  0.25500000920E-02 0. -1.
       -2    1    3    3    0  502  0.81597734905E+03  0.76892147645E+03  0.38110225499E+02  0.11218340610E+04  0.25500000920E-02 0.  1.
</event>
<event>
 5   0  0.2245375E-05  0.2168488E+04  0.7818609E-02  0.8531660E-01
       -3   -1    0    0    0  501  0.00000000000E+00  0.00000000000E+00  0.14859328675E+04  0.14859328709E+04  0.10100000352E+00 0. -1.
        3   -1    0    0  501    0  0.00000000000E+00  0.00000000000E+00 -0.79114302123E+03  0.79114302767E+03  0.10100000352E+00 0.  1.
    10030    2    1    2    0    0  0.00000000000E+00  0.00000000000E+00  0.69478984626E+03  0.22770758986E+04  0.21684883485E+04 0.  0.
        1    1    3    3  502    0  0.49949747968E+03 -0.75777546749E+03  0.97027989768E+03  0.13285949237E+04  0.50400001928E-02 0. -1.
       -1    1    3    3    0  502 -0.49949747968E+03  0.75777546749E+03 -0.27549005142E+03  0.94848097492E+03  0.50400001928E-02 0.  1.
</event>
<event>
 5   0  0.2908031E-05  0.2187899E+04  0.7818609E-02  0.8523482E-01
        1   -1    0    0  501    0  0.00000000000E+00  0.00000000000E+00  0.10158440667E+04  0.10158440668E+04  0.50400001928E-02 0. -1.
       -1   -1    0    0    0  501  0.00000000000E+00  0.00000000000E+00 -0.11780603318E+04  0.11780603318E+04  0.50400001928E-02 0.  1.
    10030    2    1    2    0    0  0.00000000000E+00  0.00000000000E+00 -0.16221626508E+03  0.21939043986E+04  0.21878990821E+04 0.  0.
        1    1    3    3  502    0  0.41406341862E+03  0.92403370184E+03  0.33408004057E+03  0.10662533800E+04  0.50400001928E-02 0. -1.
       -1    1    3    3    0  502 -0.41406341862E+03 -0.92403370184E+03 -0.49629630565E+03  0.11276510186E+04  0.50400001928E-02 0.  1.
</event>
<event>
 5   0  0.6414768E-05  0.2205871E+04  0.7818609E-02  0.8515988E-01
        2   -1    0    0  501    0  0.00000000000E+00  0.00000000000E+00  0.22505146688E+04  0.22505146688E+04  0.25500000920E-02 0.  1.
       -2   -1    0    0    0  501  0.00000000000E+00  0.00000000000E+00 -0.54052821255E+03  0.54052821256E+03  0.25500000920E-02 0. -1.
    10030    2    1    2    0    0  0.00000000000E+00  0.00000000000E+00  0.17099864563E+04  0.27910428814E+04  0.22058709584E+04 0.  0.
        2    1    3    3  502    0  0.21822149501E+03  0.50237669675E+03 -0.35628536237E+03  0.65340816169E+03  0.25500000920E-02 0. -1.
       -2    1    3    3    0  502 -0.21822149501E+03 -0.50237669675E+03  0.20662718187E+04  0.21376347197E+04  0.25500000920E-02 0.  1.
</event>
<event>
 5   0  0.6628798E-05  0.2195763E+04  0.7818609E-02  0.8520194E-01
       -2   -1    0    0    0  501  0.00000000000E+00  0.00000000000E+00  0.86838665881E+03  0.86838665881E+03  0.25500000920E-02 0. -1.
        2   -1    0    0  501    0  0.00000000000E+00  0.00000000000E+00 -0.13880260095E+04  0.13880260095E+04  0.25500000920E-02 0.  1.
    10030    2    1    2    0    0  0.00000000000E+00  0.00000000000E+00 -0.51963935072E+03  0.22564126683E+04  0.21957625270E+04 0.  0.
        4    1    3    3  502    0 -0.11486571542E+03  0.71609717906E+03  0.58717504330E+03  0.93314813766E+03  0.12699999809E+01 0. -1.
       -4    1    3    3    0  502  0.11486571542E+03 -0.71609717906E+03 -0.11068143940E+04  0.13232645307E+04  0.12699999809E+01 0.  1.
</event>
<event>
 5   0  0.6293013E-05  0.2191319E+04  0.7818609E-02  0.8522050E-01
        2   -1    0    0  501    0  0.00000000000E+00  0.00000000000E+00  0.13875585232E+04  0.13875585232E+04  0.25500000920E-02 0.  1.
       -2   -1    0    0    0  501  0.00000000000E+00  0.00000000000E+00 -0.86516672744E+03  0.86516672744E+03  0.25500000920E-02 0. -1.
    10030    2    1    2    0    0  0.00000000000E+00  0.00000000000E+00  0.52239179576E+03  0.22527252506E+04  0.21913187506E+04 0.  0.
        1    1    3    3  502    0  0.44928970092E+03  0.76659826030E+02  0.12854756175E+04  0.13638861857E+04  0.50400001928E-02 0.  1.
       -1    1    3    3    0  502 -0.44928970092E+03 -0.76659826030E+02 -0.76308382177E+03  0.88883906493E+03  0.50400001928E-02 0. -1.
</event>
<event>
 5   0  0.6293013E-05  0.2215961E+04  0.7818609E-02  0.8511814E-01
        2   -1    0    0  501    0  0.00000000000E+00  0.00000000000E+00  0.17118295224E+04  0.17118295224E+04  0.25500000920E-02 0. -1.
       -2   -1    0    0    0  501  0.00000000000E+00  0.00000000000E+00 -0.71713979604E+03  0.71713979604E+03  0.25500000920E-02 0.  1.
    10030    2    1    2    0    0  0.00000000000E+00  0.00000000000E+00  0.99468972634E+03  0.24289693184E+04  0.22159612583E+04 0.  0.
        1    1    3    3  502    0  0.24287958661E+03 -0.81699571016E+03  0.12733116312E+04  0.15322516093E+04  0.50400001928E-02 0. -1.
       -1    1    3    3    0  502 -0.24287958661E+03  0.81699571016E+03 -0.27862190485E+03  0.89671770914E+03  0.50400001928E-02 0.  1.
</event>
<event>
 5   0  0.2929471E-05  0.2223580E+04  0.7818609E-02  0.8508677E-01
       -1   -1    0    0    0  501  0.00000000000E+00  0.00000000000E+00  0.81596742383E+03  0.81596742385E+03  0.50400001928E-02 0. -1.
        1   -1    0    0  501    0  0.00000000000E+00  0.00000000000E+00 -0.15148613125E+04  0.15148613126E+04  0.50400001928E-02 0.  1.
    10030    2    1    2    0    0  0.00000000000E+00  0.00000000000E+00 -0.69889388871E+03  0.23308287364E+04  0.22235804305E+04 0.  0.
        2    1    3    3  502    0  0.73166716693E+03  0.82098135652E+03 -0.17806737577E+03  0.11140265801E+04  0.25500000920E-02 0. -1.
       -2    1    3    3    0  502 -0.73166716693E+03 -0.82098135652E+03 -0.52082651294E+03  0.12168021563E+04  0.25500000920E-02 0.  1.
</event>
<event>
 5   0  0.2245375E-05  0.2177282E+04  0.7818609E-02  0.8527944E-01
        4   -1    0    0  501    0  0.00000000000E+00  0.00000000000E+00  0.12634427121E+04  0.12634433504E+04  0.12699999809E+01 0. -1.
       -4   -1    0    0    0  501  0.00000000000E+00  0.00000000000E+00 -0.93802276265E+03  0.93802362239E+03  0.12699999809E+01 0.  1.
    10030    2    1    2    0    0  0.00000000000E+00  0.00000000000E+00  0.32541994947E+03  0.22014669728E+04  0.21772824091E+04 0.  0.
        5    1    3    3  502    0 -0.64563235185E+03  0.68992993598E+03  0.70933795387E+03  0.11815358112E+04  0.46999998093E+01 0. -1.
       -5    1    3    3    0  502  0.64563235185E+03 -0.68992993598E+03 -0.38391800441E+03  0.10199311616E+04  0.46999998093E+01 0.  1.
</event>
<event>
 5   0  0.6293013E-05  0.2210960E+04  0.7818609E-02  0.8513880E-01
       -2   -1    0    0    0  501  0.00000000000E+00  0.00000000000E+00  0.59104998498E+03  0.59104998499E+03  0.25500000920E-02 0. -1.
        2   -1    0    0  501    0  0.00000000000E+00  0.00000000000E+00 -0.20676519856E+04  0.20676519856E+04  0.25500000920E-02 0.  1.
    10030    2    1    2    0    0  0.00000000000E+00  0.00000000000E+00 -0.14766020006E+04  0.26587019706E+04  0.22109596785E+04 0.  0.
        1    1    3    3  502    0  0.88064175482E+03  0.58255850936E+03 -0.34461636781E+03  0.11107046224E+04  0.50400001928E-02 0. -1.
       -1    1    3    3    0  502 -0.88064175482E+03 -0.58255850936E+03 -0.11319856328E+04  0.15479973482E+04  0.50400001928E-02 0.  1.
</event>
<event>
 5   0  0.6445740E-05  0.2191960E+04  0.7818609E-02  0.8521782E-01
        2   -1    0    0  501    0  0.00000000000E+00  0.00000000000E+00  0.17867460046E+04  0.17867460046E+04  0.25500000920E-02 0. -1.
       -2   -1    0    0    0  501  0.00000000000E+00  0.00000000000E+00 -0.67226815525E+03  0.67226815525E+03  0.25500000920E-02 0.  1.
    10030    2    1    2    0    0  0.00000000000E+00  0.00000000000E+00  0.11144778493E+04  0.24590141598E+04  0.21919602555E+04 0.  0.
        5    1    3    3  502    0 -0.14785427299E+02 -0.91922310634E+03 -0.11207418725E+03  0.92616005179E+03  0.46999998093E+01 0.  1.
       -5    1    3    3    0  502  0.14785427299E+02  0.91922310634E+03  0.12265520366E+04  0.15328541080E+04  0.46999998093E+01 0. -1.
</event>
<event>
 5   0  0.6628798E-05  0.2199363E+04  0.7818609E-02  0.8518693E-01
        2   -1    0    0  501    0  0.00000000000E+00  0.00000000000E+00  0.16905558294E+04  0.16905558294E+04  0.25500000920E-02 0. -1.
       -2   -1    0    0    0  501  0.00000000000E+00  0.00000000000E+00 -0.71532661044E+03  0.71532661044E+03  0.25500000920E-02 0.  1.
    10030    2    1    2    0    0  0.00000000000E+00  0.00000000000E+00  0.97522921899E+03  0.24058824399E+04  0.21993631544E+04 0.  0.
        4    1    3    3  502    0  0.84354545075E+03  0.14162279556E+03  0.12436504015E+04  0.15094018278E+04  0.12699999809E+01 0. -1.
       -4    1    3    3    0  502 -0.84354545075E+03 -0.14162279556E+03 -0.26842118251E+03  0.89648061207E+03  0.12699999809E+01 0.  1.
</event>
<event>
 5   0  0.2908031E-05  0.2201541E+04  0.7818609E-02  0.8517787E-01
       -1   -1    0    0    0  501  0.00000000000E+00  0.00000000000E+00  0.71143127082E+03  0.71143127084E+03  0.50400001928E-02 0. -1.
        1   -1    0    0  501    0  0.00000000000E+00  0.00000000000E+00 -0.17031801506E+04  0.17031801506E+04  0.50400001928E-02 0.  1.
    10030    2    1    2    0    0  0.00000000000E+00  0.00000000000E+00 -0.99174887976E+03  0.24146114214E+04  0.22015409322E+04 0.  0.
        1    1    3    3  502    0 -0.80433843020E+03 -0.70147810051E+03 -0.79152553274E+03  0.13287379368E+04  0.50400001928E-02 0.  1.
       -1    1    3    3    0  502  0.80433843020E+03  0.70147810051E+03 -0.20022334702E+03  0.10858734846E+04  0.50400001928E-02 0. -1.
</event>
<event>
 5   0  0.6306919E-05  0.2255863E+04  0.7818609E-02  0.8495530E-01
       -2   -1    0    0    0  501  0.00000000000E+00  0.00000000000E+00  0.86009352265E+03  0.86009352266E+03  0.25500000920E-02 0. -1.
        2   -1    0    0  501    0  0.00000000000E+00  0.00000000000E+00 -0.14791750998E+04  0.14791750998E+04  0.25500000920E-02 0.  1.
    10030    2    1    2    0    0  0.00000000000E+00  0.00000000000E+00 -0.61908157717E+03  0.23392686225E+04  0.22558625155E+04 0.  0.
        3    1    3    3  502    0  0.36216707552E+03  0.19824493476E+03 -0.13979984316E+04  0.14576918981E+04  0.10100000352E+00 0.  1.
       -3    1    3    3    0  502 -0.36216707552E+03 -0.19824493476E+03  0.77891685442E+03  0.88157672442E+03  0.10100000352E+00 0. -1.
</event>
<event>
 5   0  0.6293013E-05  0.2198558E+04  0.7818609E-02  0.8519028E-01
        2   -1    0    0  501    0  0.00000000000E+00  0.00000000000E+00  0.10721609140E+04  0.10721609140E+04  0.25500000920E-02 0. -1.
       -2   -1    0    0    0  501  0.00000000000E+00  0.00000000000E+00 -0.11270832147E+04  0.11270832147E+04  0.25500000920E-02 0.  1.
    10030    2    1    2    0    0  0.00000000000E+00  0.00000000000E+00 -0.54922300699E+02  0.21992441287E+04  0.21985582272E+04 0.  0.
        1    1    3    3  502    0 -0.16959710058E+03 -0.44998850856E+03  0.96136215843E+03  0.10749279204E+04  0.50400001928E-02 0. -1.
       -1    1    3    3    0  502  0.16959710058E+03  0.44998850856E+03 -0.10162844591E+04  0.11243162083E+04  0.50400001928E-02 0.  1.
</event>
<event>
 5   0  0.2753631E-05  0.2201818E+04  0.7818609E-02  0.8517672E-01
       -1   -1    0    0    0  501  0.00000000000E+00  0.00000000000E+00  0.55159927844E+03  0.55159927847E+03  0.50400001928E-02 0. -1.
        1   -1    0    0  501    0  0.00000000000E+00  0.00000000000E+00 -0.21972485723E+04  0.21972485723E+04  0.50400001928E-02 0.  1.
    10030    2    1    2    0    0  0.00000000000E+00  0.00000000000E+00 -0.16456492939E+04  0.27488478508E+04  0.22018180916E+04 0.  0.
        4    1    3    3  502    0  0.79038069398E+03  0.64122539291E+03 -0.29888313069E+03  0.10607565152E+04  0.12699999809E+01 0. -1.
       -4    1    3    3    0  502 -0.79038069398E+03 -0.64122539291E+03 -0.13467661632E+04  0.16880913355E+04  0.12699999809E+01 0.  1.
</event>
<event>
 5   0  0.6306919E-05  0.2202714E+04  0.7818609E-02  0.8517299E-01
        2   -1    0    0  501    0  0.00000000000E+00  0.00000000000E+00  0.68631785335E+03  0.68631785335E+03  0.25500000920E-02 0. -1.
       -2   -1    0    0    0  501  0.00000000000E+00  0.00000000000E+00 -0.17673847493E+04  0.17673847493E+04  0.25500000920E-02 0.  1.
    10030    2    1    2    0    0  0.00000000000E+00  0.00000000000E+00 -0.10810668960E+04  0.24537026027E+04  0.22027144229E+04 0.  0.
        3    1    3    3  502    0  0.38976982150E+03  0.73535841552E+03 -0.13440539789E+04  0.15808711590E+04  0.10100000352E+00 0.  1.
       -3    1    3    3    0  502 -0.38976982150E+03 -0.73535841552E+03  0.26298708294E+03  0.87283144365E+03  0.10100000352E+00 0. -1.
</event>
<event>
 5   0  0.6293013E-05  0.2196330E+04  0.7818609E-02  0.8519957E-01
       -2   -1    0    0    0  501  0.00000000000E+00  0.00000000000E+00  0.57478055793E+03  0.57478055794E+03  0.25500000920E-02 0. -1.
        2   -1    0    0  501    0  0.00000000000E+00  0.00000000000E+00 -0.20981342581E+04  0.20981342581E+04  0.25500000920E-02 0.  1.
    10030    2    1    2    0    0  0.00000000000E+00  0.00000000000E+00 -0.15233537002E+04  0.26729148160E+04  0.21963303754E+04 0.  0.
        1    1    3    3  502    0 -0.30278677190E+03 -0.75258685437E+02 -0.20430611790E+04  0.20667468834E+04  0.50400001928E-02 0.  1.
       -1    1    3    3    0  502  0.30278677190E+03  0.75258685437E+02  0.51970747883E+03  0.60616793263E+03  0.50400001928E-02 0. -1.
</event>
<event>
 5   0  0.2929471E-05  0.2150294E+04  0.7818609E-02  0.8539407E-01
        1   -1    0    0  501    0  0.00000000000E+00  0.00000000000E+00  0.11929027555E+04  0.11929027555E+04  0.50400001928E-02 0. -1.
       -1   -1    0    0    0  501  0.00000000000E+00  0.00000000000E+00 -0.96901505366E+03  0.96901505368E+03  0.50400001928E-02 0.  1.
    10030    2    1    2    0    0  0.00000000000E+00  0.00000000000E+00  0.22388770181E+03  0.21619178092E+04  0.21502936801E+04 0.  0.
        2    1    3    3  502    0  0.28116321950E+03  0.43809602968E+03 -0.83386458229E+03  0.98301120483E+03  0.25500000920E-02 0.  1.
       -2    1    3    3    0  502 -0.28116321950E+03 -0.43809602968E+03  0.10577522841E+04  0.11789066043E+04  0.25500000920E-02 0. -1.
</event>
<event>
 5   0  0.6445740E-05  0.2148334E+04  0.7818609E-02  0.8540246E-01
       -2   -1    0    0    0  501  0.00000000000E+00  0.00000000000E+00  0.10696997028E+04  0.10696997028E+04  0.25500000920E-02 0. -1.
        2   -1    0    0  501    0  0.00000000000E+00  0.00000000000E+00 -0.10786532339E+04  0.10786532339E+04  0.25500000920E-02 0.  1.
    10030    2    1    2    0    0  0.00000000000E+00  0.00000000000E+00 -0.89535311716E+01  0.21483529367E+04  0.21483342791E+04 0.  0.
        5    1    3    3  502    0 -0.10107473185E+04  0.16837217551E+03 -0.32674284545E+03  0.10755195528E+04  0.46999998093E+01 0. -1.
       -5    1    3    3    0  502  0.10107473185E+04 -0.16837217551E+03  0.31778931428E+03  0.10728333839E+04  0.46999998093E+01 0.  1.
</event>
<event>
 5   0  0.2908031E-05  0.2205364E+04  0.7818609E-02  0.8516199E-01
       -1   -1    0    0    0  501  0.00000000000E+00  0.00000000000E+00  0.81682279380E+03  0.81682279381E+03  0.50400001928E-02 0. -1.
        1   -1    0    0  501    0  0.00000000000E+00  0.00000000000E+00 -0.14885814284E+04  0.14885814284E+04  0.50400001928E-02 0.  1.
    10030    2    1    2    0    0  0.00000000000E+00  0.00000000000E+00 -0.67175863464E+03  0.23054042223E+04  0.22053636808E+04 0.  0.
        1    1    3    3  502    0 -0.71402515064E+03  0.27349096308E+02  0.54205541187E+03  0.89688569972E+03  0.50400001928E-02 0. -1.
       -1    1    3    3    0  502  0.71402515064E+03 -0.27349096308E+02 -0.12138140465E+04  0.14085185225E+04  0.50400001928E-02 0.  1.
</event>
<event>
 5   0  0.6293013E-05  0.2193284E+04  0.7818609E-02  0.8521229E-01
       -2   -1    0    0    0  501  0.00000000000E+00  0.00000000000E+00  0.88959691491E+03  0.88959691492E+03  0.25500000920E-02 0.  1.
        2   -1    0    0  501    0  0.00000000000E+00  0.00000000000E+00 -0.13518742749E+04  0.13518742749E+04  0.25500000920E-02 0. -1.
    10030    2    1    2    0    0  0.00000000000E+00  0.00000000000E+00 -0.46227735996E+03  0.22414711898E+04  0.21932835515E+04 0.  0.
        1    1    3    3  502    0 -0.28022096932E+02  0.96600120393E+03  0.29859275154E+03  0.10114846490E+04  0.50400001928E-02 0.  1.
       -1    1    3    3    0  502  0.28022096932E+02 -0.96600120393E+03 -0.76087011150E+03  0.12299865408E+04  0.50400001928E-02 0. -1.
</event>
<event>
 5   0  0.6414768E-05  0.2199941E+04  0.7818609E-02  0.8518452E-01
       -2   -1    0    0    0  501  0.00000000000E+00  0.00000000000E+00  0.81808879866E+03  0.81808879866E+03  0.25500000920E-02 0. -1.
        2   -1    0    0  501    0  0.00000000000E+00  0.00000000000E+00 -0.14789782773E+04  0.14789782773E+04  0.25500000920E-02 0.  1.
    10030    2    1    2    0    0  0.00000000000E+00  0.00000000000E+00 -0.66088947860E+03  0.22970670759E+04  0.21999414193E+04 0.  0.
        2    1    3    3  502    0  0.50600075468E+03  0.29737488550E+03  0.64093224930E+03  0.86905853340E+03  0.25500000920E-02 0. -1.
       -2    1    3    3    0  502 -0.50600075468E+03 -0.29737488550E+03 -0.13018217279E+04  0.14280085425E+04  0.25500000920E-02 0.  1.
</event>
<event>
 5   0  0.2910318E-05  0.2162160E+04  0.7818609E-02  0.8534345E-01
        1   -1    0    0  501    0  0.00000000000E+00  0.00000000000E+00  0.20117279144E+04  0.20117279144E+04  0.50400001928E-02 0.  1.
       -1   -1    0    0    0  501  0.00000000000E+00  0.00000000000E+00 -0.58096000908E+03  0.58096000910E+03  0.50400001928E-02 0. -1.
    10030    2    1    2    0    0  0.00000000000E+00  0.00000000000E+00  0.14307679054E+04  0.25926879235E+04  0.21621595385E+04 0.  0.
        5    1    3    3  502    0 -0.50187387817E+03  0.86260711399E+03  0.21700157140E+03  0.10213129759E+04  0.46999998093E+01 0. -1.
       -5    1    3    3    0  502  0.50187387817E+03 -0.86260711399E+03  0.12137663340E+04  0.15713749477E+04  0.46999998093E+01 0.  1.
</event>
<event>
 5   0  0.2820239E-05  0.2183584E+04  0.7818609E-02  0.8525292E-01
       -1   -1    0    0    0  501  0.00000000000E+00  0.00000000000E+00  0.57736541987E+03  0.57736541990E+03  0.50400001928E-02 0. -1.
        1   -1    0    0  501    0  0.00000000000E+00  0.00000000000E+00 -0.20645670989E+04  0.20645670989E+04  0.50400001928E-02 0.  1.
    10030    2    1    2    0    0  0.00000000000E+00  0.00000000000E+00 -0.14872016790E+04  0.26419325188E+04  0.21835838889E+04 0.  0.
        3    1    3    3  502    0 -0.10308044130E+04  0.25893360853E+03 -0.44135346580E+03  0.11508245928E+04  0.10100000352E+00 0.  1.
       -3    1    3    3    0  502  0.10308044130E+04 -0.25893360853E+03 -0.10458482132E+04  0.14911079259E+04  0.10100000352E+00 0. -1.
</event>
<event>
 5   0  0.6306919E-05  0.2191728E+04  0.7818609E-02  0.8521879E-01
        2   -1    0    0  501    0  0.00000000000E+00  0.00000000000E+00  0.13310996631E+04  0.13310996631E+04  0.25500000920E-02 0. -1.
       -2   -1    0    0    0  501  0.00000000000E+00  0.00000000000E+00 -0.90219998611E+03  0.90219998612E+03  0.25500000920E-02 0.  1.
    10030    2    1    2    0    0  0.00000000000E+00  0.00000000000E+00  0.42889967694E+03  0.22332996492E+04  0.21917281743E+04 0.  0.
        3    1    3    3  502    0  0.67746417551E+03 -0.83150187962E+03  0.44358161557E+03  0.11606540160E+04  0.10100000352E+00 0. -1.
       -3    1    3    3    0  502 -0.67746417551E+03  0.83150187962E+03 -0.14681938628E+02  0.10726456332E+04  0.10100000352E+00 0.  1.
</event>
<event>
 5   0  0.6445740E-05  0.2196987E+04  0.7818609E-02  0.8519683E-01
       -2   -1    0    0    0  501  0.00000000000E+00  0.00000000000E+00  0.10762026700E+04  0.10762026700E+04  0.25500000920E-02 0.  1.
        2   -1    0    0  501    0  0.00000000000E+00  0.00000000000E+00 -0.11212463806E+04  0.11212463806E+04  0.25500000920E-02 0. -1.
    10030    2    1    2    0    0  0.00000000000E+00  0.00000000000E+00 -0.45043710668E+02  0.21974490506E+04  0.21969873450E+04 0.  0.
        5    1    3    3  502    0 -0.49137130375E+02  0.85048275152E+03  0.67111569458E+03  0.10845062165E+04  0.46999998093E+01 0. -1.
       -5    1    3    3    0  502  0.49137130375E+02 -0.85048275152E+03 -0.71615940525E+03  0.11129428341E+04  0.46999998093E+01 0.  1.
</event>
<event>
 5   0  0.2910318E-05  0.2202982E+04  0.7818609E-02  0.8517188E-01
        1   -1    0    0  501    0  0.00000000000E+00  0.00000000000E+00  0.14602329646E+04  0.14602329646E+04  0.50400001928E-02 0.  1.
       -1   -1    0    0    0  501  0.00000000000E+00  0.00000000000E+00 -0.83088257735E+03  0.83088257736E+03  0.50400001928E-02 0. -1.
    10030    2    1    2    0    0  0.00000000000E+00  0.00000000000E+00  0.62935038723E+03  0.22911155419E+04  0.22029817332E+04 0.  0.
        5    1    3    3  502    0  0.24051168687E+03  0.46737812844E+03  0.13213735687E+04  0.14220894433E+04  0.46999998093E+01 0.  1.
       -5    1    3    3    0  502 -0.24051168687E+03 -0.46737812844E+03 -0.69202318151E+03  0.86902609869E+03  0.46999998093E+01 0. -1.
</event>
<event>
 5   0  0.6293013E-05  0.2213500E+04  0.7818609E-02  0.8512830E-01
        2   -1    0    0  501    0  0.00000000000E+00  0.00000000000E+00  0.23372457372E+04  0.23372457372E+04  0.25500000920E-02 0.  1.
       -2   -1    0    0    0  501  0.00000000000E+00  0.00000000000E+00 -0.52407665107E+03  0.52407665107E+03  0.25500000920E-02 0. -1.
    10030    2    1    2    0    0  0.00000000000E+00  0.00000000000E+00  0.18131690862E+04  0.28613223883E+04  0.22135003219E+04 0.  0.
        1    1    3    3  502    0 -0.89972776448E+03  0.30505107111E+03  0.16404853648E+04  0.18957210866E+04  0.50400001928E-02 0.  1.
       -1    1    3    3    0  502  0.89972776448E+03 -0.30505107111E+03  0.17268372137E+03  0.96560130168E+03  0.50400001928E-02 0. -1.
</event>
<event>
 5   0  0.2908031E-05  0.2189320E+04  0.7818609E-02  0.8522887E-01
       -1   -1    0    0    0  501  0.00000000000E+00  0.00000000000E+00  0.70571721616E+03  0.70571721618E+03  0.50400001928E-02 0. -1.
        1   -1    0    0  501    0  0.00000000000E+00  0.00000000000E+00 -0.16979611545E+04  0.16979611545E+04  0.50400001928E-02 0.  1.
    10030    2    1    2    0    0  0.00000000000E+00  0.00000000000E+00 -0.99224393836E+03  0.24036783707E+04  0.21893199119E+04 0.  0.
        1    1    3    3  502    0  0.93634057138E+03  0.13858394284E+03 -0.10998145334E+04  0.14510448589E+04  0.50400001928E-02 0.  1.
       -1    1    3    3    0  502 -0.93634057138E+03 -0.13858394284E+03  0.10757059500E+03  0.95263351178E+03  0.50400001928E-02 0. -1.
</event>
<event>
 5   0  0.6306919E-05  0.2240990E+04  0.7818609E-02  0.8501558E-01
       -2   -1    0    0    0  501  0.00000000000E+00  0.00000000000E+00  0.93908399182E+03  0.93908399182E+03  0.25500000920E-02 0.  1.
        2   -1    0    0  501    0  0.00000000000E+00  0.00000000000E+00 -0.13369503116E+04  0.13369503116E+04  0.25500000920E-02 0. -1.
    10030    2    1    2    0    0  0.00000000000E+00  0.00000000000E+00 -0.39786631980E+03  0.22760343034E+04  0.22409896345E+04 0.  0.
        3    1    3    3  502    0 -0.87670200982E+03 -0.25326072931E+03  0.46143560602E+03  0.10225801874E+04  0.10100000352E+00 0.  1.
       -3    1    3    3    0  502  0.87670200982E+03  0.25326072931E+03 -0.85930192581E+03  0.12534541160E+04  0.10100000352E+00 0. -1.
</event>
<event>
 5   0  0.6628798E-05  0.2193620E+04  0.7818609E-02  0.8521088E-01
       -2   -1    0    0    0  501  0.00000000000E+00  0.00000000000E+00  0.90872031578E+03  0.90872031578E+03  0.25500000920E-02 0. -1.
        2   -1    0    0  501    0  0.00000000000E+00  0.00000000000E+00 -0.13238308185E+04  0.13238308185E+04  0.25500000920E-02 0.  1.
    10030    2    1    2    0    0  0.00000000000E+00  0.00000000000E+00 -0.41511050273E+03  0.22325511343E+04  0.21936198025E+04 0.  0.
        4    1    3    3  502    0  0.80285241287E+03  0.28443823189E+03  0.49573203498E+03  0.98550949666E+03  0.12699999809E+01 0. -1.
       -4    1    3    3    0  502 -0.80285241287E+03 -0.28443823189E+03 -0.91084253771E+03  0.12470416376E+04  0.12699999809E+01 0.  1.
</event>
<event>
 5   0  0.6414768E-05  0.2187212E+04  0.7818609E-02  0.8523769E-01
       -2   -1    0    0    0  501  0.00000000000E+00  0.00000000000E+00  0.81070631900E+03  0.81070631900E+03  0.25500000920E-02 0.  1.
        2   -1    0    0  501    0  0.00000000000E+00  0.00000000000E+00 -0.14752254046E+04  0.14752254046E+04  0.25500000920E-02 0. -1.
    10030    2    1    2    0    0  0.00000000000E+00  0.00000000000E+00 -0.66451908555E+03  0.22859317236E+04  0.21872124336E+04 0.  0.
        2    1    3    3  502    0 -0.98243882532E+03  0.12402793791E+03  0.15280638063E+03  0.10019574666E+04  0.25500000920E-02 0.  1.
       -2    1    3    3    0  502  0.98243882532E+03 -0.12402793791E+03 -0.81732546618E+03  0.12839742570E+04  0.25500000920E-02 0. -1.
</event>
<event>
 5   0  0.6414768E-05  0.2199578E+04  0.7818609E-02  0.8518604E-01
        2   -1    0    0  501    0  0.00000000000E+00  0.00000000000E+00  0.96375515600E+03  0.96375515600E+03  0.25500000920E-02 0.  1.
       -2   -1    0    0    0  501  0.00000000000E+00  0.00000000000E+00 -0.12550241210E+04  0.12550241210E+04  0.25500000920E-02 0. -1.
    10030    2    1    2    0    0  0.00000000000E+00  0.00000000000E+00 -0.29126896500E+03  0.22187792770E+04  0.21995781118E+04 0.  0.
        2    1    3    3  502    0  0.14110006411E+03  0.10000316914E+04  0.29355497403E+03  0.10517352969E+04  0.25500000920E-02 0. -1.
       -2    1    3    3    0  502 -0.14110006411E+03 -0.10000316914E+04 -0.58482393903E+03  0.11670439801E+04  0.25500000920E-02 0.  1.
</event>
<event>
 5   0  0.6293013E-05  0.2188998E+04  0.7818609E-02  0.8523021E-01
       -2   -1    0    0    0  501  0.00000000000E+00  0.00000000000E+00  0.90111454082E+03  0.90111454082E+03  0.25500000920E-02 0.  1.
        2   -1    0    0  501    0  0.00000000000E+00  0.00000000000E+00 -0.13293853379E+04  0.13293853379E+04  0.25500000920E-02 0. -1.
    10030    2    1    2    0    0  0.00000000000E+00  0.00000000000E+00 -0.42827079706E+03  0.22304998787E+04  0.21889983630E+04 0.  0.
        1    1    3    3  502    0  0.91646353932E+03 -0.55547091772E+03  0.12511668285E+02  0.10717321966E+04  0.50400001928E-02 0.  1.
       -1    1    3    3    0  502 -0.91646353932E+03  0.55547091772E+03 -0.44078246534E+03  0.11587676821E+04  0.50400001928E-02 0. -1.
</event>
<event>
 5   0  0.2910318E-05  0.2179686E+04  0.7818609E-02  0.8526931E-01
        1   -1    0    0  501    0  0.00000000000E+00  0.00000000000E+00  0.15675205971E+04  0.15675205971E+04  0.50400001928E-02 0.  1.
       -1   -1    0    0    0  501  0.00000000000E+00  0.00000000000E+00 -0.75773049468E+03  0.75773049469E+03  0.50400001928E-02 0. -1.
    10030    2    1    2    0    0  0.00000000000E+00  0.00000000000E+00  0.80979010245E+03  0.23252510918E+04  0.21796863605E+04 0.  0.
        5    1    3    3  502    0  0.16509022612E+02  0.76671842120E+03  0.12309500694E+04  0.14503068119E+04  0.46999998093E+01 0.  1.
       -5    1    3    3    0  502 -0.16509022612E+02 -0.76671842120E+03 -0.42115996695E+03  0.87494427994E+03  0.46999998093E+01 0. -1.
</event>
<event>
 5   0  0.2908031E-05  0.2025925E+04  0.7818609E-02  0.8594595E-01
        1   -1    0    0  501    0  0.00000000000E+00  0.00000000000E+00  0.14998543708E+04  0.14998543708E+04  0.50400001928E-02 0.  1.
       -1   -1    0    0    0  501  0.00000000000E+00  0.00000000000E+00 -0.68412815517E+03  0.68412815519E+03  0.50400001928E-02 0. -1.
    10030    2    1    2    0    0  0.00000000000E+00  0.00000000000E+00  0.81572621558E+03  0.21839825260E+04  0.20259245827E+04 0.  0.
        1    1    3    3  502    0 -0.48374066851E+03 -0.38256473455E+03  0.12741305056E+04  0.14155456036E+04  0.50400001928E-02 0.  1.
       -1    1    3    3    0  502  0.48374066851E+03  0.38256473455E+03 -0.45840429003E+03  0.76843692236E+03  0.50400001928E-02 0. -1.
</event>
<event>
 5   0  0.6293013E-05  0.2213070E+04  0.7818609E-02  0.8513008E-01
       -2   -1    0    0    0  501  0.00000000000E+00  0.00000000000E+00  0.18188541578E+04  0.18188541578E+04  0.25500000920E-02 0.  1.
        2   -1    0    0  501    0  0.00000000000E+00  0.00000000000E+00 -0.67318200299E+03  0.67318200300E+03  0.25500000920E-02 0. -1.
    10030    2    1    2    0    0  0.00000000000E+00  0.00000000000E+00  0.11456721548E+04  0.24920361608E+04  0.22130701616E+04 0.  0.
        1    1    3    3  502    0  0.15116818335E+03  0.46947506578E+01  0.18071606151E+04  0.18134782461E+04  0.50400001928E-02 0.  1.
       -1    1    3    3    0  502 -0.15116818335E+03 -0.46947506578E+01 -0.66148846033E+03  0.67855791464E+03  0.50400001928E-02 0. -1.
</event>
<event>
 5   0  0.2929471E-05  0.2213888E+04  0.7818609E-02  0.8512670E-01
       -1   -1    0    0    0  501  0.00000000000E+00  0.00000000000E+00  0.60854029923E+03  0.60854029925E+03  0.50400001928E-02 0. -1.
        1   -1    0    0  501    0  0.00000000000E+00  0.00000000000E+00 -0.20135480141E+04  0.20135480141E+04  0.50400001928E-02 0.  1.
    10030    2    1    2    0    0  0.00000000000E+00  0.00000000000E+00 -0.14050077148E+04  0.26220883133E+04  0.22138880830E+04 0.  0.
        2    1    3    3  502    0 -0.96159809148E+03  0.54747927420E+03 -0.66656678800E+03  0.12917878030E+04  0.25500000920E-02 0.  1.
       -2    1    3    3    0  502  0.96159809148E+03 -0.54747927420E+03 -0.73844092684E+03  0.13303005103E+04  0.25500000920E-02 0. -1.
</event>
<event>
 5   0  0.2820239E-05  0.2206935E+04  0.7818609E-02  0.8515547E-01
        1   -1    0    0  501    0  0.00000000000E+00  0.00000000000E+00  0.15180129200E+04  0.15180129200E+04  0.50400001928E-02 0.  1.
       -1   -1    0    0    0  501  0.00000000000E+00  0.00000000000E+00 -0.80212817223E+03  0.80212817225E+03  0.50400001928E-02 0. -1.
    10030    2    1    2    0    0  0.00000000000E+00  0.00000000000E+00  0.71588474774E+03  0.23201410922E+04  0.22069353674E+04 0.  0.
        3    1    3    3  502    0 -0.40561239975E+03  0.61390416341E+03 -0.50657870688E+03  0.89332062393E+03  0.10100000352E+00 0.  1.
       -3    1    3    3    0  502  0.40561239975E+03 -0.61390416341E+03  0.12224634546E+04  0.14268204683E+04  0.10100000352E+00 0. -1.
</event>
<event>
 5   0  0.2753631E-05  0.2197125E+04  0.7818609E-02  0.8519626E-01
       -1   -1    0    0    0  501  0.00000000000E+00  0.00000000000E+00  0.74856523906E+03  0.74856523907E+03  0.50400001928E-02 0. -1.
        1   -1    0    0  501    0  0.00000000000E+00  0.00000000000E+00 -0.16122034005E+04  0.16122034005E+04  0.50400001928E-02 0.  1.
    10030    2    1    2    0    0  0.00000000000E+00  0.00000000000E+00 -0.86363816148E+03  0.23607686396E+04  0.21971248703E+04 0.  0.
        4    1    3    3  502    0  0.38891185421E+03  0.20802319394E+03  0.64925591389E+03  0.78489549252E+03  0.12699999809E+01 0. -1.
       -4    1    3    3    0  502 -0.38891185421E+03 -0.20802319394E+03 -0.15128940754E+04  0.15758731471E+04  0.12699999809E+01 0.  1.
</event>
<event>
 5   0  0.6293013E-05  0.2192057E+04  0.7818609E-02  0.8521741E-01
        2   -1    0    0  501    0  0.00000000000E+00  0.00000000000E+00  0.94374481655E+03  0.94374481655E+03  0.25500000920E-02 0. -1.
       -2   -1    0    0    0  501  0.00000000000E+00  0.00000000000E+00 -0.12728853963E+04  0.12728853963E+04  0.25500000920E-02 0.  1.
    10030    2    1    2    0    0  0.00000000000E+00  0.00000000000E+00 -0.32914057979E+03  0.22166302129E+04  0.21920574763E+04 0.  0.
        1    1    3    3  502    0  0.41308686543E+02 -0.10900492484E+04 -0.56767426564E+02  0.10923077920E+04  0.50400001928E-02 0. -1.
       -1    1    3    3    0  502 -0.41308686543E+02  0.10900492484E+04 -0.27237315323E+03  0.11243224209E+04  0.50400001928E-02 0.  1.
</event>
<event>
 5   0  0.2929471E-05  0.2199824E+04  0.7818609E-02  0.8518501E-01
        1   -1    0    0  501    0  0.00000000000E+00  0.00000000000E+00  0.73055826899E+03  0.73055826901E+03  0.50400001928E-02 0.  1.
       -1   -1    0    0    0  501  0.00000000000E+00  0.00000000000E+00 -0.16560029436E+04  0.16560029436E+04  0.50400001928E-02 0. -1.
    10030    2    1    2    0    0  0.00000000000E+00  0.00000000000E+00 -0.92544467459E+03  0.23865612126E+04  0.21998242147E+04 0.  0.
        2    1    3    3  502    0 -0.41024222558E+03 -0.37224909325E+03  0.56817092890E+03  0.79352774087E+03  0.25500000920E-02 0. -1.
       -2    1    3    3    0  502  0.41024222558E+03  0.37224909325E+03 -0.14936156035E+04  0.15930334717E+04  0.25500000920E-02 0.  1.
</event>
<event>
 5   0  0.2820239E-05  0.2197530E+04  0.7818609E-02  0.8519457E-01
       -1   -1    0    0    0  501  0.00000000000E+00  0.00000000000E+00  0.69077928852E+03  0.69077928853E+03  0.50400001928E-02 0.  1.
        1   -1    0    0  501    0  0.00000000000E+00  0.00000000000E+00 -0.17477132214E+04  0.17477132214E+04  0.50400001928E-02 0. -1.
    10030    2    1    2    0    0  0.00000000000E+00  0.00000000000E+00 -0.10569339329E+04  0.24384925099E+04  0.21975296090E+04 0.  0.
        3    1    3    3  502    0  0.69562016925E+03 -0.77946347204E+02 -0.14682843484E+04  0.16265982881E+04  0.10100000352E+00 0. -1.
       -3    1    3    3    0  502 -0.69562016925E+03  0.77946347204E+02  0.41135041551E+03  0.81189422184E+03  0.10100000352E+00 0.  1.
</event>
<event>
 5   0  0.2910318E-05  0.2195476E+04  0.7818609E-02  0.8520313E-01
       -1   -1    0    0    0  501  0.00000000000E+00  0.00000000000E+00  0.12005800015E+04  0.12005800016E+04  0.50400001928E-02 0.  1.
        1   -1    0    0  501    0  0.00000000000E+00  0.00000000000E+00 -0.10037055450E+04  0.10037055450E+04  0.50400001928E-02 0. -1.
    10030    2    1    2    0    0  0.00000000000E+00  0.00000000000E+00  0.19687445659E+03  0.22042855465E+04  0.21954760802E+04 0.  0.
        5    1    3    3  502    0  0.31916011568E+03  0.79885881623E+03  0.78305904558E+03  0.11632893649E+04  0.46999998093E+01 0.  1.
       -5    1    3    3    0  502 -0.31916011568E+03 -0.79885881623E+03 -0.58618458899E+03  0.10409961816E+04  0.46999998093E+01 0. -1.
</event>
<event>
 5   0  0.6293013E-05  0.2202160E+04  0.7818609E-02  0.8517530E-01
       -2   -1    0    0    0  501  0.00000000000E+00  0.00000000000E+00  0.63206250458E+03  0.63206250459E+03  0.25500000920E-02 0.  1.
        2   -1    0    0  501    0  0.00000000000E+00  0.00000000000E+00 -0.19181282322E+04  0.19181282322E+04  0.25500000920E-02 0. -1.
    10030    2    1    2    0    0  0.00000000000E+00  0.00000000000E+00 -0.12860657276E+04  0.25501907367E+04  0.22021597894E+04 0.  0.
        1    1    3    3  502    0 -0.26266269843E+02 -0.58805015506E+03  0.43455750502E+03  0.73166462740E+03  0.50400001928E-02 0.  1.
       -1    1    3    3    0  502  0.26266269843E+02  0.58805015506E+03 -0.17206232326E+04  0.18185261093E+04  0.50400001928E-02 0. -1.
</event>
<event>
 5   0  0.2910318E-05  0.2222230E+04  0.7818609E-02  0.8509232E-01
       -1   -1    0    0    0  501  0.00000000000E+00  0.00000000000E+00  0.22754729870E+04  0.22754729870E+04  0.50400001928E-02 0.  1.
        1   -1    0    0  501    0  0.00000000000E+00  0.00000000000E+00 -0.54255834675E+03  0.54255834678E+03  0.50400001928E-02 0. -1.
    10030    2    1    2    0    0  0.00000000000E+00  0.00000000000E+00  0.17329146402E+04  0.28180313337E+04  0.22222302868E+04 0.  0.
        5    1    3    3  502    0 -0.57654246320E+03  0.14014910883E+03 -0.32483135391E+03  0.67644695509E+03  0.46999998093E+01 0.  1.
       -5    1    3    3    0  502  0.57654246320E+03 -0.14014910883E+03  0.20577459941E+04  0.21415843786E+04  0.46999998093E+01 0. -1.
</event>
<event>
 5   0  0.6414768E-05  0.2189084E+04  0.7818609E-02  0.8522985E-01
        2   -1    0    0  501    0  0.00000000000E+00  0.00000000000E+00  0.10158104124E+04  0.10158104124E+04  0.25500000920E-02 0. -1.
       -2   -1    0    0    0  501  0.00000000000E+00  0.00000000000E+00 -0.11793758780E+04  0.11793758780E+04  0.25500000920E-02 0.  1.
    10030    2    1    2    0    0  0.00000000000E+00  0.00000000000E+00 -0.16356546567E+03  0.21951862904E+04  0.21890840980E+04 0.  0.
        2    1    3    3  502    0 -0.87735757873E+03 -0.53058740824E+03  0.30235555842E+03  0.10689706275E+04  0.25500000920E-02 0.  1.
       -2    1    3    3    0  502  0.87735757873E+03  0.53058740824E+03 -0.46592102409E+03  0.11262156629E+04  0.25500000920E-02 0. -1.
</event>
<event>
 5   0  0.2929471E-05  0.2207040E+04  0.7818609E-02  0.8515504E-01
        1   -1    0    0  501    0  0.00000000000E+00  0.00000000000E+00  0.88397145748E+03  0.88397145750E+03  0.50400001928E-02 0.  1.
       -1   -1    0    0    0  501  0.00000000000E+00  0.00000000000E+00 -0.13775966058E+04  0.13775966058E+04  0.50400001928E-02 0. -1.
    10030    2    1    2    0    0  0.00000000000E+00  0.00000000000E+00 -0.49362514827E+03  0.22615680633E+04  0.22070397182E+04 0.  0.
        2    1    3    3  502    0 -0.32025899556E+03 -0.45909292235E+03  0.72769571929E+03  0.91808125755E+03  0.25500000920E-02 0.  1.
       -2    1    3    3    0  502  0.32025899556E+03  0.45909292235E+03 -0.12213208676E+04  0.13434868057E+04  0.25500000920E-02 0. -1.
</event>
<event>
 5   0  0.6445740E-05  0.2157795E+04  0.7818609E-02  0.8536203E-01
       -2   -1    0    0    0  501  0.00000000000E+00  0.00000000000E+00  0.94401862338E+03  0.94401862338E+03  0.25500000920E-02 0. -1.
        2   -1    0    0  501    0  0.00000000000E+00  0.00000000000E+00 -0.12330478143E+04  0.12330478143E+04  0.25500000920E-02 0.  1.
    10030    2    1    2    0    0  0.00000000000E+00  0.00000000000E+00 -0.28902919089E+03  0.21770664377E+04  0.21577952639E+04 0.  0.
        5    1    3    3  502    0  0.57226193627E+03  0.64228277151E+03  0.51244367297E+03  0.10013148807E+04  0.46999998093E+01 0. -1.
       -5    1    3    3    0  502 -0.57226193627E+03 -0.64228277151E+03 -0.80147286387E+03  0.11757515570E+04  0.46999998093E+01 0.  1.
</event>
<event>
 5   0  0.6628798E-05  0.2150669E+04  0.7818609E-02  0.8539246E-01
        2   -1    0    0  501    0  0.00000000000E+00  0.00000000000E+00  0.18054858985E+04  0.18054858985E+04  0.25500000920E-02 0. -1.
       -2   -1    0    0    0  501  0.00000000000E+00  0.00000000000E+00 -0.64046142799E+03  0.64046142800E+03  0.25500000920E-02 0.  1.
    10030    2    1    2    0    0  0.00000000000E+00  0.00000000000E+00  0.11650244705E+04  0.24459473265E+04  0.21506688046E+04 0.  0.
        4    1    3    3  502    0  0.22836432577E+02 -0.10493294199E+04  0.84857325364E+03  0.13497006756E+04  0.12699999809E+01 0. -1.
       -4    1    3    3    0  502 -0.22836432577E+02  0.10493294199E+04  0.31645121688E+03  0.10962466509E+04  0.12699999809E+01 0.  1.
</event>
<event>
 5   0  0.6628798E-05  0.2186744E+04  0.7818609E-02  0.8523966E-01
       -2   -1    0    0    0  501  0.00000000000E+00  0.00000000000E+00  0.88642661861E+03  0.88642661861E+03  0.25500000920E-02 0.  1.
        2   -1    0    0  501    0  0.00000000000E+00  0.00000000000E+00 -0.13486314623E+04  0.13486314624E+04  0.25500000920E-02 0. -1.
    10030    2    1    2    0    0  0.00000000000E+00  0.00000000000E+00 -0.46220484374E+03  0.22350580810E+04  0.21867444541E+04 0.  0.
        4    1    3    3  502    0  0.63578133668E+03 -0.26092064356E+02  0.67767784301E+03  0.92959538278E+03  0.12699999809E+01 0.  1.
       -4    1    3    3    0  502 -0.63578133668E+03  0.26092064356E+02 -0.11398826867E+04  0.13054626982E+04  0.12699999809E+01 0. -1.
</event>
<event>
 5   0  0.2910318E-05  0.2128846E+04  0.7818609E-02  0.8548642E-01
       -1   -1    0    0    0  501  0.00000000000E+00  0.00000000000E+00  0.87816040479E+03  0.87816040481E+03  0.50400001928E-02 0.  1.
        1   -1    0    0  501    0  0.00000000000E+00  0.00000000000E+00 -0.12901933415E+04  0.12901933415E+04  0.50400001928E-02 0. -1.
    10030    2    1    2    0    0  0.00000000000E+00  0.00000000000E+00 -0.41203293667E+03  0.21683537463E+04  0.21288463609E+04 0.  0.
        5    1    3    3  502    0 -0.46439105460E+03  0.12655586374E+03  0.76096979093E+03  0.90042909268E+03  0.46999998093E+01 0.  1.
       -5    1    3    3    0  502  0.46439105460E+03 -0.12655586374E+03 -0.11730027276E+04  0.12679246536E+04  0.46999998093E+01 0. -1.
</event>
<event>
 5   0  0.2245375E-05  0.2206274E+04  0.7818609E-02  0.8515821E-01
        3   -1    0    0  501    0  0.00000000000E+00  0.00000000000E+00  0.12929376247E+04  0.12929376286E+04  0.10100000352E+00 0. -1.
       -3   -1    0    0    0  501  0.00000000000E+00  0.00000000000E+00 -0.94119900702E+03  0.94119901244E+03  0.10100000352E+00 0.  1.
    10030    2    1    2    0    0  0.00000000000E+00  0.00000000000E+00  0.35173861765E+03  0.22341366411E+04  0.22062743428E+04 0.  0.
        2    1    3    3  502    0 -0.43481955979E+03  0.91693530341E+03  0.61385107049E+03  0.11860234133E+04  0.25500000920E-02 0. -1.
       -2    1    3    3    0  502  0.43481955979E+03 -0.91693530341E+03 -0.26211245284E+03  0.10481132277E+04  0.25500000920E-02 0.  1.
</event>
<event>
 5   0  0.2910318E-05  0.2208160E+04  0.7818609E-02  0.8515039E-01
       -1   -1    0    0    0  501  0.00000000000E+00  0.00000000000E+00  0.18709871179E+04  0.18709871179E+04  0.50400001928E-02 0. -1.
        1   -1    0    0  501    0  0.00000000000E+00  0.00000000000E+00 -0.65152388578E+03  0.65152388580E+03  0.50400001928E-02 0.  1.
    10030    2    1    2    0    0  0.00000000000E+00  0.00000000000E+00  0.12194632321E+04  0.25225110037E+04  0.22081601367E+04 0.  0.
        5    1    3    3  502    0 -0.89097207071E+03  0.95795435864E+02  0.13464978332E+04  0.16174320700E+04  0.46999998093E+01 0. -1.
       -5    1    3    3    0  502  0.89097207071E+03 -0.95795435864E+02 -0.12703460108E+03  0.90507893368E+03  0.46999998093E+01 0.  1.
</event>
<event>
 5   0  0.6293013E-05  0.2214740E+04  0.7818609E-02  0.8512318E-01
        2   -1    0    0  501    0  0.00000000000E+00  0.00000000000E+00  0.17859555130E+04  0.17859555130E+04  0.25500000920E-02 0. -1.
       -2   -1    0    0    0  501  0.00000000000E+00  0.00000000000E+00 -0.68661748498E+03  0.68661748499E+03  0.25500000920E-02 0.  1.
    10030    2    1    2    0    0  0.00000000000E+00  0.00000000000E+00  0.10993380280E+04  0.24725729980E+04  0.22147399691E+04 0.  0.
        1    1    3    3  502    0  0.76733876059E+03  0.44409490779E+03  0.12904174530E+04  0.15656328637E+04  0.50400001928E-02 0. -1.
       -1    1    3    3    0  502 -0.76733876059E+03 -0.44409490779E+03 -0.19107942500E+03  0.90694013436E+03  0.50400001928E-02 0.  1.
</event>
<event>
 5   0  0.6445740E-05  0.2132596E+04  0.7818609E-02  0.8547019E-01
       -2   -1    0    0    0  501  0.00000000000E+00  0.00000000000E+00  0.88145965936E+03  0.88145965936E+03  0.25500000920E-02 0.  1.
        2   -1    0    0  501    0  0.00000000000E+00  0.00000000000E+00 -0.12898962752E+04  0.12898962752E+04  0.25500000920E-02 0. -1.
    10030    2    1    2    0    0  0.00000000000E+00  0.00000000000E+00 -0.40843661588E+03  0.21713559346E+04  0.21325961000E+04 0.  0.
        5    1    3    3  502    0  0.10327831213E+04  0.10808370112E+02  0.65572397145E+02  0.10349297685E+04  0.46999998093E+01 0. -1.
       -5    1    3    3    0  502 -0.10327831213E+04 -0.10808370112E+02 -0.47400901302E+03  0.11364261661E+04  0.46999998093E+01 0.  1.
</event>
<event>
 5   0  0.2820239E-05  0.2196542E+04  0.7818609E-02  0.8519869E-01
       -1   -1    0    0    0  501  0.00000000000E+00  0.00000000000E+00  0.90671451775E+03  0.90671451776E+03  0.50400001928E-02 0. -1.
        1   -1    0    0  501    0  0.00000000000E+00  0.00000000000E+00 -0.13302961696E+04  0.13302961696E+04  0.50400001928E-02 0.  1.
    10030    2    1    2    0    0  0.00000000000E+00  0.00000000000E+00 -0.42358165185E+03  0.22370106874E+04  0.21965416909E+04 0.  0.
        3    1    3    3  502    0  0.25946414987E+03  0.10648789889E+04 -0.14042892301E+03  0.11049928500E+04  0.10100000352E+00 0. -1.
       -3    1    3    3    0  502 -0.25946414987E+03 -0.10648789889E+04 -0.28315272885E+03  0.11320178373E+04  0.10100000352E+00 0.  1.
</event>
<event>
 5   0  0.6628798E-05  0.2178231E+04  0.7818609E-02  0.8527544E-01
       -2   -1    0    0    0  501  0.00000000000E+00  0.00000000000E+00  0.49452548929E+03  0.49452548930E+03  0.25500000920E-02 0. -1.
        2   -1    0    0  501    0  0.00000000000E+00  0.00000000000E+00 -0.23986075505E+04  0.23986075505E+04  0.25500000920E-02 0.  1.
    10030    2    1    2    0    0  0.00000000000E+00  0.00000000000E+00 -0.19040820612E+04  0.28931330398E+04  0.21782310002E+04 0.  0.
        4    1    3    3  502    0 -0.39633822700E+03 -0.96120015870E+03 -0.52128280295E+03  0.11630679726E+04  0.12699999809E+01 0.  1.
       -4    1    3    3    0  502  0.39633822700E+03  0.96120015870E+03 -0.13827992582E+04  0.17300650672E+04  0.12699999809E+01 0. -1.
</event>
<event>
 5   0  0.6293013E-05  0.2180169E+04  0.7818609E-02  0.8526728E-01
       -2   -1    0    0    0  501  0.00000000000E+00  0.00000000000E+00  0.63444418212E+03  0.63444418212E+03  0.25500000920E-02 0. -1.
        2   -1    0    0  501    0  0.00000000000E+00  0.00000000000E+00 -0.18729537201E+04  0.18729537201E+04  0.25500000920E-02 0.  1.
    10030    2    1    2    0    0  0.00000000000E+00  0.00000000000E+00 -0.12385095380E+04  0.25073979022E+04  0.21801693430E+04 0.  0.
        1    1    3    3  502    0 -0.53431857288E+03 -0.14526834749E+03 -0.16991704434E+04  0.17871148329E+04  0.50400001928E-02 0.  1.
       -1    1    3    3    0  502  0.53431857288E+03  0.14526834749E+03  0.46066090545E+03  0.72028306932E+03  0.50400001928E-02 0. -1.
</event>
<event>
 5   0  0.2820239E-05  0.2221799E+04  0.7818609E-02  0.8509409E-01
        1   -1    0    0  501    0  0.00000000000E+00  0.00000000000E+00  0.20521609785E+04  0.20521609786E+04  0.50400001928E-02 0. -1.
       -1   -1    0    0    0  501  0.00000000000E+00  0.00000000000E+00 -0.60136473997E+03  0.60136473999E+03  0.50400001928E-02 0.  1.
    10030    2    1    2    0    0  0.00000000000E+00  0.00000000000E+00  0.14507962386E+04  0.26535257185E+04  0.22217985987E+04 0.  0.
        3    1    3    3  502    0  0.88938259248E+02  0.15577142813E+03 -0.58395517070E+03  0.61088329767E+03  0.10100000352E+00 0.  1.
       -3    1    3    3    0  502 -0.88938259248E+02 -0.15577142813E+03  0.20347514093E+04  0.20426424209E+04  0.10100000352E+00 0. -1.
</event>
<event>
 5   0  0.6306919E-05  0.2201506E+04  0.7818609E-02  0.8517801E-01
        2   -1    0    0  501    0  0.00000000000E+00  0.00000000000E+00  0.98697848591E+03  0.98697848591E+03  0.25500000920E-02 0. -1.
       -2   -1    0    0    0  501  0.00000000000E+00  0.00000000000E+00 -0.12276434445E+04  0.12276434445E+04  0.25500000920E-02 0.  1.
    10030    2    1    2    0    0  0.00000000000E+00  0.00000000000E+00 -0.24066495857E+03  0.22146219304E+04  0.22015064552E+04 0.  0.
        3    1    3    3  502    0  0.10201321931E+04 -0.10322895677E+03  0.28246746160E+03  0.10635383331E+04  0.10100000352E+00 0. -1.
       -3    1    3    3    0  502 -0.10201321931E+04  0.10322895677E+03 -0.52313242017E+03  0.11510835973E+04  0.10100000352E+00 0.  1.
</event>
<event>
 5   0  0.2820239E-05  0.2125089E+04  0.7818609E-02  0.8550271E-01
       -1   -1    0    0    0  501  0.00000000000E+00  0.00000000000E+00  0.77074811193E+03  0.77074811195E+03  0.50400001928E-02 0.  1.
        1   -1    0    0  501    0  0.00000000000E+00  0.00000000000E+00 -0.14648119832E+04  0.14648119832E+04  0.50400001928E-02 0. -1.
    10030    2    1    2    0    0  0.00000000000E+00  0.00000000000E+00 -0.69406387127E+03  0.22355600952E+04  0.21250892409E+04 0.  0.
        3    1    3    3  502    0  0.80425693829E+03  0.22442825833E+03 -0.10383094069E+04  0.13323977261E+04  0.10100000352E+00 0. -1.
       -3    1    3    3    0  502 -0.80425693829E+03 -0.22442825833E+03  0.34424553559E+03  0.90316236906E+03  0.10100000352E+00 0.  1.
</event>
<event>
 5   0  0.2910318E-05  0.2180444E+04  0.7818609E-02  0.8526612E-01
       -1   -1    0    0    0  501  0.00000000000E+00  0.00000000000E+00  0.13435813787E+04  0.13435813787E+04  0.50400001928E-02 0. -1.
        1   -1    0    0  501    0  0.00000000000E+00  0.00000000000E+00 -0.88463874726E+03  0.88463874728E+03  0.50400001928E-02 0.  1.
    10030    2    1    2    0    0  0.00000000000E+00  0.00000000000E+00  0.45894263145E+03  0.22282201260E+04  0.21804441270E+04 0.  0.
        5    1    3    3  502    0  0.84097124623E+03 -0.50400391246E+03  0.71668771902E+03  0.12144611798E+04  0.46999998093E+01 0. -1.
       -5    1    3    3    0  502 -0.84097124623E+03  0.50400391246E+03 -0.25774508757E+03  0.10137589462E+04  0.46999998093E+01 0.  1.
</event>
<event>
 5   0  0.2908031E-05  0.2094444E+04  0.7818609E-02  0.8563695E-01
       -1   -1    0    0    0  501  0.00000000000E+00  0.00000000000E+00  0.47203842047E+03  0.47203842050E+03  0.50400001928E-02 0. -1.
        1   -1    0    0  501    0  0.00000000000E+00  0.00000000000E+00 -0.23232719425E+04  0.23232719426E+04  0.50400001928E-02 0.  1.
    10030    2    1    2    0    0  0.00000000000E+00  0.00000000000E+00 -0.18512335221E+04  0.27953103631E+04  0.20944437143E+04 0.  0.
        1    1    3    3  502    0 -0.80518566943E+03 -0.54949169185E+03 -0.41494182812E+03  0.10594535395E+04  0.50400001928E-02 0. -1.
       -1    1    3    3    0  502  0.80518566943E+03  0.54949169185E+03 -0.14362916940E+04  0.17358568235E+04  0.50400001928E-02 0.  1.
</event>
<event>
 5   0  0.2908031E-05  0.2319195E+04  0.7818609E-02  0.8470391E-01
        1   -1    0    0  501    0  0.00000000000E+00  0.00000000000E+00  0.18445656491E+04  0.18445656492E+04  0.50400001928E-02 0.  1.
       -1   -1    0    0    0  501  0.00000000000E+00  0.00000000000E+00 -0.72898788391E+03  0.72898788392E+03  0.50400001928E-02 0. -1.
    10030    2    1    2    0    0  0.00000000000E+00  0.00000000000E+00  0.11155777652E+04  0.25735535331E+04  0.23191946959E+04 0.  0.
        1    1    3    3  502    0 -0.82818812416E+03 -0.60938432448E+03  0.11527045214E+04  0.15446593597E+04  0.50400001928E-02 0.  1.
       -1    1    3    3    0  502  0.82818812416E+03  0.60938432448E+03 -0.37126756156E+02  0.10288941734E+04  0.50400001928E-02 0. -1.
</event>
<event>
 5   0  0.6306919E-05  0.2242779E+04  0.7818609E-02  0.8500831E-01
       -2   -1    0    0    0  501  0.00000000000E+00  0.00000000000E+00  0.66641053304E+03  0.66641053305E+03  0.25500000920E-02 0. -1.
        2   -1    0    0  501    0  0.00000000000E+00  0.00000000000E+00 -0.18869960498E+04  0.18869960498E+04  0.25500000920E-02 0.  1.
    10030    2    1    2    0    0  0.00000000000E+00  0.00000000000E+00 -0.12205855167E+04  0.25534065828E+04  0.22427786724E+04 0.  0.
        3    1    3    3  502    0 -0.26063144151E+03 -0.55879288663E+03 -0.16766837813E+04  0.17864620766E+04  0.10100000352E+00 0.  1.
       -3    1    3    3    0  502  0.26063144151E+03  0.55879288663E+03  0.45609826458E+03  0.76694450621E+03  0.10100000352E+00 0. -1.
</event>
<event>
 5   0  0.2908031E-05  0.2196618E+04  0.7818609E-02  0.8519837E-01
        1   -1    0    0  501    0  0.00000000000E+00  0.00000000000E+00  0.14771652912E+04  0.14771652912E+04  0.50400001928E-02 0. -1.
       -1   -1    0    0    0  501  0.00000000000E+00  0.00000000000E+00 -0.81662021164E+03  0.81662021165E+03  0.50400001928E-02 0.  1.
    10030    2    1    2    0    0  0.00000000000E+00  0.00000000000E+00  0.66054507955E+03  0.22937855029E+04  0.21966183399E+04 0.  0.
        1    1    3    3  502    0  0.54830460979E+03  0.14284626549E+02 -0.66336567375E+03  0.86075316602E+03  0.50400001928E-02 0.  1.
       -1    1    3    3    0  502 -0.54830460979E+03 -0.14284626549E+02  0.13239107533E+04  0.14330323368E+04  0.50400001928E-02 0. -1.
</event>
<event>
 5   0  0.2929471E-05  0.2160892E+04  0.7818609E-02  0.8534884E-01
       -1   -1    0    0    0  501  0.00000000000E+00  0.00000000000E+00  0.98626694547E+03  0.98626694549E+03  0.50400001928E-02 0.  1.
        1   -1    0    0  501    0  0.00000000000E+00  0.00000000000E+00 -0.11836181108E+04  0.11836181108E+04  0.50400001928E-02 0. -1.
    10030    2    1    2    0    0  0.00000000000E+00  0.00000000000E+00 -0.19735116529E+03  0.21698850563E+04  0.21608918703E+04 0.  0.
        2    1    3    3  502    0  0.10630437889E+04  0.95030888043E+02 -0.26751353178E+03  0.11002983489E+04  0.25500000920E-02 0. -1.
       -2    1    3    3    0  502 -0.10630437889E+04 -0.95030888043E+02  0.70162366493E+02  0.10695867074E+04  0.25500000920E-02 0.  1.
</event>
<event>
 5   0  0.2910318E-05  0.2247060E+04  0.7818609E-02  0.8499092E-01
       -1   -1    0    0    0  501  0.00000000000E+00  0.00000000000E+00  0.83132033391E+03  0.83132033392E+03  0.50400001928E-02 0.  1.
        1   -1    0    0  501    0  0.00000000000E+00  0.00000000000E+00 -0.15184513439E+04  0.15184513439E+04  0.50400001928E-02 0. -1.
    10030    2    1    2    0    0  0.00000000000E+00  0.00000000000E+00 -0.68713100997E+03  0.23497716778E+04  0.22470598374E+04 0.  0.
        5    1    3    3  502    0 -0.10414722553E+04  0.19010033516E+03 -0.73691740783E+03  0.12899116062E+04  0.46999998093E+01 0. -1.
       -5    1    3    3    0  502  0.10414722553E+04 -0.19010033516E+03  0.49786397860E+02  0.10598600716E+04  0.46999998093E+01 0.  1.
</event>
<event>
 5   0  0.6293013E-05  0.2179353E+04  0.7818609E-02  0.8527071E-01
       -2   -1    0    0    0  501  0.00000000000E+00  0.00000000000E+00  0.85451411009E+03  0.85451411009E+03  0.25500000920E-02 0.  1.
        2   -1    0    0  501    0  0.00000000000E+00  0.00000000000E+00 -0.13895551692E+04  0.13895551692E+04  0.25500000920E-02 0. -1.
    10030    2    1    2    0    0  0.00000000000E+00  0.00000000000E+00 -0.53504105914E+03  0.22440692793E+04  0.21793526551E+04 0.  0.
        1    1    3    3  502    0 -0.20393075799E+03 -0.50487416237E+03  0.70438796726E+03  0.89030785818E+03  0.50400001928E-02 0.  1.
       -1    1    3    3    0  502  0.20393075799E+03  0.50487416237E+03 -0.12394290264E+04  0.13537614211E+04  0.50400001928E-02 0. -1.
</event>
<event>
 5   0  0.6306919E-05  0.2208392E+04  0.7818609E-02  0.8514943E-01
       -2   -1    0    0    0  501  0.00000000000E+00  0.00000000000E+00  0.10350987911E+04  0.10350987911E+04  0.25500000920E-02 0.  1.
        2   -1    0    0  501    0  0.00000000000E+00  0.00000000000E+00 -0.11779054996E+04  0.11779054996E+04  0.25500000920E-02 0. -1.
    10030    2    1    2    0    0  0.00000000000E+00  0.00000000000E+00 -0.14280670858E+03  0.22130042907E+04  0.22083917756E+04 0.  0.
        3    1    3    3  502    0  0.15018984887E+03 -0.11192229025E+03  0.10190629181E+04  0.10361335971E+04  0.10100000352E+00 0.  1.
       -3    1    3    3    0  502 -0.15018984887E+03  0.11192229025E+03 -0.11618696267E+04  0.11768706936E+04  0.10100000352E+00 0. -1.
</event>
<event>
 5   0  0.2753631E-05  0.2060036E+04  0.7818609E-02  0.8579055E-01
       -1   -1    0    0    0  501  0.00000000000E+00  0.00000000000E+00  0.41994951013E+03  0.41994951016E+03  0.50400001928E-02 0.  1.
        1   -1    0    0  501    0  0.00000000000E+00  0.00000000000E+00 -0.25263441385E+04  0.25263441385E+04  0.50400001928E-02 0. -1.
    10030    2    1    2    0    0  0.00000000000E+00  0.00000000000E+00 -0.21063946283E+04  0.29462936486E+04  0.20600359059E+04 0.  0.
        4    1    3    3  502    0 -0.77316633342E+02 -0.88891060531E+03 -0.17891611836E+04  0.19993097008E+04  0.12699999809E+01 0. -1.
       -4    1    3    3    0  502  0.77316633342E+02  0.88891060531E+03 -0.31723344474E+03  0.94698394780E+03  0.12699999809E+01 0.  1.
</event>
<event>
 5   0  0.2929471E-05  0.2195561E+04  0.7818609E-02  0.8520278E-01
        1   -1    0    0  501    0  0.00000000000E+00  0.00000000000E+00  0.11858432857E+04  0.11858432857E+04  0.50400001928E-02 0.  1.
       -1   -1    0    0    0  501  0.00000000000E+00  0.00000000000E+00 -0.10162577189E+04  0.10162577189E+04  0.50400001928E-02 0. -1.
    10030    2    1    2    0    0  0.00000000000E+00  0.00000000000E+00  0.16958556681E+03  0.22021010047E+04  0.21955613338E+04 0.  0.
        2    1    3    3  502    0 -0.55747239273E+03  0.20745682324E+03  0.10102048738E+04  0.11723172306E+04  0.25500000920E-02 0.  1.
       -2    1    3    3    0  502  0.55747239273E+03 -0.20745682324E+03 -0.84061930695E+03  0.10297837741E+04  0.25500000920E-02 0. -1.
</event>
<event>
 5   0  0.2753631E-05  0.2171663E+04  0.7818609E-02  0.8530316E-01
       -1   -1    0    0    0  501  0.00000000000E+00  0.00000000000E+00  0.15671640642E+04  0.15671640642E+04  0.50400001928E-02 0.  1.
        1   -1    0    0  501    0  0.00000000000E+00  0.00000000000E+00 -0.75233340082E+03  0.75233340084E+03  0.50400001928E-02 0. -1.
    10030    2    1    2    0    0  0.00000000000E+00  0.00000000000E+00  0.81483066340E+03  0.23194974651E+04  0.21716628377E+04 0.  0.
        4    1    3    3  502    0 -0.56429836051E+03 -0.25363396622E+03 -0.54566703120E+03  0.82493451276E+03  0.12699999809E+01 0. -1.
       -4    1    3    3    0  502  0.56429836051E+03  0.25363396622E+03  0.13604976946E+04  0.14945629523E+04  0.12699999809E+01 0.  1.
</event>
<event>
 5   0  0.2908031E-05  0.2214025E+04  0.7818609E-02  0.8512613E-01
       -1   -1    0    0    0  501  0.00000000000E+00  0.00000000000E+00  0.65329032850E+03  0.65329032852E+03  0.50400001928E-02 0.  1.
        1   -1    0    0  501    0  0.00000000000E+00  0.00000000000E+00 -0.18758525945E+04  0.18758525945E+04  0.50400001928E-02 0. -1.
    10030    2    1    2    0    0  0.00000000000E+00  0.00000000000E+00 -0.12225622660E+04  0.25291429230E+04  0.22140247133E+04 0.  0.
        1    1    3    3  502    0  0.82365791686E+03 -0.11692531669E+03  0.22300369502E+03  0.86128656190E+03  0.50400001928E-02 0.  1.
       -1    1    3    3    0  502 -0.82365791686E+03  0.11692531669E+03 -0.14455659610E+04  0.16678563612E+04  0.50400001928E-02 0. -1.
</event>
<event>
 5   0  0.2245375E-05  0.2194542E+04  0.7818609E-02  0.8520703E-01
        3   -1    0    0  501    0  0.00000000000E+00  0.00000000000E+00  0.18527130891E+04  0.18527130918E+04  0.10100000352E+00 0. -1.
       -3   -1    0    0    0  501  0.00000000000E+00  0.00000000000E+00 -0.64985952018E+03  0.64985952803E+03  0.10100000352E+00 0.  1.
    10030    2    1    2    0    0  0.00000000000E+00  0.00000000000E+00  0.12028535689E+04  0.25025726198E+04  0.21945416399E+04 0.  0.
        3    1    3    3  502    0  0.45558407297E+03 -0.37733822091E+03 -0.45244464064E+03  0.74474636189E+03  0.10100000352E+00 0.  1.
       -3    1    3    3    0  502 -0.45558407297E+03  0.37733822091E+03  0.16552982095E+04  0.17578262579E+04  0.10100000352E+00 0. -1.
</event>
<event>
 5   0  0.2908031E-05  0.1943896E+04  0.7818609E-02  0.8633310E-01
        1   -1    0    0  501    0  0.00000000000E+00  0.00000000000E+00  0.13453101049E+04  0.13453101049E+04  0.50400001928E-02 0.  1.
       -1   -1    0    0    0  501  0.00000000000E+00  0.00000000000E+00 -0.70220465857E+03  0.70220465859E+03  0.50400001928E-02 0. -1.
    10030    2    1    2    0    0  0.00000000000E+00  0.00000000000E+00  0.64310544636E+03  0.20475147635E+04  0.19438961114E+04 0.  0.
        1    1    3    3  502    0 -0.24977660601E+03  0.40508188916E+03 -0.57109006187E+03  0.74338654052E+03  0.50400001928E-02 0. -1.
       -1    1    3    3    0  502  0.24977660601E+03 -0.40508188916E+03  0.12141955082E+04  0.13041282230E+04  0.50400001928E-02 0.  1.
</event>
<event>
 5   0  0.6628798E-05  0.2192629E+04  0.7818609E-02  0.8521502E-01
       -2   -1    0    0    0  501  0.00000000000E+00  0.00000000000E+00  0.92434968028E+03  0.92434968028E+03  0.25500000920E-02 0.  1.
        2   -1    0    0  501    0  0.00000000000E+00  0.00000000000E+00 -0.13002710226E+04  0.13002710226E+04  0.25500000920E-02 0. -1.
    10030    2    1    2    0    0  0.00000000000E+00  0.00000000000E+00 -0.37592134230E+03  0.22246207029E+04  0.21926286544E+04 0.  0.
        4    1    3    3  502    0 -0.63086573392E+03 -0.40188234520E+02 -0.10967399693E+04  0.12658778936E+04  0.12699999809E+01 0. -1.
       -4    1    3    3    0  502  0.63086573392E+03  0.40188234520E+02  0.72081862697E+03  0.95874280926E+03  0.12699999809E+01 0.  1.
</event>
<event>
 5   0  0.6628798E-05  0.2208770E+04  0.7818609E-02  0.8514787E-01
        2   -1    0    0  501    0  0.00000000000E+00  0.00000000000E+00  0.15992319073E+04  0.15992319073E+04  0.25500000920E-02 0. -1.
       -2   -1    0    0    0  501  0.00000000000E+00  0.00000000000E+00 -0.76265769757E+03  0.76265769757E+03  0.25500000920E-02 0.  1.
    10030    2    1    2    0    0  0.00000000000E+00  0.00000000000E+00  0.83657420970E+03  0.23618896048E+04  0.22087702681E+04 0.  0.
        4    1    3    3  502    0 -0.12201035962E+03  0.48461127492E+03  0.14714106180E+04  0.15539579902E+04  0.12699999809E+01 0. -1.
       -4    1    3    3    0  502  0.12201035962E+03 -0.48461127492E+03 -0.63483640834E+03  0.80793161461E+03  0.12699999809E+01 0.  1.
</event>
<event>
 5   0  0.2908031E-05  0.2196764E+04  0.7818609E-02  0.8519776E-01
       -1   -1    0    0    0  501  0.00000000000E+00  0.00000000000E+00  0.10355876401E+04  0.10355876401E+04  0.50400001928E-02 0. -1.
        1   -1    0    0  501    0  0.00000000000E+00  0.00000000000E+00 -0.11649835732E+04  0.11649835732E+04  0.50400001928E-02 0.  1.
    10030    2    1    2    0    0  0.00000000000E+00  0.00000000000E+00 -0.12939593317E+03  0.22005712133E+04  0.21967636098E+04 0.  0.
        1    1    3    3  502    0  0.25418295696E+03  0.65345670423E+03 -0.91163839483E+03  0.11500866067E+04  0.50400001928E-02 0.  1.
       -1    1    3    3    0  502 -0.25418295696E+03 -0.65345670423E+03  0.78224246166E+03  0.10504846066E+04  0.50400001928E-02 0. -1.
</event>
<event>
 5   0  0.2753631E-05  0.2144535E+04  0.7818609E-02  0.8541875E-01
        1   -1    0    0  501    0  0.00000000000E+00  0.00000000000E+00  0.15301711238E+04  0.15301711239E+04  0.50400001928E-02 0. -1.
       -1   -1    0    0    0  501  0.00000000000E+00  0.00000000000E+00 -0.75139166487E+03  0.75139166489E+03  0.50400001928E-02 0.  1.
    10030    2    1    2    0    0  0.00000000000E+00  0.00000000000E+00  0.77877945897E+03  0.22815627887E+04  0.21445352208E+04 0.  0.
        4    1    3    3  502    0 -0.41974857914E+02  0.55626127087E+03 -0.58485555734E+03  0.80823642952E+03  0.12699999809E+01 0.  1.
       -4    1    3    3    0  502  0.41974857914E+02 -0.55626127087E+03  0.13636350163E+04  0.14733263592E+04  0.12699999809E+01 0. -1.
</event>
<event>
 5   0  0.6628798E-05  0.2212264E+04  0.7818609E-02  0.8513341E-01
       -2   -1    0    0    0  501  0.00000000000E+00  0.00000000000E+00  0.72033061276E+03  0.72033061276E+03  0.25500000920E-02 0.  1.
        2   -1    0    0  501    0  0.00000000000E+00  0.00000000000E+00 -0.16985644924E+04  0.16985644924E+04  0.25500000920E-02 0. -1.
    10030    2    1    2    0    0  0.00000000000E+00  0.00000000000E+00 -0.97823387962E+03  0.24188951051E+04  0.22122640002E+04 0.  0.
        4    1    3    3  502    0 -0.62515079169E+03  0.87766928453E+03 -0.76226960775E+03  0.13199141840E+04  0.12699999809E+01 0.  1.
       -4    1    3    3    0  502  0.62515079169E+03 -0.87766928453E+03 -0.21596427187E+03  0.10989809211E+04  0.12699999809E+01 0. -1.
</event>
<event>
 5   0  0.6628798E-05  0.2190191E+04  0.7818609E-02  0.8522522E-01
        2   -1    0    0  501    0  0.00000000000E+00  0.00000000000E+00  0.30118574720E+04  0.30118574720E+04  0.25500000920E-02 0.  1.
       -2   -1    0    0    0  501  0.00000000000E+00  0.00000000000E+00 -0.39817103477E+03  0.39817103478E+03  0.25500000920E-02 0. -1.
    10030    2    1    2    0    0  0.00000000000E+00  0.00000000000E+00  0.26136864372E+04  0.34100285068E+04  0.21901912302E+04 0.  0.
        4    1    3    3  502    0 -0.96613543908E+03 -0.30076402274E+03  0.19588264476E+04  0.22047401998E+04  0.12699999809E+01 0.  1.
       -4    1    3    3    0  502  0.96613543908E+03  0.30076402274E+03  0.65485998967E+03  0.12052883070E+04  0.12699999809E+01 0. -1.
</event>
<event>
 5   0  0.6445740E-05  0.2203446E+04  0.7818609E-02  0.8516995E-01
       -2   -1    0    0    0  501  0.00000000000E+00  0.00000000000E+00  0.12385409429E+04  0.12385409429E+04  0.25500000920E-02 0. -1.
        2   -1    0    0  501    0  0.00000000000E+00  0.00000000000E+00 -0.98001914929E+03  0.98001914929E+03  0.25500000920E-02 0.  1.
    10030    2    1    2    0    0  0.00000000000E+00  0.00000000000E+00  0.25852179364E+03  0.22185600922E+04  0.22034462474E+04 0.  0.
        5    1    3    3  502    0  0.43263744700E+02  0.65334658206E+03 -0.76284034342E+03  0.10053263089E+04  0.46999998093E+01 0.  1.
       -5    1    3    3    0  502 -0.43263744700E+02 -0.65334658206E+03  0.10213621371E+04  0.12132337833E+04  0.46999998093E+01 0. -1.
</event>
<event>
 5   0  0.6293013E-05  0.2201339E+04  0.7818609E-02  0.8517871E-01
       -2   -1    0    0    0  501  0.00000000000E+00  0.00000000000E+00  0.57975997613E+03  0.57975997614E+03  0.25500000920E-02 0. -1.
        2   -1    0    0  501    0  0.00000000000E+00  0.00000000000E+00 -0.20896124862E+04  0.20896124862E+04  0.25500000920E-02 0.  1.
    10030    2    1    2    0    0  0.00000000000E+00  0.00000000000E+00 -0.15098525100E+04  0.26693724623E+04  0.22013393061E+04 0.  0.
        1    1    3    3  502    0  0.10722022876E+04 -0.14682654507E+03 -0.99835027078E+03  0.14723719106E+04  0.50400001928E-02 0.  1.
       -1    1    3    3    0  502 -0.10722022876E+04  0.14682654507E+03 -0.51150223924E+03  0.11970005517E+04  0.50400001928E-02 0. -1.
</event>
<event>
 5   0  0.2910318E-05  0.2203656E+04  0.7818609E-02  0.8516908E-01
       -1   -1    0    0    0  501  0.00000000000E+00  0.00000000000E+00  0.10600108509E+04  0.10600108510E+04  0.50400001928E-02 0. -1.
        1   -1    0    0  501    0  0.00000000000E+00  0.00000000000E+00 -0.11452944567E+04  0.11452944567E+04  0.50400001928E-02 0.  1.
    10030    2    1    2    0    0  0.00000000000E+00  0.00000000000E+00 -0.85283605730E+02  0.22053053076E+04  0.22036556461E+04 0.  0.
        5    1    3    3  502    0  0.18805715005E+03 -0.48258006836E+03  0.93058477090E+03  0.10650160186E+04  0.46999998093E+01 0. -1.
       -5    1    3    3    0  502 -0.18805715005E+03  0.48258006836E+03 -0.10158683766E+04  0.11402892890E+04  0.46999998093E+01 0.  1.
</event>
<event>
 5   0  0.6445740E-05  0.2233280E+04  0.7818609E-02  0.8504702E-01
       -2   -1    0    0    0  501  0.00000000000E+00  0.00000000000E+00  0.93692534533E+03  0.93692534533E+03  0.25500000920E-02 0. -1.
        2   -1    0    0  501    0  0.00000000000E+00  0.00000000000E+00 -0.13308267746E+04  0.13308267746E+04  0.25500000920E-02 0.  1.
    10030    2    1    2    0    0  0.00000000000E+00  0.00000000000E+00 -0.39390142925E+03  0.22677521199E+04  0.22332803992E+04 0.  0.
        5    1    3    3  502    0 -0.57322109369E+03  0.14491055888E+03  0.76492009543E+03  0.96680211766E+03  0.46999998093E+01 0. -1.
       -5    1    3    3    0  502  0.57322109369E+03 -0.14491055888E+03 -0.11588215247E+04  0.13009500023E+04  0.46999998093E+01 0.  1.
</event>
<event>
 5   0  0.2929471E-05  0.2217675E+04  0.7818609E-02  0.8511107E-01
        1   -1    0    0  501    0  0.00000000000E+00  0.00000000000E+00  0.15945435935E+04  0.15945435935E+04  0.50400001928E-02 0.  1.
       -1   -1    0    0    0  501  0.00000000000E+00  0.00000000000E+00 -0.77107969777E+03  0.77107969779E+03  0.50400001928E-02 0. -1.
    10030    2    1    2    0    0  0.00000000000E+00  0.00000000000E+00  0.82346389573E+03  0.23656232913E+04  0.22176746310E+04 0.  0.
        2    1    3    3  502    0 -0.86498199062E+03 -0.31875108521E+03  0.10690594999E+04  0.14116247068E+04  0.25500000920E-02 0.  1.
       -2    1    3    3    0  502  0.86498199062E+03  0.31875108521E+03 -0.24559560421E+03  0.95399858450E+03  0.25500000920E-02 0. -1.
</event>
<event>
 5   0  0.6445740E-05  0.2227760E+04  0.7818609E-02  0.8506962E-01
        2   -1    0    0  501    0  0.00000000000E+00  0.00000000000E+00  0.71948477008E+03  0.71948477009E+03  0.25500000920E-02 0. -1.
       -2   -1    0    0    0  501  0.00000000000E+00  0.00000000000E+00 -0.17244679917E+04  0.17244679917E+04  0.25500000920E-02 0.  1.
    10030    2    1    2    0    0  0.00000000000E+00  0.00000000000E+00 -0.10049832217E+04  0.24439527618E+04  0.22277598224E+04 0.  0.
        5    1    3    3  502    0  0.65066617712E+03 -0.48967614946E+03 -0.13362148875E+04  0.15648135739E+04  0.46999998093E+01 0.  1.
       -5    1    3    3    0  502 -0.65066617712E+03  0.48967614946E+03  0.33123166582E+03  0.87913918798E+03  0.46999998093E+01 0. -1.
</event>
<event>
 5   0  0.2820239E-05  0.2189720E+04  0.7818609E-02  0.8522719E-01
        1   -1    0    0  501    0  0.00000000000E+00  0.00000000000E+00  0.15749315424E+04  0.15749315424E+04  0.50400001928E-02 0.  1.
       -1   -1    0    0    0  501  0.00000000000E+00  0.00000000000E+00 -0.76112408263E+03  0.76112408265E+03  0.50400001928E-02 0. -1.
    10030    2    1    2    0    0  0.00000000000E+00  0.00000000000E+00  0.81380745980E+03  0.23360556251E+04  0.21897199140E+04 0.  0.
        3    1    3    3  502    0  0.27303143479E+03 -0.80942035867E+03  0.11375144650E+04  0.14225493488E+04  0.10100000352E+00 0.  1.
       -3    1    3    3    0  502 -0.27303143479E+03  0.80942035867E+03 -0.32370700523E+03  0.91350627630E+03  0.10100000352E+00 0. -1.
</event>
<event>
 5   0  0.2753631E-05  0.2198970E+04  0.7818609E-02  0.8518857E-01
       -1   -1    0    0    0  501  0.00000000000E+00  0.00000000000E+00  0.19907799506E+04  0.19907799506E+04  0.50400001928E-02 0.  1.
        1   -1    0    0  501    0  0.00000000000E+00  0.00000000000E+00 -0.60723279291E+03  0.60723279293E+03  0.50400001928E-02 0. -1.
    10030    2    1    2    0    0  0.00000000000E+00  0.00000000000E+00  0.13835471577E+04  0.25980127435E+04  0.21989696401E+04 0.  0.
        4    1    3    3  502    0  0.12285740359E+03  0.10711699780E+04  0.43737026507E+03  0.11635262889E+04  0.12699999809E+01 0. -1.
       -4    1    3    3    0  502 -0.12285740359E+03 -0.10711699780E+04  0.94617689262E+03  0.14344864546E+04  0.12699999809E+01 0.  1.
</event>
<event>
 5   0  0.2820239E-05  0.2174196E+04  0.7818609E-02  0.8529246E-01
        1   -1    0    0  501    0  0.00000000000E+00  0.00000000000E+00  0.69890143884E+03  0.69890143886E+03  0.50400001928E-02 0. -1.
       -1   -1    0    0    0  501  0.00000000000E+00  0.00000000000E+00 -0.16909137984E+04  0.16909137984E+04  0.50400001928E-02 0.  1.
    10030    2    1    2    0    0  0.00000000000E+00  0.00000000000E+00 -0.99201235959E+03  0.23898152373E+04  0.21741960231E+04 0.  0.
        3    1    3    3  502    0 -0.36137585297E+03 -0.72034770725E+03  0.30592901244E+03  0.86202430204E+03  0.10100000352E+00 0. -1.
       -3    1    3    3    0  502  0.36137585297E+03  0.72034770725E+03 -0.12979413720E+04  0.15277909353E+04  0.10100000352E+00 0.  1.
</event>
<event>
 5   0  0.2820239E-05  0.2170127E+04  0.7818609E-02  0.8530966E-01
       -1   -1    0    0    0  501  0.00000000000E+00  0.00000000000E+00  0.11975315424E+04  0.11975315424E+04  0.50400001928E-02 0.  1.
        1   -1    0    0  501    0  0.00000000000E+00  0.00000000000E+00 -0.98315763654E+03  0.98315763655E+03  0.50400001928E-02 0. -1.
    10030    2    1    2    0    0  0.00000000000E+00  0.00000000000E+00  0.21437390584E+03  0.21806891789E+04  0.21701265225E+04 0.  0.
        3    1    3    3  502    0 -0.56363330058E+03 -0.29129578062E+02 -0.82405520968E+03  0.99879829227E+03  0.10100000352E+00 0. -1.
       -3    1    3    3    0  502  0.56363330058E+03  0.29129578062E+02  0.10384291155E+04  0.11818908867E+04  0.10100000352E+00 0.  1.
</event>
<event>
 5   0  0.6414768E-05  0.2201749E+04  0.7818609E-02  0.8517701E-01
        2   -1    0    0  501    0  0.00000000000E+00  0.00000000000E+00  0.14101925114E+04  0.14101925114E+04  0.25500000920E-02 0. -1.
       -2   -1    0    0    0  501  0.00000000000E+00  0.00000000000E+00 -0.85940346516E+03  0.85940346517E+03  0.25500000920E-02 0.  1.
    10030    2    1    2    0    0  0.00000000000E+00  0.00000000000E+00  0.55078904623E+03  0.22695959766E+04  0.22017486967E+04 0.  0.
        2    1    3    3  502    0 -0.85419329342E+03 -0.54142860166E+03  0.72369036484E+03  0.12435911134E+04  0.25500000920E-02 0. -1.
       -2    1    3    3    0  502  0.85419329342E+03  0.54142860166E+03 -0.17290131861E+03  0.10260048631E+04  0.25500000920E-02 0.  1.
</event>
<event>
 5   0  0.2910318E-05  0.2195431E+04  0.7818609E-02  0.8520332E-01
       -1   -1    0    0    0  501  0.00000000000E+00  0.00000000000E+00  0.89617492256E+03  0.89617492257E+03  0.50400001928E-02 0. -1.
        1   -1    0    0  501    0  0.00000000000E+00  0.00000000000E+00 -0.13445802980E+04  0.13445802981E+04  0.50400001928E-02 0.  1.
    10030    2    1    2    0    0  0.00000000000E+00  0.00000000000E+00 -0.44840537548E+03  0.22407552206E+04  0.21954308411E+04 0.  0.
        5    1    3    3  502    0  0.64145251890E+03 -0.73035719603E+03 -0.74470564001E+03  0.12245372792E+04  0.46999998093E+01 0.  1.
       -5    1    3    3    0  502 -0.64145251890E+03  0.73035719603E+03  0.29630026452E+03  0.10162179415E+04  0.46999998093E+01 0. -1.
</event>
<event>
 5   0  0.2929471E-05  0.2201385E+04  0.7818609E-02  0.8517852E-01
       -1   -1    0    0    0  501  0.00000000000E+00  0.00000000000E+00  0.79549330961E+03  0.79549330963E+03  0.50400001928E-02 0. -1.
        1   -1    0    0  501    0  0.00000000000E+00  0.00000000000E+00 -0.15229851342E+04  0.15229851342E+04  0.50400001928E-02 0.  1.
    10030    2    1    2    0    0  0.00000000000E+00  0.00000000000E+00 -0.72749182455E+03  0.23184784438E+04  0.22013854591E+04 0.  0.
        2    1    3    3  502    0 -0.35825107094E+02 -0.54801230298E+03  0.64089167906E+03  0.84400418649E+03  0.25500000920E-02 0. -1.
       -2    1    3    3    0  502  0.35825107094E+02  0.54801230298E+03 -0.13683835036E+04  0.14744742573E+04  0.25500000920E-02 0.  1.
</event>
<event>
 5   0  0.2820239E-05  0.2222214E+04  0.7818609E-02  0.8509239E-01
       -1   -1    0    0    0  501  0.00000000000E+00  0.00000000000E+00  0.92499951046E+03  0.92499951047E+03  0.50400001928E-02 0. -1.
        1   -1    0    0  501    0  0.00000000000E+00  0.00000000000E+00 -0.13346591065E+04  0.13346591065E+04  0.50400001928E-02 0.  1.
    10030    2    1    2    0    0  0.00000000000E+00  0.00000000000E+00 -0.40965959608E+03  0.22596586170E+04  0.22222142293E+04 0.  0.
        3    1    3    3  502    0  0.49852891527E+03 -0.44713806613E+03 -0.11063896377E+04  0.12932755198E+04  0.10100000352E+00 0.  1.
       -3    1    3    3    0  502 -0.49852891527E+03  0.44713806613E+03  0.69673004159E+03  0.96638309723E+03  0.10100000352E+00 0. -1.
</event>
<event>
 5   0  0.6293013E-05  0.2195845E+04  0.7818609E-02  0.8520159E-01
       -2   -1    0    0    0  501  0.00000000000E+00  0.00000000000E+00  0.11936464810E+04  0.11936464810E+04  0.25500000920E-02 0. -1.
        2   -1    0    0  501    0  0.00000000000E+00  0.00000000000E+00 -0.10098752165E+04  0.10098752165E+04  0.25500000920E-02 0.  1.
    10030    2    1    2    0    0  0.00000000000E+00  0.00000000000E+00  0.18377126441E+03  0.22035216975E+04  0.21958451662E+04 0.  0.
        1    1    3    3  502    0 -0.24409937771E+03 -0.91736984836E+03 -0.46166045686E+03  0.10555957192E+04  0.50400001928E-02 0.  1.
       -1    1    3    3    0  502  0.24409937771E+03  0.91736984836E+03  0.64543172127E+03  0.11479259783E+04  0.50400001928E-02 0. -1.
</event>
<event>
 5   0  0.6414768E-05  0.2201590E+04  0.7818609E-02  0.8517767E-01
       -2   -1    0    0    0  501  0.00000000000E+00  0.00000000000E+00  0.69720049803E+03  0.69720049803E+03  0.25500000920E-02 0.  1.
        2   -1    0    0  501    0  0.00000000000E+00  0.00000000000E+00 -0.17380210888E+04  0.17380210888E+04  0.25500000920E-02 0. -1.
    10030    2    1    2    0    0  0.00000000000E+00  0.00000000000E+00 -0.10408205908E+04  0.24352215869E+04  0.22015895791E+04 0.  0.
        2    1    3    3  502    0 -0.42586968598E+03  0.10093378547E+04 -0.40116836478E+03  0.11666464552E+04  0.25500000920E-02 0. -1.
       -2    1    3    3    0  502  0.42586968598E+03 -0.10093378547E+04 -0.63965222601E+03  0.12685751317E+04  0.25500000920E-02 0.  1.
</event>
<event>
 5   0  0.2820239E-05  0.2169254E+04  0.7818609E-02  0.8531335E-01
       -1   -1    0    0    0  501  0.00000000000E+00  0.00000000000E+00  0.68677172334E+03  0.68677172336E+03  0.50400001928E-02 0.  1.
        1   -1    0    0  501    0  0.00000000000E+00  0.00000000000E+00 -0.17129640982E+04  0.17129640982E+04  0.50400001928E-02 0. -1.
    10030    2    1    2    0    0  0.00000000000E+00  0.00000000000E+00 -0.10261923748E+04  0.23997358215E+04  0.21692536097E+04 0.  0.
        3    1    3    3  502    0  0.80425717054E+03  0.10933472324E+03 -0.13090053482E+04  0.15402203381E+04  0.10100000352E+00 0. -1.
       -3    1    3    3    0  502 -0.80425717054E+03 -0.10933472324E+03  0.28281297341E+03  0.85951548340E+03  0.10100000352E+00 0.  1.
</event>
<event>
 5   0  0.6293013E-05  0.2175419E+04  0.7818609E-02  0.8528729E-01
        2   -1    0    0  501    0  0.00000000000E+00  0.00000000000E+00  0.15256063549E+04  0.15256063549E+04  0.25500000920E-02 0. -1.
       -2   -1    0    0    0  501  0.00000000000E+00  0.00000000000E+00 -0.77550273010E+03  0.77550273011E+03  0.25500000920E-02 0.  1.
    10030    2    1    2    0    0  0.00000000000E+00  0.00000000000E+00  0.75010362476E+03  0.23011090850E+04  0.21754189420E+04 0.  0.
        1    1    3    3  502    0 -0.22647394797E+03 -0.31165445219E+02 -0.74980393864E+03  0.78387988908E+03  0.50400001928E-02 0.  1.
       -1    1    3    3    0  502  0.22647394797E+03  0.31165445219E+02  0.14999075634E+04  0.15172291959E+04  0.50400001928E-02 0. -1.
</event>
<event>
 5   0  0.2908031E-05  0.2127347E+04  0.7818609E-02  0.8549291E-01
        1   -1    0    0  501    0  0.00000000000E+00  0.00000000000E+00  0.10465439856E+04  0.10465439856E+04  0.50400001928E-02 0.  1.
       -1   -1    0    0    0  501  0.00000000000E+00  0.00000000000E+00 -0.10810837768E+04  0.10810837768E+04  0.50400001928E-02 0. -1.
    10030    2    1    2    0    0  0.00000000000E+00  0.00000000000E+00 -0.34539791237E+02  0.21276277624E+04  0.21273473854E+04 0.  0.
        1    1    3    3  502    0  0.43557047481E+03 -0.28487721972E+03  0.91049726217E+03  0.10487525606E+04  0.50400001928E-02 0.  1.
       -1    1    3    3    0  502 -0.43557047481E+03  0.28487721972E+03 -0.94503705341E+03  0.10788752019E+04  0.50400001928E-02 0. -1.
</event>
<event>
 5   0  0.2820239E-05  0.2182410E+04  0.7818609E-02  0.8525785E-01
        1   -1    0    0  501    0  0.00000000000E+00  0.00000000000E+00  0.71660946979E+03  0.71660946980E+03  0.50400001928E-02 0.  1.
       -1   -1    0    0    0  501  0.00000000000E+00  0.00000000000E+00 -0.16616137257E+04  0.16616137257E+04  0.50400001928E-02 0. -1.
    10030    2    1    2    0    0  0.00000000000E+00  0.00000000000E+00 -0.94500425593E+03  0.23782231955E+04  0.21824097975E+04 0.  0.
        3    1    3    3  502    0 -0.68808817370E+03 -0.12978521663E+03  0.43949850154E+03  0.82672152524E+03  0.10100000352E+00 0.  1.
       -3    1    3    3    0  502  0.68808817370E+03  0.12978521663E+03 -0.13845027575E+04  0.15515016703E+04  0.10100000352E+00 0. -1.
</event>
<event>
 5   0  0.6628798E-05  0.2391078E+04  0.7818609E-02  0.8442851E-01
       -2   -1    0    0    0  501  0.00000000000E+00  0.00000000000E+00  0.12277044036E+04  0.12277044036E+04  0.25500000920E-02 0.  1.
        2   -1    0    0  501    0  0.00000000000E+00  0.00000000000E+00 -0.11642161013E+04  0.11642161013E+04  0.25500000920E-02 0. -1.
    10030    2    1    2    0    0  0.00000000000E+00  0.00000000000E+00  0.63488302265E+02  0.23919205049E+04  0.23910777773E+04 0.  0.
        4    1    3    3  502    0  0.78778590465E+03 -0.87381201399E+03 -0.18083381323E+03  0.11903178350E+04  0.12699999809E+01 0. -1.
       -4    1    3    3    0  502 -0.78778590465E+03  0.87381201399E+03  0.24432211550E+03  0.12016026699E+04  0.12699999809E+01 0.  1.
</event>
<event>
 5   0  0.2245375E-05  0.2208736E+04  0.7818609E-02  0.8514801E-01
        4   -1    0    0  501    0  0.00000000000E+00  0.00000000000E+00  0.11401578634E+04  0.11401585707E+04  0.12699999809E+01 0. -1.
       -4   -1    0    0    0  501  0.00000000000E+00  0.00000000000E+00 -0.10697000646E+04  0.10697008185E+04  0.12699999809E+01 0.  1.
    10030    2    1    2    0    0  0.00000000000E+00  0.00000000000E+00  0.70457798759E+02  0.22098593892E+04  0.22087358871E+04 0.  0.
        4    1    3    3  502    0 -0.76531448472E+03  0.73755308613E+03  0.33527496923E+03  0.11144961791E+04  0.12699999809E+01 0. -1.
       -4    1    3    3    0  502  0.76531448472E+03 -0.73755308613E+03 -0.26481717047E+03  0.10953632101E+04  0.12699999809E+01 0.  1.
</event>
<event>
 5   0  0.6293013E-05  0.2184141E+04  0.7818609E-02  0.8525058E-01
       -2   -1    0    0    0  501  0.00000000000E+00  0.00000000000E+00  0.13471043141E+04  0.13471043141E+04  0.25500000920E-02 0.  1.
        2   -1    0    0  501    0  0.00000000000E+00  0.00000000000E+00 -0.88531982543E+03  0.88531982544E+03  0.25500000920E-02 0. -1.
    10030    2    1    2    0    0  0.00000000000E+00  0.00000000000E+00  0.46178448870E+03  0.22324241396E+04  0.21841411642E+04 0.  0.
        1    1    3    3  502    0 -0.81134395009E+02 -0.82270123303E+03 -0.49846343779E+03  0.96534237850E+03  0.50400001928E-02 0. -1.
       -1    1    3    3    0  502  0.81134395009E+02  0.82270123303E+03  0.96024792649E+03  0.12670817611E+04  0.50400001928E-02 0.  1.
</event>
<event>
 5   0  0.6445740E-05  0.2181692E+04  0.7818609E-02  0.8526087E-01
       -2   -1    0    0    0  501  0.00000000000E+00  0.00000000000E+00  0.11419664269E+04  0.11419664269E+04  0.25500000920E-02 0. -1.
        2   -1    0    0  501    0  0.00000000000E+00  0.00000000000E+00 -0.10420141833E+04  0.10420141833E+04  0.25500000920E-02 0.  1.
    10030    2    1    2    0    0  0.00000000000E+00  0.00000000000E+00  0.99952243541E+02  0.21839806102E+04  0.21816921998E+04 0.  0.
        5    1    3    3  502    0 -0.69590170640E+03 -0.58341954281E+03  0.65498210764E+03  0.11196790608E+04  0.46999998093E+01 0. -1.
       -5    1    3    3    0  502  0.69590170640E+03  0.58341954281E+03 -0.55502986410E+03  0.10643015493E+04  0.46999998093E+01 0.  1.
</event>
<event>
 5   0  0.6628798E-05  0.2188610E+04  0.7818609E-02  0.8523184E-01
       -2   -1    0    0    0  501  0.00000000000E+00  0.00000000000E+00  0.15385335568E+04  0.15385335568E+04  0.25500000920E-02 0.  1.
        2   -1    0    0  501    0  0.00000000000E+00  0.00000000000E+00 -0.77834087418E+03  0.77834087419E+03  0.25500000920E-02 0. -1.
    10030    2    1    2    0    0  0.00000000000E+00  0.00000000000E+00  0.76019268259E+03  0.23168744310E+04  0.21886101101E+04 0.  0.
        4    1    3    3  502    0 -0.54698553482E+03  0.67197407343E+03 -0.32747632423E+03  0.92627462801E+03  0.12699999809E+01 0. -1.
       -4    1    3    3    0  502  0.54698553482E+03 -0.67197407343E+03  0.10876690068E+04  0.13905998029E+04  0.12699999809E+01 0.  1.
</event>
<event>
 5   0  0.2820239E-05  0.2198304E+04  0.7818609E-02  0.8519134E-01
       -1   -1    0    0    0  501  0.00000000000E+00  0.00000000000E+00  0.74170320834E+03  0.74170320836E+03  0.50400001928E-02 0. -1.
        1   -1    0    0  501    0  0.00000000000E+00  0.00000000000E+00 -0.16288665436E+04  0.16288665436E+04  0.50400001928E-02 0.  1.
    10030    2    1    2    0    0  0.00000000000E+00  0.00000000000E+00 -0.88716333525E+03  0.23705697520E+04  0.21983043842E+04 0.  0.
        3    1    3    3  502    0  0.54562635604E+03  0.94611438450E+03 -0.31021742573E+03  0.11353745683E+04  0.10100000352E+00 0. -1.
       -3    1    3    3    0  502 -0.54562635604E+03 -0.94611438450E+03 -0.57694590952E+03  0.12351951836E+04  0.10100000352E+00 0.  1.
</event>
<event>
 5   0  0.2820239E-05  0.2249721E+04  0.7818609E-02  0.8498013E-01
        1   -1    0    0  501    0  0.00000000000E+00  0.00000000000E+00  0.12571564068E+04  0.12571564068E+04  0.50400001928E-02 0.  1.
       -1   -1    0    0    0  501  0.00000000000E+00  0.00000000000E+00 -0.10064867222E+04  0.10064867223E+04  0.50400001928E-02 0. -1.
    10030    2    1    2    0    0  0.00000000000E+00  0.00000000000E+00  0.25066968454E+03  0.22636431290E+04  0.22497210771E+04 0.  0.
        3    1    3    3  502    0 -0.33406204306E+03  0.94848751791E+03  0.63252284026E+03  0.11879861842E+04  0.10100000352E+00 0.  1.
       -3    1    3    3    0  502  0.33406204306E+03 -0.94848751791E+03 -0.38185315572E+03  0.10756569448E+04  0.10100000352E+00 0. -1.
</event>
<event>
 5   0  0.6306919E-05  0.2153425E+04  0.7818609E-02  0.8538068E-01
       -2   -1    0    0    0  501  0.00000000000E+00  0.00000000000E+00  0.59055695499E+03  0.59055695499E+03  0.25500000920E-02 0.  1.
        2   -1    0    0  501    0  0.00000000000E+00  0.00000000000E+00 -0.19630787242E+04  0.19630787242E+04  0.25500000920E-02 0. -1.
    10030    2    1    2    0    0  0.00000000000E+00  0.00000000000E+00 -0.13725217692E+04  0.25536356792E+04  0.21534249871E+04 0.  0.
        3    1    3    3  502    0  0.95172569025E+03 -0.51602832000E+02 -0.92311619483E+02  0.95758346219E+03  0.10100000352E+00 0.  1.
       -3    1    3    3    0  502 -0.95172569025E+03  0.51602832000E+02 -0.12802101498E+04  0.15960522170E+04  0.10100000352E+00 0. -1.
</event>
<event>
 5   0  0.6628798E-05  0.2191069E+04  0.7818609E-02  0.8522154E-01
       -2   -1    0    0    0  501  0.00000000000E+00  0.00000000000E+00  0.68717663795E+03  0.68717663796E+03  0.25500000920E-02 0. -1.
        2   -1    0    0  501    0  0.00000000000E+00  0.00000000000E+00 -0.17465616114E+04  0.17465616114E+04  0.25500000920E-02 0.  1.
    10030    2    1    2    0    0  0.00000000000E+00  0.00000000000E+00 -0.10593849734E+04  0.24337382494E+04  0.21910694522E+04 0.  0.
        4    1    3    3  502    0 -0.41839354021E+03  0.40401604262E+03  0.50152279431E+03  0.76799013229E+03  0.12699999809E+01 0. -1.
       -4    1    3    3    0  502  0.41839354021E+03 -0.40401604262E+03 -0.15609077678E+04  0.16657481171E+04  0.12699999809E+01 0.  1.
</event>
<event>
 5   0  0.2929471E-05  0.2174434E+04  0.7818609E-02  0.8529145E-01
       -1   -1    0    0    0  501  0.00000000000E+00  0.00000000000E+00  0.64951120643E+03  0.64951120645E+03  0.50400001928E-02 0.  1.
        1   -1    0    0  501    0  0.00000000000E+00  0.00000000000E+00 -0.18198929215E+04  0.18198929215E+04  0.50400001928E-02 0. -1.
    10030    2    1    2    0    0  0.00000000000E+00  0.00000000000E+00 -0.11703817150E+04  0.24694041279E+04  0.21744340386E+04 0.  0.
        2    1    3    3  502    0 -0.35277385843E+03 -0.23690275319E+03 -0.17216781572E+04  0.17733437305E+04  0.25500000920E-02 0. -1.
       -2    1    3    3    0  502  0.35277385843E+03  0.23690275319E+03  0.55129644216E+03  0.69606039738E+03  0.25500000920E-02 0.  1.
</event>
<event>
 5   0  0.2908031E-05  0.2197607E+04  0.7818609E-02  0.8519425E-01
        1   -1    0    0  501    0  0.00000000000E+00  0.00000000000E+00  0.26984036326E+04  0.26984036326E+04  0.50400001928E-02 0.  1.
       -1   -1    0    0    0  501  0.00000000000E+00  0.00000000000E+00 -0.44743821285E+03  0.44743821288E+03  0.50400001928E-02 0. -1.
    10030    2    1    2    0    0  0.00000000000E+00  0.00000000000E+00  0.22509654197E+04  0.31458418455E+04  0.21976067883E+04 0.  0.
        1    1    3    3  502    0  0.59960693563E+03  0.92059432123E+03  0.10988356423E+04  0.15538539669E+04  0.50400001928E-02 0.  1.
       -1    1    3    3    0  502 -0.59960693563E+03 -0.92059432123E+03  0.11521297774E+04  0.15919878786E+04  0.50400001928E-02 0. -1.
</event>
<event>
 5   0  0.2929471E-05  0.2215803E+04  0.7818609E-02  0.8511879E-01
        1   -1    0    0  501    0  0.00000000000E+00  0.00000000000E+00  0.10613550084E+04  0.10613550084E+04  0.50400001928E-02 0.  1.
       -1   -1    0    0    0  501  0.00000000000E+00  0.00000000000E+00 -0.11564895158E+04  0.11564895158E+04  0.50400001928E-02 0. -1.
    10030    2    1    2    0    0  0.00000000000E+00  0.00000000000E+00 -0.95134507441E+02  0.22178445242E+04  0.22158031860E+04 0.  0.
        2    1    3    3  502    0  0.10066844665E+04  0.40658406445E+03 -0.26850058226E+03  0.11183992038E+04  0.25500000920E-02 0. -1.
       -2    1    3    3    0  502 -0.10066844665E+04 -0.40658406445E+03  0.17336607481E+03  0.10994453203E+04  0.25500000920E-02 0.  1.
</event>
<event>
 5   0  0.6628798E-05  0.2203102E+04  0.7818609E-02  0.8517138E-01
       -2   -1    0    0    0  501  0.00000000000E+00  0.00000000000E+00  0.47488541995E+03  0.47488541995E+03  0.25500000920E-02 0.  1.
        2   -1    0    0  501    0  0.00000000000E+00  0.00000000000E+00 -0.25551725970E+04  0.25551725970E+04  0.25500000920E-02 0. -1.
    10030    2    1    2    0    0  0.00000000000E+00  0.00000000000E+00 -0.20802871771E+04  0.30300580170E+04  0.22031016425E+04 0.  0.
        4    1    3    3  502    0  0.10519928152E+04 -0.14861906001E+03 -0.14402672252E+04  0.17897340029E+04  0.12699999809E+01 0. -1.
       -4    1    3    3    0  502 -0.10519928152E+04  0.14861906001E+03 -0.64001995193E+03  0.12403240141E+04  0.12699999809E+01 0.  1.
</event>
<event>
 5   0  0.6628798E-05  0.2333522E+04  0.7818609E-02  0.8464820E-01
        2   -1    0    0  501    0  0.00000000000E+00  0.00000000000E+00  0.15586951859E+04  0.15586951859E+04  0.25500000920E-02 0.  1.
       -2   -1    0    0    0  501  0.00000000000E+00  0.00000000000E+00 -0.87337884391E+03  0.87337884391E+03  0.25500000920E-02 0. -1.
    10030    2    1    2    0    0  0.00000000000E+00  0.00000000000E+00  0.68531634199E+03  0.24320740298E+04  0.23335221443E+04 0.  0.
        4    1    3    3  502    0  0.11483569943E+04  0.15285764017E+03  0.19808972394E+03  0.11753001302E+04  0.12699999809E+01 0. -1.
       -4    1    3    3    0  502 -0.11483569943E+04 -0.15285764017E+03  0.48722661805E+03  0.12567738996E+04  0.12699999809E+01 0.  1.
</event>
<event>
 5   0  0.6445740E-05  0.2190407E+04  0.7818609E-02  0.8522431E-01
       -2   -1    0    0    0  501  0.00000000000E+00  0.00000000000E+00  0.79426609461E+03  0.79426609462E+03  0.25500000920E-02 0. -1.
        2   -1    0    0  501    0  0.00000000000E+00  0.00000000000E+00 -0.15101626565E+04  0.15101626565E+04  0.25500000920E-02 0.  1.
    10030    2    1    2    0    0  0.00000000000E+00  0.00000000000E+00 -0.71589656188E+03  0.23044287511E+04  0.21904072639E+04 0.  0.
        5    1    3    3  502    0  0.67274703871E+03  0.84896468368E+03 -0.52797576327E+03  0.12050353144E+04  0.46999998093E+01 0. -1.
       -5    1    3    3    0  502 -0.67274703871E+03 -0.84896468368E+03 -0.18792079861E+03  0.10993934368E+04  0.46999998093E+01 0.  1.
</event>
<event>
 5   0  0.2820239E-05  0.2119858E+04  0.7818609E-02  0.8552546E-01
       -1   -1    0    0    0  501  0.00000000000E+00  0.00000000000E+00  0.14545116545E+04  0.14545116545E+04  0.50400001928E-02 0.  1.
        1   -1    0    0  501    0  0.00000000000E+00  0.00000000000E+00 -0.77238933328E+03  0.77238933329E+03  0.50400001928E-02 0. -1.
    10030    2    1    2    0    0  0.00000000000E+00  0.00000000000E+00  0.68212232122E+03  0.22269009878E+04  0.21198578132E+04 0.  0.
        3    1    3    3  502    0 -0.71372509971E+03  0.21881055852E+03  0.11314971751E+04  0.13555690488E+04  0.10100000352E+00 0.  1.
       -3    1    3    3    0  502  0.71372509971E+03 -0.21881055852E+03 -0.44937485389E+03  0.87133193904E+03  0.10100000352E+00 0. -1.
</event>
<event>
 5   0  0.2929471E-05  0.2205823E+04  0.7818609E-02  0.8516008E-01
        1   -1    0    0  501    0  0.00000000000E+00  0.00000000000E+00  0.13541814908E+04  0.13541814908E+04  0.50400001928E-02 0.  1.
       -1   -1    0    0    0  501  0.00000000000E+00  0.00000000000E+00 -0.89826482826E+03  0.89826482828E+03  0.50400001928E-02 0. -1.
    10030    2    1    2    0    0  0.00000000000E+00  0.00000000000E+00  0.45591666257E+03  0.22524463191E+04  0.22058228436E+04 0.  0.
        2    1    3    3  502    0  0.36520452981E+03 -0.10093772315E+04 -0.30768049786E+02  0.10738544673E+04  0.25500000920E-02 0.  1.
       -2    1    3    3    0  502 -0.36520452981E+03  0.10093772315E+04  0.48668471236E+03  0.11785918518E+04  0.25500000920E-02 0. -1.
</event>
<event>
 5   0  0.6293013E-05  0.1804061E+04  0.7818609E-02  0.8704143E-01
       -2   -1    0    0    0  501  0.00000000000E+00  0.00000000000E+00  0.46284751801E+03  0.46284751802E+03  0.25500000920E-02 0.  1.
        2   -1    0    0  501    0  0.00000000000E+00  0.00000000000E+00 -0.17579411778E+04  0.17579411778E+04  0.25500000920E-02 0. -1.
    10030    2    1    2    0    0  0.00000000000E+00  0.00000000000E+00 -0.12950936597E+04  0.22207886958E+04  0.18040606541E+04 0.  0.
        1    1    3    3  502    0 -0.41687881292E+03  0.35054682311E+03  0.23756104534E+03  0.59422745657E+03  0.50400001928E-02 0.  1.
       -1    1    3    3    0  502  0.41687881292E+03 -0.35054682311E+03 -0.15326547051E+04  0.16265612392E+04  0.50400001928E-02 0. -1.
</event>
<event>
 5   0  0.2753631E-05  0.2188011E+04  0.7818609E-02  0.8523435E-01
       -1   -1    0    0    0  501  0.00000000000E+00  0.00000000000E+00  0.10897071545E+04  0.10897071545E+04  0.50400001928E-02 0. -1.
        1   -1    0    0  501    0  0.00000000000E+00  0.00000000000E+00 -0.10983204652E+04  0.10983204652E+04  0.50400001928E-02 0.  1.
    10030    2    1    2    0    0  0.00000000000E+00  0.00000000000E+00 -0.86133107297E+01  0.21880276197E+04  0.21880106662E+04 0.  0.
        4    1    3    3  502    0 -0.22642724135E+03 -0.95294897366E+03 -0.49161425213E+03  0.10959321274E+04  0.12699999809E+01 0.  1.
       -4    1    3    3    0  502  0.22642724135E+03  0.95294897366E+03  0.48300094140E+03  0.10920954923E+04  0.12699999809E+01 0. -1.
</event>
<event>
 5   0  0.6293013E-05  0.2196300E+04  0.7818609E-02  0.8519970E-01
        2   -1    0    0  501    0  0.00000000000E+00  0.00000000000E+00  0.22074691428E+04  0.22074691428E+04  0.25500000920E-02 0. -1.
       -2   -1    0    0    0  501  0.00000000000E+00  0.00000000000E+00 -0.54629691923E+03  0.54629691923E+03  0.25500000920E-02 0.  1.
    10030    2    1    2    0    0  0.00000000000E+00  0.00000000000E+00  0.16611722235E+04  0.27537660620E+04  0.21963001543E+04 0.  0.
        1    1    3    3  502    0 -0.53255385196E+03 -0.69308181182E+03 -0.29523592338E+01  0.87406219433E+03  0.50400001928E-02 0.  1.
       -1    1    3    3    0  502  0.53255385196E+03  0.69308181182E+03  0.16641245828E+04  0.18797038677E+04  0.50400001928E-02 0. -1.
</event>
<event>
 5   0  0.2245375E-05  0.2199786E+04  0.7818609E-02  0.8518517E-01
        3   -1    0    0  501    0  0.00000000000E+00  0.00000000000E+00  0.37216596448E+03  0.37216597818E+03  0.10100000352E+00 0. -1.
       -3   -1    0    0    0  501  0.00000000000E+00  0.00000000000E+00 -0.32506040105E+04  0.32506040120E+04  0.10100000352E+00 0.  1.
    10030    2    1    2    0    0  0.00000000000E+00  0.00000000000E+00 -0.28784380460E+04  0.36227699902E+04  0.21997856299E+04 0.  0.
        3    1    3    3  502    0  0.33833481094E+03 -0.10377271325E+04 -0.16627099015E+04  0.19889575844E+04  0.10100000352E+00 0. -1.
       -3    1    3    3    0  502 -0.33833481094E+03  0.10377271325E+04 -0.12157281445E+04  0.16338124058E+04  0.10100000352E+00 0.  1.
</event>
<event>
 5   0  0.6414768E-05  0.2190041E+04  0.7818609E-02  0.8522585E-01
        2   -1    0    0  501    0  0.00000000000E+00  0.00000000000E+00  0.85564603107E+03  0.85564603107E+03  0.25500000920E-02 0. -1.
       -2   -1    0    0    0  501  0.00000000000E+00  0.00000000000E+00 -0.14013620416E+04  0.14013620416E+04  0.25500000920E-02 0.  1.
    10030    2    1    2    0    0  0.00000000000E+00  0.00000000000E+00 -0.54571601051E+03  0.22570080726E+04  0.21900409758E+04 0.  0.
        2    1    3    3  502    0 -0.43436634446E+02 -0.66705471316E+03  0.62096934246E+03  0.91238788672E+03  0.25500000920E-02 0. -1.
       -2    1    3    3    0  502  0.43436634446E+02  0.66705471316E+03 -0.11666853530E+04  0.13446201859E+04  0.25500000920E-02 0.  1.
</event>
<event>
 5   0  0.2753631E-05  0.2155895E+04  0.7818609E-02  0.8537013E-01
        1   -1    0    0  501    0  0.00000000000E+00  0.00000000000E+00  0.15248896858E+04  0.15248896858E+04  0.50400001928E-02 0. -1.
       -1   -1    0    0    0  501  0.00000000000E+00  0.00000000000E+00 -0.76200329578E+03  0.76200329580E+03  0.50400001928E-02 0.  1.
    10030    2    1    2    0    0  0.00000000000E+00  0.00000000000E+00  0.76288639000E+03  0.22868929816E+04  0.21558951424E+04 0.  0.
        4    1    3    3  502    0  0.71267827186E+03 -0.80544450205E+03  0.30408611559E+03  0.11176408831E+04  0.12699999809E+01 0.  1.
       -4    1    3    3    0  502 -0.71267827186E+03  0.80544450205E+03  0.45880027441E+03  0.11692520985E+04  0.12699999809E+01 0. -1.
</event>
<event>
 5   0  0.6628798E-05  0.2192529E+04  0.7818609E-02  0.8521544E-01
       -2   -1    0    0    0  501  0.00000000000E+00  0.00000000000E+00  0.67894400180E+03  0.67894400181E+03  0.25500000920E-02 0.  1.
        2   -1    0    0  501    0  0.00000000000E+00  0.00000000000E+00 -0.17700953962E+04  0.17700953962E+04  0.25500000920E-02 0. -1.
    10030    2    1    2    0    0  0.00000000000E+00  0.00000000000E+00 -0.10911513943E+04  0.24490393980E+04  0.21925288156E+04 0.  0.
        4    1    3    3  502    0 -0.77098644180E+03 -0.67338117646E+03 -0.10733314260E+03  0.10292639694E+04  0.12699999809E+01 0. -1.
       -4    1    3    3    0  502  0.77098644180E+03  0.67338117646E+03 -0.98381825175E+03  0.14197754286E+04  0.12699999809E+01 0.  1.
</event>
<event>
 5   0  0.2820239E-05  0.2209620E+04  0.7818609E-02  0.8514435E-01
        1   -1    0    0  501    0  0.00000000000E+00  0.00000000000E+00  0.99426285499E+03  0.99426285501E+03  0.50400001928E-02 0.  1.
       -1   -1    0    0    0  501  0.00000000000E+00  0.00000000000E+00 -0.12276485624E+04  0.12276485625E+04  0.50400001928E-02 0. -1.
    10030    2    1    2    0    0  0.00000000000E+00  0.00000000000E+00 -0.23338570745E+03  0.22219114175E+04  0.22096202069E+04 0.  0.
        3    1    3    3  502    0 -0.31101741076E+03  0.13607835251E+03  0.94051464488E+03  0.99990847343E+03  0.10100000352E+00 0.  1.
       -3    1    3    3    0  502  0.31101741076E+03 -0.13607835251E+03 -0.11739003523E+04  0.12220029440E+04  0.10100000352E+00 0. -1.
</event>
<event>
 5   0  0.6445740E-05  0.2207287E+04  0.7818609E-02  0.8515401E-01
        2   -1    0    0  501    0  0.00000000000E+00  0.00000000000E+00  0.95876385257E+03  0.95876385257E+03  0.25500000920E-02 0. -1.
       -2   -1    0    0    0  501  0.00000000000E+00  0.00000000000E+00 -0.12704161396E+04  0.12704161396E+04  0.25500000920E-02 0.  1.
    10030    2    1    2    0    0  0.00000000000E+00  0.00000000000E+00 -0.31165228705E+03  0.22291799922E+04  0.22072870882E+04 0.  0.
        5    1    3    3  502    0 -0.63724316524E+03 -0.73947120893E+03 -0.67582183688E+03  0.11872884088E+04  0.46999998093E+01 0.  1.
       -5    1    3    3    0  502  0.63724316524E+03  0.73947120893E+03  0.36416954984E+03  0.10418915834E+04  0.46999998093E+01 0. -1.
</event>
<event>
 5   0  0.6445740E-05  0.2212536E+04  0.7818609E-02  0.8513228E-01
        2   -1    0    0  501    0  0.00000000000E+00  0.00000000000E+00  0.18521280311E+04  0.18521280311E+04  0.25500000920E-02 0.  1.
       -2   -1    0    0    0  501  0.00000000000E+00  0.00000000000E+00 -0.66076930824E+03  0.66076930824E+03  0.25500000920E-02 0. -1.
    10030    2    1    2    0    0  0.00000000000E+00  0.00000000000E+00  0.11913587228E+04  0.25128973393E+04  0.22125364249E+04 0.  0.
        5    1    3    3  502    0 -0.22461277878E+03  0.92238742101E+03 -0.49362797356E+02  0.95063569814E+03  0.46999998093E+01 0. -1.
       -5    1    3    3    0  502  0.22461277878E+03 -0.92238742101E+03  0.12407215202E+04  0.15622616412E+04  0.46999998093E+01 0.  1.
</event>
<event>
 5   0  0.6293013E-05  0.2096964E+04  0.7818609E-02  0.8562582E-01
       -2   -1    0    0    0  501  0.00000000000E+00  0.00000000000E+00  0.10660410491E+04  0.10660410491E+04  0.25500000920E-02 0.  1.
        2   -1    0    0  501    0  0.00000000000E+00  0.00000000000E+00 -0.10312121296E+04  0.10312121296E+04  0.25500000920E-02 0. -1.
    10030    2    1    2    0    0  0.00000000000E+00  0.00000000000E+00  0.34828919468E+02  0.20972531787E+04  0.20969639581E+04 0.  0.
        1    1    3    3  502    0 -0.52500606480E+02 -0.10214019695E+04  0.24830591921E+03  0.10524609857E+04  0.50400001928E-02 0.  1.
       -1    1    3    3    0  502  0.52500606480E+02  0.10214019695E+04 -0.21347699975E+03  0.10447921929E+04  0.50400001928E-02 0. -1.
</event>
<event>
 5   0  0.2753631E-05  0.2189211E+04  0.7818609E-02  0.8522932E-01
        1   -1    0    0  501    0  0.00000000000E+00  0.00000000000E+00  0.67138234799E+03  0.67138234801E+03  0.50400001928E-02 0. -1.
       -1   -1    0    0    0  501  0.00000000000E+00  0.00000000000E+00 -0.17846177369E+04  0.17846177369E+04  0.50400001928E-02 0.  1.
    10030    2    1    2    0    0  0.00000000000E+00  0.00000000000E+00 -0.11132353889E+04  0.24560000849E+04  0.21892106765E+04 0.  0.
        4    1    3    3  502    0 -0.51414671043E+03  0.89287383732E+03 -0.97123575211E+03  0.14159346836E+04  0.12699999809E+01 0.  1.
       -4    1    3    3    0  502  0.51414671043E+03 -0.89287383732E+03 -0.14199963680E+03  0.10400654013E+04  0.12699999809E+01 0. -1.
</event>
<event>
 5   0  0.2820239E-05  0.2242657E+04  0.7818609E-02  0.8500880E-01
       -1   -1    0    0    0  501  0.00000000000E+00  0.00000000000E+00  0.12185290799E+04  0.12185290799E+04  0.50400001928E-02 0.  1.
        1   -1    0    0  501    0  0.00000000000E+00  0.00000000000E+00 -0.10318817997E+04  0.10318817997E+04  0.50400001928E-02 0. -1.
    10030    2    1    2    0    0  0.00000000000E+00  0.00000000000E+00  0.18664728023E+03  0.22504108796E+04  0.22426573345E+04 0.  0.
        3    1    3    3  502    0  0.39862592231E+03  0.22907908411E+03 -0.93295277680E+03  0.10400868938E+04  0.10100000352E+00 0. -1.
       -3    1    3    3    0  502 -0.39862592231E+03 -0.22907908411E+03  0.11196000570E+04  0.12103239858E+04  0.10100000352E+00 0.  1.
</event>
<event>
 5   0  0.2820239E-05  0.2204181E+04  0.7818609E-02  0.8516690E-01
        1   -1    0    0  501    0  0.00000000000E+00  0.00000000000E+00  0.10240880974E+04  0.10240880974E+04  0.50400001928E-02 0. -1.
       -1   -1    0    0    0  501  0.00000000000E+00  0.00000000000E+00 -0.11860341166E+04  0.11860341166E+04  0.50400001928E-02 0.  1.
    10030    2    1    2    0    0  0.00000000000E+00  0.00000000000E+00 -0.16194601915E+03  0.22101222140E+04  0.22041809562E+04 0.  0.
        3    1    3    3  502    0  0.54994067115E+03  0.54619659013E+03 -0.86656294889E+03  0.11626249659E+04  0.10100000352E+00 0.  1.
       -3    1    3    3    0  502 -0.54994067115E+03 -0.54619659013E+03  0.70461692974E+03  0.10474972481E+04  0.10100000352E+00 0. -1.
</event>
<event>
 5   0  0.6628798E-05  0.2211269E+04  0.7818609E-02  0.8513753E-01
       -2   -1    0    0    0  501  0.00000000000E+00  0.00000000000E+00  0.79652734992E+03  0.79652734993E+03  0.25500000920E-02 0.  1.
        2   -1    0    0  501    0  0.00000000000E+00  0.00000000000E+00 -0.15346957474E+04  0.15346957474E+04  0.25500000920E-02 0. -1.
    10030    2    1    2    0    0  0.00000000000E+00  0.00000000000E+00 -0.73816839745E+03  0.23312230973E+04  0.22112685378E+04 0.  0.
        4    1    3    3  502    0 -0.70283720563E+03  0.57445417145E+02  0.52866474286E+03  0.88134450518E+03  0.12699999809E+01 0.  1.
       -4    1    3    3    0  502  0.70283720563E+03 -0.57445417145E+02 -0.12668331403E+04  0.14498785921E+04  0.12699999809E+01 0. -1.
</event>
<event>
 5   0  0.2910318E-05  0.2188350E+04  0.7818609E-02  0.8523293E-01
       -1   -1    0    0    0  501  0.00000000000E+00  0.00000000000E+00  0.81386075480E+03  0.81386075482E+03  0.50400001928E-02 0. -1.
        1   -1    0    0  501    0  0.00000000000E+00  0.00000000000E+00 -0.14710371856E+04  0.14710371856E+04  0.50400001928E-02 0.  1.
    10030    2    1    2    0    0  0.00000000000E+00  0.00000000000E+00 -0.65717643076E+03  0.22848979404E+04  0.21883504602E+04 0.  0.
        5    1    3    3  502    0  0.51335518727E+03  0.76443060724E+03 -0.94568774975E+03  0.13199375408E+04  0.46999998093E+01 0.  1.
       -5    1    3    3    0  502 -0.51335518727E+03 -0.76443060724E+03  0.28851131899E+03  0.96496039958E+03  0.46999998093E+01 0. -1.
</event>
<event>
 5   0  0.2753631E-05  0.2182557E+04  0.7818609E-02  0.8525724E-01
       -1   -1    0    0    0  501  0.00000000000E+00  0.00000000000E+00  0.12854009459E+04  0.12854009459E+04  0.50400001928E-02 0. -1.
        1   -1    0    0  501    0  0.00000000000E+00  0.00000000000E+00 -0.92647260927E+03  0.92647260928E+03  0.50400001928E-02 0.  1.
    10030    2    1    2    0    0  0.00000000000E+00  0.00000000000E+00  0.35892833666E+03  0.22118735552E+04  0.21825570035E+04 0.  0.
        4    1    3    3  502    0  0.10386039047E+04  0.22568057298E+03 -0.71362582309E+02  0.10652342573E+04  0.12699999809E+01 0.  1.
       -4    1    3    3    0  502 -0.10386039047E+04 -0.22568057298E+03  0.43029091897E+03  0.11466392980E+04  0.12699999809E+01 0. -1.
</event>
<event>
 5   0  0.2929471E-05  0.2187226E+04  0.7818609E-02  0.8523764E-01
        1   -1    0    0  501    0  0.00000000000E+00  0.00000000000E+00  0.10954087494E+04  0.10954087494E+04  0.50400001928E-02 0. -1.
       -1   -1    0    0    0  501  0.00000000000E+00  0.00000000000E+00 -0.10918200909E+04  0.10918200909E+04  0.50400001928E-02 0.  1.
    10030    2    1    2    0    0  0.00000000000E+00  0.00000000000E+00  0.35886584929E+01  0.21872288403E+04  0.21872258963E+04 0.  0.
        2    1    3    3  502    0  0.41179113008E+03  0.82430885641E+03  0.59080467610E+03  0.10945808288E+04  0.25500000920E-02 0. -1.
       -2    1    3    3    0  502 -0.41179113008E+03 -0.82430885641E+03 -0.58721601760E+03  0.10926480114E+04  0.25500000920E-02 0.  1.
</event>
<event>
 5   0  0.6306919E-05  0.2217959E+04  0.7818609E-02  0.8510990E-01
       -2   -1    0    0    0  501  0.00000000000E+00  0.00000000000E+00  0.10791981785E+04  0.10791981785E+04  0.25500000920E-02 0.  1.
        2   -1    0    0  501    0  0.00000000000E+00  0.00000000000E+00 -0.11395827141E+04  0.11395827141E+04  0.25500000920E-02 0. -1.
    10030    2    1    2    0    0  0.00000000000E+00  0.00000000000E+00 -0.60384535550E+02  0.22187808926E+04  0.22179590522E+04 0.  0.
        3    1    3    3  502    0 -0.87229083216E+03  0.67665071053E+03  0.75146793518E+02  0.11065236241E+04  0.10100000352E+00 0. -1.
       -3    1    3    3    0  502  0.87229083216E+03 -0.67665071053E+03 -0.13553132907E+03  0.11122572685E+04  0.10100000352E+00 0.  1.
</event>
<event>
 5   0  0.6628798E-05  0.2163273E+04  0.7818609E-02  0.8533872E-01
       -2   -1    0    0    0  501  0.00000000000E+00  0.00000000000E+00  0.95445249777E+03  0.95445249777E+03  0.25500000920E-02 0. -1.
        2   -1    0    0  501    0  0.00000000000E+00  0.00000000000E+00 -0.12257685589E+04  0.12257685589E+04  0.25500000920E-02 0.  1.
    10030    2    1    2    0    0  0.00000000000E+00  0.00000000000E+00 -0.27131606117E+03  0.21802210567E+04  0.21632733186E+04 0.  0.
        4    1    3    3  502    0  0.19382827481E+02 -0.34149752941E+03 -0.11698256767E+04  0.12188067867E+04  0.12699999809E+01 0.  1.
       -4    1    3    3    0  502 -0.19382827481E+02  0.34149752941E+03  0.89850961549E+03  0.96141427003E+03  0.12699999809E+01 0. -1.
</event>
<event>
 5   0  0.6293013E-05  0.2254054E+04  0.7818609E-02  0.8496261E-01
       -2   -1    0    0    0  501  0.00000000000E+00  0.00000000000E+00  0.45096461989E+03  0.45096461989E+03  0.25500000920E-02 0.  1.
        2   -1    0    0  501    0  0.00000000000E+00  0.00000000000E+00 -0.28166058020E+04  0.28166058020E+04  0.25500000920E-02 0. -1.
    10030    2    1    2    0    0  0.00000000000E+00  0.00000000000E+00 -0.23656411821E+04  0.32675704219E+04  0.22540537393E+04 0.  0.
        1    1    3    3  502    0  0.48486015613E+03 -0.94235219593E+03 -0.62688244315E+03  0.12312995694E+04  0.50400001928E-02 0. -1.
       -1    1    3    3    0  502 -0.48486015613E+03  0.94235219593E+03 -0.17387587390E+04  0.20362708524E+04  0.50400001928E-02 0.  1.
</event>
<event>
 5   0  0.6306919E-05  0.2192759E+04  0.7818609E-02  0.8521448E-01
        2   -1    0    0  501    0  0.00000000000E+00  0.00000000000E+00  0.21855250725E+04  0.21855250725E+04  0.25500000920E-02 0.  1.
       -2   -1    0    0    0  501  0.00000000000E+00  0.00000000000E+00 -0.55000407206E+03  0.55000407206E+03  0.25500000920E-02 0. -1.
    10030    2    1    2    0    0  0.00000000000E+00  0.00000000000E+00  0.16355210004E+04  0.27355291446E+04  0.21927587095E+04 0.  0.
        3    1    3    3  502    0 -0.10325457604E+04 -0.34753376381E+03  0.97114673828E+03  0.14594712953E+04  0.10100000352E+00 0. -1.
       -3    1    3    3    0  502  0.10325457604E+04  0.34753376381E+03  0.66437426216E+03  0.12760578493E+04  0.10100000352E+00 0.  1.
</event>
<event>
 5   0  0.2910318E-05  0.2196298E+04  0.7818609E-02  0.8519970E-01
       -1   -1    0    0    0  501  0.00000000000E+00  0.00000000000E+00  0.10344186908E+04  0.10344186908E+04  0.50400001928E-02 0.  1.
        1   -1    0    0  501    0  0.00000000000E+00  0.00000000000E+00 -0.11658060205E+04  0.11658060205E+04  0.50400001928E-02 0. -1.
    10030    2    1    2    0    0  0.00000000000E+00  0.00000000000E+00 -0.13138732973E+03  0.22002247113E+04  0.21962982834E+04 0.  0.
        5    1    3    3  502    0  0.19521505645E+02 -0.24506695764E+02 -0.11653480859E+04  0.11657786748E+04  0.46999998093E+01 0. -1.
       -5    1    3    3    0  502 -0.19521505645E+02  0.24506695764E+02  0.10339607561E+04  0.10344460365E+04  0.46999998093E+01 0.  1.
</event>
<event>
 5   0  0.2753631E-05  0.2201987E+04  0.7818609E-02  0.8517602E-01
        1   -1    0    0  501    0  0.00000000000E+00  0.00000000000E+00  0.21243205163E+04  0.21243205163E+04  0.50400001928E-02 0. -1.
       -1   -1    0    0    0  501  0.00000000000E+00  0.00000000000E+00 -0.57062306761E+03  0.57062306763E+03  0.50400001928E-02 0.  1.
    10030    2    1    2    0    0  0.00000000000E+00  0.00000000000E+00  0.15536974487E+04  0.26949435839E+04  0.22019866390E+04 0.  0.
        4    1    3    3  502    0  0.25915828022E+03  0.35530136632E+02 -0.53203875238E+03  0.59286781979E+03  0.12699999809E+01 0.  1.
       -4    1    3    3    0  502 -0.25915828022E+03 -0.35530136632E+02  0.20857362011E+04  0.21020757641E+04  0.12699999809E+01 0. -1.
</event>
<event>
 5   0  0.2910318E-05  0.2209157E+04  0.7818609E-02  0.8514627E-01
        1   -1    0    0  501    0  0.00000000000E+00  0.00000000000E+00  0.14551596366E+04  0.14551596366E+04  0.50400001928E-02 0.  1.
       -1   -1    0    0    0  501  0.00000000000E+00  0.00000000000E+00 -0.83846003054E+03  0.83846003056E+03  0.50400001928E-02 0. -1.
    10030    2    1    2    0    0  0.00000000000E+00  0.00000000000E+00  0.61669960601E+03  0.22936196671E+04  0.22091565751E+04 0.  0.
        5    1    3    3  502    0 -0.22226234486E+03  0.97780466373E+03 -0.17257589367E+03  0.10175003879E+04  0.46999998093E+01 0. -1.
       -5    1    3    3    0  502  0.22226234486E+03 -0.97780466373E+03  0.78927549967E+03  0.12761192792E+04  0.46999998093E+01 0.  1.
</event>
<event>
 5   0  0.2908031E-05  0.2252148E+04  0.7818609E-02  0.8497031E-01
       -1   -1    0    0    0  501  0.00000000000E+00  0.00000000000E+00  0.81432539731E+03  0.81432539733E+03  0.50400001928E-02 0. -1.
        1   -1    0    0  501    0  0.00000000000E+00  0.00000000000E+00 -0.15571690397E+04  0.15571690397E+04  0.50400001928E-02 0.  1.
    10030    2    1    2    0    0  0.00000000000E+00  0.00000000000E+00 -0.74284364236E+03  0.23714944370E+04  0.22521476834E+04 0.  0.
        1    1    3    3  502    0  0.33576413456E+03  0.10005511571E+04 -0.78491697461E+03  0.13152698693E+04  0.50400001928E-02 0.  1.
       -1    1    3    3    0  502 -0.33576413456E+03 -0.10005511571E+04  0.42073332251E+02  0.10562245677E+04  0.50400001928E-02 0. -1.
</event>
<event>
 5   0  0.6628798E-05  0.2206188E+04  0.7818609E-02  0.8515857E-01
        2   -1    0    0  501    0  0.00000000000E+00  0.00000000000E+00  0.16551487311E+04  0.16551487311E+04  0.25500000920E-02 0. -1.
       -2   -1    0    0    0  501  0.00000000000E+00  0.00000000000E+00 -0.73517048222E+03  0.73517048222E+03  0.25500000920E-02 0.  1.
    10030    2    1    2    0    0  0.00000000000E+00  0.00000000000E+00  0.91997824888E+03  0.23903192133E+04  0.22061881069E+04 0.  0.
        4    1    3    3  502    0 -0.34720034168E+03 -0.53769545274E+03 -0.51340920513E+03  0.82052123798E+03  0.12699999809E+01 0.  1.
       -4    1    3    3    0  502  0.34720034168E+03  0.53769545274E+03  0.14333874540E+04  0.15697979753E+04  0.12699999809E+01 0. -1.
</event>
<event>
 5   0  0.6293013E-05  0.2155891E+04  0.7818609E-02  0.8537015E-01
       -2   -1    0    0    0  501  0.00000000000E+00  0.00000000000E+00  0.11859634215E+04  0.11859634216E+04  0.25500000920E-02 0.  1.
        2   -1    0    0  501    0  0.00000000000E+00  0.00000000000E+00 -0.97976614848E+03  0.97976614848E+03  0.25500000920E-02 0. -1.
    10030    2    1    2    0    0  0.00000000000E+00  0.00000000000E+00  0.20619727307E+03  0.21657295700E+04  0.21558912902E+04 0.  0.
        1    1    3    3  502    0 -0.63047636179E+03 -0.81147145328E+03 -0.22393336391E+03  0.10517283460E+04  0.50400001928E-02 0. -1.
       -1    1    3    3    0  502  0.63047636179E+03  0.81147145328E+03  0.43013063698E+03  0.11140012240E+04  0.50400001928E-02 0.  1.
</event>
<event>
 5   0  0.6414768E-05  0.2207221E+04  0.7818609E-02  0.8515429E-01
        2   -1    0    0  501    0  0.00000000000E+00  0.00000000000E+00  0.14141676085E+04  0.14141676085E+04  0.25500000920E-02 0. -1.
       -2   -1    0    0    0  501  0.00000000000E+00  0.00000000000E+00 -0.86125274070E+03  0.86125274070E+03  0.25500000920E-02 0.  1.
    10030    2    1    2    0    0  0.00000000000E+00  0.00000000000E+00  0.55291486780E+03  0.22754203492E+04  0.22072206311E+04 0.  0.
        2    1    3    3  502    0 -0.62447040024E+03  0.88651406550E+03  0.64971788162E+02  0.10863203038E+04  0.25500000920E-02 0. -1.
       -2    1    3    3    0  502  0.62447040024E+03 -0.88651406550E+03  0.48794307963E+03  0.11891000454E+04  0.25500000920E-02 0.  1.
</event>
<event>
 5   0  0.2820239E-05  0.2195962E+04  0.7818609E-02  0.8520111E-01
        1   -1    0    0  501    0  0.00000000000E+00  0.00000000000E+00  0.16722454987E+04  0.16722454988E+04  0.50400001928E-02 0. -1.
       -1   -1    0    0    0  501  0.00000000000E+00  0.00000000000E+00 -0.72092412734E+03  0.72092412736E+03  0.50400001928E-02 0.  1.
    10030    2    1    2    0    0  0.00000000000E+00  0.00000000000E+00  0.95132137140E+03  0.23931696261E+04  0.21959618639E+04 0.  0.
        3    1    3    3  502    0  0.79294023717E+03 -0.55047295102E+03  0.10458977456E+04  0.14232627284E+04  0.10100000352E+00 0. -1.
       -3    1    3    3    0  502 -0.79294023717E+03  0.55047295102E+03 -0.94576374189E+02  0.96990689774E+03  0.10100000352E+00 0.  1.
</event>
<event>
 5   0  0.6306919E-05  0.2267026E+04  0.7818609E-02  0.8491037E-01
       -2   -1    0    0    0  501  0.00000000000E+00  0.00000000000E+00  0.66508607873E+03  0.66508607874E+03  0.25500000920E-02 0. -1.
        2   -1    0    0  501    0  0.00000000000E+00  0.00000000000E+00 -0.19318584609E+04  0.19318584609E+04  0.25500000920E-02 0.  1.
    10030    2    1    2    0    0  0.00000000000E+00  0.00000000000E+00 -0.12667723822E+04  0.25969445397E+04  0.22670263946E+04 0.  0.
        3    1    3    3  502    0  0.11148427416E+04  0.13956311568E+03 -0.46155700359E+03  0.12146551279E+04  0.10100000352E+00 0. -1.
       -3    1    3    3    0  502 -0.11148427416E+04 -0.13956311568E+03 -0.80521537860E+03  0.13822894118E+04  0.10100000352E+00 0.  1.
</event>
<event>
 5   0  0.6445740E-05  0.2206946E+04  0.7818609E-02  0.8515543E-01
       -2   -1    0    0    0  501  0.00000000000E+00  0.00000000000E+00  0.76378267451E+03  0.76378267452E+03  0.25500000920E-02 0.  1.
        2   -1    0    0  501    0  0.00000000000E+00  0.00000000000E+00 -0.15942397167E+04  0.15942397167E+04  0.25500000920E-02 0. -1.
    10030    2    1    2    0    0  0.00000000000E+00  0.00000000000E+00 -0.83045704219E+03  0.23580223912E+04  0.22069460117E+04 0.  0.
        5    1    3    3  502    0 -0.15073558075E+02  0.77629384638E+03 -0.12529757221E+04  0.14740521016E+04  0.46999998093E+01 0. -1.
       -5    1    3    3    0  502  0.15073558075E+02 -0.77629384638E+03  0.42251867990E+03  0.88397028963E+03  0.46999998093E+01 0.  1.
</event>
<event>
 5   0  0.6293013E-05  0.2197553E+04  0.7818609E-02  0.8519447E-01
        2   -1    0    0  501    0  0.00000000000E+00  0.00000000000E+00  0.10094766716E+04  0.10094766716E+04  0.25500000920E-02 0. -1.
       -2   -1    0    0    0  501  0.00000000000E+00  0.00000000000E+00 -0.11959764227E+04  0.11959764227E+04  0.25500000920E-02 0.  1.
    10030    2    1    2    0    0  0.00000000000E+00  0.00000000000E+00 -0.18649975107E+03  0.22054530943E+04  0.21975534564E+04 0.  0.
        1    1    3    3  502    0  0.11110739782E+03  0.10919920866E+04 -0.14361720833E+03  0.11069857604E+04  0.50400001928E-02 0.  1.
       -1    1    3    3    0  502 -0.11110739782E+03 -0.10919920866E+04 -0.42882542742E+02  0.10984673339E+04  0.50400001928E-02 0. -1.
</event>
<event>
 5   0  0.2820239E-05  0.2188923E+04  0.7818609E-02  0.8523053E-01
       -1   -1    0    0    0  501  0.00000000000E+00  0.00000000000E+00  0.11269487143E+04  0.11269487143E+04  0.50400001928E-02 0. -1.
        1   -1    0    0  501    0  0.00000000000E+00  0.00000000000E+00 -0.10629107681E+04  0.10629107681E+04  0.50400001928E-02 0.  1.
    10030    2    1    2    0    0  0.00000000000E+00  0.00000000000E+00  0.64037946192E+02  0.21898594823E+04  0.21889229529E+04 0.  0.
        3    1    3    3  502    0  0.84649807580E+03 -0.59628285027E+03 -0.32272219534E+03  0.10845560638E+04  0.10100000352E+00 0. -1.
       -3    1    3    3    0  502 -0.84649807580E+03  0.59628285027E+03  0.38676014154E+03  0.11053034186E+04  0.10100000352E+00 0.  1.
</event>
<event>
 5   0  0.2753631E-05  0.2159913E+04  0.7818609E-02  0.8535301E-01
       -1   -1    0    0    0  501  0.00000000000E+00  0.00000000000E+00  0.57495816034E+03  0.57495816037E+03  0.50400001928E-02 0.  1.
        1   -1    0    0  501    0  0.00000000000E+00  0.00000000000E+00 -0.20285053207E+04  0.20285053207E+04  0.50400001928E-02 0. -1.
    10030    2    1    2    0    0  0.00000000000E+00  0.00000000000E+00 -0.14535471604E+04  0.26034634811E+04  0.21599126718E+04 0.  0.
        4    1    3    3  502    0 -0.23436829548E+03  0.22909887692E+03  0.51356591792E+03  0.60923423925E+03  0.12699999809E+01 0.  1.
       -4    1    3    3    0  502  0.23436829548E+03 -0.22909887692E+03 -0.19671130783E+04  0.19942292418E+04  0.12699999809E+01 0. -1.
</event>
<event>
 5   0  0.2820239E-05  0.2215433E+04  0.7818609E-02  0.8512032E-01
       -1   -1    0    0    0  501  0.00000000000E+00  0.00000000000E+00  0.81691715073E+03  0.81691715074E+03  0.50400001928E-02 0. -1.
        1   -1    0    0  501    0  0.00000000000E+00  0.00000000000E+00 -0.15020315601E+04  0.15020315601E+04  0.50400001928E-02 0.  1.
    10030    2    1    2    0    0  0.00000000000E+00  0.00000000000E+00 -0.68511440934E+03  0.23189487108E+04  0.22154325468E+04 0.  0.
        3    1    3    3  502    0  0.25428273815E+03 -0.23529095337E+03  0.75875163929E+03  0.83410167485E+03  0.10100000352E+00 0. -1.
       -3    1    3    3    0  502 -0.25428273815E+03  0.23529095337E+03 -0.14438660486E+04  0.14848470360E+04  0.10100000352E+00 0.  1.
</event>
<event>
 5   0  0.6293013E-05  0.2204855E+04  0.7818609E-02  0.8516410E-01
       -2   -1    0    0    0  501  0.00000000000E+00  0.00000000000E+00  0.84252909892E+03  0.84252909892E+03  0.25500000920E-02 0. -1.
        2   -1    0    0  501    0  0.00000000000E+00  0.00000000000E+00 -0.14424978232E+04  0.14424978232E+04  0.25500000920E-02 0.  1.
    10030    2    1    2    0    0  0.00000000000E+00  0.00000000000E+00 -0.59996872427E+03  0.22850269221E+04  0.22048549986E+04 0.  0.
        1    1    3    3  502    0 -0.87674634830E+03 -0.15055632643E+03  0.37484142175E+03  0.96532764292E+03  0.50400001928E-02 0. -1.
       -1    1    3    3    0  502  0.87674634830E+03  0.15055632643E+03 -0.97481014602E+03  0.13196992792E+04  0.50400001928E-02 0.  1.
</event>
<event>
 5   0  0.6445740E-05  0.2184518E+04  0.7818609E-02  0.8524900E-01
       -2   -1    0    0    0  501  0.00000000000E+00  0.00000000000E+00  0.84479679612E+03  0.84479679613E+03  0.25500000920E-02 0. -1.
        2   -1    0    0  501    0  0.00000000000E+00  0.00000000000E+00 -0.14122088376E+04  0.14122088376E+04  0.25500000920E-02 0.  1.
    10030    2    1    2    0    0  0.00000000000E+00  0.00000000000E+00 -0.56741204151E+03  0.22570056338E+04  0.21845177971E+04 0.  0.
        5    1    3    3  502    0 -0.10410071499E+03 -0.37635115669E+03  0.77020613361E+03  0.86354891596E+03  0.46999998093E+01 0. -1.
       -5    1    3    3    0  502  0.10410071499E+03  0.37635115669E+03 -0.13376181751E+04  0.13934567178E+04  0.46999998093E+01 0.  1.
</event>
<event>
 5   0  0.6414768E-05  0.2197214E+04  0.7818609E-02  0.8519589E-01
       -2   -1    0    0    0  501  0.00000000000E+00  0.00000000000E+00  0.57796156180E+03  0.57796156181E+03  0.25500000920E-02 0. -1.
        2   -1    0    0  501    0  0.00000000000E+00  0.00000000000E+00 -0.20882651576E+04  0.20882651576E+04  0.25500000920E-02 0.  1.
    10030    2    1    2    0    0  0.00000000000E+00  0.00000000000E+00 -0.15103035958E+04  0.26662267194E+04  0.21972136828E+04 0.  0.
        2    1    3    3  502    0  0.63271658624E+03 -0.12645242038E+03  0.32381409898E+03  0.72192524809E+03  0.25500000920E-02 0. -1.
       -2    1    3    3    0  502 -0.63271658624E+03  0.12645242038E+03 -0.18341176948E+04  0.19443014713E+04  0.25500000920E-02 0.  1.
</event>
<event>
 5   0  0.6306919E-05  0.2227852E+04  0.7818609E-02  0.8506924E-01
        2   -1    0    0  501    0  0.00000000000E+00  0.00000000000E+00  0.11857603861E+04  0.11857603861E+04  0.25500000920E-02 0.  1.
       -2   -1    0    0    0  501  0.00000000000E+00  0.00000000000E+00 -0.10464437910E+04  0.10464437910E+04  0.25500000920E-02 0. -1.
    10030    2    1    2    0    0  0.00000000000E+00  0.00000000000E+00  0.13931659508E+03  0.22322041771E+04  0.22278524131E+04 0.  0.
        3    1    3    3  502    0 -0.42236516896E+03  0.55791637901E+03 -0.79873447658E+03  0.10619038545E+04  0.10100000352E+00 0. -1.
       -3    1    3    3    0  502  0.42236516896E+03 -0.55791637901E+03  0.93805107166E+03  0.11703003226E+04  0.10100000352E+00 0.  1.
</event>
<event>
 5   0  0.6414768E-05  0.2159132E+04  0.7818609E-02  0.8535633E-01
       -2   -1    0    0    0  501  0.00000000000E+00  0.00000000000E+00  0.45988609997E+03  0.45988609997E+03  0.25500000920E-02 0.  1.
        2   -1    0    0  501    0  0.00000000000E+00  0.00000000000E+00 -0.25342418239E+04  0.25342418239E+04  0.25500000920E-02 0. -1.
    10030    2    1    2    0    0  0.00000000000E+00  0.00000000000E+00 -0.20743557240E+04  0.29941279239E+04  0.21591318522E+04 0.  0.
        2    1    3    3  502    0  0.11226041533E+03 -0.96159611159E+03 -0.37474411768E+03  0.10381245765E+04  0.25500000920E-02 0.  1.
       -2    1    3    3    0  502 -0.11226041533E+03  0.96159611159E+03 -0.16996116063E+04  0.19560033474E+04  0.25500000920E-02 0. -1.
</event>
<event>
 5   0  0.6306919E-05  0.2188071E+04  0.7818609E-02  0.8523410E-01
       -2   -1    0    0    0  501  0.00000000000E+00  0.00000000000E+00  0.91490151710E+03  0.91490151711E+03  0.25500000920E-02 0. -1.
        2   -1    0    0  501    0  0.00000000000E+00  0.00000000000E+00 -0.13082427495E+04  0.13082427495E+04  0.25500000920E-02 0.  1.
    10030    2    1    2    0    0  0.00000000000E+00  0.00000000000E+00 -0.39334123236E+03  0.22231442666E+04  0.21880706353E+04 0.  0.
        3    1    3    3  502    0 -0.82706539312E+03 -0.60759146675E+03  0.18849530596E+03  0.10434246717E+04  0.10100000352E+00 0. -1.
       -3    1    3    3    0  502  0.82706539312E+03  0.60759146675E+03 -0.58183653832E+03  0.11797195949E+04  0.10100000352E+00 0.  1.
</event>
<event>
 5   0  0.6306919E-05  0.2201312E+04  0.7818609E-02  0.8517882E-01
       -2   -1    0    0    0  501  0.00000000000E+00  0.00000000000E+00  0.11151286370E+04  0.11151286370E+04  0.25500000920E-02 0.  1.
        2   -1    0    0  501    0  0.00000000000E+00  0.00000000000E+00 -0.10863708838E+04  0.10863708838E+04  0.25500000920E-02 0. -1.
    10030    2    1    2    0    0  0.00000000000E+00  0.00000000000E+00  0.28757753246E+02  0.22014995208E+04  0.22013116844E+04 0.  0.
        3    1    3    3  502    0  0.14088624016E+03 -0.77964458645E+03  0.77847853303E+03  0.11107310432E+04  0.10100000352E+00 0.  1.
       -3    1    3    3    0  502 -0.14088624016E+03  0.77964458645E+03 -0.74972077979E+03  0.10907684776E+04  0.10100000352E+00 0. -1.
</event>
<event>
 5   0  0.6628798E-05  0.2191242E+04  0.7818609E-02  0.8522082E-01
       -2   -1    0    0    0  501  0.00000000000E+00  0.00000000000E+00  0.53997558450E+03  0.53997558451E+03  0.25500000920E-02 0.  1.
        2   -1    0    0  501    0  0.00000000000E+00  0.00000000000E+00 -0.22230371569E+04  0.22230371569E+04  0.25500000920E-02 0. -1.
    10030    2    1    2    0    0  0.00000000000E+00  0.00000000000E+00 -0.16830615724E+04  0.27630127414E+04  0.21912423765E+04 0.  0.
        4    1    3    3  502    0  0.63640018732E+03 -0.44913165689E+03  0.13001050953E+03  0.78970170896E+03  0.12699999809E+01 0.  1.
       -4    1    3    3    0  502 -0.63640018732E+03  0.44913165689E+03 -0.18130720819E+04  0.19733110325E+04  0.12699999809E+01 0. -1.
</event>
<event>
 5   0  0.2820239E-05  0.2150743E+04  0.7818609E-02  0.8539214E-01
       -1   -1    0    0    0  501  0.00000000000E+00  0.00000000000E+00  0.88208515642E+03  0.88208515643E+03  0.50400001928E-02 0.  1.
        1   -1    0    0  501    0  0.00000000000E+00  0.00000000000E+00 -0.13110118803E+04  0.13110118803E+04  0.50400001928E-02 0. -1.
    10030    2    1    2    0    0  0.00000000000E+00  0.00000000000E+00 -0.42892672387E+03  0.21930970367E+04  0.21507432385E+04 0.  0.
        3    1    3    3  502    0 -0.10580458902E+04  0.18985830046E+03 -0.24533882912E+03  0.11025871536E+04  0.10100000352E+00 0.  1.
       -3    1    3    3    0  502  0.10580458902E+04 -0.18985830046E+03 -0.18358789475E+03  0.10905098832E+04  0.10100000352E+00 0. -1.
</event>
<event>
 5   0  0.2929471E-05  0.2186556E+04  0.7818609E-02  0.8524045E-01
        1   -1    0    0  501    0  0.00000000000E+00  0.00000000000E+00  0.91581865478E+03  0.91581865480E+03  0.50400001928E-02 0.  1.
       -1   -1    0    0    0  501  0.00000000000E+00  0.00000000000E+00 -0.13051237499E+04  0.13051237499E+04  0.50400001928E-02 0. -1.
    10030    2    1    2    0    0  0.00000000000E+00  0.00000000000E+00 -0.38930509515E+03  0.22209424047E+04  0.21865559010E+04 0.  0.
        2    1    3    3  502    0  0.15038955561E+03  0.80633535877E+03  0.53953068121E+03  0.98177751309E+03  0.25500000920E-02 0.  1.
       -2    1    3    3    0  502 -0.15038955561E+03 -0.80633535877E+03 -0.92883577636E+03  0.12391648917E+04  0.25500000920E-02 0. -1.
</event>
<event>
 5   0  0.2929471E-05  0.2178772E+04  0.7818609E-02  0.8527316E-01
       -1   -1    0    0    0  501  0.00000000000E+00  0.00000000000E+00  0.89666318798E+03  0.89666318799E+03  0.50400001928E-02 0. -1.
        1   -1    0    0  501    0  0.00000000000E+00  0.00000000000E+00 -0.13235316700E+04  0.13235316700E+04  0.50400001928E-02 0.  1.
    10030    2    1    2    0    0  0.00000000000E+00  0.00000000000E+00 -0.42686848203E+03  0.22201948580E+04  0.21787722475E+04 0.  0.
        2    1    3    3  502    0 -0.93171724431E+03 -0.54753329929E+03 -0.35342285150E+03  0.11370125106E+04  0.25500000920E-02 0. -1.
       -2    1    3    3    0  502  0.93171724431E+03  0.54753329929E+03 -0.73445630532E+02  0.10831823475E+04  0.25500000920E-02 0.  1.
</event>
<event>
 5   0  0.2820239E-05  0.2203863E+04  0.7818609E-02  0.8516822E-01
       -1   -1    0    0    0  501  0.00000000000E+00  0.00000000000E+00  0.53690013362E+03  0.53690013365E+03  0.50400001928E-02 0. -1.
        1   -1    0    0  501    0  0.00000000000E+00  0.00000000000E+00 -0.22616003790E+04  0.22616003790E+04  0.50400001928E-02 0.  1.
    10030    2    1    2    0    0  0.00000000000E+00  0.00000000000E+00 -0.17247002454E+04  0.27985005127E+04  0.22038634674E+04 0.  0.
        3    1    3    3  502    0 -0.80728335953E+03 -0.29771378574E+03  0.11808604430E+02  0.86051111215E+03  0.10100000352E+00 0. -1.
       -3    1    3    3    0  502  0.80728335953E+03  0.29771378574E+03 -0.17365088498E+04  0.19379894005E+04  0.10100000352E+00 0.  1.
</event>
<event>
 5   0  0.6293013E-05  0.1974750E+04  0.7818609E-02  0.8618518E-01
       -2   -1    0    0    0  501  0.00000000000E+00  0.00000000000E+00  0.24424663973E+04  0.24424663973E+04  0.25500000920E-02 0.  1.
        2   -1    0    0  501    0  0.00000000000E+00  0.00000000000E+00 -0.39914965572E+03  0.39914965573E+03  0.25500000920E-02 0. -1.
    10030    2    1    2    0    0  0.00000000000E+00  0.00000000000E+00  0.20433167416E+04  0.28416160530E+04  0.19747502339E+04 0.  0.
        1    1    3    3  502    0 -0.62668184883E+03  0.27443231879E+03 -0.28133348828E+01  0.68414264019E+03  0.50400001928E-02 0. -1.
       -1    1    3    3    0  502  0.62668184883E+03 -0.27443231879E+03  0.20461300764E+04  0.21574734128E+04  0.50400001928E-02 0.  1.
</event>
<event>
 5   0  0.2820239E-05  0.2243626E+04  0.7818609E-02  0.8500486E-01
       -1   -1    0    0    0  501  0.00000000000E+00  0.00000000000E+00  0.71671196505E+03  0.71671196506E+03  0.50400001928E-02 0.  1.
        1   -1    0    0  501    0  0.00000000000E+00  0.00000000000E+00 -0.17558852464E+04  0.17558852464E+04  0.50400001928E-02 0. -1.
    10030    2    1    2    0    0  0.00000000000E+00  0.00000000000E+00 -0.10391732813E+04  0.24725972115E+04  0.22436256063E+04 0.  0.
        3    1    3    3  502    0  0.57760952926E+02 -0.11190183145E+04 -0.57919585240E+03  0.12613509272E+04  0.10100000352E+00 0. -1.
       -3    1    3    3    0  502 -0.57760952926E+02  0.11190183145E+04 -0.45997742894E+03  0.12112462843E+04  0.10100000352E+00 0.  1.
</event>
<event>
 5   0  0.6306919E-05  0.2190085E+04  0.7818609E-02  0.8522566E-01
       -2   -1    0    0    0  501  0.00000000000E+00  0.00000000000E+00  0.10146361611E+04  0.10146361611E+04  0.25500000920E-02 0.  1.
        2   -1    0    0  501    0  0.00000000000E+00  0.00000000000E+00 -0.11818207005E+04  0.11818207005E+04  0.25500000920E-02 0. -1.
    10030    2    1    2    0    0  0.00000000000E+00  0.00000000000E+00 -0.16718453939E+03  0.21964568616E+04  0.21900849469E+04 0.  0.
        3    1    3    3  502    0 -0.95836057685E+03 -0.17203613387E+03 -0.58611553481E+03  0.11364782695E+04  0.10100000352E+00 0. -1.
       -3    1    3    3    0  502  0.95836057685E+03  0.17203613387E+03  0.41893099542E+03  0.10599785921E+04  0.10100000352E+00 0.  1.
</event>
<event>
 5   0  0.2908031E-05  0.2228157E+04  0.7818609E-02  0.8506799E-01
       -1   -1    0    0    0  501  0.00000000000E+00  0.00000000000E+00  0.10465453458E+04  0.10465453458E+04  0.50400001928E-02 0. -1.
        1   -1    0    0  501    0  0.00000000000E+00  0.00000000000E+00 -0.11859698343E+04  0.11859698343E+04  0.50400001928E-02 0.  1.
    10030    2    1    2    0    0  0.00000000000E+00  0.00000000000E+00 -0.13942448844E+03  0.22325151801E+04  0.22281572748E+04 0.  0.
        1    1    3    3  502    0  0.51829439755E+03  0.16248204935E+03  0.90488835220E+03  0.10553920735E+04  0.50400001928E-02 0. -1.
       -1    1    3    3    0  502 -0.51829439755E+03 -0.16248204935E+03 -0.10443128406E+04  0.11771231066E+04  0.50400001928E-02 0.  1.
</event>
<event>
 5   0  0.6628798E-05  0.2182700E+04  0.7818609E-02  0.8525664E-01
       -2   -1    0    0    0  501  0.00000000000E+00  0.00000000000E+00  0.64653464548E+03  0.64653464549E+03  0.25500000920E-02 0.  1.
        2   -1    0    0  501    0  0.00000000000E+00  0.00000000000E+00 -0.18421972721E+04  0.18421972721E+04  0.25500000920E-02 0. -1.
    10030    2    1    2    0    0  0.00000000000E+00  0.00000000000E+00 -0.11956626266E+04  0.24887319176E+04  0.21826995764E+04 0.  0.
        4    1    3    3  502    0 -0.22800311286E+03 -0.37651051048E+03  0.54083492864E+03  0.69731600936E+03  0.12699999809E+01 0.  1.
       -4    1    3    3    0  502  0.22800311286E+03  0.37651051048E+03 -0.17364975552E+04  0.17914159082E+04  0.12699999809E+01 0. -1.
</event>
<event>
 5   0  0.6628798E-05  0.2163315E+04  0.7818609E-02  0.8533854E-01
       -2   -1    0    0    0  501  0.00000000000E+00  0.00000000000E+00  0.49421765444E+03  0.49421765445E+03  0.25500000920E-02 0. -1.
        2   -1    0    0  501    0  0.00000000000E+00  0.00000000000E+00 -0.23673427966E+04  0.23673427966E+04  0.25500000920E-02 0.  1.
    10030    2    1    2    0    0  0.00000000000E+00  0.00000000000E+00 -0.18731251422E+04  0.28615604511E+04  0.21633146828E+04 0.  0.
        4    1    3    3  502    0 -0.83773901586E+03 -0.27706268551E+03 -0.10900251778E+03  0.88907454816E+03  0.12699999809E+01 0. -1.
       -4    1    3    3    0  502  0.83773901586E+03  0.27706268551E+03 -0.17641226244E+04  0.19724859029E+04  0.12699999809E+01 0.  1.
</event>
<event>
 5   0  0.2910318E-05  0.2213777E+04  0.7818609E-02  0.8512716E-01
       -1   -1    0    0    0  501  0.00000000000E+00  0.00000000000E+00  0.12066065261E+04  0.12066065261E+04  0.50400001928E-02 0.  1.
        1   -1    0    0  501    0  0.00000000000E+00  0.00000000000E+00 -0.10154113982E+04  0.10154113982E+04  0.50400001928E-02 0. -1.
    10030    2    1    2    0    0  0.00000000000E+00  0.00000000000E+00  0.19119512792E+03  0.22220179243E+04  0.22137768810E+04 0.  0.
        5    1    3    3  502    0  0.62790634962E+02 -0.42512032613E+02  0.12039864096E+04  0.12063810763E+04  0.46999998093E+01 0.  1.
       -5    1    3    3    0  502 -0.62790634962E+02  0.42512032613E+02 -0.10127912817E+04  0.10156368480E+04  0.46999998093E+01 0. -1.
</event>
<event>
 5   0  0.2820239E-05  0.2216376E+04  0.7818609E-02  0.8511643E-01
        1   -1    0    0  501    0  0.00000000000E+00  0.00000000000E+00  0.17769499626E+04  0.17769499626E+04  0.50400001928E-02 0.  1.
       -1   -1    0    0    0  501  0.00000000000E+00  0.00000000000E+00 -0.69111690216E+03  0.69111690218E+03  0.50400001928E-02 0. -1.
    10030    2    1    2    0    0  0.00000000000E+00  0.00000000000E+00  0.10858330604E+04  0.24680668648E+04  0.22163755580E+04 0.  0.
        3    1    3    3  502    0  0.60678021091E+03 -0.74563588495E+03  0.11568153731E+04  0.15041199803E+04  0.10100000352E+00 0.  1.
       -3    1    3    3    0  502 -0.60678021091E+03  0.74563588495E+03 -0.70982312712E+02  0.96394688453E+03  0.10100000352E+00 0. -1.
</event>
<event>
 5   0  0.2929471E-05  0.2194421E+04  0.7818609E-02  0.8520754E-01
       -1   -1    0    0    0  501  0.00000000000E+00  0.00000000000E+00  0.15044880408E+04  0.15044880408E+04  0.50400001928E-02 0. -1.
        1   -1    0    0  501    0  0.00000000000E+00  0.00000000000E+00 -0.80018654023E+03  0.80018654025E+03  0.50400001928E-02 0.  1.
    10030    2    1    2    0    0  0.00000000000E+00  0.00000000000E+00  0.70430150060E+03  0.23046745811E+04  0.21944211813E+04 0.  0.
        2    1    3    3  502    0 -0.81738045618E+03 -0.25499261746E+03  0.10727266485E+04  0.13725430803E+04  0.25500000920E-02 0. -1.
       -2    1    3    3    0  502  0.81738045618E+03  0.25499261746E+03 -0.36842514785E+03  0.93213150075E+03  0.25500000920E-02 0.  1.
</event>
<event>
 5   0  0.6628798E-05  0.2193334E+04  0.7818609E-02  0.8521208E-01
        2   -1    0    0  501    0  0.00000000000E+00  0.00000000000E+00  0.13434318909E+04  0.13434318909E+04  0.25500000920E-02 0.  1.
       -2   -1    0    0    0  501  0.00000000000E+00  0.00000000000E+00 -0.89522886034E+03  0.89522886035E+03  0.25500000920E-02 0. -1.
    10030    2    1    2    0    0  0.00000000000E+00  0.00000000000E+00  0.44820303060E+03  0.22386607513E+04  0.21933344484E+04 0.  0.
        4    1    3    3  502    0 -0.78822515754E+03 -0.41417772321E+03 -0.42931199205E+03  0.98851023505E+03  0.12699999809E+01 0. -1.
       -4    1    3    3    0  502  0.78822515754E+03  0.41417772321E+03  0.87751502265E+03  0.12501505162E+04  0.12699999809E+01 0.  1.
</event>
<event>
 5   0  0.2820239E-05  0.2189170E+04  0.7818609E-02  0.8522949E-01
       -1   -1    0    0    0  501  0.00000000000E+00  0.00000000000E+00  0.88086962498E+03  0.88086962499E+03  0.50400001928E-02 0. -1.
        1   -1    0    0  501    0  0.00000000000E+00  0.00000000000E+00 -0.13601513008E+04  0.13601513008E+04  0.50400001928E-02 0.  1.
    10030    2    1    2    0    0  0.00000000000E+00  0.00000000000E+00 -0.47928167580E+03  0.22410209258E+04  0.21891696748E+04 0.  0.
        3    1    3    3  502    0 -0.36333589754E+02  0.69684424353E+03 -0.11029444563E+04  0.13051431007E+04  0.10100000352E+00 0.  1.
       -3    1    3    3    0  502  0.36333589754E+02 -0.69684424353E+03  0.62366278049E+03  0.93587782507E+03  0.10100000352E+00 0. -1.
</event>
<event>
 5   0  0.6414768E-05  0.2219204E+04  0.7818609E-02  0.8510477E-01
        2   -1    0    0  501    0  0.00000000000E+00  0.00000000000E+00  0.12430126460E+04  0.12430126460E+04  0.25500000920E-02 0. -1.
       -2   -1    0    0    0  501  0.00000000000E+00  0.00000000000E+00 -0.99050972473E+03  0.99050972473E+03  0.25500000920E-02 0.  1.
    10030    2    1    2    0    0  0.00000000000E+00  0.00000000000E+00  0.25250292123E+03  0.22335223707E+04  0.22192035633E+04 0.  0.
        2    1    3    3  502    0 -0.32086588393E+03  0.78085080937E+03  0.85099016391E+03  0.11986939397E+04  0.25500000920E-02 0. -1.
       -2    1    3    3    0  502  0.32086588393E+03 -0.78085080937E+03 -0.59848724268E+03  0.10348284310E+04  0.25500000920E-02 0.  1.
</event>
<event>
 5   0  0.6628798E-05  0.2212048E+04  0.7818609E-02  0.8513430E-01
       -2   -1    0    0    0  501  0.00000000000E+00  0.00000000000E+00  0.10831752641E+04  0.10831752641E+04  0.25500000920E-02 0. -1.
        2   -1    0    0  501    0  0.00000000000E+00  0.00000000000E+00 -0.11293547542E+04  0.11293547542E+04  0.25500000920E-02 0.  1.
    10030    2    1    2    0    0  0.00000000000E+00  0.00000000000E+00 -0.46179490099E+02  0.22125300182E+04  0.22120480411E+04 0.  0.
        4    1    3    3  502    0  0.22948019680E+03  0.10414945940E+04  0.27008736011E+03  0.11001458744E+04  0.12699999809E+01 0. -1.
       -4    1    3    3    0  502 -0.22948019680E+03 -0.10414945940E+04 -0.31626685021E+03  0.11123841438E+04  0.12699999809E+01 0.  1.
</event>
<event>
 5   0  0.2910318E-05  0.2210381E+04  0.7818609E-02  0.8514120E-01
        1   -1    0    0  501    0  0.00000000000E+00  0.00000000000E+00  0.23299054563E+04  0.23299054563E+04  0.50400001928E-02 0. -1.
       -1   -1    0    0    0  501  0.00000000000E+00  0.00000000000E+00 -0.52424697753E+03  0.52424697756E+03  0.50400001928E-02 0.  1.
    10030    2    1    2    0    0  0.00000000000E+00  0.00000000000E+00  0.18056584787E+04  0.28541524338E+04  0.22103808662E+04 0.  0.
        5    1    3    3  502    0 -0.47434991676E+03 -0.83964625760E+03  0.15998767297E+04  0.18680581687E+04  0.46999998093E+01 0. -1.
       -5    1    3    3    0  502  0.47434991676E+03  0.83964625760E+03  0.20578174899E+03  0.98609426509E+03  0.46999998093E+01 0.  1.
</event>
<event>
 5   0  0.2929471E-05  0.2217963E+04  0.7818609E-02  0.8510989E-01
       -1   -1    0    0    0  501  0.00000000000E+00  0.00000000000E+00  0.79282915805E+03  0.79282915807E+03  0.50400001928E-02 0. -1.
        1   -1    0    0  501    0  0.00000000000E+00  0.00000000000E+00 -0.15512039746E+04  0.15512039746E+04  0.50400001928E-02 0.  1.
    10030    2    1    2    0    0  0.00000000000E+00  0.00000000000E+00 -0.75837481657E+03  0.23440331327E+04  0.22179627961E+04 0.  0.
        2    1    3    3  502    0 -0.57150622914E+03 -0.94777136689E+03 -0.30483352807E+03  0.11479605454E+04  0.25500000920E-02 0. -1.
       -2    1    3    3    0  502  0.57150622914E+03  0.94777136689E+03 -0.45354128850E+03  0.11960725874E+04  0.25500000920E-02 0.  1.
</event>
<event>
 5   0  0.6414768E-05  0.2157296E+04  0.7818609E-02  0.8536416E-01
       -2   -1    0    0    0  501  0.00000000000E+00  0.00000000000E+00  0.51221589403E+03  0.51221589404E+03  0.25500000920E-02 0.  1.
        2   -1    0    0  501    0  0.00000000000E+00  0.00000000000E+00 -0.22714669102E+04  0.22714669102E+04  0.25500000920E-02 0. -1.
    10030    2    1    2    0    0  0.00000000000E+00  0.00000000000E+00 -0.17592510162E+04  0.27836828043E+04  0.21572959502E+04 0.  0.
        2    1    3    3  502    0 -0.23380691980E+03 -0.76062182144E+03 -0.18192593256E+04  0.19856776488E+04  0.25500000920E-02 0. -1.
       -2    1    3    3    0  502  0.23380691980E+03  0.76062182144E+03  0.60008309410E+02  0.79800515550E+03  0.25500000920E-02 0.  1.
</event>
<event>
 5   0  0.6306919E-05  0.2250858E+04  0.7818609E-02  0.8497553E-01
       -2   -1    0    0    0  501  0.00000000000E+00  0.00000000000E+00  0.10309455871E+04  0.10309455871E+04  0.25500000920E-02 0.  1.
        2   -1    0    0  501    0  0.00000000000E+00  0.00000000000E+00 -0.12285710843E+04  0.12285710843E+04  0.25500000920E-02 0. -1.
    10030    2    1    2    0    0  0.00000000000E+00  0.00000000000E+00 -0.19762549723E+03  0.22595166714E+04  0.22508575590E+04 0.  0.
        3    1    3    3  502    0 -0.10623846417E+04 -0.32973181933E+03  0.72741530786E+02  0.11147535782E+04  0.10100000352E+00 0.  1.
       -3    1    3    3    0  502  0.10623846417E+04  0.32973181933E+03 -0.27036702802E+03  0.11447630932E+04  0.10100000352E+00 0. -1.
</event>
<event>
 5   0  0.6445740E-05  0.2180901E+04  0.7818609E-02  0.8526420E-01
        2   -1    0    0  501    0  0.00000000000E+00  0.00000000000E+00  0.79389729161E+03  0.79389729161E+03  0.25500000920E-02 0.  1.
       -2   -1    0    0    0  501  0.00000000000E+00  0.00000000000E+00 -0.14977790081E+04  0.14977790081E+04  0.25500000920E-02 0. -1.
    10030    2    1    2    0    0  0.00000000000E+00  0.00000000000E+00 -0.70388171653E+03  0.22916762997E+04  0.21809013714E+04 0.  0.
        5    1    3    3  502    0 -0.93878275942E+02  0.10563530571E+04 -0.85350472796E+02  0.10639556876E+04  0.46999998093E+01 0.  1.
       -5    1    3    3    0  502  0.93878275942E+02 -0.10563530571E+04 -0.61853124374E+03  0.12277206121E+04  0.46999998093E+01 0. -1.
</event>
<event>
 5   0  0.2929471E-05  0.2198952E+04  0.7818609E-02  0.8518864E-01
       -1   -1    0    0    0  501  0.00000000000E+00  0.00000000000E+00  0.11703443303E+04  0.11703443303E+04  0.50400001928E-02 0.  1.
        1   -1    0    0  501    0  0.00000000000E+00  0.00000000000E+00 -0.10328989647E+04  0.10328989647E+04  0.50400001928E-02 0. -1.
    10030    2    1    2    0    0  0.00000000000E+00  0.00000000000E+00  0.13744536560E+03  0.22032432950E+04  0.21989519751E+04 0.  0.
        2    1    3    3  502    0  0.10090344765E+04  0.22989824214E+03  0.44072027365E+03  0.11248280474E+04  0.25500000920E-02 0.  1.
       -2    1    3    3    0  502 -0.10090344765E+04 -0.22989824214E+03 -0.30327490805E+03  0.10784152477E+04  0.25500000920E-02 0. -1.
</event>
<event>
 5   0  0.6414768E-05  0.2144484E+04  0.7818609E-02  0.8541897E-01
       -2   -1    0    0    0  501  0.00000000000E+00  0.00000000000E+00  0.42644866599E+03  0.42644866599E+03  0.25500000920E-02 0. -1.
        2   -1    0    0  501    0  0.00000000000E+00  0.00000000000E+00 -0.26959925002E+04  0.26959925002E+04  0.25500000920E-02 0.  1.
    10030    2    1    2    0    0  0.00000000000E+00  0.00000000000E+00 -0.22695438342E+04  0.31224411662E+04  0.21444835324E+04 0.  0.
        2    1    3    3  502    0  0.51716750112E+03  0.74822684071E+03 -0.19615080010E+04  0.21621330365E+04  0.25500000920E-02 0.  1.
       -2    1    3    3    0  502 -0.51716750112E+03 -0.74822684071E+03 -0.30803583313E+03  0.96030812965E+03  0.25500000920E-02 0. -1.
</event>
<event>
 5   0  0.2929471E-05  0.2148795E+04  0.7818609E-02  0.8540048E-01
        1   -1    0    0  501    0  0.00000000000E+00  0.00000000000E+00  0.12792817446E+04  0.12792817446E+04  0.50400001928E-02 0.  1.
       -1   -1    0    0    0  501  0.00000000000E+00  0.00000000000E+00 -0.90232644142E+03  0.90232644143E+03  0.50400001928E-02 0. -1.
    10030    2    1    2    0    0  0.00000000000E+00  0.00000000000E+00  0.37695530321E+03  0.21816081861E+04  0.21487947731E+04 0.  0.
        2    1    3    3  502    0  0.76339310702E+03  0.75575541266E+03  0.16831322677E+03  0.10873199262E+04  0.25500000920E-02 0.  1.
       -2    1    3    3    0  502 -0.76339310702E+03 -0.75575541266E+03  0.20864207644E+03  0.10942882599E+04  0.25500000920E-02 0. -1.
</event>
<event>
 5   0  0.6445740E-05  0.2190352E+04  0.7818609E-02  0.8522455E-01
       -2   -1    0    0    0  501  0.00000000000E+00  0.00000000000E+00  0.42541874252E+03  0.42541874252E+03  0.25500000920E-02 0.  1.
        2   -1    0    0  501    0  0.00000000000E+00  0.00000000000E+00 -0.28193648000E+04  0.28193648000E+04  0.25500000920E-02 0. -1.
    10030    2    1    2    0    0  0.00000000000E+00  0.00000000000E+00 -0.23939460575E+04  0.32447835425E+04  0.21903521433E+04 0.  0.
        5    1    3    3  502    0  0.17490061677E+03  0.33433469101E+03  0.32607328119E+03  0.49871413261E+03  0.46999998093E+01 0.  1.
       -5    1    3    3    0  502 -0.17490061677E+03 -0.33433469101E+03 -0.27200193387E+04  0.27460694099E+04  0.46999998093E+01 0. -1.
</event>
<event>
 5   0  0.2908031E-05  0.2188539E+04  0.7818609E-02  0.8523214E-01
       -1   -1    0    0    0  501  0.00000000000E+00  0.00000000000E+00  0.98027599864E+03  0.98027599865E+03  0.50400001928E-02 0. -1.
        1   -1    0    0  501    0  0.00000000000E+00  0.00000000000E+00 -0.12215190413E+04  0.12215190413E+04  0.50400001928E-02 0.  1.
    10030    2    1    2    0    0  0.00000000000E+00  0.00000000000E+00 -0.24124304266E+03  0.22017950400E+04  0.21885390543E+04 0.  0.
        1    1    3    3  502    0  0.14367369094E+03  0.10787664315E+04 -0.23553531809E+03  0.11134882260E+04  0.50400001928E-02 0. -1.
       -1    1    3    3    0  502 -0.14367369094E+03 -0.10787664315E+04 -0.57077245668E+01  0.10883068140E+04  0.50400001928E-02 0.  1.
</event>
<event>
 5   0  0.2929471E-05  0.2200691E+04  0.7818609E-02  0.8518141E-01
       -1   -1    0    0    0  501  0.00000000000E+00  0.00000000000E+00  0.11278012470E+04  0.11278012470E+04  0.50400001928E-02 0. -1.
        1   -1    0    0  501    0  0.00000000000E+00  0.00000000000E+00 -0.10735581618E+04  0.10735581618E+04  0.50400001928E-02 0.  1.
    10030    2    1    2    0    0  0.00000000000E+00  0.00000000000E+00  0.54243085219E+02  0.22013594088E+04  0.22006910130E+04 0.  0.
        2    1    3    3  502    0  0.31824565536E+03  0.65607363688E+03 -0.79717201180E+03  0.10803685161E+04  0.25500000920E-02 0.  1.
       -2    1    3    3    0  502 -0.31824565536E+03 -0.65607363688E+03  0.85141509702E+03  0.11209908927E+04  0.25500000920E-02 0. -1.
</event>
<event>
 5   0  0.2908031E-05  0.2220331E+04  0.7818609E-02  0.8510013E-01
       -1   -1    0    0    0  501  0.00000000000E+00  0.00000000000E+00  0.86965086191E+03  0.86965086193E+03  0.50400001928E-02 0. -1.
        1   -1    0    0  501    0  0.00000000000E+00  0.00000000000E+00 -0.14171975006E+04  0.14171975007E+04  0.50400001928E-02 0.  1.
    10030    2    1    2    0    0  0.00000000000E+00  0.00000000000E+00 -0.54754663874E+03  0.22868483626E+04  0.22203306312E+04 0.  0.
        1    1    3    3  502    0 -0.66488961269E+03  0.30106381878E+03 -0.11353441510E+04  0.13497125477E+04  0.50400001928E-02 0.  1.
       -1    1    3    3    0  502  0.66488961269E+03 -0.30106381878E+03  0.58779751231E+03  0.93713581489E+03  0.50400001928E-02 0. -1.
</event>
<event>
 5   0  0.6445740E-05  0.2226948E+04  0.7818609E-02  0.8507295E-01
        2   -1    0    0  501    0  0.00000000000E+00  0.00000000000E+00  0.99792560873E+03  0.99792560873E+03  0.25500000920E-02 0.  1.
       -2   -1    0    0    0  501  0.00000000000E+00  0.00000000000E+00 -0.12424015831E+04  0.12424015831E+04  0.25500000920E-02 0. -1.
    10030    2    1    2    0    0  0.00000000000E+00  0.00000000000E+00 -0.24447597434E+03  0.22403271918E+04  0.22269480066E+04 0.  0.
        5    1    3    3  502    0 -0.56835194250E+03 -0.80364355226E+03  0.40140372018E+03  0.10630211316E+04  0.46999998093E+01 0.  1.
       -5    1    3    3    0  502  0.56835194250E+03  0.80364355226E+03 -0.64587969452E+03  0.11773060602E+04  0.46999998093E+01 0. -1.
</event>
<event>
 5   0  0.2910318E-05  0.2184059E+04  0.7818609E-02  0.8525092E-01
       -1   -1    0    0    0  501  0.00000000000E+00  0.00000000000E+00  0.66611184796E+03  0.66611184798E+03  0.50400001928E-02 0.  1.
        1   -1    0    0  501    0  0.00000000000E+00  0.00000000000E+00 -0.17902827285E+04  0.17902827285E+04  0.50400001928E-02 0. -1.
    10030    2    1    2    0    0  0.00000000000E+00  0.00000000000E+00 -0.11241708806E+04  0.24563945765E+04  0.21840590987E+04 0.  0.
        5    1    3    3  502    0  0.94938128707E+03  0.49119983365E+03 -0.31083726847E+03  0.11132133678E+04  0.46999998093E+01 0.  1.
       -5    1    3    3    0  502 -0.94938128707E+03 -0.49119983365E+03 -0.81333361210E+03  0.13431812087E+04  0.46999998093E+01 0. -1.
</event>
<event>
 5   0  0.2820239E-05  0.2294541E+04  0.7818609E-02  0.8480077E-01
       -1   -1    0    0    0  501  0.00000000000E+00  0.00000000000E+00  0.11866312541E+04  0.11866312541E+04  0.50400001928E-02 0.  1.
        1   -1    0    0  501    0  0.00000000000E+00  0.00000000000E+00 -0.11092151090E+04  0.11092151090E+04  0.50400001928E-02 0. -1.
    10030    2    1    2    0    0  0.00000000000E+00  0.00000000000E+00  0.77416145072E+02  0.22958463631E+04  0.22945407521E+04 0.  0.
        3    1    3    3  502    0 -0.56240106414E+03 -0.14176131642E+03  0.10291390219E+04  0.11813206019E+04  0.10100000352E+00 0.  1.
       -3    1    3    3    0  502  0.56240106414E+03  0.14176131642E+03 -0.95172287686E+03  0.11145257612E+04  0.10100000352E+00 0. -1.
</event>
<event>
 5   0  0.6293013E-05  0.2181842E+04  0.7818609E-02  0.8526024E-01
        2   -1    0    0  501    0  0.00000000000E+00  0.00000000000E+00  0.13920084469E+04  0.13920084469E+04  0.25500000920E-02 0.  1.
       -2   -1    0    0    0  501  0.00000000000E+00  0.00000000000E+00 -0.85495771449E+03  0.85495771450E+03  0.25500000920E-02 0. -1.
    10030    2    1    2    0    0  0.00000000000E+00  0.00000000000E+00  0.53705073245E+03  0.22469661614E+04  0.21818417544E+04 0.  0.
        1    1    3    3  502    0  0.53463031341E+03 -0.24656968253E+03 -0.67730061436E+03  0.89741980288E+03  0.50400001928E-02 0. -1.
       -1    1    3    3    0  502 -0.53463031341E+03  0.24656968253E+03  0.12143513468E+04  0.13495463586E+04  0.50400001928E-02 0.  1.
</event>
<event>
 5   0  0.2820239E-05  0.2200224E+04  0.7818609E-02  0.8518335E-01
        1   -1    0    0  501    0  0.00000000000E+00  0.00000000000E+00  0.19678394553E+04  0.19678394553E+04  0.50400001928E-02 0.  1.
       -1   -1    0    0    0  501  0.00000000000E+00  0.00000000000E+00 -0.61501293657E+03  0.61501293659E+03  0.50400001928E-02 0. -1.
    10030    2    1    2    0    0  0.00000000000E+00  0.00000000000E+00  0.13528265187E+04  0.25828523919E+04  0.22002242814E+04 0.  0.
        3    1    3    3  502    0 -0.12037863387E+03 -0.56959908282E+03 -0.41935729690E+03  0.71749193954E+03  0.10100000352E+00 0. -1.
       -3    1    3    3    0  502  0.12037863387E+03  0.56959908282E+03  0.17721838156E+04  0.18653604524E+04  0.10100000352E+00 0.  1.
</event>
<event>
 5   0  0.6306919E-05  0.2183993E+04  0.7818609E-02  0.8525120E-01
       -2   -1    0    0    0  501  0.00000000000E+00  0.00000000000E+00  0.11394116285E+04  0.11394116285E+04  0.25500000920E-02 0. -1.
        2   -1    0    0  501    0  0.00000000000E+00  0.00000000000E+00 -0.10465546309E+04  0.10465546309E+04  0.25500000920E-02 0.  1.
    10030    2    1    2    0    0  0.00000000000E+00  0.00000000000E+00  0.92856997596E+02  0.21859662595E+04  0.21839931468E+04 0.  0.
        3    1    3    3  502    0 -0.72594018105E+03 -0.40299021920E+03 -0.66348391592E+03  0.10628269756E+04  0.10100000352E+00 0.  1.
       -3    1    3    3    0  502  0.72594018105E+03  0.40299021920E+03  0.75634091351E+03  0.11231392838E+04  0.10100000352E+00 0. -1.
</event>
<event>
 5   0  0.2908031E-05  0.2165404E+04  0.7818609E-02  0.8532967E-01
        1   -1    0    0  501    0  0.00000000000E+00  0.00000000000E+00  0.11914701442E+04  0.11914701442E+04  0.50400001928E-02 0. -1.
       -1   -1    0    0    0  501  0.00000000000E+00  0.00000000000E+00 -0.98386275490E+03  0.98386275491E+03  0.50400001928E-02 0.  1.
    10030    2    1    2    0    0  0.00000000000E+00  0.00000000000E+00  0.20760738933E+03  0.21753328991E+04  0.21654035176E+04 0.  0.
        1    1    3    3  502    0 -0.10723855049E+04 -0.14815633546E+03  0.12067737256E+03  0.10892768239E+04  0.50400001928E-02 0. -1.
       -1    1    3    3    0  502  0.10723855049E+04  0.14815633546E+03  0.86930016775E+02  0.10860560753E+04  0.50400001928E-02 0.  1.
</event>
<event>
 5   0  0.2908031E-05  0.2192932E+04  0.7818609E-02  0.8521376E-01
       -1   -1    0    0    0  501  0.00000000000E+00  0.00000000000E+00  0.77579958374E+03  0.77579958376E+03  0.50400001928E-02 0.  1.
        1   -1    0    0  501    0  0.00000000000E+00  0.00000000000E+00 -0.15496763058E+04  0.15496763058E+04  0.50400001928E-02 0. -1.
    10030    2    1    2    0    0  0.00000000000E+00  0.00000000000E+00 -0.77387672207E+03  0.23254758896E+04  0.21929324960E+04 0.  0.
        1    1    3    3  502    0 -0.53608603482E+03 -0.35993103506E+03  0.55279420808E+03  0.85001177830E+03  0.50400001928E-02 0.  1.
       -1    1    3    3    0  502  0.53608603482E+03  0.35993103506E+03 -0.13266709302E+04  0.14754641113E+04  0.50400001928E-02 0. -1.
</event>
<event>
 5   0  0.6293013E-05  0.2148664E+04  0.7818609E-02  0.8540104E-01
       -2   -1    0    0    0  501  0.00000000000E+00  0.00000000000E+00  0.78131390097E+03  0.78131390098E+03  0.25500000920E-02 0.  1.
        2   -1    0    0  501    0  0.00000000000E+00  0.00000000000E+00 -0.14772420264E+04  0.14772420264E+04  0.25500000920E-02 0. -1.
    10030    2    1    2    0    0  0.00000000000E+00  0.00000000000E+00 -0.69592812541E+03  0.22585559274E+04  0.21486644506E+04 0.  0.
        1    1    3    3  502    0 -0.94990230853E+03  0.29690483555E+03  0.77357012310E+02  0.99822391501E+03  0.50400001928E-02 0. -1.
       -1    1    3    3    0  502  0.94990230853E+03 -0.29690483555E+03 -0.77328513772E+03  0.12603320124E+04  0.50400001928E-02 0.  1.
</event>
<event>
 5   0  0.2908031E-05  0.2201001E+04  0.7818609E-02  0.8518012E-01
       -1   -1    0    0    0  501  0.00000000000E+00  0.00000000000E+00  0.42051116686E+03  0.42051116689E+03  0.50400001928E-02 0.  1.
        1   -1    0    0  501    0  0.00000000000E+00  0.00000000000E+00 -0.28800689750E+04  0.28800689750E+04  0.50400001928E-02 0. -1.
    10030    2    1    2    0    0  0.00000000000E+00  0.00000000000E+00 -0.24595578081E+04  0.33005801419E+04  0.22010008318E+04 0.  0.
        1    1    3    3  502    0  0.93729216682E+03 -0.38257229977E+03 -0.58265606309E+03  0.11680608967E+04  0.50400001928E-02 0.  1.
       -1    1    3    3    0  502 -0.93729216682E+03  0.38257229977E+03 -0.18769017450E+04  0.21325192452E+04  0.50400001928E-02 0. -1.
</event>
<event>
 5   0  0.2908031E-05  0.2138158E+04  0.7818609E-02  0.8544618E-01
        1   -1    0    0  501    0  0.00000000000E+00  0.00000000000E+00  0.79091064164E+03  0.79091064166E+03  0.50400001928E-02 0.  1.
       -1   -1    0    0    0  501  0.00000000000E+00  0.00000000000E+00 -0.14450809537E+04  0.14450809537E+04  0.50400001928E-02 0. -1.
    10030    2    1    2    0    0  0.00000000000E+00  0.00000000000E+00 -0.65417031205E+03  0.22359915954E+04  0.21381579964E+04 0.  0.
        1    1    3    3  502    0 -0.68381799696E+03 -0.10307242823E+03 -0.11796803135E+04  0.13674343203E+04  0.50400001928E-02 0. -1.
       -1    1    3    3    0  502  0.68381799696E+03  0.10307242823E+03  0.52551000140E+03  0.86855727504E+03  0.50400001928E-02 0.  1.
</event>
<event>
 5   0  0.6306919E-05  0.2190696E+04  0.7818609E-02  0.8522311E-01
       -2   -1    0    0    0  501  0.00000000000E+00  0.00000000000E+00  0.17225249985E+04  0.17225249985E+04  0.25500000920E-02 0.  1.
        2   -1    0    0  501    0  0.00000000000E+00  0.00000000000E+00 -0.69652798566E+03  0.69652798567E+03  0.25500000920E-02 0. -1.
    10030    2    1    2    0    0  0.00000000000E+00  0.00000000000E+00  0.10259970128E+04  0.24190529841E+04  0.21906956589E+04 0.  0.
        3    1    3    3  502    0 -0.56380862221E+03  0.20549556524E+03 -0.49886000592E+03  0.78036523854E+03  0.10100000352E+00 0. -1.
       -3    1    3    3    0  502  0.56380862221E+03 -0.20549556524E+03  0.15248570187E+04  0.16386877456E+04  0.10100000352E+00 0.  1.
</event>
<event>
 5   0  0.6445740E-05  0.2202361E+04  0.7818609E-02  0.8517446E-01
        2   -1    0    0  501    0  0.00000000000E+00  0.00000000000E+00  0.88309377372E+03  0.88309377372E+03  0.25500000920E-02 0. -1.
       -2   -1    0    0    0  501  0.00000000000E+00  0.00000000000E+00 -0.13731255904E+04  0.13731255904E+04  0.25500000920E-02 0.  1.
    10030    2    1    2    0    0  0.00000000000E+00  0.00000000000E+00 -0.49003181665E+03  0.22562193641E+04  0.22023611506E+04 0.  0.
        5    1    3    3  502    0 -0.90816601938E+03 -0.57684048711E+03 -0.48541618121E+03  0.11803225937E+04  0.46999998093E+01 0.  1.
       -5    1    3    3    0  502  0.90816601938E+03  0.57684048711E+03 -0.46156354390E+01  0.10758967703E+04  0.46999998093E+01 0. -1.
</event>
<event>
 5   0  0.6414768E-05  0.2192900E+04  0.7818609E-02  0.8521389E-01
       -2   -1    0    0    0  501  0.00000000000E+00  0.00000000000E+00  0.12538476587E+04  0.12538476587E+04  0.25500000920E-02 0. -1.
        2   -1    0    0  501    0  0.00000000000E+00  0.00000000000E+00 -0.95881088182E+03  0.95881088182E+03  0.25500000920E-02 0.  1.
    10030    2    1    2    0    0  0.00000000000E+00  0.00000000000E+00  0.29503677691E+03  0.22126585405E+04  0.21929001613E+04 0.  0.
        2    1    3    3  502    0  0.77237769414E+03  0.45926334078E+03 -0.48640396673E+03  0.10218018093E+04  0.25500000920E-02 0.  1.
       -2    1    3    3    0  502 -0.77237769414E+03 -0.45926334078E+03  0.78144074364E+03  0.11908567313E+04  0.25500000920E-02 0. -1.
</event>
<event>
 5   0  0.6414768E-05  0.2201295E+04  0.7818609E-02  0.8517889E-01
        2   -1    0    0  501    0  0.00000000000E+00  0.00000000000E+00  0.12166716775E+04  0.12166716775E+04  0.25500000920E-02 0.  1.
       -2   -1    0    0    0  501  0.00000000000E+00  0.00000000000E+00 -0.99568752164E+03  0.99568752164E+03  0.25500000920E-02 0. -1.
    10030    2    1    2    0    0  0.00000000000E+00  0.00000000000E+00  0.22098415588E+03  0.22123591992E+04  0.22012948982E+04 0.  0.
        2    1    3    3  502    0  0.54065883566E+03 -0.50057347088E+03 -0.71125997399E+03  0.10240979089E+04  0.25500000920E-02 0. -1.
       -2    1    3    3    0  502 -0.54065883566E+03  0.50057347088E+03  0.93224412988E+03  0.11882612903E+04  0.25500000920E-02 0.  1.
</event>
<event>
 5   0  0.6306919E-05  0.2210199E+04  0.7818609E-02  0.8514195E-01
       -2   -1    0    0    0  501  0.00000000000E+00  0.00000000000E+00  0.70990646298E+03  0.70990646298E+03  0.25500000920E-02 0.  1.
        2   -1    0    0  501    0  0.00000000000E+00  0.00000000000E+00 -0.17202895362E+04  0.17202895362E+04  0.25500000920E-02 0. -1.
    10030    2    1    2    0    0  0.00000000000E+00  0.00000000000E+00 -0.10103830732E+04  0.24301959992E+04  0.22101987784E+04 0.  0.
        3    1    3    3  502    0  0.89552239182E+03  0.59301020933E+03 -0.21926281349E+03  0.10962197107E+04  0.10100000352E+00 0.  1.
       -3    1    3    3    0  502 -0.89552239182E+03 -0.59301020933E+03 -0.79112025976E+03  0.13339762885E+04  0.10100000352E+00 0. -1.
</event>
<event>
 5   0  0.2929471E-05  0.2215247E+04  0.7818609E-02  0.8512109E-01
        1   -1    0    0  501    0  0.00000000000E+00  0.00000000000E+00  0.63107010459E+03  0.63107010461E+03  0.50400001928E-02 0. -1.
       -1   -1    0    0    0  501  0.00000000000E+00  0.00000000000E+00 -0.19440474069E+04  0.19440474069E+04  0.50400001928E-02 0.  1.
    10030    2    1    2    0    0  0.00000000000E+00  0.00000000000E+00 -0.13129773023E+04  0.25751175115E+04  0.22152473455E+04 0.  0.
        2    1    3    3  502    0 -0.56481954730E+03  0.90874311840E+03 -0.32362331083E+03  0.11178404285E+04  0.25500000920E-02 0.  1.
       -2    1    3    3    0  502  0.56481954730E+03 -0.90874311840E+03 -0.98935399148E+03  0.14572770830E+04  0.25500000920E-02 0. -1.
</event>
<event>
 5   0  0.6293013E-05  0.2197128E+04  0.7818609E-02  0.8519624E-01
       -2   -1    0    0    0  501  0.00000000000E+00  0.00000000000E+00  0.19156399916E+04  0.19156399916E+04  0.25500000920E-02 0.  1.
        2   -1    0    0  501    0  0.00000000000E+00  0.00000000000E+00 -0.62999486242E+03  0.62999486242E+03  0.25500000920E-02 0. -1.
    10030    2    1    2    0    0  0.00000000000E+00  0.00000000000E+00  0.12856451292E+04  0.25456348540E+04  0.21971284468E+04 0.  0.
        1    1    3    3  502    0 -0.82251737101E+03 -0.11286578701E+03 -0.19071493459E+03  0.85184840071E+03  0.50400001928E-02 0. -1.
       -1    1    3    3    0  502  0.82251737101E+03  0.11286578701E+03  0.14763600637E+04  0.16937864533E+04  0.50400001928E-02 0.  1.
</event>
<event>
 5   0  0.2820239E-05  0.2187167E+04  0.7818609E-02  0.8523789E-01
       -1   -1    0    0    0  501  0.00000000000E+00  0.00000000000E+00  0.85393291730E+03  0.85393291731E+03  0.50400001928E-02 0.  1.
        1   -1    0    0  501    0  0.00000000000E+00  0.00000000000E+00 -0.14004903581E+04  0.14004903582E+04  0.50400001928E-02 0. -1.
    10030    2    1    2    0    0  0.00000000000E+00  0.00000000000E+00 -0.54655744085E+03  0.22544232755E+04  0.21871669504E+04 0.  0.
        3    1    3    3  502    0  0.10288130398E+04 -0.12585995098E+01 -0.65544527473E+03  0.12198632601E+04  0.10100000352E+00 0. -1.
       -3    1    3    3    0  502 -0.10288130398E+04  0.12585995098E+01  0.10888783388E+03  0.10345600154E+04  0.10100000352E+00 0.  1.
</event>
<event>
 5   0  0.2820239E-05  0.2192572E+04  0.7818609E-02  0.8521526E-01
       -1   -1    0    0    0  501  0.00000000000E+00  0.00000000000E+00  0.66572889648E+03  0.66572889650E+03  0.50400001928E-02 0. -1.
        1   -1    0    0  501    0  0.00000000000E+00  0.00000000000E+00 -0.18053040624E+04  0.18053040624E+04  0.50400001928E-02 0.  1.
    10030    2    1    2    0    0  0.00000000000E+00  0.00000000000E+00 -0.11395751659E+04  0.24710329589E+04  0.21925720798E+04 0.  0.
        3    1    3    3  502    0 -0.21266752973E+03 -0.57411097770E+03  0.45511033530E+03  0.76286061664E+03  0.10100000352E+00 0. -1.
       -3    1    3    3    0  502  0.21266752973E+03  0.57411097770E+03 -0.15946855012E+04  0.17081723423E+04  0.10100000352E+00 0.  1.
</event>
<event>
 5   0  0.2753631E-05  0.2208788E+04  0.7818609E-02  0.8514779E-01
        1   -1    0    0  501    0  0.00000000000E+00  0.00000000000E+00  0.15760652988E+04  0.15760652988E+04  0.50400001928E-02 0.  1.
       -1   -1    0    0    0  501  0.00000000000E+00  0.00000000000E+00 -0.77388034270E+03  0.77388034271E+03  0.50400001928E-02 0. -1.
    10030    2    1    2    0    0  0.00000000000E+00  0.00000000000E+00  0.80218495608E+03  0.23499456415E+04  0.22087878608E+04 0.  0.
        4    1    3    3  502    0 -0.28941227119E+03 -0.46053077754E+03 -0.62149699233E+03  0.82589841031E+03  0.12699999809E+01 0. -1.
       -4    1    3    3    0  502  0.28941227119E+03  0.46053077754E+03  0.14236819484E+04  0.15240472312E+04  0.12699999809E+01 0.  1.
</event>
<event>
 5   0  0.6628798E-05  0.2159129E+04  0.7818609E-02  0.8535635E-01
        2   -1    0    0  501    0  0.00000000000E+00  0.00000000000E+00  0.11450189956E+04  0.11450189956E+04  0.25500000920E-02 0.  1.
       -2   -1    0    0    0  501  0.00000000000E+00  0.00000000000E+00 -0.10178515272E+04  0.10178515272E+04  0.25500000920E-02 0. -1.
    10030    2    1    2    0    0  0.00000000000E+00  0.00000000000E+00  0.12716746838E+03  0.21628705227E+04  0.21591288366E+04 0.  0.
        4    1    3    3  502    0 -0.25269788856E+03 -0.86640048254E+03  0.65702212741E+03  0.11163268822E+04  0.12699999809E+01 0.  1.
       -4    1    3    3    0  502  0.25269788856E+03  0.86640048254E+03 -0.52985465903E+03  0.10465436406E+04  0.12699999809E+01 0. -1.
</event>
<event>
 5   0  0.2820239E-05  0.2254690E+04  0.7818609E-02  0.8496003E-01
       -1   -1    0    0    0  501  0.00000000000E+00  0.00000000000E+00  0.60621825408E+03  0.60621825410E+03  0.50400001928E-02 0. -1.
        1   -1    0    0  501    0  0.00000000000E+00  0.00000000000E+00 -0.20964512908E+04  0.20964512908E+04  0.50400001928E-02 0.  1.
    10030    2    1    2    0    0  0.00000000000E+00  0.00000000000E+00 -0.14902330367E+04  0.27026695449E+04  0.22546902592E+04 0.  0.
        3    1    3    3  502    0  0.44877667203E+03 -0.28530214693E+03  0.44642322841E+03  0.69432811081E+03  0.10100000352E+00 0. -1.
       -3    1    3    3    0  502 -0.44877667203E+03  0.28530214693E+03 -0.19366562651E+04  0.20083414341E+04  0.10100000352E+00 0.  1.
</event>
<event>
 5   0  0.6445740E-05  0.2161660E+04  0.7818609E-02  0.8534558E-01
       -2   -1    0    0    0  501  0.00000000000E+00  0.00000000000E+00  0.67220386752E+03  0.67220386752E+03  0.25500000920E-02 0.  1.
        2   -1    0    0  501    0  0.00000000000E+00  0.00000000000E+00 -0.17378557297E+04  0.17378557297E+04  0.25500000920E-02 0. -1.
    10030    2    1    2    0    0  0.00000000000E+00  0.00000000000E+00 -0.10656518622E+04  0.24100595972E+04  0.21616598647E+04 0.  0.
        5    1    3    3  502    0 -0.38022266139E+03 -0.25426630940E+03  0.55896264600E+03  0.72227554157E+03  0.46999998093E+01 0.  1.
       -5    1    3    3    0  502  0.38022266139E+03  0.25426630940E+03 -0.16246145082E+04  0.16877840556E+04  0.46999998093E+01 0. -1.
</event>
<event>
 5   0  0.2820239E-05  0.2194487E+04  0.7818609E-02  0.8520726E-01
        1   -1    0    0  501    0  0.00000000000E+00  0.00000000000E+00  0.16376869146E+04  0.16376869146E+04  0.50400001928E-02 0.  1.
       -1   -1    0    0    0  501  0.00000000000E+00  0.00000000000E+00 -0.73514848458E+03  0.73514848459E+03  0.50400001928E-02 0. -1.
    10030    2    1    2    0    0  0.00000000000E+00  0.00000000000E+00  0.90253842999E+03  0.23728353992E+04  0.21944867769E+04 0.  0.
        3    1    3    3  502    0  0.66282932109E+03  0.39017282046E+03 -0.39486645478E+03  0.86457912653E+03  0.10100000352E+00 0. -1.
       -3    1    3    3    0  502 -0.66282932109E+03 -0.39017282046E+03  0.12974048848E+04  0.15082562726E+04  0.10100000352E+00 0.  1.
</event>
<event>
 5   0  0.6293013E-05  0.2208686E+04  0.7818609E-02  0.8514821E-01
        2   -1    0    0  501    0  0.00000000000E+00  0.00000000000E+00  0.11465104486E+04  0.11465104486E+04  0.25500000920E-02 0.  1.
       -2   -1    0    0    0  501  0.00000000000E+00  0.00000000000E+00 -0.10637264476E+04  0.10637264476E+04  0.25500000920E-02 0. -1.
    10030    2    1    2    0    0  0.00000000000E+00  0.00000000000E+00  0.82784000938E+02  0.22102368962E+04  0.22086860226E+04 0.  0.
        1    1    3    3  502    0 -0.10186358610E+04 -0.16698584572E+03  0.43418538067E+03  0.11198304492E+04  0.50400001928E-02 0.  1.
       -1    1    3    3    0  502  0.10186358610E+04  0.16698584572E+03 -0.35140137973E+03  0.10904064471E+04  0.50400001928E-02 0. -1.
</event>
<event>
 5   0  0.2820239E-05  0.2210647E+04  0.7818609E-02  0.8514010E-01
       -1   -1    0    0    0  501  0.00000000000E+00  0.00000000000E+00  0.10458701385E+04  0.10458701385E+04  0.50400001928E-02 0.  1.
        1   -1    0    0  501    0  0.00000000000E+00  0.00000000000E+00 -0.11681566624E+04  0.11681566625E+04  0.50400001928E-02 0. -1.
    10030    2    1    2    0    0  0.00000000000E+00  0.00000000000E+00 -0.12228652398E+03  0.22140268009E+04  0.22106471182E+04 0.  0.
        3    1    3    3  502    0 -0.42250469986E+03 -0.37348642976E+03 -0.10132479010E+04  0.11596006441E+04  0.10100000352E+00 0. -1.
       -3    1    3    3    0  502  0.42250469986E+03  0.37348642976E+03  0.89096137705E+03  0.10544261568E+04  0.10100000352E+00 0.  1.
</event>
<event>
 5   0  0.6445740E-05  0.2190733E+04  0.7818609E-02  0.8522295E-01
       -2   -1    0    0    0  501  0.00000000000E+00  0.00000000000E+00  0.74180686288E+03  0.74180686289E+03  0.25500000920E-02 0. -1.
        2   -1    0    0  501    0  0.00000000000E+00  0.00000000000E+00 -0.16174391764E+04  0.16174391764E+04  0.25500000920E-02 0.  1.
    10030    2    1    2    0    0  0.00000000000E+00  0.00000000000E+00 -0.87563231352E+03  0.23592460393E+04  0.21907327371E+04 0.  0.
        5    1    3    3  502    0 -0.76634409332E+03  0.75729530432E+03 -0.65056173643E+03  0.12585833744E+04  0.46999998093E+01 0.  1.
       -5    1    3    3    0  502  0.76634409332E+03 -0.75729530432E+03 -0.22507057709E+03  0.11006626649E+04  0.46999998093E+01 0. -1.
</event>
<event>
 5   0  0.6306919E-05  0.2188340E+04  0.7818609E-02  0.8523297E-01
       -2   -1    0    0    0  501  0.00000000000E+00  0.00000000000E+00  0.50898881721E+03  0.50898881722E+03  0.25500000920E-02 0. -1.
        2   -1    0    0  501    0  0.00000000000E+00  0.00000000000E+00 -0.23521306420E+04  0.23521306420E+04  0.25500000920E-02 0.  1.
    10030    2    1    2    0    0  0.00000000000E+00  0.00000000000E+00 -0.18431418248E+04  0.28611194592E+04  0.21883401869E+04 0.  0.
        3    1    3    3  502    0  0.66865787230E+02  0.13005310054E+03 -0.23392965522E+04  0.23438628825E+04  0.10100000352E+00 0.  1.
       -3    1    3    3    0  502 -0.66865787230E+02 -0.13005310054E+03  0.49615472741E+03  0.51725657675E+03  0.10100000352E+00 0. -1.
</event>
<event>
 5   0  0.6306919E-05  0.2199651E+04  0.7818609E-02  0.8518574E-01
       -2   -1    0    0    0  501  0.00000000000E+00  0.00000000000E+00  0.38339589060E+03  0.38339589061E+03  0.25500000920E-02 0.  1.
        2   -1    0    0  501    0  0.00000000000E+00  0.00000000000E+00 -0.31550042997E+04  0.31550042997E+04  0.25500000920E-02 0. -1.
    10030    2    1    2    0    0  0.00000000000E+00  0.00000000000E+00 -0.27716084091E+04  0.35384001903E+04  0.21996505935E+04 0.  0.
        3    1    3    3  502    0 -0.76057537780E+03 -0.79364852631E+03 -0.13286408282E+04  0.17244243530E+04  0.10100000352E+00 0.  1.
       -3    1    3    3    0  502  0.76057537780E+03  0.79364852631E+03 -0.14429675809E+04  0.18139758374E+04  0.10100000352E+00 0. -1.
</event>
<event>
 5   0  0.2908031E-05  0.2237652E+04  0.7818609E-02  0.8502918E-01
        1   -1    0    0  501    0  0.00000000000E+00  0.00000000000E+00  0.80391796294E+03  0.80391796295E+03  0.50400001928E-02 0.  1.
       -1   -1    0    0    0  501  0.00000000000E+00  0.00000000000E+00 -0.15570892440E+04  0.15570892441E+04  0.50400001928E-02 0. -1.
    10030    2    1    2    0    0  0.00000000000E+00  0.00000000000E+00 -0.75317128111E+03  0.23610072070E+04  0.22376523530E+04 0.  0.
        1    1    3    3  502    0 -0.10419817468E+04  0.25361278099E+03 -0.40057036569E+02  0.10731495560E+04  0.50400001928E-02 0. -1.
       -1    1    3    3    0  502  0.10419817468E+04 -0.25361278099E+03 -0.71311424454E+03  0.12878576510E+04  0.50400001928E-02 0.  1.
</event>
<event>
 5   0  0.2753631E-05  0.2214319E+04  0.7818609E-02  0.8512492E-01
        1   -1    0    0  501    0  0.00000000000E+00  0.00000000000E+00  0.93562181638E+03  0.93562181640E+03  0.50400001928E-02 0. -1.
       -1   -1    0    0    0  501  0.00000000000E+00  0.00000000000E+00 -0.13101467370E+04  0.13101467370E+04  0.50400001928E-02 0.  1.
    10030    2    1    2    0    0  0.00000000000E+00  0.00000000000E+00 -0.37452492062E+03  0.22457685534E+04  0.22143187393E+04 0.  0.
        4    1    3    3  502    0  0.80451380583E+03 -0.11163766166E+03 -0.95034137531E+03  0.12501423014E+04  0.12699999809E+01 0. -1.
       -4    1    3    3    0  502 -0.80451380583E+03  0.11163766166E+03  0.57581645469E+03  0.99562625199E+03  0.12699999809E+01 0.  1.
</event>
<event>
 5   0  0.2908031E-05  0.2186610E+04  0.7818609E-02  0.8524022E-01
       -1   -1    0    0    0  501  0.00000000000E+00  0.00000000000E+00  0.69675522080E+03  0.69675522082E+03  0.50400001928E-02 0.  1.
        1   -1    0    0  501    0  0.00000000000E+00  0.00000000000E+00 -0.17155465668E+04  0.17155465668E+04  0.50400001928E-02 0. -1.
    10030    2    1    2    0    0  0.00000000000E+00  0.00000000000E+00 -0.10187913460E+04  0.24123017876E+04  0.21866101865E+04 0.  0.
        1    1    3    3  502    0 -0.15492001279E+03  0.73320998504E+03  0.36883502461E+03  0.83524629178E+03  0.50400001928E-02 0.  1.
       -1    1    3    3    0  502  0.15492001279E+03 -0.73320998504E+03 -0.13876263706E+04  0.15770554958E+04  0.50400001928E-02 0. -1.
</event>
<event>
 5   0  0.2245375E-05  0.2188301E+04  0.7818609E-02  0.8523313E-01
       -3   -1    0    0    0  501  0.00000000000E+00  0.00000000000E+00  0.83810499395E+03  0.83810500004E+03  0.10100000352E+00 0. -1.
        3   -1    0    0  501    0  0.00000000000E+00  0.00000000000E+00 -0.14284194937E+04  0.14284194973E+04  0.10100000352E+00 0.  1.
    10030    2    1    2    0    0  0.00000000000E+00  0.00000000000E+00 -0.59031449977E+03  0.22665244973E+04  0.21883011878E+04 0.  0.
        2    1    3    3  502    0  0.75143449532E+03 -0.72981324965E+03 -0.62249947313E+03  0.12185182699E+04  0.25500000920E-02 0.  1.
       -2    1    3    3    0  502 -0.75143449532E+03  0.72981324965E+03  0.32184973364E+02  0.10480062274E+04  0.25500000920E-02 0. -1.
</event>
<event>
 5   0  0.2820239E-05  0.2173458E+04  0.7818609E-02  0.8529557E-01
       -1   -1    0    0    0  501  0.00000000000E+00  0.00000000000E+00  0.14991063415E+04  0.14991063415E+04  0.50400001928E-02 0.  1.
        1   -1    0    0  501    0  0.00000000000E+00  0.00000000000E+00 -0.78778905189E+03  0.78778905190E+03  0.50400001928E-02 0. -1.
    10030    2    1    2    0    0  0.00000000000E+00  0.00000000000E+00  0.71131728957E+03  0.22868953934E+04  0.21734576724E+04 0.  0.
        3    1    3    3  502    0 -0.41459752949E+03  0.86761473665E+03 -0.17705947205E+03  0.97775073999E+03  0.10100000352E+00 0. -1.
       -3    1    3    3    0  502  0.41459752949E+03 -0.86761473665E+03  0.88837676161E+03  0.13091446534E+04  0.10100000352E+00 0.  1.
</event>
<event>
 5   0  0.2753631E-05  0.2201498E+04  0.7818609E-02  0.8517805E-01
        1   -1    0    0  501    0  0.00000000000E+00  0.00000000000E+00  0.17471523664E+04  0.17471523664E+04  0.50400001928E-02 0. -1.
       -1   -1    0    0    0  501  0.00000000000E+00  0.00000000000E+00 -0.69349900733E+03  0.69349900735E+03  0.50400001928E-02 0.  1.
    10030    2    1    2    0    0  0.00000000000E+00  0.00000000000E+00  0.10536533591E+04  0.24406513738E+04  0.22014980643E+04 0.  0.
        4    1    3    3  502    0 -0.10261433654E+04 -0.27137084254E+03  0.85011124200E+03  0.13598908328E+04  0.12699999809E+01 0. -1.
       -4    1    3    3    0  502  0.10261433654E+04  0.27137084254E+03  0.20354211706E+03  0.10807605409E+04  0.12699999809E+01 0.  1.
</event>
<event>
 5   0  0.2929471E-05  0.2201654E+04  0.7818609E-02  0.8517740E-01
        1   -1    0    0  501    0  0.00000000000E+00  0.00000000000E+00  0.78799536882E+03  0.78799536884E+03  0.50400001928E-02 0. -1.
       -1   -1    0    0    0  501  0.00000000000E+00  0.00000000000E+00 -0.15378514996E+04  0.15378514996E+04  0.50400001928E-02 0.  1.
    10030    2    1    2    0    0  0.00000000000E+00  0.00000000000E+00 -0.74985613078E+03  0.23258468685E+04  0.22016537963E+04 0.  0.
        2    1    3    3  502    0  0.20495287656E+03 -0.10732658198E+04 -0.51632381401E+03  0.12085096121E+04  0.25500000920E-02 0. -1.
       -2    1    3    3    0  502 -0.20495287656E+03  0.10732658198E+04 -0.23353231677E+03  0.11173372564E+04  0.25500000920E-02 0.  1.
</event>
<event>
 5   0  0.6414768E-05  0.2219707E+04  0.7818609E-02  0.8510270E-01
        2   -1    0    0  501    0  0.00000000000E+00  0.00000000000E+00  0.17101528042E+04  0.17101528042E+04  0.25500000920E-02 0.  1.
       -2   -1    0    0    0  501  0.00000000000E+00  0.00000000000E+00 -0.72027153426E+03  0.72027153426E+03  0.25500000920E-02 0. -1.
    10030    2    1    2    0    0  0.00000000000E+00  0.00000000000E+00  0.98988126994E+03  0.24304243385E+04  0.22197066330E+04 0.  0.
        2    1    3    3  502    0 -0.82601824972E+03  0.41284160383E+03  0.11690391098E+04  0.14897640011E+04  0.25500000920E-02 0.  1.
       -2    1    3    3    0  502  0.82601824972E+03 -0.41284160383E+03 -0.17915783985E+03  0.94066033737E+03  0.25500000920E-02 0. -1.
</event>
<event>
 5   0  0.2910318E-05  0.2223484E+04  0.7818609E-02  0.8508717E-01
        1   -1    0    0  501    0  0.00000000000E+00  0.00000000000E+00  0.18426230855E+04  0.18426230855E+04  0.50400001928E-02 0. -1.
       -1   -1    0    0    0  501  0.00000000000E+00  0.00000000000E+00 -0.67076668636E+03  0.67076668637E+03  0.50400001928E-02 0.  1.
    10030    2    1    2    0    0  0.00000000000E+00  0.00000000000E+00  0.11718563991E+04  0.25133897718E+04  0.22234839161E+04 0.  0.
        5    1    3    3  502    0  0.25415124994E+03 -0.46309389129E+03 -0.51982693666E+03  0.74114164912E+03  0.46999998093E+01 0.  1.
       -5    1    3    3    0  502 -0.25415124994E+03  0.46309389129E+03  0.16916833358E+04  0.17722481227E+04  0.46999998093E+01 0. -1.
</event>
<event>
 5   0  0.2820239E-05  0.2176621E+04  0.7818609E-02  0.8528222E-01
       -1   -1    0    0    0  501  0.00000000000E+00  0.00000000000E+00  0.10832641965E+04  0.10832641965E+04  0.50400001928E-02 0.  1.
        1   -1    0    0  501    0  0.00000000000E+00  0.00000000000E+00 -0.10933804855E+04  0.10933804855E+04  0.50400001928E-02 0. -1.
    10030    2    1    2    0    0  0.00000000000E+00  0.00000000000E+00 -0.10116288961E+02  0.21766446820E+04  0.21766211734E+04 0.  0.
        3    1    3    3  502    0 -0.79355665290E+03  0.10734634021E+03  0.73194677938E+03  0.10848969979E+04  0.10100000352E+00 0.  1.
       -3    1    3    3    0  502  0.79355665290E+03 -0.10734634021E+03 -0.74206306834E+03  0.10917476841E+04  0.10100000352E+00 0. -1.
</event>
<event>
 5   0  0.6414768E-05  0.2191780E+04  0.7818609E-02  0.8521857E-01
        2   -1    0    0  501    0  0.00000000000E+00  0.00000000000E+00  0.17211878660E+04  0.17211878660E+04  0.25500000920E-02 0. -1.
       -2   -1    0    0    0  501  0.00000000000E+00  0.00000000000E+00 -0.69775908238E+03  0.69775908238E+03  0.25500000920E-02 0.  1.
    10030    2    1    2    0    0  0.00000000000E+00  0.00000000000E+00  0.10234287837E+04  0.24189469484E+04  0.21917796112E+04 0.  0.
        2    1    3    3  502    0  0.23948360037E+03  0.10191887042E+04  0.86912584346E+03  0.13606901710E+04  0.25500000920E-02 0. -1.
       -2    1    3    3    0  502 -0.23948360037E+03 -0.10191887042E+04  0.15430294020E+03  0.10582567774E+04  0.25500000920E-02 0.  1.
</event>
<event>
 5   0  0.2929471E-05  0.2186730E+04  0.7818609E-02  0.8523972E-01
        1   -1    0    0  501    0  0.00000000000E+00  0.00000000000E+00  0.17744644651E+04  0.17744644651E+04  0.50400001928E-02 0. -1.
       -1   -1    0    0    0  501  0.00000000000E+00  0.00000000000E+00 -0.67369483468E+03  0.67369483470E+03  0.50400001928E-02 0.  1.
    10030    2    1    2    0    0  0.00000000000E+00  0.00000000000E+00  0.11007696304E+04  0.24481592998E+04  0.21867304768E+04 0.  0.
        2    1    3    3  502    0 -0.68747969358E+03  0.70122012098E+03  0.12172825031E+02  0.98208256518E+03  0.25500000920E-02 0.  1.
       -2    1    3    3    0  502  0.68747969358E+03 -0.70122012098E+03  0.10885968054E+04  0.14660767347E+04  0.25500000920E-02 0. -1.
</event>
<event>
 5   0  0.2910318E-05  0.2186888E+04  0.7818609E-02  0.8523905E-01
        1   -1    0    0  501    0  0.00000000000E+00  0.00000000000E+00  0.83414346052E+03  0.83414346054E+03  0.50400001928E-02 0. -1.
       -1   -1    0    0    0  501  0.00000000000E+00  0.00000000000E+00 -0.14333503269E+04  0.14333503270E+04  0.50400001928E-02 0.  1.
    10030    2    1    2    0    0  0.00000000000E+00  0.00000000000E+00 -0.59920686642E+03  0.22674937875E+04  0.21868880190E+04 0.  0.
        5    1    3    3  502    0  0.86381833362E+03 -0.66582822104E+03 -0.38050750519E+03  0.11551265666E+04  0.46999998093E+01 0.  1.
       -5    1    3    3    0  502 -0.86381833362E+03  0.66582822104E+03 -0.21869936124E+03  0.11123672209E+04  0.46999998093E+01 0. -1.
</event>
<event>
 5   0  0.6293013E-05  0.2202962E+04  0.7818609E-02  0.8517196E-01
       -2   -1    0    0    0  501  0.00000000000E+00  0.00000000000E+00  0.51623723403E+03  0.51623723403E+03  0.25500000920E-02 0. -1.
        2   -1    0    0  501    0  0.00000000000E+00  0.00000000000E+00 -0.23502000310E+04  0.23502000310E+04  0.25500000920E-02 0.  1.
    10030    2    1    2    0    0  0.00000000000E+00  0.00000000000E+00 -0.18339627969E+04  0.28664372650E+04  0.22029623359E+04 0.  0.
        1    1    3    3  502    0 -0.42822585863E+03 -0.56796506639E+03 -0.20112826850E+04  0.21333587935E+04  0.50400001928E-02 0.  1.
       -1    1    3    3    0  502  0.42822585863E+03  0.56796506639E+03  0.17731988810E+03  0.73307847150E+03  0.50400001928E-02 0. -1.
</event>
<event>
 5   0  0.6414768E-05  0.2274329E+04  0.7818609E-02  0.8488112E-01
       -2   -1    0    0    0  501  0.00000000000E+00  0.00000000000E+00  0.10802654106E+04  0.10802654106E+04  0.25500000920E-02 0.  1.
        2   -1    0    0  501    0  0.00000000000E+00  0.00000000000E+00 -0.11970602601E+04  0.11970602601E+04  0.25500000920E-02 0. -1.
    10030    2    1    2    0    0  0.00000000000E+00  0.00000000000E+00 -0.11679484948E+03  0.22773256706E+04  0.22743287303E+04 0.  0.
        2    1    3    3  502    0 -0.45948871912E+03 -0.48761533543E+03  0.86164095743E+03  0.10914777771E+04  0.25500000920E-02 0.  1.
       -2    1    3    3    0  502  0.45948871912E+03  0.48761533543E+03 -0.97843580692E+03  0.11858478935E+04  0.25500000920E-02 0. -1.
</event>
<event>
 5   0  0.6628798E-05  0.2214832E+04  0.7818609E-02  0.8512280E-01
        2   -1    0    0  501    0  0.00000000000E+00  0.00000000000E+00  0.20116173506E+04  0.20116173506E+04  0.25500000920E-02 0. -1.
       -2   -1    0    0    0  501  0.00000000000E+00  0.00000000000E+00 -0.60964411922E+03  0.60964411923E+03  0.25500000920E-02 0.  1.
    10030    2    1    2    0    0  0.00000000000E+00  0.00000000000E+00  0.14019732313E+04  0.26212614698E+04  0.22148324432E+04 0.  0.
        4    1    3    3  502    0  0.43956229297E+03 -0.88540859690E+03  0.11017579944E+03  0.99463747795E+03  0.12699999809E+01 0. -1.
       -4    1    3    3    0  502 -0.43956229297E+03  0.88540859690E+03  0.12917974319E+04  0.16266239918E+04  0.12699999809E+01 0.  1.
</event>
<event>
 5   0  0.6445740E-05  0.2219521E+04  0.7818609E-02  0.8510347E-01
       -2   -1    0    0    0  501  0.00000000000E+00  0.00000000000E+00  0.94839132149E+03  0.94839132149E+03  0.25500000920E-02 0.  1.
        2   -1    0    0  501    0  0.00000000000E+00  0.00000000000E+00 -0.12985865874E+04  0.12985865874E+04  0.25500000920E-02 0. -1.
    10030    2    1    2    0    0  0.00000000000E+00  0.00000000000E+00 -0.35019526587E+03  0.22469779089E+04  0.22195208939E+04 0.  0.
        5    1    3    3  502    0  0.69132449073E+03 -0.41845952323E+02 -0.10529260803E+04  0.12602999864E+04  0.46999998093E+01 0. -1.
       -5    1    3    3    0  502 -0.69132449073E+03  0.41845952323E+02  0.70273081438E+03  0.98667792247E+03  0.46999998093E+01 0.  1.
</event>
<event>
 5   0  0.6628798E-05  0.2234941E+04  0.7818609E-02  0.8504024E-01
       -2   -1    0    0    0  501  0.00000000000E+00  0.00000000000E+00  0.88365730242E+03  0.88365730242E+03  0.25500000920E-02 0. -1.
        2   -1    0    0  501    0  0.00000000000E+00  0.00000000000E+00 -0.14131500213E+04  0.14131500213E+04  0.25500000920E-02 0.  1.
    10030    2    1    2    0    0  0.00000000000E+00  0.00000000000E+00 -0.52949271888E+03  0.22968073237E+04  0.22349410155E+04 0.  0.
        4    1    3    3  502    0 -0.13863614944E+03 -0.10845202906E+04 -0.27410953165E+02  0.10936897256E+04  0.12699999809E+01 0. -1.
       -4    1    3    3    0  502  0.13863614944E+03  0.10845202906E+04 -0.50208176572E+03  0.12031175981E+04  0.12699999809E+01 0.  1.
</event>
<event>
 5   0  0.6293013E-05  0.2192600E+04  0.7818609E-02  0.8521514E-01
        2   -1    0    0  501    0  0.00000000000E+00  0.00000000000E+00  0.17631351000E+04  0.17631351000E+04  0.25500000920E-02 0. -1.
       -2   -1    0    0    0  501  0.00000000000E+00  0.00000000000E+00 -0.68166852028E+03  0.68166852029E+03  0.25500000920E-02 0.  1.
    10030    2    1    2    0    0  0.00000000000E+00  0.00000000000E+00  0.10814665797E+04  0.24448036203E+04  0.21926000043E+04 0.  0.
        1    1    3    3  502    0 -0.38832196643E+03 -0.18442562579E+03 -0.58376639191E+03  0.72497583505E+03  0.50400001928E-02 0.  1.
       -1    1    3    3    0  502  0.38832196643E+03  0.18442562579E+03  0.16652329716E+04  0.17198277852E+04  0.50400001928E-02 0. -1.
</event>
<event>
 5   0  0.2753631E-05  0.2097311E+04  0.7818609E-02  0.8562429E-01
       -1   -1    0    0    0  501  0.00000000000E+00  0.00000000000E+00  0.97519670326E+03  0.97519670327E+03  0.50400001928E-02 0. -1.
        1   -1    0    0  501    0  0.00000000000E+00  0.00000000000E+00 -0.11276480565E+04  0.11276480565E+04  0.50400001928E-02 0.  1.
    10030    2    1    2    0    0  0.00000000000E+00  0.00000000000E+00 -0.15245135324E+03  0.21028447598E+04  0.20973112951E+04 0.  0.
        4    1    3    3  502    0 -0.33098744183E+03 -0.54469575254E+03  0.75869634012E+03  0.99089247595E+03  0.12699999809E+01 0. -1.
       -4    1    3    3    0  502  0.33098744183E+03  0.54469575254E+03 -0.91114769336E+03  0.11119522838E+04  0.12699999809E+01 0.  1.
</event>
<event>
 5   0  0.6414768E-05  0.2209940E+04  0.7818609E-02  0.8514302E-01
        2   -1    0    0  501    0  0.00000000000E+00  0.00000000000E+00  0.16242820648E+04  0.16242820648E+04  0.25500000920E-02 0. -1.
       -2   -1    0    0    0  501  0.00000000000E+00  0.00000000000E+00 -0.75169121718E+03  0.75169121718E+03  0.25500000920E-02 0.  1.
    10030    2    1    2    0    0  0.00000000000E+00  0.00000000000E+00  0.87259084758E+03  0.23759732819E+04  0.22099398746E+04 0.  0.
        2    1    3    3  502    0 -0.52932541430E+03  0.39764766457E+03 -0.51484524468E+03  0.83867436192E+03  0.25500000920E-02 0.  1.
       -2    1    3    3    0  502  0.52932541430E+03 -0.39764766457E+03  0.13874360923E+04  0.15372989200E+04  0.25500000920E-02 0. -1.
</event>
<event>
 5   0  0.6306919E-05  0.2219756E+04  0.7818609E-02  0.8510250E-01
        2   -1    0    0  501    0  0.00000000000E+00  0.00000000000E+00  0.22068421612E+04  0.22068421612E+04  0.25500000920E-02 0. -1.
       -2   -1    0    0    0  501  0.00000000000E+00  0.00000000000E+00 -0.55818617202E+03  0.55818617202E+03  0.25500000920E-02 0.  1.
    10030    2    1    2    0    0  0.00000000000E+00  0.00000000000E+00  0.16486559892E+04  0.27650283332E+04  0.22197556426E+04 0.  0.
        3    1    3    3  502    0 -0.89148480438E+03  0.37941588296E+03  0.14987356268E+04  0.17846316309E+04  0.10100000352E+00 0. -1.
       -3    1    3    3    0  502  0.89148480438E+03 -0.37941588296E+03  0.14992036237E+03  0.98039670233E+03  0.10100000352E+00 0.  1.
</event>
<event>
 5   0  0.2245375E-05  0.2194579E+04  0.7818609E-02  0.8520688E-01
       -4   -1    0    0    0  501  0.00000000000E+00  0.00000000000E+00  0.86862292413E+03  0.86862385256E+03  0.12699999809E+01 0. -1.
        4   -1    0    0  501    0  0.00000000000E+00  0.00000000000E+00 -0.13861512447E+04  0.13861518265E+04  0.12699999809E+01 0.  1.
    10030    2    1    2    0    0  0.00000000000E+00  0.00000000000E+00 -0.51752832061E+03  0.22547756791E+04  0.21945791853E+04 0.  0.
        2    1    3    3  502    0 -0.46951968015E+03 -0.88223468881E+03 -0.72424497675E+03  0.12342275165E+04  0.25500000920E-02 0.  1.
       -2    1    3    3    0  502  0.46951968015E+03  0.88223468881E+03  0.20671665614E+03  0.10205481626E+04  0.25500000920E-02 0. -1.
</event>
<event>
 5   0  0.6293013E-05  0.2334941E+04  0.7818609E-02  0.8464270E-01
        2   -1    0    0  501    0  0.00000000000E+00  0.00000000000E+00  0.25253378536E+04  0.25253378536E+04  0.25500000920E-02 0.  1.
       -2   -1    0    0    0  501  0.00000000000E+00  0.00000000000E+00 -0.53972483570E+03  0.53972483571E+03  0.25500000920E-02 0. -1.
    10030    2    1    2    0    0  0.00000000000E+00  0.00000000000E+00  0.19856130179E+04  0.30650626893E+04  0.23349411625E+04 0.  0.
        1    1    3    3  502    0  0.58296630401E+03  0.84892893098E+03  0.17147373762E+04  0.20002135663E+04  0.50400001928E-02 0.  1.
       -1    1    3    3    0  502 -0.58296630401E+03 -0.84892893098E+03  0.27087564168E+03  0.10648491230E+04  0.50400001928E-02 0. -1.
</event>
<event>
 5   0  0.2908031E-05  0.2216830E+04  0.7818609E-02  0.8511456E-01
        1   -1    0    0  501    0  0.00000000000E+00  0.00000000000E+00  0.21681947618E+04  0.21681947618E+04  0.50400001928E-02 0.  1.
       -1   -1    0    0    0  501  0.00000000000E+00  0.00000000000E+00 -0.56663892959E+03  0.56663892961E+03  0.50400001928E-02 0. -1.
    10030    2    1    2    0    0  0.00000000000E+00  0.00000000000E+00  0.16015558322E+04  0.27348336914E+04  0.22168297715E+04 0.  0.
        1    1    3    3  502    0  0.38460909167E+03 -0.84931847186E+03  0.15402772453E+04  0.18004777179E+04  0.50400001928E-02 0.  1.
       -1    1    3    3    0  502 -0.38460909167E+03  0.84931847186E+03  0.61278586873E+02  0.93435597354E+03  0.50400001928E-02 0. -1.
</event>
<event>
 5   0  0.6414768E-05  0.2197422E+04  0.7818609E-02  0.8519502E-01
       -2   -1    0    0    0  501  0.00000000000E+00  0.00000000000E+00  0.75682510376E+03  0.75682510377E+03  0.25500000920E-02 0. -1.
        2   -1    0    0  501    0  0.00000000000E+00  0.00000000000E+00 -0.15950398179E+04  0.15950398179E+04  0.25500000920E-02 0.  1.
    10030    2    1    2    0    0  0.00000000000E+00  0.00000000000E+00 -0.83821471418E+03  0.23518649217E+04  0.21974222860E+04 0.  0.
        2    1    3    3  502    0 -0.51760414478E+03  0.94588533156E+03 -0.64501849386E+03  0.12564481559E+04  0.25500000920E-02 0.  1.
       -2    1    3    3    0  502  0.51760414478E+03 -0.94588533156E+03 -0.19319622033E+03  0.10954167658E+04  0.25500000920E-02 0. -1.
</event>
<event>
 5   0  0.2820239E-05  0.2200715E+04  0.7818609E-02  0.8518131E-01
        1   -1    0    0  501    0  0.00000000000E+00  0.00000000000E+00  0.20496999100E+04  0.20496999100E+04  0.50400001928E-02 0.  1.
       -1   -1    0    0    0  501  0.00000000000E+00  0.00000000000E+00 -0.59071414627E+03  0.59071414629E+03  0.50400001928E-02 0. -1.
    10030    2    1    2    0    0  0.00000000000E+00  0.00000000000E+00  0.14589857638E+04  0.26404140563E+04  0.22007150952E+04 0.  0.
        3    1    3    3  502    0  0.70424273799E+03  0.78471431776E+03  0.35188542954E+03  0.11115564584E+04  0.10100000352E+00 0. -1.
       -3    1    3    3    0  502 -0.70424273799E+03 -0.78471431776E+03  0.11071003342E+04  0.15288575979E+04  0.10100000352E+00 0.  1.
</event>
<event>
 5   0  0.6445740E-05  0.2152142E+04  0.7818609E-02  0.8538616E-01
        2   -1    0    0  501    0  0.00000000000E+00  0.00000000000E+00  0.15572719281E+04  0.15572719281E+04  0.25500000920E-02 0.  1.
       -2   -1    0    0    0  501  0.00000000000E+00  0.00000000000E+00 -0.74356229763E+03  0.74356229763E+03  0.25500000920E-02 0. -1.
    10030    2    1    2    0    0  0.00000000000E+00  0.00000000000E+00  0.81370963043E+03  0.23008342257E+04  0.21521419032E+04 0.  0.
        5    1    3    3  502    0 -0.37939100147E+03  0.31459357728E+03  0.14294999609E+04  0.15120842831E+04  0.46999998093E+01 0.  1.
       -5    1    3    3    0  502  0.37939100147E+03 -0.31459357728E+03 -0.61579033049E+03  0.78874994262E+03  0.46999998093E+01 0. -1.
</event>
<event>
 5   0  0.2753631E-05  0.2215143E+04  0.7818609E-02  0.8512151E-01
       -1   -1    0    0    0  501  0.00000000000E+00  0.00000000000E+00  0.13304579313E+04  0.13304579313E+04  0.50400001928E-02 0.  1.
        1   -1    0    0  501    0  0.00000000000E+00  0.00000000000E+00 -0.92202475061E+03  0.92202475062E+03  0.50400001928E-02 0. -1.
    10030    2    1    2    0    0  0.00000000000E+00  0.00000000000E+00  0.40843318071E+03  0.22524826820E+04  0.22151434647E+04 0.  0.
        4    1    3    3  502    0  0.83273872334E+03  0.63748550297E+02 -0.53550420022E+03  0.99211089116E+03  0.12699999809E+01 0. -1.
       -4    1    3    3    0  502 -0.83273872334E+03 -0.63748550297E+02  0.94393738093E+03  0.12603717908E+04  0.12699999809E+01 0.  1.
</event>
<event>
 5   0  0.6628798E-05  0.2203533E+04  0.7818609E-02  0.8516959E-01
       -2   -1    0    0    0  501  0.00000000000E+00  0.00000000000E+00  0.85067936026E+03  0.85067936027E+03  0.25500000920E-02 0.  1.
        2   -1    0    0  501    0  0.00000000000E+00  0.00000000000E+00 -0.14269648963E+04  0.14269648963E+04  0.25500000920E-02 0. -1.
    10030    2    1    2    0    0  0.00000000000E+00  0.00000000000E+00 -0.57628553605E+03  0.22776442566E+04  0.22035331494E+04 0.  0.
        4    1    3    3  502    0 -0.12646951152E+03 -0.66899190177E+03 -0.11834999065E+04  0.13653638136E+04  0.12699999809E+01 0. -1.
       -4    1    3    3    0  502  0.12646951152E+03  0.66899190177E+03  0.60721437047E+03  0.91228044294E+03  0.12699999809E+01 0.  1.
</event>
<event>
 5   0  0.2908031E-05  0.2198299E+04  0.7818609E-02  0.8519137E-01
       -1   -1    0    0    0  501  0.00000000000E+00  0.00000000000E+00  0.69323052556E+03  0.69323052558E+03  0.50400001928E-02 0. -1.
        1   -1    0    0  501    0  0.00000000000E+00  0.00000000000E+00 -0.17427527505E+04  0.17427527505E+04  0.50400001928E-02 0.  1.
    10030    2    1    2    0    0  0.00000000000E+00  0.00000000000E+00 -0.10495222250E+04  0.24359832761E+04  0.21982988015E+04 0.  0.
        1    1    3    3  502    0 -0.60762636453E+02 -0.60659434514E+03  0.48871966933E+03  0.78134225072E+03  0.50400001928E-02 0. -1.
       -1    1    3    3    0  502  0.60762636453E+02  0.60659434514E+03 -0.15382418943E+04  0.16546410254E+04  0.50400001928E-02 0.  1.
</event>
<event>
 5   0  0.6293013E-05  0.2163435E+04  0.7818609E-02  0.8533803E-01
       -2   -1    0    0    0  501  0.00000000000E+00  0.00000000000E+00  0.78137443592E+03  0.78137443593E+03  0.25500000920E-02 0.  1.
        2   -1    0    0  501    0  0.00000000000E+00  0.00000000000E+00 -0.14975054079E+04  0.14975054079E+04  0.25500000920E-02 0. -1.
    10030    2    1    2    0    0  0.00000000000E+00  0.00000000000E+00 -0.71613097202E+03  0.22788798439E+04  0.21634347168E+04 0.  0.
        1    1    3    3  502    0  0.20780557436E+03 -0.79454335566E+03  0.38351191758E+03  0.90640150690E+03  0.50400001928E-02 0.  1.
       -1    1    3    3    0  502 -0.20780557436E+03  0.79454335566E+03 -0.10996428896E+04  0.13724783370E+04  0.50400001928E-02 0. -1.
</event>
<event>
 5   0  0.2753631E-05  0.2171795E+04  0.7818609E-02  0.8530260E-01
       -1   -1    0    0    0  501  0.00000000000E+00  0.00000000000E+00  0.96436648722E+03  0.96436648723E+03  0.50400001928E-02 0.  1.
        1   -1    0    0  501    0  0.00000000000E+00  0.00000000000E+00 -0.12227439784E+04  0.12227439784E+04  0.50400001928E-02 0. -1.
    10030    2    1    2    0    0  0.00000000000E+00  0.00000000000E+00 -0.25837749122E+03  0.21871104657E+04  0.21717949399E+04 0.  0.
        4    1    3    3  502    0 -0.34282490071E+02  0.48217495834E+03  0.85003857850E+03  0.97787278181E+03  0.12699999809E+01 0.  1.
       -4    1    3    3    0  502  0.34282490071E+02 -0.48217495834E+03 -0.11084160697E+04  0.12092376839E+04  0.12699999809E+01 0. -1.
</event>
<event>
 5   0  0.6306919E-05  0.2224738E+04  0.7818609E-02  0.8508202E-01
        2   -1    0    0  501    0  0.00000000000E+00  0.00000000000E+00  0.11504363203E+04  0.11504363203E+04  0.25500000920E-02 0. -1.
       -2   -1    0    0    0  501  0.00000000000E+00  0.00000000000E+00 -0.10755611750E+04  0.10755611750E+04  0.25500000920E-02 0.  1.
    10030    2    1    2    0    0  0.00000000000E+00  0.00000000000E+00  0.74875145346E+02  0.22259974953E+04  0.22247378636E+04 0.  0.
        3    1    3    3  502    0 -0.50721086145E+03 -0.54676502738E+03 -0.78834770232E+03  0.10852220801E+04  0.10100000352E+00 0. -1.
       -3    1    3    3    0  502  0.50721086145E+03  0.54676502738E+03  0.86322284766E+03  0.11407754153E+04  0.10100000352E+00 0.  1.
</event>
<event>
 5   0  0.2820239E-05  0.2191719E+04  0.7818609E-02  0.8521883E-01
       -1   -1    0    0    0  501  0.00000000000E+00  0.00000000000E+00  0.51818679030E+03  0.51818679033E+03  0.50400001928E-02 0.  1.
        1   -1    0    0  501    0  0.00000000000E+00  0.00000000000E+00 -0.23175195016E+04  0.23175195016E+04  0.50400001928E-02 0. -1.
    10030    2    1    2    0    0  0.00000000000E+00  0.00000000000E+00 -0.17993327113E+04  0.28357062919E+04  0.21917189528E+04 0.  0.
        3    1    3    3  502    0  0.58454248518E+03 -0.34891522691E+02  0.29878439337E+03  0.65740357412E+03  0.10100000352E+00 0.  1.
       -3    1    3    3    0  502 -0.58454248518E+03  0.34891522691E+02 -0.20981171046E+04  0.21783027178E+04  0.10100000352E+00 0. -1.
</event>
<event>
 5   0  0.6293013E-05  0.2199500E+04  0.7818609E-02  0.8518636E-01
        2   -1    0    0  501    0  0.00000000000E+00  0.00000000000E+00  0.18737749278E+04  0.18737749278E+04  0.25500000920E-02 0. -1.
       -2   -1    0    0    0  501  0.00000000000E+00  0.00000000000E+00 -0.64546186906E+03  0.64546186907E+03  0.25500000920E-02 0.  1.
    10030    2    1    2    0    0  0.00000000000E+00  0.00000000000E+00  0.12283130588E+04  0.25192367969E+04  0.21995001861E+04 0.  0.
        1    1    3    3  502    0 -0.14044027814E+03 -0.50570382314E+03  0.17210764500E+04  0.17993231992E+04  0.50400001928E-02 0. -1.
       -1    1    3    3    0  502  0.14044027814E+03  0.50570382314E+03 -0.49276339119E+03  0.71991359772E+03  0.50400001928E-02 0.  1.
</event>
<event>
 5   0  0.2753631E-05  0.2192192E+04  0.7818609E-02  0.8521685E-01
        1   -1    0    0  501    0  0.00000000000E+00  0.00000000000E+00  0.17163145948E+04  0.17163145948E+04  0.50400001928E-02 0.  1.
       -1   -1    0    0    0  501  0.00000000000E+00  0.00000000000E+00 -0.70000369049E+03  0.70000369051E+03  0.50400001928E-02 0. -1.
    10030    2    1    2    0    0  0.00000000000E+00  0.00000000000E+00  0.10163109043E+04  0.24163182854E+04  0.21921920997E+04 0.  0.
        4    1    3    3  502    0  0.62221111319E+03  0.37118153959E+03 -0.39843313097E+03  0.82684519559E+03  0.12699999809E+01 0. -1.
       -4    1    3    3    0  502 -0.62221111319E+03 -0.37118153959E+03  0.14147440353E+04  0.15894730898E+04  0.12699999809E+01 0.  1.
</event>
<event>
 5   0  0.6306919E-05  0.2236087E+04  0.7818609E-02  0.8503556E-01
        2   -1    0    0  501    0  0.00000000000E+00  0.00000000000E+00  0.10486619717E+04  0.10486619717E+04  0.25500000920E-02 0.  1.
       -2   -1    0    0    0  501  0.00000000000E+00  0.00000000000E+00 -0.11920149705E+04  0.11920149705E+04  0.25500000920E-02 0. -1.
    10030    2    1    2    0    0  0.00000000000E+00  0.00000000000E+00 -0.14335299885E+03  0.22406769422E+04  0.22360865540E+04 0.  0.
        3    1    3    3  502    0  0.83528464543E+03  0.32378091454E+02  0.67232462869E+03  0.10727391091E+04  0.10100000352E+00 0.  1.
       -3    1    3    3    0  502 -0.83528464543E+03 -0.32378091454E+02 -0.81567762754E+03  0.11679378331E+04  0.10100000352E+00 0. -1.
</event>
<event>
 5   0  0.2753631E-05  0.2235581E+04  0.7818609E-02  0.8503763E-01
       -1   -1    0    0    0  501  0.00000000000E+00  0.00000000000E+00  0.87902828510E+03  0.87902828511E+03  0.50400001928E-02 0.  1.
        1   -1    0    0  501    0  0.00000000000E+00  0.00000000000E+00 -0.14214048285E+04  0.14214048285E+04  0.50400001928E-02 0. -1.
    10030    2    1    2    0    0  0.00000000000E+00  0.00000000000E+00 -0.54237654337E+03  0.23004331136E+04  0.22355805052E+04 0.  0.
        4    1    3    3  502    0  0.84252607168E+03  0.66627550524E+03  0.47107116780E+02  0.10751715787E+04  0.12699999809E+01 0.  1.
       -4    1    3    3    0  502 -0.84252607168E+03 -0.66627550524E+03 -0.58948366015E+03  0.12252615349E+04  0.12699999809E+01 0. -1.
</event>
<event>
 5   0  0.2245375E-05  0.2253565E+04  0.7818609E-02  0.8496458E-01
       -3   -1    0    0    0  501  0.00000000000E+00  0.00000000000E+00  0.87795936837E+03  0.87795937418E+03  0.10100000352E+00 0.  1.
        3   -1    0    0  501    0  0.00000000000E+00  0.00000000000E+00 -0.14461251688E+04  0.14461251723E+04  0.10100000352E+00 0. -1.
    10030    2    1    2    0    0  0.00000000000E+00  0.00000000000E+00 -0.56816580042E+03  0.23240845465E+04  0.22535653091E+04 0.  0.
        2    1    3    3  502    0  0.55359034982E+03 -0.51629367158E+03 -0.11448368675E+04  0.13724696295E+04  0.25500000920E-02 0. -1.
       -2    1    3    3    0  502 -0.55359034982E+03  0.51629367158E+03  0.57667106705E+03  0.95161491702E+03  0.25500000920E-02 0.  1.
</event>
<event>
 5   0  0.2753631E-05  0.2190813E+04  0.7818609E-02  0.8522262E-01
       -1   -1    0    0    0  501  0.00000000000E+00  0.00000000000E+00  0.36302391367E+03  0.36302391370E+03  0.50400001928E-02 0.  1.
        1   -1    0    0  501    0  0.00000000000E+00  0.00000000000E+00 -0.33053336873E+04  0.33053336873E+04  0.50400001928E-02 0. -1.
    10030    2    1    2    0    0  0.00000000000E+00  0.00000000000E+00 -0.29423097737E+04  0.36683576010E+04  0.21908127909E+04 0.  0.
        4    1    3    3  502    0  0.98729457317E+03 -0.29107793350E+03 -0.20986445598E+04  0.23374746071E+04  0.12699999809E+01 0. -1.
       -4    1    3    3    0  502 -0.98729457317E+03  0.29107793350E+03 -0.84366521390E+03  0.13308829940E+04  0.12699999809E+01 0.  1.
</event>
<event>
 5   0  0.2910318E-05  0.2162921E+04  0.7818609E-02  0.8534022E-01
       -1   -1    0    0    0  501  0.00000000000E+00  0.00000000000E+00  0.12793855787E+04  0.12793855787E+04  0.50400001928E-02 0. -1.
        1   -1    0    0  501    0  0.00000000000E+00  0.00000000000E+00 -0.91415501265E+03  0.91415501266E+03  0.50400001928E-02 0.  1.
    10030    2    1    2    0    0  0.00000000000E+00  0.00000000000E+00  0.36523056602E+03  0.21935405913E+04  0.21629209323E+04 0.  0.
        5    1    3    3  502    0 -0.77213220328E+03  0.72071882350E+03 -0.52858886786E+02  0.10575631961E+04  0.46999998093E+01 0. -1.
       -5    1    3    3    0  502  0.77213220328E+03 -0.72071882350E+03  0.41808945281E+03  0.11359773952E+04  0.46999998093E+01 0.  1.
</event>
<event>
 5   0  0.6414768E-05  0.2170870E+04  0.7818609E-02  0.8530652E-01
       -2   -1    0    0    0  501  0.00000000000E+00  0.00000000000E+00  0.66472192049E+03  0.66472192050E+03  0.25500000920E-02 0.  1.
        2   -1    0    0  501    0  0.00000000000E+00  0.00000000000E+00 -0.17724234084E+04  0.17724234084E+04  0.25500000920E-02 0. -1.
    10030    2    1    2    0    0  0.00000000000E+00  0.00000000000E+00 -0.11077014879E+04  0.24371453289E+04  0.21708695879E+04 0.  0.
        2    1    3    3  502    0  0.12205759858E+03 -0.62789638324E+03  0.43064897615E+03  0.77110989238E+03  0.25500000920E-02 0.  1.
       -2    1    3    3    0  502 -0.12205759858E+03  0.62789638324E+03 -0.15383504641E+04  0.16660354365E+04  0.25500000920E-02 0. -1.
</event>
<event>
 5   0  0.6628798E-05  0.2233812E+04  0.7818609E-02  0.8504485E-01
        2   -1    0    0  501    0  0.00000000000E+00  0.00000000000E+00  0.22165712556E+04  0.22165712556E+04  0.25500000920E-02 0.  1.
       -2   -1    0    0    0  501  0.00000000000E+00  0.00000000000E+00 -0.56279665944E+03  0.56279665945E+03  0.25500000920E-02 0. -1.
    10030    2    1    2    0    0  0.00000000000E+00  0.00000000000E+00  0.16537745962E+04  0.27793679151E+04  0.22338118973E+04 0.  0.
        4    1    3    3  502    0  0.87784329801E+03 -0.49605310799E+03  0.22914071686E+03  0.10340138407E+04  0.12699999809E+01 0. -1.
       -4    1    3    3    0  502 -0.87784329801E+03  0.49605310799E+03  0.14246338793E+04  0.17453540743E+04  0.12699999809E+01 0.  1.
</event>
<event>
 5   0  0.6445740E-05  0.2186594E+04  0.7818609E-02  0.8524029E-01
       -2   -1    0    0    0  501  0.00000000000E+00  0.00000000000E+00  0.40165286296E+03  0.40165286297E+03  0.25500000920E-02 0. -1.
        2   -1    0    0  501    0  0.00000000000E+00  0.00000000000E+00 -0.29759477693E+04  0.29759477693E+04  0.25500000920E-02 0.  1.
    10030    2    1    2    0    0  0.00000000000E+00  0.00000000000E+00 -0.25742949064E+04  0.33776006323E+04  0.21865936445E+04 0.  0.
        5    1    3    3  502    0  0.10390821748E+04  0.11551747997E+03 -0.17810601677E+04  0.20652441660E+04  0.46999998093E+01 0.  1.
       -5    1    3    3    0  502 -0.10390821748E+04 -0.11551747997E+03 -0.79323473864E+03  0.13123564663E+04  0.46999998093E+01 0. -1.
</event>
<event>
 5   0  0.6445740E-05  0.2197250E+04  0.7818609E-02  0.8519574E-01
       -2   -1    0    0    0  501  0.00000000000E+00  0.00000000000E+00  0.60889801200E+03  0.60889801200E+03  0.25500000920E-02 0. -1.
        2   -1    0    0  501    0  0.00000000000E+00  0.00000000000E+00 -0.19822315665E+04  0.19822315665E+04  0.25500000920E-02 0.  1.
    10030    2    1    2    0    0  0.00000000000E+00  0.00000000000E+00 -0.13733335545E+04  0.25911295785E+04  0.21972499723E+04 0.  0.
        5    1    3    3  502    0 -0.30616200028E+02 -0.20580040915E+03  0.58543948618E+03  0.62133134645E+03  0.46999998093E+01 0. -1.
       -5    1    3    3    0  502  0.30616200028E+02  0.20580040915E+03 -0.19587730407E+04  0.19697982320E+04  0.46999998093E+01 0.  1.
</event>
<event>
 5   0  0.2753631E-05  0.2134662E+04  0.7818609E-02  0.8546126E-01
       -1   -1    0    0    0  501  0.00000000000E+00  0.00000000000E+00  0.12771306079E+04  0.12771306079E+04  0.50400001928E-02 0.  1.
        1   -1    0    0  501    0  0.00000000000E+00  0.00000000000E+00 -0.89199577859E+03  0.89199577861E+03  0.50400001928E-02 0. -1.
    10030    2    1    2    0    0  0.00000000000E+00  0.00000000000E+00  0.38513482926E+03  0.21691263865E+04  0.21346616696E+04 0.  0.
        4    1    3    3  502    0 -0.16275654407E+03 -0.79993327723E+03  0.89128132284E+03  0.12086219219E+04  0.12699999809E+01 0.  1.
       -4    1    3    3    0  502  0.16275654407E+03  0.79993327723E+03 -0.50614649359E+03  0.96050446461E+03  0.12699999809E+01 0. -1.
</event>
<event>
 5   0  0.2908031E-05  0.2183849E+04  0.7818609E-02  0.8525181E-01
        1   -1    0    0  501    0  0.00000000000E+00  0.00000000000E+00  0.48283691103E+03  0.48283691106E+03  0.50400001928E-02 0. -1.
       -1   -1    0    0    0  501  0.00000000000E+00  0.00000000000E+00 -0.24693616563E+04  0.24693616563E+04  0.50400001928E-02 0.  1.
    10030    2    1    2    0    0  0.00000000000E+00  0.00000000000E+00 -0.19865247453E+04  0.29521985673E+04  0.21838488541E+04 0.  0.
        1    1    3    3  502    0 -0.14608132244E+03 -0.70553337980E+03  0.11588482833E+03  0.72975776545E+03  0.50400001928E-02 0. -1.
       -1    1    3    3    0  502  0.14608132244E+03  0.70553337980E+03 -0.21024095736E+04  0.22224408019E+04  0.50400001928E-02 0.  1.
</event>
<event>
 5   0  0.6306919E-05  0.2192198E+04  0.7818609E-02  0.8521682E-01
       -2   -1    0    0    0  501  0.00000000000E+00  0.00000000000E+00  0.64778798208E+03  0.64778798209E+03  0.25500000920E-02 0.  1.
        2   -1    0    0  501    0  0.00000000000E+00  0.00000000000E+00 -0.18546706797E+04  0.18546706797E+04  0.25500000920E-02 0. -1.
    10030    2    1    2    0    0  0.00000000000E+00  0.00000000000E+00 -0.12068826976E+04  0.25024586618E+04  0.21921983277E+04 0.  0.
        3    1    3    3  502    0 -0.10955291947E+04 -0.15264560595E+02 -0.63982988830E+03  0.12687787511E+04  0.10100000352E+00 0.  1.
       -3    1    3    3    0  502  0.10955291947E+04  0.15264560595E+02 -0.56705280930E+03  0.12336799106E+04  0.10100000352E+00 0. -1.
</event>
<event>
 5   0  0.6293013E-05  0.2178714E+04  0.7818609E-02  0.8527340E-01
        2   -1    0    0  501    0  0.00000000000E+00  0.00000000000E+00  0.13921382584E+04  0.13921382584E+04  0.25500000920E-02 0.  1.
       -2   -1    0    0    0  501  0.00000000000E+00  0.00000000000E+00 -0.85242860123E+03  0.85242860123E+03  0.25500000920E-02 0. -1.
    10030    2    1    2    0    0  0.00000000000E+00  0.00000000000E+00  0.53970965720E+03  0.22445668597E+04  0.21787138117E+04 0.  0.
        1    1    3    3  502    0 -0.68060843547E+03  0.36326025178E+03  0.10621999085E+04  0.13128040595E+04  0.50400001928E-02 0.  1.
       -1    1    3    3    0  502  0.68060843547E+03 -0.36326025178E+03 -0.52249025134E+03  0.93176280014E+03  0.50400001928E-02 0. -1.
</event>
<event>
 5   0  0.6445740E-05  0.2211542E+04  0.7818609E-02  0.8513639E-01
        2   -1    0    0  501    0  0.00000000000E+00  0.00000000000E+00  0.99362025885E+03  0.99362025886E+03  0.25500000920E-02 0. -1.
       -2   -1    0    0    0  501  0.00000000000E+00  0.00000000000E+00 -0.12305801228E+04  0.12305801228E+04  0.25500000920E-02 0.  1.
    10030    2    1    2    0    0  0.00000000000E+00  0.00000000000E+00 -0.23695986396E+03  0.22242003817E+04  0.22115418514E+04 0.  0.
        5    1    3    3  502    0 -0.68766995674E+03 -0.45539915008E+03 -0.85919325552E+03  0.11910136421E+04  0.46999998093E+01 0.  1.
       -5    1    3    3    0  502  0.68766995674E+03  0.45539915008E+03  0.62223339156E+03  0.10331867396E+04  0.46999998093E+01 0. -1.
</event>
<event>
 5   0  0.2820239E-05  0.2192197E+04  0.7818609E-02  0.8521683E-01
        1   -1    0    0  501    0  0.00000000000E+00  0.00000000000E+00  0.78763526799E+03  0.78763526801E+03  0.50400001928E-02 0. -1.
       -1   -1    0    0    0  501  0.00000000000E+00  0.00000000000E+00 -0.15253657943E+04  0.15253657943E+04  0.50400001928E-02 0.  1.
    10030    2    1    2    0    0  0.00000000000E+00  0.00000000000E+00 -0.73773052633E+03  0.23130010623E+04  0.21921969767E+04 0.  0.
        3    1    3    3  502    0 -0.38360473317E+03 -0.91323212518E+03  0.12634550660E+03  0.99855330504E+03  0.10100000352E+00 0. -1.
       -3    1    3    3    0  502  0.38360473317E+03  0.91323212518E+03 -0.86407603293E+03  0.13144477573E+04  0.10100000352E+00 0.  1.
</event>
<event>
 5   0  0.6414768E-05  0.2172098E+04  0.7818609E-02  0.8530132E-01
       -2   -1    0    0    0  501  0.00000000000E+00  0.00000000000E+00  0.13420426373E+04  0.13420426373E+04  0.25500000920E-02 0. -1.
        2   -1    0    0  501    0  0.00000000000E+00  0.00000000000E+00 -0.87888603097E+03  0.87888603097E+03  0.25500000920E-02 0.  1.
    10030    2    1    2    0    0  0.00000000000E+00  0.00000000000E+00  0.46315660628E+03  0.22209286682E+04  0.21720980888E+04 0.  0.
        2    1    3    3  502    0  0.68706013304E+03 -0.51153386098E+02 -0.62683941033E+03  0.93144830328E+03  0.25500000920E-02 0.  1.
       -2    1    3    3    0  502 -0.68706013304E+03  0.51153386098E+02  0.10899960166E+04  0.12894803649E+04  0.25500000920E-02 0. -1.
</event>
<event>
 5   0  0.2908031E-05  0.2176632E+04  0.7818609E-02  0.8528218E-01
       -1   -1    0    0    0  501  0.00000000000E+00  0.00000000000E+00  0.70826026254E+03  0.70826026256E+03  0.50400001928E-02 0.  1.
        1   -1    0    0  501    0  0.00000000000E+00  0.00000000000E+00 -0.16723116563E+04  0.16723116563E+04  0.50400001928E-02 0. -1.
    10030    2    1    2    0    0  0.00000000000E+00  0.00000000000E+00 -0.96405139376E+03  0.23805719189E+04  0.21766321626E+04 0.  0.
        1    1    3    3  502    0  0.37866492126E+03 -0.41458041457E+03  0.53761718331E+03  0.77736495840E+03  0.50400001928E-02 0.  1.
       -1    1    3    3    0  502 -0.37866492126E+03  0.41458041457E+03 -0.15016685771E+04  0.16032069605E+04  0.50400001928E-02 0. -1.
</event>
<event>
 5   0  0.6306919E-05  0.2207144E+04  0.7818609E-02  0.8515460E-01
        2   -1    0    0  501    0  0.00000000000E+00  0.00000000000E+00  0.11234893567E+04  0.11234893567E+04  0.25500000920E-02 0. -1.
       -2   -1    0    0    0  501  0.00000000000E+00  0.00000000000E+00 -0.10840081178E+04  0.10840081178E+04  0.25500000920E-02 0.  1.
    10030    2    1    2    0    0  0.00000000000E+00  0.00000000000E+00  0.39481238929E+02  0.22074974744E+04  0.22071443839E+04 0.  0.
        3    1    3    3  502    0 -0.94524207790E+03 -0.32690510579E+03 -0.44672657219E+03  0.10954059405E+04  0.10100000352E+00 0.  1.
       -3    1    3    3    0  502  0.94524207790E+03  0.32690510579E+03  0.48620781111E+03  0.11120915339E+04  0.10100000352E+00 0. -1.
</event>
<event>
 5   0  0.6414768E-05  0.2189371E+04  0.7818609E-02  0.8522865E-01
        2   -1    0    0  501    0  0.00000000000E+00  0.00000000000E+00  0.13259321424E+04  0.13259321424E+04  0.25500000920E-02 0.  1.
       -2   -1    0    0    0  501  0.00000000000E+00  0.00000000000E+00 -0.90376871683E+03  0.90376871684E+03  0.25500000920E-02 0. -1.
    10030    2    1    2    0    0  0.00000000000E+00  0.00000000000E+00  0.42216342554E+03  0.22297008592E+04  0.21893706776E+04 0.  0.
        2    1    3    3  502    0 -0.81051773725E+03  0.36946393144E+02 -0.53732389399E+03  0.97315004261E+03  0.25500000920E-02 0. -1.
       -2    1    3    3    0  502  0.81051773725E+03 -0.36946393144E+02  0.95948731954E+03  0.12565508166E+04  0.25500000920E-02 0.  1.
</event>
<event>
 5   0  0.2908031E-05  0.2178298E+04  0.7818609E-02  0.8527516E-01
       -1   -1    0    0    0  501  0.00000000000E+00  0.00000000000E+00  0.61731590936E+03  0.61731590938E+03  0.50400001928E-02 0. -1.
        1   -1    0    0  501    0  0.00000000000E+00  0.00000000000E+00 -0.19216184426E+04  0.19216184426E+04  0.50400001928E-02 0.  1.
    10030    2    1    2    0    0  0.00000000000E+00  0.00000000000E+00 -0.13043025332E+04  0.25389343519E+04  0.21782980846E+04 0.  0.
        1    1    3    3  502    0 -0.39972463632E+03 -0.79793255989E+03 -0.13798273106E+04  0.16432892509E+04  0.50400001928E-02 0.  1.
       -1    1    3    3    0  502  0.39972463632E+03  0.79793255989E+03  0.75524777391E+02  0.89564510105E+03  0.50400001928E-02 0. -1.
</event>
<event>
 5   0  0.6445740E-05  0.2187075E+04  0.7818609E-02  0.8523827E-01
       -2   -1    0    0    0  501  0.00000000000E+00  0.00000000000E+00  0.66414784518E+03  0.66414784518E+03  0.25500000920E-02 0.  1.
        2   -1    0    0  501    0  0.00000000000E+00  0.00000000000E+00 -0.18005398801E+04  0.18005398801E+04  0.25500000920E-02 0. -1.
    10030    2    1    2    0    0  0.00000000000E+00  0.00000000000E+00 -0.11363920349E+04  0.24646877253E+04  0.21870753819E+04 0.  0.
        5    1    3    3  502    0 -0.10061481942E+04 -0.31710042014E+03 -0.24369459499E+03  0.10827261938E+04  0.46999998093E+01 0. -1.
       -5    1    3    3    0  502  0.10061481942E+04  0.31710042014E+03 -0.89269743993E+03  0.13819615315E+04  0.46999998093E+01 0.  1.
</event>
<event>
 5   0  0.6414768E-05  0.2204946E+04  0.7818609E-02  0.8516372E-01
        2   -1    0    0  501    0  0.00000000000E+00  0.00000000000E+00  0.11068311169E+04  0.11068311169E+04  0.25500000920E-02 0. -1.
       -2   -1    0    0    0  501  0.00000000000E+00  0.00000000000E+00 -0.10981323895E+04  0.10981323895E+04  0.25500000920E-02 0.  1.
    10030    2    1    2    0    0  0.00000000000E+00  0.00000000000E+00  0.86987274001E+01  0.22049635065E+04  0.22049463479E+04 0.  0.
        2    1    3    3  502    0 -0.57296975918E+03  0.87546610203E+03 -0.34308946151E+03  0.11011110840E+04  0.25500000920E-02 0.  1.
       -2    1    3    3    0  502  0.57296975918E+03 -0.87546610203E+03  0.35178818891E+03  0.11038524225E+04  0.25500000920E-02 0. -1.
</event>
<event>
 5   0  0.6445740E-05  0.2117531E+04  0.7818609E-02  0.8553560E-01
       -2   -1    0    0    0  501  0.00000000000E+00  0.00000000000E+00  0.70584476375E+03  0.70584476375E+03  0.25500000920E-02 0.  1.
        2   -1    0    0  501    0  0.00000000000E+00  0.00000000000E+00 -0.15881451425E+04  0.15881451425E+04  0.25500000920E-02 0. -1.
    10030    2    1    2    0    0  0.00000000000E+00  0.00000000000E+00 -0.88230037876E+03  0.22939899063E+04  0.21175305740E+04 0.  0.
        5    1    3    3  502    0  0.75828811610E+03 -0.68507530637E+03 -0.14125523327E+03  0.10316511878E+04  0.46999998093E+01 0. -1.
       -5    1    3    3    0  502 -0.75828811610E+03  0.68507530637E+03 -0.74104514549E+03  0.12623387184E+04  0.46999998093E+01 0.  1.
</event>
<event>
 5   0  0.2908031E-05  0.2214713E+04  0.7818609E-02  0.8512329E-01
        1   -1    0    0  501    0  0.00000000000E+00  0.00000000000E+00  0.15888809358E+04  0.15888809358E+04  0.50400001928E-02 0.  1.
       -1   -1    0    0    0  501  0.00000000000E+00  0.00000000000E+00 -0.77176231986E+03  0.77176231988E+03  0.50400001928E-02 0. -1.
    10030    2    1    2    0    0  0.00000000000E+00  0.00000000000E+00  0.81711861598E+03  0.23606432557E+04  0.22147130171E+04 0.  0.
        1    1    3    3  502    0  0.85178483161E+03 -0.35257054997E+03  0.10624947129E+04  0.14066763690E+04  0.50400001928E-02 0.  1.
       -1    1    3    3    0  502 -0.85178483161E+03  0.35257054997E+03 -0.24537609692E+03  0.95396688676E+03  0.50400001928E-02 0. -1.
</event>
<event>
 5   0  0.6628798E-05  0.2366275E+04  0.7818609E-02  0.8452239E-01
       -2   -1    0    0    0  501  0.00000000000E+00  0.00000000000E+00  0.57978004101E+03  0.57978004101E+03  0.25500000920E-02 0.  1.
        2   -1    0    0  501    0  0.00000000000E+00  0.00000000000E+00 -0.24143893615E+04  0.24143893615E+04  0.25500000920E-02 0. -1.
    10030    2    1    2    0    0  0.00000000000E+00  0.00000000000E+00 -0.18346093205E+04  0.29941694025E+04  0.23662753543E+04 0.  0.
        4    1    3    3  502    0  0.19837976839E+03 -0.62409483675E+03  0.32954102883E+03  0.73310831419E+03  0.12699999809E+01 0.  1.
       -4    1    3    3    0  502 -0.19837976839E+03  0.62409483675E+03 -0.21641503494E+04  0.22610610884E+04  0.12699999809E+01 0. -1.
</event>
<event>
 5   0  0.6306919E-05  0.2139132E+04  0.7818609E-02  0.8544199E-01
        2   -1    0    0  501    0  0.00000000000E+00  0.00000000000E+00  0.17861378978E+04  0.17861378978E+04  0.25500000920E-02 0. -1.
       -2   -1    0    0    0  501  0.00000000000E+00  0.00000000000E+00 -0.64047214134E+03  0.64047214135E+03  0.25500000920E-02 0.  1.
    10030    2    1    2    0    0  0.00000000000E+00  0.00000000000E+00  0.11456657565E+04  0.24266100392E+04  0.21391321270E+04 0.  0.
        3    1    3    3  502    0 -0.45796520663E+02 -0.97343898974E+03  0.10728541264E+04  0.14493780648E+04  0.10100000352E+00 0. -1.
       -3    1    3    3    0  502  0.45796520663E+02  0.97343898974E+03  0.72811630103E+02  0.97723197437E+03  0.10100000352E+00 0.  1.
</event>
<event>
 5   0  0.6445740E-05  0.2191102E+04  0.7818609E-02  0.8522141E-01
        2   -1    0    0  501    0  0.00000000000E+00  0.00000000000E+00  0.13919526239E+04  0.13919526239E+04  0.25500000920E-02 0. -1.
       -2   -1    0    0    0  501  0.00000000000E+00  0.00000000000E+00 -0.86226517010E+03  0.86226517010E+03  0.25500000920E-02 0.  1.
    10030    2    1    2    0    0  0.00000000000E+00  0.00000000000E+00  0.52968745381E+03  0.22542177940E+04  0.21911022487E+04 0.  0.
        5    1    3    3  502    0 -0.26717790586E+03  0.51251401771E+03 -0.69263948701E+03  0.90212316271E+03  0.46999998093E+01 0.  1.
       -5    1    3    3    0  502  0.26717790586E+03 -0.51251401771E+03  0.12223269408E+04  0.13520946313E+04  0.46999998093E+01 0. -1.
</event>
<event>
 5   0  0.6306919E-05  0.2204885E+04  0.7818609E-02  0.8516397E-01
        2   -1    0    0  501    0  0.00000000000E+00  0.00000000000E+00  0.18441850199E+04  0.18441850199E+04  0.25500000920E-02 0.  1.
       -2   -1    0    0    0  501  0.00000000000E+00  0.00000000000E+00 -0.65903358608E+03  0.65903358608E+03  0.25500000920E-02 0. -1.
    10030    2    1    2    0    0  0.00000000000E+00  0.00000000000E+00  0.11851514338E+04  0.25032186060E+04  0.22048853640E+04 0.  0.
        3    1    3    3  502    0  0.49135497666E+03 -0.66329481992E+03 -0.23704459536E+03  0.85882470948E+03  0.10100000352E+00 0. -1.
       -3    1    3    3    0  502 -0.49135497666E+03  0.66329481992E+03  0.14221960292E+04  0.16443938965E+04  0.10100000352E+00 0.  1.
</event>
<event>
 5   0  0.2820239E-05  0.2184406E+04  0.7818609E-02  0.8524947E-01
       -1   -1    0    0    0  501  0.00000000000E+00  0.00000000000E+00  0.10313908185E+04  0.10313908185E+04  0.50400001928E-02 0. -1.
        1   -1    0    0  501    0  0.00000000000E+00  0.00000000000E+00 -0.11566002522E+04  0.11566002522E+04  0.50400001928E-02 0.  1.
    10030    2    1    2    0    0  0.00000000000E+00  0.00000000000E+00 -0.12520943375E+03  0.21879910707E+04  0.21844055308E+04 0.  0.
        3    1    3    3  502    0 -0.71105191391E+03 -0.82860982551E+03 -0.35768887033E+02  0.10924598348E+04  0.10100000352E+00 0. -1.
       -3    1    3    3    0  502  0.71105191391E+03  0.82860982551E+03 -0.89440546718E+02  0.10955312359E+04  0.10100000352E+00 0.  1.
</event>
<event>
 5   0  0.2820239E-05  0.2132881E+04  0.7818609E-02  0.8546896E-01
        1   -1    0    0  501    0  0.00000000000E+00  0.00000000000E+00  0.77943594229E+03  0.77943594231E+03  0.50400001928E-02 0. -1.
       -1   -1    0    0    0  501  0.00000000000E+00  0.00000000000E+00 -0.14591256336E+04  0.14591256336E+04  0.50400001928E-02 0.  1.
    10030    2    1    2    0    0  0.00000000000E+00  0.00000000000E+00 -0.67968969133E+03  0.22385615759E+04  0.21328806466E+04 0.  0.
        3    1    3    3  502    0  0.89292910904E+03  0.29276185423E+03 -0.86907444102E+03  0.12799696447E+04  0.10100000352E+00 0.  1.
       -3    1    3    3    0  502 -0.89292910904E+03 -0.29276185423E+03  0.18938474969E+03  0.95859193126E+03  0.10100000352E+00 0. -1.
</event>
<event>
 5   0  0.6628798E-05  0.2159410E+04  0.7818609E-02  0.8535515E-01
       -2   -1    0    0    0  501  0.00000000000E+00  0.00000000000E+00  0.89160193004E+03  0.89160193004E+03  0.25500000920E-02 0.  1.
        2   -1    0    0  501    0  0.00000000000E+00  0.00000000000E+00 -0.13074929255E+04  0.13074929255E+04  0.25500000920E-02 0. -1.
    10030    2    1    2    0    0  0.00000000000E+00  0.00000000000E+00 -0.41589099550E+03  0.21990948556E+04  0.21594103046E+04 0.  0.
        4    1    3    3  502    0 -0.20383949068E+03 -0.14194597381E+03 -0.12779992743E+04  0.13019151107E+04  0.12699999809E+01 0. -1.
       -4    1    3    3    0  502  0.20383949068E+03  0.14194597381E+03  0.86210827878E+03  0.89717974491E+03  0.12699999809E+01 0.  1.
</event>
<event>
 5   0  0.2910318E-05  0.2185493E+04  0.7818609E-02  0.8524490E-01
        1   -1    0    0  501    0  0.00000000000E+00  0.00000000000E+00  0.11033064769E+04  0.11033064769E+04  0.50400001928E-02 0. -1.
       -1   -1    0    0    0  501  0.00000000000E+00  0.00000000000E+00 -0.10822878534E+04  0.10822878534E+04  0.50400001928E-02 0.  1.
    10030    2    1    2    0    0  0.00000000000E+00  0.00000000000E+00  0.21018623513E+02  0.21855943303E+04  0.21854932611E+04 0.  0.
        5    1    3    3  502    0 -0.10850621729E+03 -0.90447740914E+03 -0.59302512271E+03  0.10869930400E+04  0.46999998093E+01 0.  1.
       -5    1    3    3    0  502  0.10850621729E+03  0.90447740914E+03  0.61404374623E+03  0.10986012903E+04  0.46999998093E+01 0. -1.
</event>
<event>
 5   0  0.2245375E-05  0.2369700E+04  0.7818609E-02  0.8450935E-01
       -3   -1    0    0    0  501  0.00000000000E+00  0.00000000000E+00  0.10649456869E+04  0.10649456917E+04  0.10100000352E+00 0.  1.
        3   -1    0    0  501    0  0.00000000000E+00  0.00000000000E+00 -0.13182548073E+04  0.13182548112E+04  0.10100000352E+00 0. -1.
    10030    2    1    2    0    0  0.00000000000E+00  0.00000000000E+00 -0.25330912042E+03  0.23832005028E+04  0.23697002186E+04 0.  0.
        5    1    3    3  502    0  0.38142001325E+02 -0.75097906846E+03 -0.10475256683E+04  0.12894791542E+04  0.46999998093E+01 0. -1.
       -5    1    3    3    0  502 -0.38142001325E+02  0.75097906846E+03  0.79421654783E+03  0.10937213486E+04  0.46999998093E+01 0.  1.
</event>
<event>
 5   0  0.2820239E-05  0.2159406E+04  0.7818609E-02  0.8535517E-01
       -1   -1    0    0    0  501  0.00000000000E+00  0.00000000000E+00  0.73401641920E+03  0.73401641921E+03  0.50400001928E-02 0.  1.
        1   -1    0    0  501    0  0.00000000000E+00  0.00000000000E+00 -0.15881907679E+04  0.15881907679E+04  0.50400001928E-02 0. -1.
    10030    2    1    2    0    0  0.00000000000E+00  0.00000000000E+00 -0.85417434873E+03  0.23222071871E+04  0.21594055668E+04 0.  0.
        3    1    3    3  502    0  0.64171167996E+03 -0.34194484851E+02  0.50596320969E+03  0.81790092478E+03  0.10100000352E+00 0.  1.
       -3    1    3    3    0  502 -0.64171167996E+03  0.34194484851E+02 -0.13601375584E+04  0.15043062624E+04  0.10100000352E+00 0. -1.
</event>
<event>
 5   0  0.2245375E-05  0.2217539E+04  0.7818609E-02  0.8511163E-01
        3   -1    0    0  501    0  0.00000000000E+00  0.00000000000E+00  0.12056409077E+04  0.12056409119E+04  0.10100000352E+00 0.  1.
       -3   -1    0    0    0  501  0.00000000000E+00  0.00000000000E+00 -0.10196812529E+04  0.10196812579E+04  0.10100000352E+00 0. -1.
    10030    2    1    2    0    0  0.00000000000E+00  0.00000000000E+00  0.18595965473E+03  0.22253221698E+04  0.22175386730E+04 0.  0.
        4    1    3    3  502    0 -0.59356444511E+03 -0.25824667685E+03  0.99633821702E+03  0.11881504754E+04  0.12699999809E+01 0.  1.
       -4    1    3    3    0  502  0.59356444511E+03  0.25824667685E+03 -0.81037856229E+03  0.10371716944E+04  0.12699999809E+01 0. -1.
</event>
<event>
 5   0  0.2820239E-05  0.2203868E+04  0.7818609E-02  0.8516820E-01
       -1   -1    0    0    0  501  0.00000000000E+00  0.00000000000E+00  0.13886164709E+04  0.13886164709E+04  0.50400001928E-02 0. -1.
        1   -1    0    0  501    0  0.00000000000E+00  0.00000000000E+00 -0.87443782820E+03  0.87443782822E+03  0.50400001928E-02 0.  1.
    10030    2    1    2    0    0  0.00000000000E+00  0.00000000000E+00  0.51417864266E+03  0.22630542991E+04  0.22038682093E+04 0.  0.
        3    1    3    3  502    0 -0.74535659524E+03 -0.20015400540E+03  0.10647493531E+04  0.13150320434E+04  0.10100000352E+00 0. -1.
       -3    1    3    3    0  502  0.74535659524E+03  0.20015400540E+03 -0.55057071045E+03  0.94802225572E+03  0.10100000352E+00 0.  1.
</event>
<event>
 5   0  0.6293013E-05  0.2391498E+04  0.7818609E-02  0.8442693E-01
        2   -1    0    0  501    0  0.00000000000E+00  0.00000000000E+00  0.16261559638E+04  0.16261559638E+04  0.25500000920E-02 0.  1.
       -2   -1    0    0    0  501  0.00000000000E+00  0.00000000000E+00 -0.87926142492E+03  0.87926142493E+03  0.25500000920E-02 0. -1.
    10030    2    1    2    0    0  0.00000000000E+00  0.00000000000E+00  0.74689453890E+03  0.25054173888E+04  0.23914984507E+04 0.  0.
        1    1    3    3  502    0 -0.11898735536E+04 -0.60543225920E+02  0.26685766238E+03  0.12209330726E+04  0.50400001928E-02 0. -1.
       -1    1    3    3    0  502  0.11898735536E+04  0.60543225920E+02  0.48003687652E+03  0.12844843162E+04  0.50400001928E-02 0.  1.
</event>
<event>
 5   0  0.2929471E-05  0.2191575E+04  0.7818609E-02  0.8521943E-01
       -1   -1    0    0    0  501  0.00000000000E+00  0.00000000000E+00  0.68116126788E+03  0.68116126790E+03  0.50400001928E-02 0.  1.
        1   -1    0    0  501    0  0.00000000000E+00  0.00000000000E+00 -0.17627984397E+04  0.17627984397E+04  0.50400001928E-02 0. -1.
    10030    2    1    2    0    0  0.00000000000E+00  0.00000000000E+00 -0.10816371718E+04  0.24439597076E+04  0.21915747947E+04 0.  0.
        2    1    3    3  502    0 -0.39634390992E+02 -0.99886573221E+03 -0.10413340303E+04  0.14434958256E+04  0.25500000920E-02 0.  1.
       -2    1    3    3    0  502  0.39634390992E+02  0.99886573221E+03 -0.40303141522E+02  0.10004638820E+04  0.25500000920E-02 0. -1.
</event>
<event>
 5   0  0.2820239E-05  0.2225255E+04  0.7818609E-02  0.8507989E-01
        1   -1    0    0  501    0  0.00000000000E+00  0.00000000000E+00  0.17937090289E+04  0.17937090289E+04  0.50400001928E-02 0. -1.
       -1   -1    0    0    0  501  0.00000000000E+00  0.00000000000E+00 -0.69015681456E+03  0.69015681458E+03  0.50400001928E-02 0.  1.
    10030    2    1    2    0    0  0.00000000000E+00  0.00000000000E+00  0.11035522143E+04  0.24838658434E+04  0.22252554996E+04 0.  0.
        3    1    3    3  502    0 -0.27647681810E+03 -0.19933868444E+03 -0.63044640646E+03  0.71668544263E+03  0.10100000352E+00 0.  1.
       -3    1    3    3    0  502  0.27647681810E+03  0.19933868444E+03  0.17339986208E+04  0.17671804008E+04  0.10100000352E+00 0. -1.
</event>
<event>
 5   0  0.2929471E-05  0.2283368E+04  0.7818609E-02  0.8484508E-01
       -1   -1    0    0    0  501  0.00000000000E+00  0.00000000000E+00  0.10530075830E+04  0.10530075830E+04  0.50400001928E-02 0. -1.
        1   -1    0    0  501    0  0.00000000000E+00  0.00000000000E+00 -0.12378280292E+04  0.12378280292E+04  0.50400001928E-02 0.  1.
    10030    2    1    2    0    0  0.00000000000E+00  0.00000000000E+00 -0.18482044618E+03  0.22908356123E+04  0.22833679522E+04 0.  0.
        2    1    3    3  502    0  0.35667839754E+03 -0.10143020602E+04 -0.47761140849E+03  0.11764951364E+04  0.25500000920E-02 0.  1.
       -2    1    3    3    0  502 -0.35667839754E+03  0.10143020602E+04  0.29279096231E+03  0.11143404758E+04  0.25500000920E-02 0. -1.
</event>
<event>
 5   0  0.2820239E-05  0.2196691E+04  0.7818609E-02  0.8519807E-01
        1   -1    0    0  501    0  0.00000000000E+00  0.00000000000E+00  0.12413209194E+04  0.12413209194E+04  0.50400001928E-02 0.  1.
       -1   -1    0    0    0  501  0.00000000000E+00  0.00000000000E+00 -0.97183780487E+03  0.97183780488E+03  0.50400001928E-02 0. -1.
    10030    2    1    2    0    0  0.00000000000E+00  0.00000000000E+00  0.26948311454E+03  0.22131587243E+04  0.21966907816E+04 0.  0.
        3    1    3    3  502    0  0.52350547497E+03  0.45583832923E+03  0.99230771014E+03  0.12110000688E+04  0.10100000352E+00 0.  1.
       -3    1    3    3    0  502 -0.52350547497E+03 -0.45583832923E+03 -0.72282459559E+03  0.10021586556E+04  0.10100000352E+00 0. -1.
</event>
<event>
 5   0  0.6445740E-05  0.2227249E+04  0.7818609E-02  0.8507171E-01
        2   -1    0    0  501    0  0.00000000000E+00  0.00000000000E+00  0.12665555860E+04  0.12665555860E+04  0.25500000920E-02 0. -1.
       -2   -1    0    0    0  501  0.00000000000E+00  0.00000000000E+00 -0.97915943410E+03  0.97915943410E+03  0.25500000920E-02 0.  1.
    10030    2    1    2    0    0  0.00000000000E+00  0.00000000000E+00  0.28739615188E+03  0.22457150201E+04  0.22272492908E+04 0.  0.
        5    1    3    3  502    0 -0.62076484874E+03 -0.53775500161E+03  0.90200270936E+03  0.12199018062E+04  0.46999998093E+01 0. -1.
       -5    1    3    3    0  502  0.62076484874E+03  0.53775500161E+03 -0.61460655748E+03  0.10258132138E+04  0.46999998093E+01 0.  1.
</event>
<event>
 5   0  0.6293013E-05  0.2199402E+04  0.7818609E-02  0.8518677E-01
        2   -1    0    0  501    0  0.00000000000E+00  0.00000000000E+00  0.15970453776E+04  0.15970453776E+04  0.25500000920E-02 0. -1.
       -2   -1    0    0    0  501  0.00000000000E+00  0.00000000000E+00 -0.75723694458E+03  0.75723694458E+03  0.25500000920E-02 0.  1.
    10030    2    1    2    0    0  0.00000000000E+00  0.00000000000E+00  0.83980843301E+03  0.23542823222E+04  0.21994015205E+04 0.  0.
        1    1    3    3  502    0  0.90120367712E+03 -0.31483461641E+03  0.10042913783E+04  0.13856009800E+04  0.50400001928E-02 0. -1.
       -1    1    3    3    0  502 -0.90120367712E+03  0.31483461641E+03 -0.16448294524E+03  0.96868134216E+03  0.50400001928E-02 0.  1.
</event>
<event>
 5   0  0.2908031E-05  0.2262926E+04  0.7818609E-02  0.8492684E-01
        1   -1    0    0  501    0  0.00000000000E+00  0.00000000000E+00  0.15657083159E+04  0.15657083159E+04  0.50400001928E-02 0.  1.
       -1   -1    0    0    0  501  0.00000000000E+00  0.00000000000E+00 -0.81765448695E+03  0.81765448696E+03  0.50400001928E-02 0. -1.
    10030    2    1    2    0    0  0.00000000000E+00  0.00000000000E+00  0.74805382895E+03  0.23833628029E+04  0.22629259199E+04 0.  0.
        1    1    3    3  502    0 -0.10537092703E+04 -0.40872543041E+03  0.31781282878E+03  0.11740377754E+04  0.50400001928E-02 0. -1.
       -1    1    3    3    0  502  0.10537092703E+04  0.40872543041E+03  0.43024100017E+03  0.12093250275E+04  0.50400001928E-02 0.  1.
</event>
<event>
 5   0  0.6414768E-05  0.2160715E+04  0.7818609E-02  0.8534960E-01
        2   -1    0    0  501    0  0.00000000000E+00  0.00000000000E+00  0.14302601132E+04  0.14302601132E+04  0.25500000920E-02 0. -1.
       -2   -1    0    0    0  501  0.00000000000E+00  0.00000000000E+00 -0.81605615232E+03  0.81605615232E+03  0.25500000920E-02 0.  1.
    10030    2    1    2    0    0  0.00000000000E+00  0.00000000000E+00  0.61420396088E+03  0.22463162655E+04  0.21607152194E+04 0.  0.
        2    1    3    3  502    0 -0.11427214504E+03 -0.15979199788E+03  0.14115358846E+04  0.14251403999E+04  0.25500000920E-02 0. -1.
       -2    1    3    3    0  502  0.11427214504E+03  0.15979199788E+03 -0.79733192374E+03  0.82117586566E+03  0.25500000920E-02 0.  1.
</event>
<event>
 5   0  0.6445740E-05  0.2192422E+04  0.7818609E-02  0.8521589E-01
        2   -1    0    0  501    0  0.00000000000E+00  0.00000000000E+00  0.17656268796E+04  0.17656268796E+04  0.25500000920E-02 0. -1.
       -2   -1    0    0    0  501  0.00000000000E+00  0.00000000000E+00 -0.68059589356E+03  0.68059589357E+03  0.25500000920E-02 0.  1.
    10030    2    1    2    0    0  0.00000000000E+00  0.00000000000E+00  0.10850309860E+04  0.24462227732E+04  0.21924218607E+04 0.  0.
        5    1    3    3  502    0 -0.10369970741E+04  0.35515435438E+03  0.55657439868E+03  0.12293472652E+04  0.46999998093E+01 0. -1.
       -5    1    3    3    0  502  0.10369970741E+04 -0.35515435438E+03  0.52845658735E+03  0.12168755080E+04  0.46999998093E+01 0.  1.
</event>
<event>
 5   0  0.2929471E-05  0.2219102E+04  0.7818609E-02  0.8510519E-01
        1   -1    0    0  501    0  0.00000000000E+00  0.00000000000E+00  0.12359012395E+04  0.12359012395E+04  0.50400001928E-02 0. -1.
       -1   -1    0    0    0  501  0.00000000000E+00  0.00000000000E+00 -0.99611792018E+03  0.99611792019E+03  0.50400001928E-02 0.  1.
    10030    2    1    2    0    0  0.00000000000E+00  0.00000000000E+00  0.23978331933E+03  0.22320191597E+04  0.22191019555E+04 0.  0.
        2    1    3    3  502    0  0.20803103701E+03  0.15081500863E+03 -0.96578068882E+03  0.99937701499E+03  0.25500000920E-02 0.  1.
       -2    1    3    3    0  502 -0.20803103701E+03 -0.15081500863E+03  0.12055640081E+04  0.12326421447E+04  0.25500000920E-02 0. -1.
</event>
<event>
 5   0  0.6414768E-05  0.2192412E+04  0.7818609E-02  0.8521593E-01
        2   -1    0    0  501    0  0.00000000000E+00  0.00000000000E+00  0.18054493597E+04  0.18054493597E+04  0.25500000920E-02 0. -1.
       -2   -1    0    0    0  501  0.00000000000E+00  0.00000000000E+00 -0.66557796477E+03  0.66557796477E+03  0.25500000920E-02 0.  1.
    10030    2    1    2    0    0  0.00000000000E+00  0.00000000000E+00  0.11398713949E+04  0.24710273245E+04  0.21924117408E+04 0.  0.
        2    1    3    3  502    0 -0.15739508882E+03  0.19009021540E+03 -0.63385929962E+03  0.68020961159E+03  0.25500000920E-02 0.  1.
       -2    1    3    3    0  502  0.15739508882E+03 -0.19009021540E+03  0.17737306946E+04  0.17908177129E+04  0.25500000920E-02 0. -1.
</event>
<event>
 5   0  0.6306919E-05  0.2273553E+04  0.7818609E-02  0.8488422E-01
        2   -1    0    0  501    0  0.00000000000E+00  0.00000000000E+00  0.13217280191E+04  0.13217280192E+04  0.25500000920E-02 0.  1.
       -2   -1    0    0    0  501  0.00000000000E+00  0.00000000000E+00 -0.97770577327E+03  0.97770577327E+03  0.25500000920E-02 0. -1.
    10030    2    1    2    0    0  0.00000000000E+00  0.00000000000E+00  0.34402224588E+03  0.22994337924E+04  0.22735532675E+04 0.  0.
        3    1    3    3  502    0  0.92663909342E+03 -0.65774677360E+03  0.20351497705E+03  0.11544302420E+04  0.10100000352E+00 0. -1.
       -3    1    3    3    0  502 -0.92663909342E+03  0.65774677360E+03  0.14050726883E+03  0.11450035504E+04  0.10100000352E+00 0.  1.
</event>
<event>
 5   0  0.2910318E-05  0.2202382E+04  0.7818609E-02  0.8517437E-01
        1   -1    0    0  501    0  0.00000000000E+00  0.00000000000E+00  0.88141051639E+03  0.88141051640E+03  0.50400001928E-02 0.  1.
       -1   -1    0    0    0  501  0.00000000000E+00  0.00000000000E+00 -0.13757745255E+04  0.13757745255E+04  0.50400001928E-02 0. -1.
    10030    2    1    2    0    0  0.00000000000E+00  0.00000000000E+00 -0.49436400909E+03  0.22571850419E+04  0.22023824690E+04 0.  0.
        5    1    3    3  502    0  0.57851953695E+03  0.17944315612E+03 -0.11896932210E+04  0.13350193822E+04  0.46999998093E+01 0. -1.
       -5    1    3    3    0  502 -0.57851953695E+03 -0.17944315612E+03  0.69532921190E+03  0.92216565964E+03  0.46999998093E+01 0.  1.
</event>
<event>
 5   0  0.2910318E-05  0.2192328E+04  0.7818609E-02  0.8521628E-01
       -1   -1    0    0    0  501  0.00000000000E+00  0.00000000000E+00  0.11197150553E+04  0.11197150553E+04  0.50400001928E-02 0.  1.
        1   -1    0    0  501    0  0.00000000000E+00  0.00000000000E+00 -0.10731085971E+04  0.10731085971E+04  0.50400001928E-02 0. -1.
    10030    2    1    2    0    0  0.00000000000E+00  0.00000000000E+00  0.46606458184E+02  0.21928236524E+04  0.21923283077E+04 0.  0.
        5    1    3    3  502    0  0.54082065973E+03 -0.25253360447E+03 -0.89630297848E+03  0.10768664386E+04  0.46999998093E+01 0. -1.
       -5    1    3    3    0  502 -0.54082065973E+03  0.25253360447E+03  0.94290943666E+03  0.11159572138E+04  0.46999998093E+01 0.  1.
</event>
<event>
 5   0  0.6293013E-05  0.2210844E+04  0.7818609E-02  0.8513928E-01
       -2   -1    0    0    0  501  0.00000000000E+00  0.00000000000E+00  0.10512416389E+04  0.10512416389E+04  0.25500000920E-02 0. -1.
        2   -1    0    0  501    0  0.00000000000E+00  0.00000000000E+00 -0.11623950148E+04  0.11623950148E+04  0.25500000920E-02 0.  1.
    10030    2    1    2    0    0  0.00000000000E+00  0.00000000000E+00 -0.11115337590E+03  0.22136366538E+04  0.22108442193E+04 0.  0.
        1    1    3    3  502    0  0.10868022449E+04 -0.78053666832E+02 -0.24216265999E+03  0.11161873716E+04  0.50400001928E-02 0.  1.
       -1    1    3    3    0  502 -0.10868022449E+04  0.78053666832E+02  0.13100928409E+03  0.10974492822E+04  0.50400001928E-02 0. -1.
</event>
<event>
 5   0  0.2753631E-05  0.2247567E+04  0.7818609E-02  0.8498886E-01
       -1   -1    0    0    0  501  0.00000000000E+00  0.00000000000E+00  0.10572877468E+04  0.10572877468E+04  0.50400001928E-02 0.  1.
        1   -1    0    0  501    0  0.00000000000E+00  0.00000000000E+00 -0.11944615331E+04  0.11944615331E+04  0.50400001928E-02 0. -1.
    10030    2    1    2    0    0  0.00000000000E+00  0.00000000000E+00 -0.13717378630E+03  0.22517492800E+04  0.22475671674E+04 0.  0.
        4    1    3    3  502    0  0.93027237319E+03  0.40639335779E+03  0.41431172460E+03  0.10964570523E+04  0.12699999809E+01 0.  1.
       -4    1    3    3    0  502 -0.93027237319E+03 -0.40639335779E+03 -0.55148551091E+03  0.11552922276E+04  0.12699999809E+01 0. -1.
</event>
<event>
 5   0  0.2929471E-05  0.2194250E+04  0.7818609E-02  0.8520825E-01
        1   -1    0    0  501    0  0.00000000000E+00  0.00000000000E+00  0.68322992879E+03  0.68322992881E+03  0.50400001928E-02 0. -1.
       -1   -1    0    0    0  501  0.00000000000E+00  0.00000000000E+00 -0.17617548506E+04  0.17617548507E+04  0.50400001928E-02 0.  1.
    10030    2    1    2    0    0  0.00000000000E+00  0.00000000000E+00 -0.10785249219E+04  0.24449847795E+04  0.21942503423E+04 0.  0.
        2    1    3    3  502    0 -0.28320866536E+03  0.10538027976E+04 -0.41233282675E+03  0.11665015407E+04  0.25500000920E-02 0. -1.
       -2    1    3    3    0  502  0.28320866536E+03 -0.10538027976E+04 -0.66619209510E+03  0.12784832388E+04  0.25500000920E-02 0.  1.
</event>
<event>
 5   0  0.6628798E-05  0.2192436E+04  0.7818609E-02  0.8521583E-01
       -2   -1    0    0    0  501  0.00000000000E+00  0.00000000000E+00  0.81389327186E+03  0.81389327187E+03  0.25500000920E-02 0. -1.
        2   -1    0    0  501    0  0.00000000000E+00  0.00000000000E+00 -0.14764762446E+04  0.14764762446E+04  0.25500000920E-02 0.  1.
    10030    2    1    2    0    0  0.00000000000E+00  0.00000000000E+00 -0.66258297275E+03  0.22903695165E+04  0.21924361624E+04 0.  0.
        4    1    3    3  502    0 -0.47040936868E+02  0.27676815652E+03 -0.14382850077E+04  0.14654278688E+04  0.12699999809E+01 0.  1.
       -4    1    3    3    0  502  0.47040936868E+02 -0.27676815652E+03  0.77570203497E+03  0.82494164773E+03  0.12699999809E+01 0. -1.
</event>
<event>
 5   0  0.6414768E-05  0.2212282E+04  0.7818609E-02  0.8513333E-01
        2   -1    0    0  501    0  0.00000000000E+00  0.00000000000E+00  0.82851494889E+03  0.82851494890E+03  0.25500000920E-02 0. -1.
       -2   -1    0    0    0  501  0.00000000000E+00  0.00000000000E+00 -0.14767967644E+04  0.14767967644E+04  0.25500000920E-02 0.  1.
    10030    2    1    2    0    0  0.00000000000E+00  0.00000000000E+00 -0.64828181552E+03  0.23053117133E+04  0.22122822567E+04 0.  0.
        2    1    3    3  502    0 -0.11055356320E+04 -0.54035597658E+01 -0.28642550455E+03  0.11420498245E+04  0.25500000920E-02 0.  1.
       -2    1    3    3    0  502  0.11055356320E+04  0.54035597658E+01 -0.36185631097E+03  0.11632618888E+04  0.25500000920E-02 0. -1.
</event>
<event>
 5   0  0.6306919E-05  0.2185699E+04  0.7818609E-02  0.8524404E-01
       -2   -1    0    0    0  501  0.00000000000E+00  0.00000000000E+00  0.92144079045E+03  0.92144079045E+03  0.25500000920E-02 0.  1.
        2   -1    0    0  501    0  0.00000000000E+00  0.00000000000E+00 -0.12961446629E+04  0.12961446629E+04  0.25500000920E-02 0. -1.
    10030    2    1    2    0    0  0.00000000000E+00  0.00000000000E+00 -0.37470387241E+03  0.22175854533E+04  0.21856994878E+04 0.  0.
        3    1    3    3  502    0  0.10275917535E+04 -0.29738320066E+03  0.39378443547E+02  0.10704822520E+04  0.10100000352E+00 0.  1.
       -3    1    3    3    0  502 -0.10275917535E+04  0.29738320066E+03 -0.41408231596E+03  0.11471032013E+04  0.10100000352E+00 0. -1.
</event>
<event>
 5   0  0.2929471E-05  0.2182026E+04  0.7818609E-02  0.8525947E-01
        1   -1    0    0  501    0  0.00000000000E+00  0.00000000000E+00  0.90249496393E+03  0.90249496395E+03  0.50400001928E-02 0. -1.
       -1   -1    0    0    0  501  0.00000000000E+00  0.00000000000E+00 -0.13189095516E+04  0.13189095516E+04  0.50400001928E-02 0.  1.
    10030    2    1    2    0    0  0.00000000000E+00  0.00000000000E+00 -0.41641458770E+03  0.22214045156E+04  0.21820258736E+04 0.  0.
        2    1    3    3  502    0 -0.30737608198E+03  0.87397376382E+03  0.37838474367E+03  0.10007423294E+04  0.25500000920E-02 0. -1.
       -2    1    3    3    0  502  0.30737608198E+03 -0.87397376382E+03 -0.79479933136E+03  0.12206621862E+04  0.25500000920E-02 0.  1.
</event>
<event>
 5   0  0.6628798E-05  0.2170902E+04  0.7818609E-02  0.8530638E-01
       -2   -1    0    0    0  501  0.00000000000E+00  0.00000000000E+00  0.62629984306E+03  0.62629984306E+03  0.25500000920E-02 0. -1.
        2   -1    0    0  501    0  0.00000000000E+00  0.00000000000E+00 -0.18812137696E+04  0.18812137696E+04  0.25500000920E-02 0.  1.
    10030    2    1    2    0    0  0.00000000000E+00  0.00000000000E+00 -0.12549139266E+04  0.25075136127E+04  0.21709020141E+04 0.  0.
        4    1    3    3  502    0 -0.71275774647E+03 -0.62696049511E+03 -0.12354809606E+04  0.15580493845E+04  0.12699999809E+01 0.  1.
       -4    1    3    3    0  502  0.71275774647E+03  0.62696049511E+03 -0.19432965973E+02  0.94946422821E+03  0.12699999809E+01 0. -1.
</event>
<event>
 5   0  0.6306919E-05  0.2187552E+04  0.7818609E-02  0.8523627E-01
       -2   -1    0    0    0  501  0.00000000000E+00  0.00000000000E+00  0.58595256120E+03  0.58595256121E+03  0.25500000920E-02 0. -1.
        2   -1    0    0  501    0  0.00000000000E+00  0.00000000000E+00 -0.20417118107E+04  0.20417118107E+04  0.25500000920E-02 0.  1.
    10030    2    1    2    0    0  0.00000000000E+00  0.00000000000E+00 -0.14557592495E+04  0.26276643719E+04  0.21875522985E+04 0.  0.
        3    1    3    3  502    0  0.15387551679E+03  0.85650726689E+03 -0.15238104125E+04  0.17547878950E+04  0.10100000352E+00 0. -1.
       -3    1    3    3    0  502 -0.15387551679E+03 -0.85650726689E+03  0.68051163060E+02  0.87287647688E+03  0.10100000352E+00 0.  1.
</event>
<event>
 5   0  0.2820239E-05  0.2168891E+04  0.7818609E-02  0.8531489E-01
        1   -1    0    0  501    0  0.00000000000E+00  0.00000000000E+00  0.12137957349E+04  0.12137957349E+04  0.50400001928E-02 0.  1.
       -1   -1    0    0    0  501  0.00000000000E+00  0.00000000000E+00 -0.96888003470E+03  0.96888003472E+03  0.50400001928E-02 0. -1.
    10030    2    1    2    0    0  0.00000000000E+00  0.00000000000E+00  0.24491570023E+03  0.21826757697E+04  0.21688913793E+04 0.  0.
        3    1    3    3  502    0  0.93723292625E+03  0.30707849189E+03 -0.33131774936E+03  0.10404202129E+04  0.10100000352E+00 0. -1.
       -3    1    3    3    0  502 -0.93723292625E+03 -0.30707849189E+03  0.57623344959E+03  0.11422555567E+04  0.10100000352E+00 0.  1.
</event>
<event>
 5   0  0.6306919E-05  0.2197131E+04  0.7818609E-02  0.8519623E-01
       -2   -1    0    0    0  501  0.00000000000E+00  0.00000000000E+00  0.64524564268E+03  0.64524564269E+03  0.25500000920E-02 0.  1.
        2   -1    0    0  501    0  0.00000000000E+00  0.00000000000E+00 -0.18703667995E+04  0.18703667995E+04  0.25500000920E-02 0. -1.
    10030    2    1    2    0    0  0.00000000000E+00  0.00000000000E+00 -0.12251211568E+04  0.25156124422E+04  0.21971308815E+04 0.  0.
        3    1    3    3  502    0 -0.39179279567E+02  0.10636289332E+04 -0.30109012688E+03  0.11061178952E+04  0.10100000352E+00 0.  1.
       -3    1    3    3    0  502  0.39179279567E+02 -0.10636289332E+04 -0.92403102990E+03  0.14094945469E+04  0.10100000352E+00 0. -1.
</event>
<event>
 5   0  0.2929471E-05  0.2250809E+04  0.7818609E-02  0.8497573E-01
        1   -1    0    0  501    0  0.00000000000E+00  0.00000000000E+00  0.23136692654E+04  0.23136692654E+04  0.50400001928E-02 0. -1.
       -1   -1    0    0    0  501  0.00000000000E+00  0.00000000000E+00 -0.54741394332E+03  0.54741394334E+03  0.50400001928E-02 0.  1.
    10030    2    1    2    0    0  0.00000000000E+00  0.00000000000E+00  0.17662553221E+04  0.28610832088E+04  0.22508085802E+04 0.  0.
        2    1    3    3  502    0 -0.18777343572E+03 -0.53143079380E+03 -0.35507681593E+03  0.66615095660E+03  0.25500000920E-02 0.  1.
       -2    1    3    3    0  502  0.18777343572E+03  0.53143079380E+03  0.21213321380E+04  0.21949322522E+04  0.25500000920E-02 0. -1.
</event>
<event>
 5   0  0.2908031E-05  0.2221046E+04  0.7818609E-02  0.8509719E-01
        1   -1    0    0  501    0  0.00000000000E+00  0.00000000000E+00  0.21702345572E+04  0.21702345572E+04  0.50400001928E-02 0.  1.
       -1   -1    0    0    0  501  0.00000000000E+00  0.00000000000E+00 -0.56826173851E+03  0.56826173853E+03  0.50400001928E-02 0. -1.
    10030    2    1    2    0    0  0.00000000000E+00  0.00000000000E+00  0.16019728187E+04  0.27384962957E+04  0.22210459360E+04 0.  0.
        1    1    3    3  502    0  0.91598770780E+01  0.30323312481E+03  0.21181528042E+04  0.21397676353E+04  0.50400001928E-02 0.  1.
       -1    1    3    3    0  502 -0.91598770780E+01 -0.30323312481E+03 -0.51617998549E+03  0.59872866039E+03  0.50400001928E-02 0. -1.
</event>
<event>
 5   0  0.6628798E-05  0.2137634E+04  0.7818609E-02  0.8544844E-01
       -2   -1    0    0    0  501  0.00000000000E+00  0.00000000000E+00  0.59669315540E+03  0.59669315541E+03  0.25500000920E-02 0. -1.
        2   -1    0    0  501    0  0.00000000000E+00  0.00000000000E+00 -0.19145012304E+04  0.19145012304E+04  0.25500000920E-02 0.  1.
    10030    2    1    2    0    0  0.00000000000E+00  0.00000000000E+00 -0.13178080750E+04  0.25111943858E+04  0.21376340007E+04 0.  0.
        4    1    3    3  502    0 -0.96294857367E+03  0.24608503263E+03 -0.11207189524E+04  0.14979453868E+04  0.12699999809E+01 0.  1.
       -4    1    3    3    0  502  0.96294857367E+03 -0.24608503263E+03 -0.19708912265E+03  0.10132489990E+04  0.12699999809E+01 0. -1.
</event>
<event>
 5   0  0.6628798E-05  0.2195476E+04  0.7818609E-02  0.8520313E-01
       -2   -1    0    0    0  501  0.00000000000E+00  0.00000000000E+00  0.73956111572E+03  0.73956111573E+03  0.25500000920E-02 0. -1.
        2   -1    0    0  501    0  0.00000000000E+00  0.00000000000E+00 -0.16293835766E+04  0.16293835766E+04  0.25500000920E-02 0.  1.
    10030    2    1    2    0    0  0.00000000000E+00  0.00000000000E+00 -0.88982246089E+03  0.23689446923E+04  0.21954760175E+04 0.  0.
        4    1    3    3  502    0 -0.10165611201E+04 -0.22900211309E+03 -0.72396317226E+02  0.10445483801E+04  0.12699999809E+01 0. -1.
       -4    1    3    3    0  502  0.10165611201E+04  0.22900211309E+03 -0.81742614366E+03  0.13243963123E+04  0.12699999809E+01 0.  1.
</event>
<event>
 5   0  0.6628798E-05  0.2176129E+04  0.7818609E-02  0.8528430E-01
        2   -1    0    0  501    0  0.00000000000E+00  0.00000000000E+00  0.17834317657E+04  0.17834317657E+04  0.25500000920E-02 0. -1.
       -2   -1    0    0    0  501  0.00000000000E+00  0.00000000000E+00 -0.66382378018E+03  0.66382378018E+03  0.25500000920E-02 0.  1.
    10030    2    1    2    0    0  0.00000000000E+00  0.00000000000E+00  0.11196079855E+04  0.24472555459E+04  0.21761290554E+04 0.  0.
        4    1    3    3  502    0  0.77102536462E+03 -0.69951909415E+03  0.20404240740E+03  0.10608685088E+04  0.12699999809E+01 0.  1.
       -4    1    3    3    0  502 -0.77102536462E+03  0.69951909415E+03  0.91556557814E+03  0.13863870371E+04  0.12699999809E+01 0. -1.
</event>
<event>
 5   0  0.2245375E-05  0.2197792E+04  0.7818609E-02  0.8519347E-01
       -3   -1    0    0    0  501  0.00000000000E+00  0.00000000000E+00  0.91623352153E+03  0.91623352709E+03  0.10100000352E+00 0. -1.
        3   -1    0    0  501    0  0.00000000000E+00  0.00000000000E+00 -0.13179750699E+04  0.13179750738E+04  0.10100000352E+00 0.  1.
    10030    2    1    2    0    0  0.00000000000E+00  0.00000000000E+00 -0.40174154837E+03  0.22342086009E+04  0.21977924835E+04 0.  0.
        5    1    3    3  502    0  0.73812746951E+03  0.80267058273E+03 -0.33890964988E+03  0.11419255958E+04  0.46999998093E+01 0.  1.
       -5    1    3    3    0  502 -0.73812746951E+03 -0.80267058273E+03 -0.62831898487E+02  0.10922830050E+04  0.46999998093E+01 0. -1.
</event>
<event>
 5   0  0.2908031E-05  0.2219576E+04  0.7818609E-02  0.8510324E-01
        1   -1    0    0  501    0  0.00000000000E+00  0.00000000000E+00  0.14094377854E+04  0.14094377854E+04  0.50400001928E-02 0. -1.
       -1   -1    0    0    0  501  0.00000000000E+00  0.00000000000E+00 -0.87384438882E+03  0.87384438883E+03  0.50400001928E-02 0.  1.
    10030    2    1    2    0    0  0.00000000000E+00  0.00000000000E+00  0.53559339661E+03  0.22832821743E+04  0.22195759056E+04 0.  0.
        1    1    3    3  502    0 -0.23299544481E+03 -0.46967790045E+03 -0.73841116298E+03  0.90561319177E+03  0.50400001928E-02 0.  1.
       -1    1    3    3    0  502  0.23299544481E+03  0.46967790045E+03  0.12740045596E+04  0.13776689825E+04  0.50400001928E-02 0. -1.
</event>
<event>
 5   0  0.6306919E-05  0.2223858E+04  0.7818609E-02  0.8508563E-01
       -2   -1    0    0    0  501  0.00000000000E+00  0.00000000000E+00  0.97795827144E+03  0.97795827144E+03  0.25500000920E-02 0.  1.
        2   -1    0    0  501    0  0.00000000000E+00  0.00000000000E+00 -0.12642523153E+04  0.12642523153E+04  0.25500000920E-02 0. -1.
    10030    2    1    2    0    0  0.00000000000E+00  0.00000000000E+00 -0.28629404390E+03  0.22422105868E+04  0.22238579172E+04 0.  0.
        3    1    3    3  502    0 -0.10846127663E+04 -0.81450792251E+02 -0.37606628559E+03  0.11508453179E+04  0.10100000352E+00 0.  1.
       -3    1    3    3    0  502  0.10846127663E+04  0.81450792251E+02  0.89772241691E+02  0.10913652688E+04  0.10100000352E+00 0. -1.
</event>
<event>
 5   0  0.6293013E-05  0.2260240E+04  0.7818609E-02  0.8493765E-01
       -2   -1    0    0    0  501  0.00000000000E+00  0.00000000000E+00  0.12128648828E+04  0.12128648828E+04  0.25500000920E-02 0. -1.
        2   -1    0    0  501    0  0.00000000000E+00  0.00000000000E+00 -0.10530200325E+04  0.10530200325E+04  0.25500000920E-02 0.  1.
    10030    2    1    2    0    0  0.00000000000E+00  0.00000000000E+00  0.15984485039E+03  0.22658849153E+04  0.22602398265E+04 0.  0.
        1    1    3    3  502    0  0.38810197062E+02 -0.11014639392E+04  0.33043045391E+03  0.11506143253E+04  0.50400001928E-02 0. -1.
       -1    1    3    3    0  502 -0.38810197062E+02  0.11014639392E+04 -0.17058560352E+03  0.11152705900E+04  0.50400001928E-02 0.  1.
</event>
<event>
 5   0  0.2929471E-05  0.2188074E+04  0.7818609E-02  0.8523409E-01
       -1   -1    0    0    0  501  0.00000000000E+00  0.00000000000E+00  0.11794099440E+04  0.11794099440E+04  0.50400001928E-02 0.  1.
        1   -1    0    0  501    0  0.00000000000E+00  0.00000000000E+00 -0.10148434857E+04  0.10148434857E+04  0.50400001928E-02 0. -1.
    10030    2    1    2    0    0  0.00000000000E+00  0.00000000000E+00  0.16456645830E+03  0.21942534297E+04  0.21880735807E+04 0.  0.
        2    1    3    3  502    0  0.81814392792E+03 -0.12505045843E+03 -0.63522296605E+03  0.10433145837E+04  0.25500000920E-02 0.  1.
       -2    1    3    3    0  502 -0.81814392792E+03  0.12505045843E+03  0.79978942435E+03  0.11509388460E+04  0.25500000920E-02 0. -1.
</event>
<event>
 5   0  0.2908031E-05  0.2183163E+04  0.7818609E-02  0.8525469E-01
        1   -1    0    0  501    0  0.00000000000E+00  0.00000000000E+00  0.12541299652E+04  0.12541299653E+04  0.50400001928E-02 0.  1.
       -1   -1    0    0    0  501  0.00000000000E+00  0.00000000000E+00 -0.95010123450E+03  0.95010123452E+03  0.50400001928E-02 0. -1.
    10030    2    1    2    0    0  0.00000000000E+00  0.00000000000E+00  0.30402873074E+03  0.22042311998E+04  0.21831632355E+04 0.  0.
        1    1    3    3  502    0 -0.77805029019E+03  0.26003633600E+03  0.87908118914E+03  0.12023996371E+04  0.50400001928E-02 0.  1.
       -1    1    3    3    0  502  0.77805029019E+03 -0.26003633600E+03 -0.57505245839E+03  0.10018315627E+04  0.50400001928E-02 0. -1.
</event>
<event>
 5   0  0.2929471E-05  0.2169557E+04  0.7818609E-02  0.8531207E-01
        1   -1    0    0  501    0  0.00000000000E+00  0.00000000000E+00  0.14621504673E+04  0.14621504673E+04  0.50400001928E-02 0. -1.
       -1   -1    0    0    0  501  0.00000000000E+00  0.00000000000E+00 -0.80480403082E+03  0.80480403084E+03  0.50400001928E-02 0.  1.
    10030    2    1    2    0    0  0.00000000000E+00  0.00000000000E+00  0.65734643645E+03  0.22669544981E+04  0.21695571804E+04 0.  0.
        2    1    3    3  502    0 -0.12232495060E+03 -0.86328563850E+03  0.10030291226E+04  0.13290195288E+04  0.25500000920E-02 0. -1.
       -2    1    3    3    0  502  0.12232495060E+03  0.86328563850E+03 -0.34568268613E+03  0.93793496932E+03  0.25500000920E-02 0.  1.
</event>
<event>
 5   0  0.6306919E-05  0.2187866E+04  0.7818609E-02  0.8523496E-01
        2   -1    0    0  501    0  0.00000000000E+00  0.00000000000E+00  0.14608235729E+04  0.14608235729E+04  0.25500000920E-02 0.  1.
       -2   -1    0    0    0  501  0.00000000000E+00  0.00000000000E+00 -0.81918818000E+03  0.81918818001E+03  0.25500000920E-02 0. -1.
    10030    2    1    2    0    0  0.00000000000E+00  0.00000000000E+00  0.64163539286E+03  0.22800117529E+04  0.21878659959E+04 0.  0.
        3    1    3    3  502    0 -0.91459719210E+02  0.60398530070E+03  0.12665214134E+04  0.14061435291E+04  0.10100000352E+00 0.  1.
       -3    1    3    3    0  502  0.91459719210E+02 -0.60398530070E+03 -0.62488602051E+03  0.87386822378E+03  0.10100000352E+00 0. -1.
</event>
<event>
 5   0  0.2929471E-05  0.2080767E+04  0.7818609E-02  0.8569763E-01
        1   -1    0    0  501    0  0.00000000000E+00  0.00000000000E+00  0.10380748385E+04  0.10380748386E+04  0.50400001928E-02 0.  1.
       -1   -1    0    0    0  501  0.00000000000E+00  0.00000000000E+00 -0.10426972411E+04  0.10426972411E+04  0.50400001928E-02 0. -1.
    10030    2    1    2    0    0  0.00000000000E+00  0.00000000000E+00 -0.46224025227E+01  0.20807720796E+04  0.20807669453E+04 0.  0.
        2    1    3    3  502    0 -0.17345909414E+03 -0.60837401575E+03  0.82363924303E+03  0.10385512039E+04  0.25500000920E-02 0.  1.
       -2    1    3    3    0  502  0.17345909414E+03  0.60837401575E+03 -0.82826164555E+03  0.10422208758E+04  0.25500000920E-02 0. -1.
</event>
<event>
 5   0  0.6628798E-05  0.2190064E+04  0.7818609E-02  0.8522575E-01
       -2   -1    0    0    0  501  0.00000000000E+00  0.00000000000E+00  0.12409017559E+04  0.12409017559E+04  0.25500000920E-02 0. -1.
        2   -1    0    0  501    0  0.00000000000E+00  0.00000000000E+00 -0.96630942709E+03  0.96630942710E+03  0.25500000920E-02 0.  1.
    10030    2    1    2    0    0  0.00000000000E+00  0.00000000000E+00  0.27459232877E+03  0.22072111830E+04  0.21900639852E+04 0.  0.
        4    1    3    3  502    0  0.40464238182E+03 -0.38273718317E+03 -0.81288467435E+03  0.98539652691E+03  0.12699999809E+01 0.  1.
       -4    1    3    3    0  502 -0.40464238182E+03  0.38273718317E+03  0.10874770031E+04  0.12218146561E+04  0.12699999809E+01 0. -1.
</event>
<event>
 5   0  0.2820239E-05  0.2218540E+04  0.7818609E-02  0.8510751E-01
        1   -1    0    0  501    0  0.00000000000E+00  0.00000000000E+00  0.64881007872E+03  0.64881007874E+03  0.50400001928E-02 0.  1.
       -1   -1    0    0    0  501  0.00000000000E+00  0.00000000000E+00 -0.18965180448E+04  0.18965180448E+04  0.50400001928E-02 0. -1.
    10030    2    1    2    0    0  0.00000000000E+00  0.00000000000E+00 -0.12477079661E+04  0.25453281236E+04  0.22185400803E+04 0.  0.
        3    1    3    3  502    0 -0.54688755851E+03  0.67303092603E+03  0.16971136521E+03  0.88366203196E+03  0.10100000352E+00 0.  1.
       -3    1    3    3    0  502  0.54688755851E+03 -0.67303092603E+03 -0.14174193313E+04  0.16616660916E+04  0.10100000352E+00 0. -1.
</event>
<event>
 5   0  0.2908031E-05  0.2346941E+04  0.7818609E-02  0.8459640E-01
        1   -1    0    0  501    0  0.00000000000E+00  0.00000000000E+00  0.10949537986E+04  0.10949537986E+04  0.50400001928E-02 0. -1.
       -1   -1    0    0    0  501  0.00000000000E+00  0.00000000000E+00 -0.12576174358E+04  0.12576174358E+04  0.50400001928E-02 0.  1.
    10030    2    1    2    0    0  0.00000000000E+00  0.00000000000E+00 -0.16266363724E+03  0.23525712345E+04  0.23469409780E+04 0.  0.
        1    1    3    3  502    0  0.24246645828E+03  0.19436632080E+03 -0.12156226621E+04  0.12547137947E+04  0.50400001928E-02 0.  1.
       -1    1    3    3    0  502 -0.24246645828E+03 -0.19436632080E+03  0.10529590248E+04  0.10978574398E+04  0.50400001928E-02 0. -1.
</event>
<event>
 5   0  0.6628798E-05  0.2198963E+04  0.7818609E-02  0.8518860E-01
       -2   -1    0    0    0  501  0.00000000000E+00  0.00000000000E+00  0.44204409085E+03  0.44204409086E+03  0.25500000920E-02 0.  1.
        2   -1    0    0  501    0  0.00000000000E+00  0.00000000000E+00 -0.27347029995E+04  0.27347029995E+04  0.25500000920E-02 0. -1.
    10030    2    1    2    0    0  0.00000000000E+00  0.00000000000E+00 -0.22926589087E+04  0.31767470904E+04  0.21989627566E+04 0.  0.
        4    1    3    3  502    0 -0.68494222051E+03 -0.36956224560E+03 -0.22682762044E+04  0.23980827031E+04  0.12699999809E+01 0. -1.
       -4    1    3    3    0  502  0.68494222051E+03  0.36956224560E+03 -0.24382704307E+02  0.77866438726E+03  0.12699999809E+01 0.  1.
</event>
<event>
 5   0  0.6445740E-05  0.2175583E+04  0.7818609E-02  0.8528660E-01
       -2   -1    0    0    0  501  0.00000000000E+00  0.00000000000E+00  0.76865506319E+03  0.76865506320E+03  0.25500000920E-02 0.  1.
        2   -1    0    0  501    0  0.00000000000E+00  0.00000000000E+00 -0.15394288976E+04  0.15394288976E+04  0.25500000920E-02 0. -1.
    10030    2    1    2    0    0  0.00000000000E+00  0.00000000000E+00 -0.77077383439E+03  0.23080839608E+04  0.21755825119E+04 0.  0.
        5    1    3    3  502    0  0.30913356335E+03  0.38730665659E+03 -0.14127110116E+04  0.14971120527E+04  0.46999998093E+01 0. -1.
       -5    1    3    3    0  502 -0.30913356335E+03 -0.38730665659E+03  0.64193717717E+03  0.81097190806E+03  0.46999998093E+01 0.  1.
</event>
<event>
 5   0  0.2929471E-05  0.2197234E+04  0.7818609E-02  0.8519580E-01
        1   -1    0    0  501    0  0.00000000000E+00  0.00000000000E+00  0.17987233270E+04  0.17987233270E+04  0.50400001928E-02 0.  1.
       -1   -1    0    0    0  501  0.00000000000E+00  0.00000000000E+00 -0.67100884402E+03  0.67100884404E+03  0.50400001928E-02 0. -1.
    10030    2    1    2    0    0  0.00000000000E+00  0.00000000000E+00  0.11277144829E+04  0.24697321710E+04  0.21972339524E+04 0.  0.
        2    1    3    3  502    0  0.54771060775E+03 -0.41065252373E+03  0.15296875536E+04  0.16758778049E+04  0.25500000920E-02 0.  1.
       -2    1    3    3    0  502 -0.54771060775E+03  0.41065252373E+03 -0.40197307070E+03  0.79385436615E+03  0.25500000920E-02 0. -1.
</event>
<event>
 5   0  0.2929471E-05  0.2198301E+04  0.7818609E-02  0.8519135E-01
        1   -1    0    0  501    0  0.00000000000E+00  0.00000000000E+00  0.88117550599E+03  0.88117550601E+03  0.50400001928E-02 0.  1.
       -1   -1    0    0    0  501  0.00000000000E+00  0.00000000000E+00 -0.13710459899E+04  0.13710459899E+04  0.50400001928E-02 0. -1.
    10030    2    1    2    0    0  0.00000000000E+00  0.00000000000E+00 -0.48987048391E+03  0.22522214959E+04  0.21983012932E+04 0.  0.
        2    1    3    3  502    0  0.16832771518E+03  0.10261216960E+04 -0.60986316960E+03  0.12054845666E+04  0.25500000920E-02 0. -1.
       -2    1    3    3    0  502 -0.16832771518E+03 -0.10261216960E+04  0.11999268569E+03  0.10467369293E+04  0.25500000920E-02 0.  1.
</event>
<event>
 5   0  0.2908031E-05  0.2196602E+04  0.7818609E-02  0.8519844E-01
        1   -1    0    0  501    0  0.00000000000E+00  0.00000000000E+00  0.11734881926E+04  0.11734881926E+04  0.50400001928E-02 0. -1.
       -1   -1    0    0    0  501  0.00000000000E+00  0.00000000000E+00 -0.10279307016E+04  0.10279307016E+04  0.50400001928E-02 0.  1.
    10030    2    1    2    0    0  0.00000000000E+00  0.00000000000E+00  0.14555749098E+03  0.22014188942E+04  0.21966015033E+04 0.  0.
        1    1    3    3  502    0  0.91739325737E+02 -0.69294170037E+03 -0.77623927182E+03  0.10445725016E+04  0.50400001928E-02 0.  1.
       -1    1    3    3    0  502 -0.91739325737E+02  0.69294170037E+03  0.92179676280E+03  0.11568463925E+04  0.50400001928E-02 0. -1.
</event>
<event>
 5   0  0.2910318E-05  0.2221706E+04  0.7818609E-02  0.8509448E-01
        1   -1    0    0  501    0  0.00000000000E+00  0.00000000000E+00  0.13282688011E+04  0.13282688011E+04  0.50400001928E-02 0.  1.
       -1   -1    0    0    0  501  0.00000000000E+00  0.00000000000E+00 -0.92902442081E+03  0.92902442082E+03  0.50400001928E-02 0. -1.
    10030    2    1    2    0    0  0.00000000000E+00  0.00000000000E+00  0.39924438029E+03  0.22572932219E+04  0.22217057894E+04 0.  0.
        5    1    3    3  502    0  0.85557589918E+02  0.23201800983E+02  0.13246591560E+04  0.13276303681E+04  0.46999998093E+01 0.  1.
       -5    1    3    3    0  502 -0.85557589918E+02 -0.23201800983E+02 -0.92541477569E+03  0.92966285384E+03  0.46999998093E+01 0. -1.
</event>
<event>
 5   0  0.2820239E-05  0.2232591E+04  0.7818609E-02  0.8504984E-01
       -1   -1    0    0    0  501  0.00000000000E+00  0.00000000000E+00  0.13234827261E+04  0.13234827261E+04  0.50400001928E-02 0.  1.
        1   -1    0    0  501    0  0.00000000000E+00  0.00000000000E+00 -0.94154297263E+03  0.94154297264E+03  0.50400001928E-02 0. -1.
    10030    2    1    2    0    0  0.00000000000E+00  0.00000000000E+00  0.38193975343E+03  0.22650256987E+04  0.22325911942E+04 0.  0.
        3    1    3    3  502    0  0.68329433399E+03  0.78813478078E+02 -0.70101473922E+03  0.98210202423E+03  0.10100000352E+00 0. -1.
       -3    1    3    3    0  502 -0.68329433399E+03 -0.78813478078E+02  0.10829544926E+04  0.12829236745E+04  0.10100000352E+00 0.  1.
</event>
<event>
 5   0  0.6293013E-05  0.2198018E+04  0.7818609E-02  0.8519254E-01
       -2   -1    0    0    0  501  0.00000000000E+00  0.00000000000E+00  0.98006726285E+03  0.98006726285E+03  0.25500000920E-02 0. -1.
        2   -1    0    0  501    0  0.00000000000E+00  0.00000000000E+00 -0.12323850757E+04  0.12323850757E+04  0.25500000920E-02 0.  1.
    10030    2    1    2    0    0  0.00000000000E+00  0.00000000000E+00 -0.25231781283E+03  0.22124523385E+04  0.21980175321E+04 0.  0.
        1    1    3    3  502    0 -0.39265187493E+03  0.77025535995E+03  0.55678892588E+03  0.10283397894E+04  0.50400001928E-02 0. -1.
       -1    1    3    3    0  502  0.39265187493E+03 -0.77025535995E+03 -0.80910673871E+03  0.11841125492E+04  0.50400001928E-02 0.  1.
</event>
<event>
 5   0  0.2910318E-05  0.2234731E+04  0.7818609E-02  0.8504110E-01
       -1   -1    0    0    0  501  0.00000000000E+00  0.00000000000E+00  0.13833621549E+04  0.13833621549E+04  0.50400001928E-02 0.  1.
        1   -1    0    0  501    0  0.00000000000E+00  0.00000000000E+00 -0.90251544775E+03  0.90251544776E+03  0.50400001928E-02 0. -1.
    10030    2    1    2    0    0  0.00000000000E+00  0.00000000000E+00  0.48084670717E+03  0.22858776027E+04  0.22347310484E+04 0.  0.
        5    1    3    3  502    0  0.67810311681E+03  0.53214516658E+03 -0.48682083642E+03  0.98995905577E+03  0.46999998093E+01 0. -1.
       -5    1    3    3    0  502 -0.67810311681E+03 -0.53214516658E+03  0.96766754358E+03  0.12959185469E+04  0.46999998093E+01 0.  1.
</event>
<event>
 5   0  0.2908031E-05  0.2216618E+04  0.7818609E-02  0.8511543E-01
        1   -1    0    0  501    0  0.00000000000E+00  0.00000000000E+00  0.10788196937E+04  0.10788196937E+04  0.50400001928E-02 0.  1.
       -1   -1    0    0    0  501  0.00000000000E+00  0.00000000000E+00 -0.11386044004E+04  0.11386044004E+04  0.50400001928E-02 0. -1.
    10030    2    1    2    0    0  0.00000000000E+00  0.00000000000E+00 -0.59784706682E+02  0.22174240941E+04  0.22166180099E+04 0.  0.
        1    1    3    3  502    0 -0.10708541976E+04  0.28044286352E+03 -0.84427664705E+02  0.11101823917E+04  0.50400001928E-02 0. -1.
       -1    1    3    3    0  502  0.10708541976E+04 -0.28044286352E+03  0.24642958023E+02  0.11072417024E+04  0.50400001928E-02 0.  1.
</event>
<event>
 5   0  0.2908031E-05  0.2185500E+04  0.7818609E-02  0.8524488E-01
       -1   -1    0    0    0  501  0.00000000000E+00  0.00000000000E+00  0.74807977256E+03  0.74807977258E+03  0.50400001928E-02 0. -1.
        1   -1    0    0  501    0  0.00000000000E+00  0.00000000000E+00 -0.15962235485E+04  0.15962235485E+04  0.50400001928E-02 0.  1.
    10030    2    1    2    0    0  0.00000000000E+00  0.00000000000E+00 -0.84814377590E+03  0.23443033210E+04  0.21854999877E+04 0.  0.
        1    1    3    3  502    0 -0.84779127514E+03 -0.16017379023E+03 -0.11433931902E+04  0.14323943859E+04  0.50400001928E-02 0.  1.
       -1    1    3    3    0  502  0.84779127514E+03  0.16017379023E+03  0.29524941434E+03  0.91190893513E+03  0.50400001928E-02 0. -1.
</event>
<event>
 5   0  0.2753631E-05  0.2193071E+04  0.7818609E-02  0.8521318E-01
        1   -1    0    0  501    0  0.00000000000E+00  0.00000000000E+00  0.10735419406E+04  0.10735419407E+04  0.50400001928E-02 0.  1.
       -1   -1    0    0    0  501  0.00000000000E+00  0.00000000000E+00 -0.11200213868E+04  0.11200213868E+04  0.50400001928E-02 0. -1.
    10030    2    1    2    0    0  0.00000000000E+00  0.00000000000E+00 -0.46479446157E+02  0.21935633275E+04  0.21930708453E+04 0.  0.
        4    1    3    3  502    0 -0.62477748939E+03 -0.37069517104E+03  0.79830122249E+03  0.10793740204E+04  0.12699999809E+01 0.  1.
       -4    1    3    3    0  502  0.62477748939E+03  0.37069517104E+03 -0.84478066864E+03  0.11141893071E+04  0.12699999809E+01 0. -1.
</event>
<event>
 5   0  0.2820239E-05  0.2193135E+04  0.7818609E-02  0.8521291E-01
       -1   -1    0    0    0  501  0.00000000000E+00  0.00000000000E+00  0.83691634158E+03  0.83691634159E+03  0.50400001928E-02 0. -1.
        1   -1    0    0  501    0  0.00000000000E+00  0.00000000000E+00 -0.14367742384E+04  0.14367742384E+04  0.50400001928E-02 0.  1.
    10030    2    1    2    0    0  0.00000000000E+00  0.00000000000E+00 -0.59985789685E+03  0.22736905800E+04  0.21931345963E+04 0.  0.
        3    1    3    3  502    0 -0.98224161587E+03 -0.41507877983E+03 -0.56499744921E+03  0.12067771597E+04  0.10100000352E+00 0. -1.
       -3    1    3    3    0  502  0.98224161587E+03  0.41507877983E+03 -0.34860447633E+02  0.10669134203E+04  0.10100000352E+00 0.  1.
</event>
<event>
 5   0  0.6293013E-05  0.2196654E+04  0.7818609E-02  0.8519822E-01
       -2   -1    0    0    0  501  0.00000000000E+00  0.00000000000E+00  0.87664139435E+03  0.87664139435E+03  0.25500000920E-02 0.  1.
        2   -1    0    0  501    0  0.00000000000E+00  0.00000000000E+00 -0.13760720746E+04  0.13760720746E+04  0.25500000920E-02 0. -1.
    10030    2    1    2    0    0  0.00000000000E+00  0.00000000000E+00 -0.49943068024E+03  0.22527134690E+04  0.21966535842E+04 0.  0.
        1    1    3    3  502    0 -0.54271935122E+03 -0.15984940319E+03 -0.12151358743E+04  0.13403922258E+04  0.50400001928E-02 0. -1.
       -1    1    3    3    0  502  0.54271935122E+03  0.15984940319E+03  0.71570519407E+03  0.91232124316E+03  0.50400001928E-02 0.  1.
</event>
<event>
 5   0  0.6306919E-05  0.2078229E+04  0.7818609E-02  0.8570895E-01
       -2   -1    0    0    0  501  0.00000000000E+00  0.00000000000E+00  0.69719573750E+03  0.69719573751E+03  0.25500000920E-02 0.  1.
        2   -1    0    0  501    0  0.00000000000E+00  0.00000000000E+00 -0.15487174281E+04  0.15487174281E+04  0.25500000920E-02 0. -1.
    10030    2    1    2    0    0  0.00000000000E+00  0.00000000000E+00 -0.85152169056E+03  0.22459131656E+04  0.20782292361E+04 0.  0.
        3    1    3    3  502    0 -0.74693856614E+03 -0.67484244774E+03 -0.14722543024E+03  0.10173519000E+04  0.10100000352E+00 0.  1.
       -3    1    3    3    0  502  0.74693856614E+03  0.67484244774E+03 -0.70429626032E+03  0.12285612656E+04  0.10100000352E+00 0. -1.
</event>
<event>
 5   0  0.2820239E-05  0.2411133E+04  0.7818609E-02  0.8435347E-01
        1   -1    0    0  501    0  0.00000000000E+00  0.00000000000E+00  0.11770234723E+04  0.11770234723E+04  0.50400001928E-02 0. -1.
       -1   -1    0    0    0  501  0.00000000000E+00  0.00000000000E+00 -0.12348012089E+04  0.12348012089E+04  0.50400001928E-02 0.  1.
    10030    2    1    2    0    0  0.00000000000E+00  0.00000000000E+00 -0.57777736687E+02  0.24118246812E+04  0.24111325194E+04 0.  0.
        3    1    3    3  502    0 -0.39166900687E+03  0.26685320827E+03 -0.11377082128E+04  0.12324752465E+04  0.10100000352E+00 0.  1.
       -3    1    3    3    0  502  0.39166900687E+03 -0.26685320827E+03  0.10799304761E+04  0.11793494347E+04  0.10100000352E+00 0. -1.
</event>
<event>
 5   0  0.2245375E-05  0.2243653E+04  0.7818609E-02  0.8500475E-01
       -4   -1    0    0    0  501  0.00000000000E+00  0.00000000000E+00  0.12070937672E+04  0.12070944353E+04  0.12699999809E+01 0.  1.
        4   -1    0    0  501    0  0.00000000000E+00  0.00000000000E+00 -0.10425812466E+04  0.10425820201E+04  0.12699999809E+01 0. -1.
    10030    2    1    2    0    0  0.00000000000E+00  0.00000000000E+00  0.16451252053E+03  0.22496764554E+04  0.22436532229E+04 0.  0.
        4    1    3    3  502    0  0.12732561612E+03  0.10384188833E+04  0.48827262615E+03  0.11545290642E+04  0.12699999809E+01 0.  1.
       -4    1    3    3    0  502 -0.12732561612E+03 -0.10384188833E+04 -0.32376010562E+03  0.10951473912E+04  0.12699999809E+01 0. -1.
</event>
<event>
 5   0  0.2753631E-05  0.2183113E+04  0.7818609E-02  0.8525490E-01
       -1   -1    0    0    0  501  0.00000000000E+00  0.00000000000E+00  0.95439195994E+03  0.95439195995E+03  0.50400001928E-02 0.  1.
        1   -1    0    0  501    0  0.00000000000E+00  0.00000000000E+00 -0.12484346274E+04  0.12484346274E+04  0.50400001928E-02 0. -1.
    10030    2    1    2    0    0  0.00000000000E+00  0.00000000000E+00 -0.29404266747E+03  0.22028265874E+04  0.21831133465E+04 0.  0.
        4    1    3    3  502    0 -0.53331269489E+03  0.66061635385E+03  0.54521872763E+03  0.10090101443E+04  0.12699999809E+01 0.  1.
       -4    1    3    3    0  502  0.53331269489E+03 -0.66061635385E+03 -0.83926139510E+03  0.11938164431E+04  0.12699999809E+01 0. -1.
</event>
<event>
 5   0  0.2929471E-05  0.2206392E+04  0.7818609E-02  0.8515772E-01
       -1   -1    0    0    0  501  0.00000000000E+00  0.00000000000E+00  0.91683249810E+03  0.91683249811E+03  0.50400001928E-02 0. -1.
        1   -1    0    0  501    0  0.00000000000E+00  0.00000000000E+00 -0.13274416624E+04  0.13274416624E+04  0.50400001928E-02 0.  1.
    10030    2    1    2    0    0  0.00000000000E+00  0.00000000000E+00 -0.41060916427E+03  0.22442741605E+04  0.22063922185E+04 0.  0.
        2    1    3    3  502    0 -0.10289810089E+04 -0.13369222853E+03 -0.58639177199E+03  0.11918602430E+04  0.25500000920E-02 0.  1.
       -2    1    3    3    0  502  0.10289810089E+04  0.13369222853E+03  0.17578260772E+03  0.10524139175E+04  0.25500000920E-02 0. -1.
</event>
<event>
 5   0  0.2908031E-05  0.2204153E+04  0.7818609E-02  0.8516702E-01
        1   -1    0    0  501    0  0.00000000000E+00  0.00000000000E+00  0.60871149660E+03  0.60871149662E+03  0.50400001928E-02 0. -1.
       -1   -1    0    0    0  501  0.00000000000E+00  0.00000000000E+00 -0.19953167454E+04  0.19953167454E+04  0.50400001928E-02 0.  1.
    10030    2    1    2    0    0  0.00000000000E+00  0.00000000000E+00 -0.13866052488E+04  0.26040282420E+04  0.22041526647E+04 0.  0.
        1    1    3    3  502    0  0.15400100141E+03  0.10389185027E+03 -0.19766862921E+04  0.19853963137E+04  0.50400001928E-02 0.  1.
       -1    1    3    3    0  502 -0.15400100141E+03 -0.10389185027E+03  0.59008104334E+03  0.61863192830E+03  0.50400001928E-02 0. -1.
</event>
<event>
 5   0  0.2910318E-05  0.1905544E+04  0.7818609E-02  0.8652102E-01
       -1   -1    0    0    0  501  0.00000000000E+00  0.00000000000E+00  0.94595423449E+03  0.94595423451E+03  0.50400001928E-02 0.  1.
        1   -1    0    0  501    0  0.00000000000E+00  0.00000000000E+00 -0.95963883308E+03  0.95963883309E+03  0.50400001928E-02 0. -1.
    10030    2    1    2    0    0  0.00000000000E+00  0.00000000000E+00 -0.13684598589E+02  0.19055930676E+04  0.19055439305E+04 0.  0.
        5    1    3    3  502    0  0.67894359112E+03  0.22010858788E+03  0.62431590683E+03  0.94826400960E+03  0.46999998093E+01 0.  1.
       -5    1    3    3    0  502 -0.67894359112E+03 -0.22010858788E+03 -0.63800050542E+03  0.95732905800E+03  0.46999998093E+01 0. -1.
</event>
<event>
 5   0  0.6445740E-05  0.2187074E+04  0.7818609E-02  0.8523827E-01
       -2   -1    0    0    0  501  0.00000000000E+00  0.00000000000E+00  0.15537671319E+04  0.15537671319E+04  0.25500000920E-02 0. -1.
        2   -1    0    0  501    0  0.00000000000E+00  0.00000000000E+00 -0.76962838282E+03  0.76962838283E+03  0.25500000920E-02 0.  1.
    10030    2    1    2    0    0  0.00000000000E+00  0.00000000000E+00  0.78413874909E+03  0.23233955147E+04  0.21870741048E+04 0.  0.
        5    1    3    3  502    0  0.17601549719E+03 -0.72802714734E+03  0.12384716291E+04  0.14473558818E+04  0.46999998093E+01 0. -1.
       -5    1    3    3    0  502 -0.17601549719E+03  0.72802714734E+03 -0.45433288005E+03  0.87603963290E+03  0.46999998093E+01 0.  1.
</event>
<event>
 5   0  0.6628798E-05  0.2180477E+04  0.7818609E-02  0.8526598E-01
        2   -1    0    0  501    0  0.00000000000E+00  0.00000000000E+00  0.11564049295E+04  0.11564049295E+04  0.25500000920E-02 0.  1.
       -2   -1    0    0    0  501  0.00000000000E+00  0.00000000000E+00 -0.10278579736E+04  0.10278579736E+04  0.25500000920E-02 0. -1.
    10030    2    1    2    0    0  0.00000000000E+00  0.00000000000E+00  0.12854695589E+03  0.21842629031E+04  0.21804770372E+04 0.  0.
        4    1    3    3  502    0  0.10624802518E+04 -0.50768317988E+02  0.30380515868E+03  0.11062282292E+04  0.12699999809E+01 0. -1.
       -4    1    3    3    0  502 -0.10624802518E+04  0.50768317988E+02 -0.17525820279E+03  0.10780346739E+04  0.12699999809E+01 0.  1.
</event>
<event>
 5   0  0.2910318E-05  0.2179295E+04  0.7818609E-02  0.8527096E-01
       -1   -1    0    0    0  501  0.00000000000E+00  0.00000000000E+00  0.12977472616E+04  0.12977472616E+04  0.50400001928E-02 0.  1.
        1   -1    0    0  501    0  0.00000000000E+00  0.00000000000E+00 -0.91491780492E+03  0.91491780493E+03  0.50400001928E-02 0. -1.
    10030    2    1    2    0    0  0.00000000000E+00  0.00000000000E+00  0.38282945668E+03  0.22126650665E+04  0.21792953686E+04 0.  0.
        5    1    3    3  502    0  0.52262835224E+03  0.15852180054E+02 -0.77921428796E+03  0.93839686846E+03  0.46999998093E+01 0. -1.
       -5    1    3    3    0  502 -0.52262835224E+03 -0.15852180054E+02  0.11620437446E+04  0.12742681981E+04  0.46999998093E+01 0.  1.
</event>
<event>
 5   0  0.2245375E-05  0.2217710E+04  0.7818609E-02  0.8511093E-01
        3   -1    0    0  501    0  0.00000000000E+00  0.00000000000E+00  0.13637547756E+04  0.13637547793E+04  0.10100000352E+00 0. -1.
       -3   -1    0    0    0  501  0.00000000000E+00  0.00000000000E+00 -0.90159852161E+03  0.90159852727E+03  0.10100000352E+00 0.  1.
    10030    2    1    2    0    0  0.00000000000E+00  0.00000000000E+00  0.46215625394E+03  0.22653533066E+04  0.22177099000E+04 0.  0.
        4    1    3    3  502    0 -0.91144270177E+03  0.88750522481E+02 -0.40761701676E+03  0.10023760268E+04  0.12699999809E+01 0.  1.
       -4    1    3    3    0  502  0.91144270177E+03 -0.88750522481E+02  0.86977327070E+03  0.12629772798E+04  0.12699999809E+01 0. -1.
</event>
<event>
 5   0  0.6293013E-05  0.2160714E+04  0.7818609E-02  0.8534960E-01
       -2   -1    0    0    0  501  0.00000000000E+00  0.00000000000E+00  0.74331197333E+03  0.74331197333E+03  0.25500000920E-02 0.  1.
        2   -1    0    0  501    0  0.00000000000E+00  0.00000000000E+00 -0.15702309845E+04  0.15702309845E+04  0.25500000920E-02 0. -1.
    10030    2    1    2    0    0  0.00000000000E+00  0.00000000000E+00 -0.82691901113E+03  0.23135429578E+04  0.21607142260E+04 0.  0.
        1    1    3    3  502    0 -0.20568852768E+03 -0.10584068954E+04 -0.48638376970E+03  0.11828364630E+04  0.50400001928E-02 0. -1.
       -1    1    3    3    0  502  0.20568852768E+03  0.10584068954E+04 -0.34053524143E+03  0.11307064948E+04  0.50400001928E-02 0.  1.
</event>
<event>
 5   0  0.6628798E-05  0.2235506E+04  0.7818609E-02  0.8503794E-01
        2   -1    0    0  501    0  0.00000000000E+00  0.00000000000E+00  0.27199816326E+04  0.27199816326E+04  0.25500000920E-02 0. -1.
       -2   -1    0    0    0  501  0.00000000000E+00  0.00000000000E+00 -0.45933082604E+03  0.45933082605E+03  0.25500000920E-02 0.  1.
    10030    2    1    2    0    0  0.00000000000E+00  0.00000000000E+00  0.22606508066E+04  0.31793124587E+04  0.22355056789E+04 0.  0.
        4    1    3    3  502    0  0.84065337081E+02  0.99912066955E+02 -0.44844600457E+03  0.46707048070E+03  0.12699999809E+01 0.  1.
       -4    1    3    3    0  502 -0.84065337081E+02 -0.99912066955E+02  0.27090968112E+04  0.27122419780E+04  0.12699999809E+01 0. -1.
</event>
<event>
 5   0  0.6628798E-05  0.2017720E+04  0.7818609E-02  0.8598380E-01
        2   -1    0    0  501    0  0.00000000000E+00  0.00000000000E+00  0.11348696474E+04  0.11348696474E+04  0.25500000920E-02 0. -1.
       -2   -1    0    0    0  501  0.00000000000E+00  0.00000000000E+00 -0.89684219011E+03  0.89684219012E+03  0.25500000920E-02 0.  1.
    10030    2    1    2    0    0  0.00000000000E+00  0.00000000000E+00  0.23802745730E+03  0.20317118375E+04  0.20177204763E+04 0.  0.
        4    1    3    3  502    0 -0.10072344987E+04  0.24883066951E+02  0.67111520336E+02  0.10097752579E+04  0.12699999809E+01 0.  1.
       -4    1    3    3    0  502  0.10072344987E+04 -0.24883066951E+02  0.17091593696E+03  0.10219365796E+04  0.12699999809E+01 0. -1.
</event>
<event>
 5   0  0.2753631E-05  0.2230227E+04  0.7818609E-02  0.8505951E-01
        1   -1    0    0  501    0  0.00000000000E+00  0.00000000000E+00  0.10131829937E+04  0.10131829938E+04  0.50400001928E-02 0.  1.
       -1   -1    0    0    0  501  0.00000000000E+00  0.00000000000E+00 -0.12272988716E+04  0.12272988716E+04  0.50400001928E-02 0. -1.
    10030    2    1    2    0    0  0.00000000000E+00  0.00000000000E+00 -0.21411587787E+03  0.22404818654E+04  0.22302272036E+04 0.  0.
        4    1    3    3  502    0  0.41665313630E+03 -0.10270651637E+04  0.16037281011E+02  0.11084771057E+04  0.12699999809E+01 0.  1.
       -4    1    3    3    0  502 -0.41665313630E+03  0.10270651637E+04 -0.23015315888E+03  0.11320047597E+04  0.12699999809E+01 0. -1.
</event>
<event>
 5   0  0.2820239E-05  0.2220268E+04  0.7818609E-02  0.8510039E-01
       -1   -1    0    0    0  501  0.00000000000E+00  0.00000000000E+00  0.64025047956E+03  0.64025047958E+03  0.50400001928E-02 0.  1.
        1   -1    0    0  501    0  0.00000000000E+00  0.00000000000E+00 -0.19248673751E+04  0.19248673751E+04  0.50400001928E-02 0. -1.
    10030    2    1    2    0    0  0.00000000000E+00  0.00000000000E+00 -0.12846168956E+04  0.25651178547E+04  0.22202677857E+04 0.  0.
        3    1    3    3  502    0  0.49191935059E+03  0.32134378245E+03 -0.17304883091E+04  0.18275218938E+04  0.10100000352E+00 0. -1.
       -3    1    3    3    0  502 -0.49191935059E+03 -0.32134378245E+03  0.44587141354E+03  0.73759596096E+03  0.10100000352E+00 0.  1.
</event>
<event>
 5   0  0.2820239E-05  0.2210864E+04  0.7818609E-02  0.8513920E-01
        1   -1    0    0  501    0  0.00000000000E+00  0.00000000000E+00  0.12418589379E+04  0.12418589379E+04  0.50400001928E-02 0.  1.
       -1   -1    0    0    0  501  0.00000000000E+00  0.00000000000E+00 -0.98399243766E+03  0.98399243767E+03  0.50400001928E-02 0. -1.
    10030    2    1    2    0    0  0.00000000000E+00  0.00000000000E+00  0.25786650023E+03  0.22258513756E+04  0.22108639067E+04 0.  0.
        3    1    3    3  502    0  0.54958519257E+03  0.45174882199E+02 -0.83562994751E+03  0.10011803400E+04  0.10100000352E+00 0. -1.
       -3    1    3    3    0  502 -0.54958519257E+03 -0.45174882199E+02  0.10934964477E+04  0.12246710355E+04  0.10100000352E+00 0.  1.
</event>
<event>
 5   0  0.6293013E-05  0.2100403E+04  0.7818609E-02  0.8561066E-01
       -2   -1    0    0    0  501  0.00000000000E+00  0.00000000000E+00  0.62017030910E+03  0.62017030910E+03  0.25500000920E-02 0.  1.
        2   -1    0    0  501    0  0.00000000000E+00  0.00000000000E+00 -0.17784196375E+04  0.17784196375E+04  0.25500000920E-02 0. -1.
    10030    2    1    2    0    0  0.00000000000E+00  0.00000000000E+00 -0.11582493284E+04  0.23985899466E+04  0.21004028721E+04 0.  0.
        1    1    3    3  502    0 -0.22308768964E+02 -0.79406083225E+03 -0.13635923655E+04  0.15781046942E+04  0.50400001928E-02 0.  1.
       -1    1    3    3    0  502  0.22308768964E+02  0.79406083225E+03  0.20534303712E+03  0.82048525240E+03  0.50400001928E-02 0. -1.
</event>
<event>
 5   0  0.2753631E-05  0.2181654E+04  0.7818609E-02  0.8526103E-01
       -1   -1    0    0    0  501  0.00000000000E+00  0.00000000000E+00  0.10650472632E+04  0.10650472632E+04  0.50400001928E-02 0.  1.
        1   -1    0    0  501    0  0.00000000000E+00  0.00000000000E+00 -0.11172307865E+04  0.11172307865E+04  0.50400001928E-02 0. -1.
    10030    2    1    2    0    0  0.00000000000E+00  0.00000000000E+00 -0.52183523300E+02  0.21822780497E+04  0.21816540436E+04 0.  0.
        4    1    3    3  502    0  0.10844030157E+04  0.10990936822E+03  0.17417908922E+02  0.10900986038E+04  0.12699999809E+01 0.  1.
       -4    1    3    3    0  502 -0.10844030157E+04 -0.10990936822E+03 -0.69601432221E+02  0.10921794458E+04  0.12699999809E+01 0. -1.
</event>
<event>
 5   0  0.6306919E-05  0.2186248E+04  0.7818609E-02  0.8524174E-01
       -2   -1    0    0    0  501  0.00000000000E+00  0.00000000000E+00  0.17021664949E+04  0.17021664949E+04  0.25500000920E-02 0. -1.
        2   -1    0    0  501    0  0.00000000000E+00  0.00000000000E+00 -0.70199969953E+03  0.70199969953E+03  0.25500000920E-02 0.  1.
    10030    2    1    2    0    0  0.00000000000E+00  0.00000000000E+00  0.10001667954E+04  0.24041661944E+04  0.21862482640E+04 0.  0.
        3    1    3    3  502    0  0.82523617348E+02  0.10550050234E+04  0.19877477978E+03  0.10767344938E+04  0.10100000352E+00 0.  1.
       -3    1    3    3    0  502 -0.82523617348E+02 -0.10550050234E+04  0.80139201559E+03  0.13274317006E+04  0.10100000352E+00 0. -1.
</event>
<event>
 5   0  0.2910318E-05  0.2201117E+04  0.7818609E-02  0.8517964E-01
       -1   -1    0    0    0  501  0.00000000000E+00  0.00000000000E+00  0.11098761022E+04  0.11098761022E+04  0.50400001928E-02 0.  1.
        1   -1    0    0  501    0  0.00000000000E+00  0.00000000000E+00 -0.10913187185E+04  0.10913187185E+04  0.50400001928E-02 0. -1.
    10030    2    1    2    0    0  0.00000000000E+00  0.00000000000E+00  0.18557383644E+02  0.22011948207E+04  0.22011165944E+04 0.  0.
        5    1    3    3  502    0  0.45459153630E+03  0.70194491405E+03  0.72472451712E+03  0.11066290449E+04  0.46999998093E+01 0.  1.
       -5    1    3    3    0  502 -0.45459153630E+03 -0.70194491405E+03 -0.70616713348E+03  0.10945657758E+04  0.46999998093E+01 0. -1.
</event>
<event>
 5   0  0.6306919E-05  0.2175270E+04  0.7818609E-02  0.8528792E-01
        2   -1    0    0  501    0  0.00000000000E+00  0.00000000000E+00  0.11292353991E+04  0.11292353991E+04  0.25500000920E-02 0. -1.
       -2   -1    0    0    0  501  0.00000000000E+00  0.00000000000E+00 -0.10475673553E+04  0.10475673553E+04  0.25500000920E-02 0.  1.
    10030    2    1    2    0    0  0.00000000000E+00  0.00000000000E+00  0.81668043821E+02  0.21768027544E+04  0.21752702274E+04 0.  0.
        3    1    3    3  502    0  0.78801609274E+03 -0.36553210796E+03 -0.61412463869E+03  0.10638290118E+04  0.10100000352E+00 0.  1.
       -3    1    3    3    0  502 -0.78801609274E+03  0.36553210796E+03  0.69579268251E+03  0.11129737426E+04  0.10100000352E+00 0. -1.
</event>
<event>
 5   0  0.6293013E-05  0.1991773E+04  0.7818609E-02  0.8610477E-01
       -2   -1    0    0    0  501  0.00000000000E+00  0.00000000000E+00  0.13137051828E+04  0.13137051828E+04  0.25500000920E-02 0. -1.
        2   -1    0    0  501    0  0.00000000000E+00  0.00000000000E+00 -0.75495605828E+03  0.75495605828E+03  0.25500000920E-02 0.  1.
    10030    2    1    2    0    0  0.00000000000E+00  0.00000000000E+00  0.55874912457E+03  0.20686612411E+04  0.19917727647E+04 0.  0.
        1    1    3    3  502    0 -0.49688209177E+03  0.84009452465E+03  0.48484758058E+03  0.10898292526E+04  0.50400001928E-02 0.  1.
       -1    1    3    3    0  502  0.49688209177E+03 -0.84009452465E+03  0.73901543992E+02  0.97883198850E+03  0.50400001928E-02 0. -1.
</event>
<event>
 5   0  0.2910318E-05  0.2192109E+04  0.7818609E-02  0.8521720E-01
       -1   -1    0    0    0  501  0.00000000000E+00  0.00000000000E+00  0.82124358575E+03  0.82124358577E+03  0.50400001928E-02 0. -1.
        1   -1    0    0  501    0  0.00000000000E+00  0.00000000000E+00 -0.14628248416E+04  0.14628248416E+04  0.50400001928E-02 0.  1.
    10030    2    1    2    0    0  0.00000000000E+00  0.00000000000E+00 -0.64158125588E+03  0.22840684274E+04  0.21921090468E+04 0.  0.
        5    1    3    3  502    0 -0.17349189261E+03  0.10486972118E+04 -0.42279566344E+02  0.10638021106E+04  0.46999998093E+01 0. -1.
       -5    1    3    3    0  502  0.17349189261E+03 -0.10486972118E+04 -0.59930168954E+03  0.12202663168E+04  0.46999998093E+01 0.  1.
</event>
<event>
 5   0  0.2929471E-05  0.2184118E+04  0.7818609E-02  0.8525068E-01
        1   -1    0    0  501    0  0.00000000000E+00  0.00000000000E+00  0.81367994925E+03  0.81367994927E+03  0.50400001928E-02 0. -1.
       -1   -1    0    0    0  501  0.00000000000E+00  0.00000000000E+00 -0.14656784839E+04  0.14656784839E+04  0.50400001928E-02 0.  1.
    10030    2    1    2    0    0  0.00000000000E+00  0.00000000000E+00 -0.65199853467E+03  0.22793584332E+04  0.21841183067E+04 0.  0.
        2    1    3    3  502    0 -0.53074811002E+03  0.28957032533E+02 -0.13215691438E+04  0.14244567624E+04  0.25500000920E-02 0.  1.
       -2    1    3    3    0  502  0.53074811002E+03 -0.28957032533E+02  0.66957060917E+03  0.85490167078E+03  0.25500000920E-02 0. -1.
</event>
<event>
 5   0  0.6414768E-05  0.1975774E+04  0.7818609E-02  0.8618032E-01
        2   -1    0    0  501    0  0.00000000000E+00  0.00000000000E+00  0.33371817807E+03  0.33371817808E+03  0.25500000920E-02 0. -1.
       -2   -1    0    0    0  501  0.00000000000E+00  0.00000000000E+00 -0.29243856829E+04  0.29243856829E+04  0.25500000920E-02 0.  1.
    10030    2    1    2    0    0  0.00000000000E+00  0.00000000000E+00 -0.25906675049E+04  0.32581038610E+04  0.19757739366E+04 0.  0.
        2    1    3    3  502    0  0.85114327932E+03 -0.43238237053E+03 -0.17142036127E+04  0.19621145283E+04  0.25500000920E-02 0.  1.
       -2    1    3    3    0  502 -0.85114327932E+03  0.43238237053E+03 -0.87646389211E+03  0.12959893327E+04  0.25500000920E-02 0. -1.
</event>
<event>
 5   0  0.6414768E-05  0.2160375E+04  0.7818609E-02  0.8535104E-01
        2   -1    0    0  501    0  0.00000000000E+00  0.00000000000E+00  0.45115637190E+03  0.45115637191E+03  0.25500000920E-02 0.  1.
       -2   -1    0    0    0  501  0.00000000000E+00  0.00000000000E+00 -0.25862540968E+04  0.25862540968E+04  0.25500000920E-02 0. -1.
    10030    2    1    2    0    0  0.00000000000E+00  0.00000000000E+00 -0.21350977249E+04  0.30374104687E+04  0.21603749815E+04 0.  0.
        2    1    3    3  502    0  0.10576270825E+04 -0.99973041043E+02 -0.79262847860E+03  0.13254544728E+04  0.25500000920E-02 0. -1.
       -2    1    3    3    0  502 -0.10576270825E+04  0.99973041043E+02 -0.13424692463E+04  0.17119559959E+04  0.25500000920E-02 0.  1.
</event>
<event>
 5   0  0.2820239E-05  0.2182141E+04  0.7818609E-02  0.8525898E-01
       -1   -1    0    0    0  501  0.00000000000E+00  0.00000000000E+00  0.81121711318E+03  0.81121711320E+03  0.50400001928E-02 0. -1.
        1   -1    0    0  501    0  0.00000000000E+00  0.00000000000E+00 -0.14674676870E+04  0.14674676870E+04  0.50400001928E-02 0.  1.
    10030    2    1    2    0    0  0.00000000000E+00  0.00000000000E+00 -0.65625057382E+03  0.22786848002E+04  0.21821410594E+04 0.  0.
        3    1    3    3  502    0 -0.96927169618E+03 -0.34794372650E+03 -0.70446204686E+03  0.12477256283E+04  0.10100000352E+00 0.  1.
       -3    1    3    3    0  502  0.96927169618E+03  0.34794372650E+03  0.48211473037E+02  0.10309591719E+04  0.10100000352E+00 0. -1.
</event>
<event>
 5   0  0.2929471E-05  0.2190803E+04  0.7818609E-02  0.8522266E-01
        1   -1    0    0  501    0  0.00000000000E+00  0.00000000000E+00  0.15404727198E+04  0.15404727198E+04  0.50400001928E-02 0.  1.
       -1   -1    0    0    0  501  0.00000000000E+00  0.00000000000E+00 -0.77891954433E+03  0.77891954434E+03  0.50400001928E-02 0. -1.
    10030    2    1    2    0    0  0.00000000000E+00  0.00000000000E+00  0.76155317544E+03  0.23193922641E+04  0.21908028747E+04 0.  0.
        2    1    3    3  502    0  0.67433461624E+03 -0.72667013932E+03  0.87409629040E+03  0.13216735569E+04  0.25500000920E-02 0.  1.
       -2    1    3    3    0  502 -0.67433461624E+03  0.72667013932E+03 -0.11254311497E+03  0.99771870724E+03  0.25500000920E-02 0. -1.
</event>
<event>
 5   0  0.6293013E-05  0.2210040E+04  0.7818609E-02  0.8514261E-01
        2   -1    0    0  501    0  0.00000000000E+00  0.00000000000E+00  0.20575256516E+04  0.20575256516E+04  0.25500000920E-02 0.  1.
       -2   -1    0    0    0  501  0.00000000000E+00  0.00000000000E+00 -0.59346503029E+03  0.59346503030E+03  0.25500000920E-02 0. -1.
    10030    2    1    2    0    0  0.00000000000E+00  0.00000000000E+00  0.14640606213E+04  0.26509906819E+04  0.22100402921E+04 0.  0.
        1    1    3    3  502    0  0.17880243526E+03  0.83646395857E+03 -0.10714381815E+03  0.86204527876E+03  0.50400001928E-02 0. -1.
       -1    1    3    3    0  502 -0.17880243526E+03 -0.83646395857E+03  0.15712044395E+04  0.17889454032E+04  0.50400001928E-02 0.  1.
</event>
<event>
 5   0  0.2753631E-05  0.2221738E+04  0.7818609E-02  0.8509434E-01
        1   -1    0    0  501    0  0.00000000000E+00  0.00000000000E+00  0.80772768966E+03  0.80772768968E+03  0.50400001928E-02 0. -1.
       -1   -1    0    0    0  501  0.00000000000E+00  0.00000000000E+00 -0.15277797211E+04  0.15277797211E+04  0.50400001928E-02 0.  1.
    10030    2    1    2    0    0  0.00000000000E+00  0.00000000000E+00 -0.72005203141E+03  0.23355074108E+04  0.22217380444E+04 0.  0.
        4    1    3    3  502    0  0.60691332808E+03 -0.87641916257E+03 -0.31662020737E+02  0.10665169632E+04  0.12699999809E+01 0.  1.
       -4    1    3    3    0  502 -0.60691332808E+03  0.87641916257E+03 -0.68839001067E+03  0.12689904476E+04  0.12699999809E+01 0. -1.
</event>
<event>
 5   0  0.6293013E-05  0.2202987E+04  0.7818609E-02  0.8517186E-01
       -2   -1    0    0    0  501  0.00000000000E+00  0.00000000000E+00  0.78575303989E+03  0.78575303989E+03  0.25500000920E-02 0.  1.
        2   -1    0    0  501    0  0.00000000000E+00  0.00000000000E+00 -0.15441091650E+04  0.15441091650E+04  0.25500000920E-02 0. -1.
    10030    2    1    2    0    0  0.00000000000E+00  0.00000000000E+00 -0.75835612514E+03  0.23298622049E+04  0.22029874901E+04 0.  0.
        1    1    3    3  502    0 -0.44573214824E+03 -0.96028819093E+03 -0.57597161545E+02  0.10602584547E+04  0.50400001928E-02 0.  1.
       -1    1    3    3    0  502  0.44573214824E+03  0.96028819093E+03 -0.70075896359E+03  0.12696037503E+04  0.50400001928E-02 0. -1.
</event>
<event>
 5   0  0.2908031E-05  0.2222529E+04  0.7818609E-02  0.8509109E-01
        1   -1    0    0  501    0  0.00000000000E+00  0.00000000000E+00  0.11027032485E+04  0.11027032485E+04  0.50400001928E-02 0. -1.
       -1   -1    0    0    0  501  0.00000000000E+00  0.00000000000E+00 -0.11198920333E+04  0.11198920333E+04  0.50400001928E-02 0.  1.
    10030    2    1    2    0    0  0.00000000000E+00  0.00000000000E+00 -0.17188784777E+02  0.22225952819E+04  0.22225288148E+04 0.  0.
        1    1    3    3  502    0 -0.10482311230E+04 -0.14787098589E+03  0.32943090439E+03  0.11086834700E+04  0.50400001928E-02 0. -1.
       -1    1    3    3    0  502  0.10482311230E+04  0.14787098589E+03 -0.34661968917E+03  0.11139118119E+04  0.50400001928E-02 0.  1.
</event>
<event>
 5   0  0.6628798E-05  0.2200141E+04  0.7818609E-02  0.8518369E-01
       -2   -1    0    0    0  501  0.00000000000E+00  0.00000000000E+00  0.65255072098E+03  0.65255072098E+03  0.25500000920E-02 0.  1.
        2   -1    0    0  501    0  0.00000000000E+00  0.00000000000E+00 -0.18544997162E+04  0.18544997162E+04  0.25500000920E-02 0. -1.
    10030    2    1    2    0    0  0.00000000000E+00  0.00000000000E+00 -0.12019489952E+04  0.25070504372E+04  0.22001410199E+04 0.  0.
        4    1    3    3  502    0 -0.56704730413E+03 -0.93716255943E+03 -0.48511966893E+03  0.11979812244E+04  0.12699999809E+01 0.  1.
       -4    1    3    3    0  502  0.56704730413E+03  0.93716255943E+03 -0.71682932629E+03  0.13090692128E+04  0.12699999809E+01 0. -1.
</event>
<event>
 5   0  0.2245375E-05  0.2251368E+04  0.7818609E-02  0.8497347E-01
       -3   -1    0    0    0  501  0.00000000000E+00  0.00000000000E+00  0.17090086538E+04  0.17090086568E+04  0.10100000352E+00 0.  1.
        3   -1    0    0  501    0  0.00000000000E+00  0.00000000000E+00 -0.74146152879E+03  0.74146153567E+03  0.10100000352E+00 0. -1.
    10030    2    1    2    0    0  0.00000000000E+00  0.00000000000E+00  0.96754712503E+03  0.24504701925E+04  0.22513677454E+04 0.  0.
        2    1    3    3  502    0 -0.43254558318E+03 -0.10081536829E+04  0.20907621452E+03  0.11167732059E+04  0.25500000920E-02 0. -1.
       -2    1    3    3    0  502  0.43254558318E+03  0.10081536829E+04  0.75847091051E+03  0.13336969866E+04  0.25500000920E-02 0.  1.
</event>
<event>
 5   0  0.6306919E-05  0.2166206E+04  0.7818609E-02  0.8532627E-01
        2   -1    0    0  501    0  0.00000000000E+00  0.00000000000E+00  0.14728123610E+04  0.14728123610E+04  0.25500000920E-02 0. -1.
       -2   -1    0    0    0  501  0.00000000000E+00  0.00000000000E+00 -0.79651149922E+03  0.79651149923E+03  0.25500000920E-02 0.  1.
    10030    2    1    2    0    0  0.00000000000E+00  0.00000000000E+00  0.67630086179E+03  0.22693238602E+04  0.21662058829E+04 0.  0.
        3    1    3    3  502    0 -0.16259989602E+03 -0.54038672348E+03  0.13066340461E+04  0.14232881219E+04  0.10100000352E+00 0. -1.
       -3    1    3    3    0  502  0.16259989602E+03  0.54038672348E+03 -0.63033318436E+03  0.84603573837E+03  0.10100000352E+00 0.  1.
</event>
<event>
 5   0  0.6414768E-05  0.2216716E+04  0.7818609E-02  0.8511503E-01
        2   -1    0    0  501    0  0.00000000000E+00  0.00000000000E+00  0.19269529391E+04  0.19269529391E+04  0.25500000920E-02 0. -1.
       -2   -1    0    0    0  501  0.00000000000E+00  0.00000000000E+00 -0.63751268796E+03  0.63751268797E+03  0.25500000920E-02 0.  1.
    10030    2    1    2    0    0  0.00000000000E+00  0.00000000000E+00  0.12894402512E+04  0.25644656271E+04  0.22167155414E+04 0.  0.
        2    1    3    3  502    0  0.60417040722E+03  0.91265329136E+03  0.84675669100E+03  0.13838189206E+04  0.25500000920E-02 0.  1.
       -2    1    3    3    0  502 -0.60417040722E+03 -0.91265329136E+03  0.44268356017E+03  0.11806467065E+04  0.25500000920E-02 0. -1.
</event>
<event>
 5   0  0.6293013E-05  0.2168989E+04  0.7818609E-02  0.8531448E-01
       -2   -1    0    0    0  501  0.00000000000E+00  0.00000000000E+00  0.84379364711E+03  0.84379364712E+03  0.25500000920E-02 0.  1.
        2   -1    0    0  501    0  0.00000000000E+00  0.00000000000E+00 -0.13938572963E+04  0.13938572963E+04  0.25500000920E-02 0. -1.
    10030    2    1    2    0    0  0.00000000000E+00  0.00000000000E+00 -0.55006364914E+03  0.22376509434E+04  0.21689886413E+04 0.  0.
        1    1    3    3  502    0  0.74484810394E+03 -0.78014641495E+03 -0.15876637252E+03  0.10902448751E+04  0.50400001928E-02 0.  1.
       -1    1    3    3    0  502 -0.74484810394E+03  0.78014641495E+03 -0.39129727662E+03  0.11474060682E+04  0.50400001928E-02 0. -1.
</event>
<event>
 5   0  0.2753631E-05  0.2190665E+04  0.7818609E-02  0.8522324E-01
       -1   -1    0    0    0  501  0.00000000000E+00  0.00000000000E+00  0.70119571027E+03  0.70119571028E+03  0.50400001928E-02 0.  1.
        1   -1    0    0  501    0  0.00000000000E+00  0.00000000000E+00 -0.17110109564E+04  0.17110109564E+04  0.50400001928E-02 0. -1.
    10030    2    1    2    0    0  0.00000000000E+00  0.00000000000E+00 -0.10098152462E+04  0.24122066667E+04  0.21906652349E+04 0.  0.
        4    1    3    3  502    0  0.47994190236E+03  0.10707816086E+03 -0.15826329706E+04  0.16572684438E+04  0.12699999809E+01 0. -1.
       -4    1    3    3    0  502 -0.47994190236E+03 -0.10707816086E+03  0.57281772443E+03  0.75493822296E+03  0.12699999809E+01 0.  1.
</event>
<event>
 5   0  0.6414768E-05  0.2187260E+04  0.7818609E-02  0.8523749E-01
        2   -1    0    0  501    0  0.00000000000E+00  0.00000000000E+00  0.22826019757E+04  0.22826019757E+04  0.25500000920E-02 0. -1.
       -2   -1    0    0    0  501  0.00000000000E+00  0.00000000000E+00 -0.52397518947E+03  0.52397518948E+03  0.25500000920E-02 0.  1.
    10030    2    1    2    0    0  0.00000000000E+00  0.00000000000E+00  0.17586267862E+04  0.28065771651E+04  0.21872602065E+04 0.  0.
        2    1    3    3  502    0  0.16563871898E+03  0.55463209966E+03 -0.31130206412E+03  0.65723810475E+03  0.25500000920E-02 0.  1.
       -2    1    3    3    0  502 -0.16563871898E+03 -0.55463209966E+03  0.20699288503E+04  0.21493390604E+04  0.25500000920E-02 0. -1.
</event>
<event>
 5   0  0.2820239E-05  0.2181531E+04  0.7818609E-02  0.8526155E-01
        1   -1    0    0  501    0  0.00000000000E+00  0.00000000000E+00  0.14388589931E+04  0.14388589931E+04  0.50400001928E-02 0. -1.
       -1   -1    0    0    0  501  0.00000000000E+00  0.00000000000E+00 -0.82688427539E+03  0.82688427540E+03  0.50400001928E-02 0.  1.
    10030    2    1    2    0    0  0.00000000000E+00  0.00000000000E+00  0.61197471773E+03  0.22657432685E+04  0.21815314583E+04 0.  0.
        3    1    3    3  502    0  0.37498967231E+02  0.25785065184E+03 -0.79408635965E+03  0.83574295569E+03  0.10100000352E+00 0.  1.
       -3    1    3    3    0  502 -0.37498967231E+02 -0.25785065184E+03  0.14060610774E+04  0.14300003128E+04  0.10100000352E+00 0. -1.
</event>
<event>
 5   0  0.2753631E-05  0.2069163E+04  0.7818609E-02  0.8574950E-01
        1   -1    0    0  501    0  0.00000000000E+00  0.00000000000E+00  0.12065323833E+04  0.12065323833E+04  0.50400001928E-02 0.  1.
       -1   -1    0    0    0  501  0.00000000000E+00  0.00000000000E+00 -0.88713617115E+03  0.88713617116E+03  0.50400001928E-02 0. -1.
    10030    2    1    2    0    0  0.00000000000E+00  0.00000000000E+00  0.31939621216E+03  0.20936685545E+04  0.20691626508E+04 0.  0.
        4    1    3    3  502    0 -0.37726337935E+03  0.92969106461E+03  0.41508339528E+03  0.10857941660E+04  0.12699999809E+01 0. -1.
       -4    1    3    3    0  502  0.37726337935E+03 -0.92969106461E+03 -0.95687183123E+02  0.10078743885E+04  0.12699999809E+01 0.  1.
</event>
<event>
 5   0  0.2929471E-05  0.2195764E+04  0.7818609E-02  0.8520193E-01
       -1   -1    0    0    0  501  0.00000000000E+00  0.00000000000E+00  0.16877070877E+04  0.16877070877E+04  0.50400001928E-02 0. -1.
        1   -1    0    0  501    0  0.00000000000E+00  0.00000000000E+00 -0.71419055251E+03  0.71419055253E+03  0.50400001928E-02 0.  1.
    10030    2    1    2    0    0  0.00000000000E+00  0.00000000000E+00  0.97351653516E+03  0.24018976402E+04  0.21957636097E+04 0.  0.
        2    1    3    3  502    0  0.12427685457E+03  0.84554689226E+03 -0.26710561642E+03  0.89539918133E+03  0.25500000920E-02 0.  1.
       -2    1    3    3    0  502 -0.12427685457E+03 -0.84554689226E+03  0.12406221516E+04  0.15064984589E+04  0.25500000920E-02 0. -1.
</event>
<event>
 5   0  0.2910318E-05  0.2270039E+04  0.7818609E-02  0.8489829E-01
        1   -1    0    0  501    0  0.00000000000E+00  0.00000000000E+00  0.11641187480E+04  0.11641187480E+04  0.50400001928E-02 0.  1.
       -1   -1    0    0    0  501  0.00000000000E+00  0.00000000000E+00 -0.11066479504E+04  0.11066479504E+04  0.50400001928E-02 0. -1.
    10030    2    1    2    0    0  0.00000000000E+00  0.00000000000E+00  0.57470797652E+02  0.22707666984E+04  0.22700393182E+04 0.  0.
        5    1    3    3  502    0 -0.90798231808E+01 -0.85791748860E+03  0.77203653217E+03  0.11541955456E+04  0.46999998093E+01 0.  1.
       -5    1    3    3    0  502  0.90798231808E+01  0.85791748860E+03 -0.71456573452E+03  0.11165711528E+04  0.46999998093E+01 0. -1.
</event>
<event>
 5   0  0.6306919E-05  0.2250163E+04  0.7818609E-02  0.8497834E-01
        2   -1    0    0  501    0  0.00000000000E+00  0.00000000000E+00  0.21049455776E+04  0.21049455776E+04  0.25500000920E-02 0. -1.
       -2   -1    0    0    0  501  0.00000000000E+00  0.00000000000E+00 -0.60134994592E+03  0.60134994592E+03  0.25500000920E-02 0.  1.
    10030    2    1    2    0    0  0.00000000000E+00  0.00000000000E+00  0.15035956316E+04  0.27062955235E+04  0.22501634689E+04 0.  0.
        3    1    3    3  502    0  0.21881837866E+03 -0.29370628626E+03 -0.52764213097E+03  0.64230140433E+03  0.10100000352E+00 0.  1.
       -3    1    3    3    0  502 -0.21881837866E+03  0.29370628626E+03  0.20312377626E+04  0.20639941192E+04  0.10100000352E+00 0. -1.
</event>
<event>
 5   0  0.6628798E-05  0.2202877E+04  0.7818609E-02  0.8517232E-01
       -2   -1    0    0    0  501  0.00000000000E+00  0.00000000000E+00  0.57640957965E+03  0.57640957966E+03  0.25500000920E-02 0. -1.
        2   -1    0    0  501    0  0.00000000000E+00  0.00000000000E+00 -0.21046953645E+04  0.21046953645E+04  0.25500000920E-02 0.  1.
    10030    2    1    2    0    0  0.00000000000E+00  0.00000000000E+00 -0.15282857848E+04  0.26811049442E+04  0.22028768194E+04 0.  0.
        4    1    3    3  502    0 -0.95105369800E+03 -0.54429627276E+03 -0.89969109811E+03  0.14178177788E+04  0.12699999809E+01 0. -1.
       -4    1    3    3    0  502  0.95105369800E+03  0.54429627276E+03 -0.62859468673E+03  0.12632871653E+04  0.12699999809E+01 0.  1.
</event>
<event>
 5   0  0.6306919E-05  0.2181200E+04  0.7818609E-02  0.8526294E-01
        2   -1    0    0  501    0  0.00000000000E+00  0.00000000000E+00  0.78363830060E+03  0.78363830061E+03  0.25500000920E-02 0.  1.
       -2   -1    0    0    0  501  0.00000000000E+00  0.00000000000E+00 -0.15178030227E+04  0.15178030227E+04  0.25500000920E-02 0. -1.
    10030    2    1    2    0    0  0.00000000000E+00  0.00000000000E+00 -0.73416472207E+03  0.23014413233E+04  0.21812002030E+04 0.  0.
        3    1    3    3  502    0 -0.10520508042E+03 -0.82851015039E+03  0.37294506935E+03  0.91465032291E+03  0.10100000352E+00 0.  1.
       -3    1    3    3    0  502  0.10520508042E+03  0.82851015039E+03 -0.11071097914E+04  0.13867910004E+04  0.10100000352E+00 0. -1.
</event>
<event>
 5   0  0.2929471E-05  0.2222008E+04  0.7818609E-02  0.8509323E-01
       -1   -1    0    0    0  501  0.00000000000E+00  0.00000000000E+00  0.64486211377E+03  0.64486211379E+03  0.50400001928E-02 0. -1.
        1   -1    0    0  501    0  0.00000000000E+00  0.00000000000E+00 -0.19140992504E+04  0.19140992504E+04  0.50400001928E-02 0.  1.
    10030    2    1    2    0    0  0.00000000000E+00  0.00000000000E+00 -0.12692371366E+04  0.25589613642E+04  0.22220081805E+04 0.  0.
        2    1    3    3  502    0 -0.98837087026E+03  0.36635460747E+03 -0.23033195446E+03  0.10789557381E+04  0.25500000920E-02 0. -1.
       -2    1    3    3    0  502  0.98837087026E+03 -0.36635460747E+03 -0.10389051821E+04  0.14800056260E+04  0.25500000920E-02 0.  1.
</event>
<event>
 5   0  0.2929471E-05  0.2194514E+04  0.7818609E-02  0.8520715E-01
       -1   -1    0    0    0  501  0.00000000000E+00  0.00000000000E+00  0.10808307856E+04  0.10808307856E+04  0.50400001928E-02 0.  1.
        1   -1    0    0  501    0  0.00000000000E+00  0.00000000000E+00 -0.11139330146E+04  0.11139330146E+04  0.50400001928E-02 0. -1.
    10030    2    1    2    0    0  0.00000000000E+00  0.00000000000E+00 -0.33102229035E+02  0.21947638002E+04  0.21945141560E+04 0.  0.
        2    1    3    3  502    0  0.97434195881E+02  0.73293364619E+03 -0.82737630862E+03  0.11096110617E+04  0.25500000920E-02 0. -1.
       -2    1    3    3    0  502 -0.97434195881E+02 -0.73293364619E+03  0.79427407959E+03  0.10851527384E+04  0.25500000920E-02 0.  1.
</event>
<event>
 5   0  0.2245375E-05  0.2211254E+04  0.7818609E-02  0.8513758E-01
       -3   -1    0    0    0  501  0.00000000000E+00  0.00000000000E+00  0.65264541016E+03  0.65264541798E+03  0.10100000352E+00 0.  1.
        3   -1    0    0  501    0  0.00000000000E+00  0.00000000000E+00 -0.18730096153E+04  0.18730096180E+04  0.10100000352E+00 0. -1.
    10030    2    1    2    0    0  0.00000000000E+00  0.00000000000E+00 -0.12203642051E+04  0.25256550360E+04  0.22112540713E+04 0.  0.
        1    1    3    3  502    0 -0.53537586952E+02 -0.50388276240E+03 -0.17325741780E+04  0.18051530111E+04  0.50400001928E-02 0. -1.
       -1    1    3    3    0  502  0.53537586952E+02  0.50388276240E+03  0.51220997286E+03  0.72050202483E+03  0.50400001928E-02 0.  1.
</event>
<event>
 5   0  0.2245375E-05  0.2193905E+04  0.7818609E-02  0.8520969E-01
        3   -1    0    0  501    0  0.00000000000E+00  0.00000000000E+00  0.12160000951E+04  0.12160000993E+04  0.10100000352E+00 0.  1.
       -3   -1    0    0    0  501  0.00000000000E+00  0.00000000000E+00 -0.98956001000E+03  0.98956001515E+03  0.10100000352E+00 0. -1.
    10030    2    1    2    0    0  0.00000000000E+00  0.00000000000E+00  0.22644008510E+03  0.22055601144E+04  0.21939052637E+04 0.  0.
        2    1    3    3  502    0 -0.89813372921E+03 -0.32839979991E+03 -0.42704950626E+03  0.10473117515E+04  0.25500000920E-02 0. -1.
       -2    1    3    3    0  502  0.89813372921E+03  0.32839979991E+03  0.65348959136E+03  0.11582483629E+04  0.25500000920E-02 0.  1.
</event>
<event>
 5   0  0.2753631E-05  0.2196375E+04  0.7818609E-02  0.8519938E-01
        1   -1    0    0  501    0  0.00000000000E+00  0.00000000000E+00  0.10173982305E+04  0.10173982305E+04  0.50400001928E-02 0.  1.
       -1   -1    0    0    0  501  0.00000000000E+00  0.00000000000E+00 -0.11853921453E+04  0.11853921453E+04  0.50400001928E-02 0. -1.
    10030    2    1    2    0    0  0.00000000000E+00  0.00000000000E+00 -0.16799391476E+03  0.22027903758E+04  0.21963750783E+04 0.  0.
        4    1    3    3  502    0  0.17570936702E+03  0.49171119201E+03 -0.10529246991E+04  0.11752896294E+04  0.12699999809E+01 0. -1.
       -4    1    3    3    0  502 -0.17570936702E+03 -0.49171119201E+03  0.88493078434E+03  0.10275007465E+04  0.12699999809E+01 0.  1.
</event>
<event>
 5   0  0.2908031E-05  0.2169846E+04  0.7818609E-02  0.8531085E-01
        1   -1    0    0  501    0  0.00000000000E+00  0.00000000000E+00  0.14820965396E+04  0.14820965396E+04  0.50400001928E-02 0. -1.
       -1   -1    0    0    0  501  0.00000000000E+00  0.00000000000E+00 -0.79418438540E+03  0.79418438541E+03  0.50400001928E-02 0.  1.
    10030    2    1    2    0    0  0.00000000000E+00  0.00000000000E+00  0.68791215417E+03  0.22762809250E+04  0.21698460124E+04 0.  0.
        1    1    3    3  502    0  0.81988962148E+03 -0.33410854895E+03 -0.31386752460E+03  0.93934037331E+03  0.50400001928E-02 0.  1.
       -1    1    3    3    0  502 -0.81988962148E+03  0.33410854895E+03  0.10017796788E+04  0.13369405517E+04  0.50400001928E-02 0. -1.
</event>
<event>
 5   0  0.6628798E-05  0.2238660E+04  0.7818609E-02  0.8502507E-01
       -2   -1    0    0    0  501  0.00000000000E+00  0.00000000000E+00  0.88848077655E+03  0.88848077655E+03  0.25500000920E-02 0. -1.
        2   -1    0    0  501    0  0.00000000000E+00  0.00000000000E+00 -0.14101594847E+04  0.14101594847E+04  0.25500000920E-02 0.  1.
    10030    2    1    2    0    0  0.00000000000E+00  0.00000000000E+00 -0.52167870815E+03  0.22986402612E+04  0.22386599510E+04 0.  0.
        4    1    3    3  502    0 -0.10724852398E+04  0.27513110702E+03 -0.92194228537E+02  0.11110459506E+04  0.12699999809E+01 0. -1.
       -4    1    3    3    0  502  0.10724852398E+04 -0.27513110702E+03 -0.42948447961E+03  0.11875943107E+04  0.12699999809E+01 0.  1.
</event>
<event>
 5   0  0.6445740E-05  0.2204656E+04  0.7818609E-02  0.8516493E-01
       -2   -1    0    0    0  501  0.00000000000E+00  0.00000000000E+00  0.90358893308E+03  0.90358893308E+03  0.25500000920E-02 0.  1.
        2   -1    0    0  501    0  0.00000000000E+00  0.00000000000E+00 -0.13447790625E+04  0.13447790625E+04  0.25500000920E-02 0. -1.
    10030    2    1    2    0    0  0.00000000000E+00  0.00000000000E+00 -0.44119012943E+03  0.22483679956E+04  0.22046564162E+04 0.  0.
        5    1    3    3  502    0  0.10802348645E+04 -0.14761882956E+03 -0.38631837566E+03  0.11567033581E+04  0.46999998093E+01 0. -1.
       -5    1    3    3    0  502 -0.10802348645E+04  0.14761882956E+03 -0.54871753773E+02  0.10916646375E+04  0.46999998093E+01 0.  1.
</event>
<event>
 5   0  0.2910318E-05  0.2200154E+04  0.7818609E-02  0.8518364E-01
       -1   -1    0    0    0  501  0.00000000000E+00  0.00000000000E+00  0.82282637618E+03  0.82282637620E+03  0.50400001928E-02 0.  1.
        1   -1    0    0  501    0  0.00000000000E+00  0.00000000000E+00 -0.14707473623E+04  0.14707473623E+04  0.50400001928E-02 0. -1.
    10030    2    1    2    0    0  0.00000000000E+00  0.00000000000E+00 -0.64792098612E+03  0.22935737385E+04  0.22001542877E+04 0.  0.
        5    1    3    3  502    0 -0.40751629156E+03  0.10121264608E+04 -0.47019555162E+03  0.11880974065E+04  0.46999998093E+01 0. -1.
       -5    1    3    3    0  502  0.40751629156E+03 -0.10121264608E+04 -0.17772543450E+03  0.11054763320E+04  0.46999998093E+01 0.  1.
</event>
<event>
 5   0  0.6293013E-05  0.2162167E+04  0.7818609E-02  0.8534342E-01
        2   -1    0    0  501    0  0.00000000000E+00  0.00000000000E+00  0.11769850005E+04  0.11769850005E+04  0.25500000920E-02 0.  1.
       -2   -1    0    0    0  501  0.00000000000E+00  0.00000000000E+00 -0.99299626166E+03  0.99299626166E+03  0.25500000920E-02 0. -1.
    10030    2    1    2    0    0  0.00000000000E+00  0.00000000000E+00  0.18398873889E+03  0.21699812622E+04  0.21621671587E+04 0.  0.
        1    1    3    3  502    0  0.10071719577E+03  0.89634598032E+03  0.69010254779E+03  0.11357031287E+04  0.50400001928E-02 0. -1.
       -1    1    3    3    0  502 -0.10071719577E+03 -0.89634598032E+03 -0.50611380890E+03  0.10342781336E+04  0.50400001928E-02 0.  1.
</event>
<event>
 5   0  0.6414768E-05  0.2209418E+04  0.7818609E-02  0.8514518E-01
       -2   -1    0    0    0  501  0.00000000000E+00  0.00000000000E+00  0.67289765604E+03  0.67289765604E+03  0.25500000920E-02 0.  1.
        2   -1    0    0  501    0  0.00000000000E+00  0.00000000000E+00 -0.18136223883E+04  0.18136223883E+04  0.25500000920E-02 0. -1.
    10030    2    1    2    0    0  0.00000000000E+00  0.00000000000E+00 -0.11407247323E+04  0.24865200443E+04  0.22094182529E+04 0.  0.
        2    1    3    3  502    0 -0.25691818014E+03  0.91951531172E+03  0.55097874400E+02  0.95632166950E+03  0.25500000920E-02 0.  1.
       -2    1    3    3    0  502  0.25691818014E+03 -0.91951531172E+03 -0.11958226067E+04  0.15301983748E+04  0.25500000920E-02 0. -1.
</event>
<event>
 5   0  0.6414768E-05  0.2200484E+04  0.7818609E-02  0.8518227E-01
        2   -1    0    0  501    0  0.00000000000E+00  0.00000000000E+00  0.10886237048E+04  0.10886237048E+04  0.25500000920E-02 0.  1.
       -2   -1    0    0    0  501  0.00000000000E+00  0.00000000000E+00 -0.11119845135E+04  0.11119845135E+04  0.25500000920E-02 0. -1.
    10030    2    1    2    0    0  0.00000000000E+00  0.00000000000E+00 -0.23360808681E+02  0.22006082182E+04  0.22004842201E+04 0.  0.
        2    1    3    3  502    0  0.23260078898E+03  0.43085544403E+03  0.97366348093E+03  0.10898440782E+04  0.25500000920E-02 0.  1.
       -2    1    3    3    0  502 -0.23260078898E+03 -0.43085544403E+03 -0.99702428962E+03  0.11107641400E+04  0.25500000920E-02 0. -1.
</event>
<event>
 5   0  0.2753631E-05  0.2222147E+04  0.7818609E-02  0.8509266E-01
       -1   -1    0    0    0  501  0.00000000000E+00  0.00000000000E+00  0.10614888918E+04  0.10614888918E+04  0.50400001928E-02 0.  1.
        1   -1    0    0  501    0  0.00000000000E+00  0.00000000000E+00 -0.11629745740E+04  0.11629745740E+04  0.50400001928E-02 0. -1.
    10030    2    1    2    0    0  0.00000000000E+00  0.00000000000E+00 -0.10148568219E+03  0.22244634657E+04  0.22221472423E+04 0.  0.
        4    1    3    3  502    0 -0.20739129496E+03  0.77641210529E+03 -0.81878181558E+03  0.11472716247E+04  0.12699999809E+01 0. -1.
       -4    1    3    3    0  502  0.20739129496E+03 -0.77641210529E+03  0.71729613339E+03  0.10771918410E+04  0.12699999809E+01 0.  1.
</event>
<event>
 5   0  0.2908031E-05  0.2171487E+04  0.7818609E-02  0.8530390E-01
        1   -1    0    0  501    0  0.00000000000E+00  0.00000000000E+00  0.15048858503E+04  0.15048858503E+04  0.50400001928E-02 0. -1.
       -1   -1    0    0    0  501  0.00000000000E+00  0.00000000000E+00 -0.78334112662E+03  0.78334112664E+03  0.50400001928E-02 0.  1.
    10030    2    1    2    0    0  0.00000000000E+00  0.00000000000E+00  0.72154472370E+03  0.22882269770E+04  0.21714870273E+04 0.  0.
        1    1    3    3  502    0 -0.20366682161E+03  0.82756757485E+03 -0.34806515725E+03  0.92059633873E+03  0.50400001928E-02 0.  1.
       -1    1    3    3    0  502  0.20366682161E+03 -0.82756757485E+03  0.10696098810E+04  0.13676306382E+04  0.50400001928E-02 0. -1.
</event>
<event>
 5   0  0.6445740E-05  0.2218979E+04  0.7818609E-02  0.8510570E-01
       -2   -1    0    0    0  501  0.00000000000E+00  0.00000000000E+00  0.88213645339E+03  0.88213645339E+03  0.25500000920E-02 0. -1.
        2   -1    0    0  501    0  0.00000000000E+00  0.00000000000E+00 -0.13954388093E+04  0.13954388093E+04  0.25500000920E-02 0.  1.
    10030    2    1    2    0    0  0.00000000000E+00  0.00000000000E+00 -0.51330235595E+03  0.22775752627E+04  0.22189794431E+04 0.  0.
        5    1    3    3  502    0 -0.59536330192E+03  0.92698969173E+03 -0.39117704111E+03  0.11691060334E+04  0.46999998093E+01 0.  1.
       -5    1    3    3    0  502  0.59536330192E+03 -0.92698969173E+03 -0.12212531484E+03  0.11084692293E+04  0.46999998093E+01 0. -1.
</event>
<event>
 5   0  0.2910318E-05  0.2249193E+04  0.7818609E-02  0.8498228E-01
       -1   -1    0    0    0  501  0.00000000000E+00  0.00000000000E+00  0.13268927034E+04  0.13268927034E+04  0.50400001928E-02 0.  1.
        1   -1    0    0  501    0  0.00000000000E+00  0.00000000000E+00 -0.95314169131E+03  0.95314169132E+03  0.50400001928E-02 0. -1.
    10030    2    1    2    0    0  0.00000000000E+00  0.00000000000E+00  0.37375101213E+03  0.22800343948E+04  0.22491925267E+04 0.  0.
        5    1    3    3  502    0 -0.75029801844E+03  0.69695906892E+03  0.65800167083E+03  0.12172458047E+04  0.46999998093E+01 0.  1.
       -5    1    3    3    0  502  0.75029801844E+03 -0.69695906892E+03 -0.28425065870E+03  0.10627885901E+04  0.46999998093E+01 0. -1.
</event>
<event>
 5   0  0.6414768E-05  0.2137245E+04  0.7818609E-02  0.8545012E-01
       -2   -1    0    0    0  501  0.00000000000E+00  0.00000000000E+00  0.15937005746E+04  0.15937005746E+04  0.25500000920E-02 0.  1.
        2   -1    0    0  501    0  0.00000000000E+00  0.00000000000E+00 -0.71654210135E+03  0.71654210136E+03  0.25500000920E-02 0. -1.
    10030    2    1    2    0    0  0.00000000000E+00  0.00000000000E+00  0.87715847322E+03  0.23102426759E+04  0.21372445425E+04 0.  0.
        2    1    3    3  502    0  0.66498770781E+03  0.65964720411E+03 -0.11746187134E+03  0.94400231814E+03  0.25500000920E-02 0. -1.
       -2    1    3    3    0  502 -0.66498770781E+03 -0.65964720411E+03  0.99462034456E+03  0.13662403578E+04  0.25500000920E-02 0.  1.
</event>
<event>
 5   0  0.6628798E-05  0.2174853E+04  0.7818609E-02  0.8528968E-01
        2   -1    0    0  501    0  0.00000000000E+00  0.00000000000E+00  0.23334921385E+04  0.23334921385E+04  0.25500000920E-02 0. -1.
       -2   -1    0    0    0  501  0.00000000000E+00  0.00000000000E+00 -0.50674980969E+03  0.50674980970E+03  0.25500000920E-02 0.  1.
    10030    2    1    2    0    0  0.00000000000E+00  0.00000000000E+00  0.18267423288E+04  0.28402419482E+04  0.21748532798E+04 0.  0.
        4    1    3    3  502    0  0.35031849246E+03 -0.33008223313E+03 -0.36005572322E+03  0.60109821453E+03  0.12699999809E+01 0.  1.
       -4    1    3    3    0  502 -0.35031849246E+03  0.33008223313E+03  0.21867980520E+04  0.22391437337E+04  0.12699999809E+01 0. -1.
</event>
<event>
 5   0  0.2753631E-05  0.2205958E+04  0.7818609E-02  0.8515952E-01
       -1   -1    0    0    0  501  0.00000000000E+00  0.00000000000E+00  0.10145972945E+04  0.10145972946E+04  0.50400001928E-02 0. -1.
        1   -1    0    0  501    0  0.00000000000E+00  0.00000000000E+00 -0.11990596938E+04  0.11990596938E+04  0.50400001928E-02 0.  1.
    10030    2    1    2    0    0  0.00000000000E+00  0.00000000000E+00 -0.18446239928E+03  0.22136569884E+04  0.22059580426E+04 0.  0.
        4    1    3    3  502    0 -0.10597111490E+04  0.34440249425E+02  0.21278234036E+03  0.10814119415E+04  0.12699999809E+01 0. -1.
       -4    1    3    3    0  502  0.10597111490E+04 -0.34440249425E+02 -0.39724473964E+03  0.11322450469E+04  0.12699999809E+01 0.  1.
</event>
<event>
 5   0  0.6445740E-05  0.2191862E+04  0.7818609E-02  0.8521823E-01
       -2   -1    0    0    0  501  0.00000000000E+00  0.00000000000E+00  0.15189171467E+04  0.15189171467E+04  0.25500000920E-02 0.  1.
        2   -1    0    0  501    0  0.00000000000E+00  0.00000000000E+00 -0.79073782616E+03  0.79073782616E+03  0.25500000920E-02 0. -1.
    10030    2    1    2    0    0  0.00000000000E+00  0.00000000000E+00  0.72817932058E+03  0.23096549729E+04  0.21918624434E+04 0.  0.
        5    1    3    3  502    0 -0.56322315951E+03 -0.17129126490E+02 -0.62638716773E+03  0.84255368273E+03  0.46999998093E+01 0. -1.
       -5    1    3    3    0  502  0.56322315951E+03  0.17129126490E+02  0.13545664883E+04  0.14671012902E+04  0.46999998093E+01 0.  1.
</event>
<event>
 5   0  0.6306919E-05  0.2202225E+04  0.7818609E-02  0.8517503E-01
       -2   -1    0    0    0  501  0.00000000000E+00  0.00000000000E+00  0.86840805479E+03  0.86840805480E+03  0.25500000920E-02 0.  1.
        2   -1    0    0  501    0  0.00000000000E+00  0.00000000000E+00 -0.13961742153E+04  0.13961742153E+04  0.25500000920E-02 0. -1.
    10030    2    1    2    0    0  0.00000000000E+00  0.00000000000E+00 -0.52776616053E+03  0.22645822701E+04  0.22022251788E+04 0.  0.
        3    1    3    3  502    0 -0.46634951808E+03  0.46503991313E+03  0.64354631000E+03  0.92081260696E+03  0.10100000352E+00 0.  1.
       -3    1    3    3    0  502  0.46634951808E+03 -0.46503991313E+03 -0.11713124705E+04  0.13437696632E+04  0.10100000352E+00 0. -1.
</event>
<event>
 5   0  0.6628798E-05  0.2194535E+04  0.7818609E-02  0.8520706E-01
        2   -1    0    0  501    0  0.00000000000E+00  0.00000000000E+00  0.19967423346E+04  0.19967423346E+04  0.25500000920E-02 0.  1.
       -2   -1    0    0    0  501  0.00000000000E+00  0.00000000000E+00 -0.60298017873E+03  0.60298017873E+03  0.25500000920E-02 0. -1.
    10030    2    1    2    0    0  0.00000000000E+00  0.00000000000E+00  0.13937621558E+04  0.25997225133E+04  0.21945350758E+04 0.  0.
        4    1    3    3  502    0  0.55141919361E+03 -0.94806833390E+03  0.65763149783E+03  0.12788187880E+04  0.12699999809E+01 0. -1.
       -4    1    3    3    0  502 -0.55141919361E+03  0.94806833390E+03  0.73613065800E+03  0.13209037252E+04  0.12699999809E+01 0.  1.
</event>
<event>
 5   0  0.2929471E-05  0.2159128E+04  0.7818609E-02  0.8535635E-01
       -1   -1    0    0    0  501  0.00000000000E+00  0.00000000000E+00  0.58726008165E+03  0.58726008167E+03  0.50400001928E-02 0.  1.
        1   -1    0    0  501    0  0.00000000000E+00  0.00000000000E+00 -0.19845695907E+04  0.19845695907E+04  0.50400001928E-02 0. -1.
    10030    2    1    2    0    0  0.00000000000E+00  0.00000000000E+00 -0.13973095090E+04  0.25718296724E+04  0.21591280647E+04 0.  0.
        2    1    3    3  502    0 -0.35290592409E+03  0.40497081004E+03 -0.18140850570E+04  0.18919430600E+04  0.25500000920E-02 0. -1.
       -2    1    3    3    0  502  0.35290592409E+03 -0.40497081004E+03  0.41677554799E+03  0.67988661234E+03  0.25500000920E-02 0.  1.
</event>
<event>
 5   0  0.6445740E-05  0.2176511E+04  0.7818609E-02  0.8528269E-01
       -2   -1    0    0    0  501  0.00000000000E+00  0.00000000000E+00  0.11537313207E+04  0.11537313207E+04  0.25500000920E-02 0. -1.
        2   -1    0    0  501    0  0.00000000000E+00  0.00000000000E+00 -0.10264955184E+04  0.10264955184E+04  0.25500000920E-02 0.  1.
    10030    2    1    2    0    0  0.00000000000E+00  0.00000000000E+00  0.12723580231E+03  0.21802268392E+04  0.21765109972E+04 0.  0.
        5    1    3    3  502    0 -0.87079427600E+03 -0.56395975945E+03 -0.26549233850E+03  0.10709068835E+04  0.46999998093E+01 0.  1.
       -5    1    3    3    0  502  0.87079427600E+03  0.56395975945E+03  0.39272814082E+03  0.11093199556E+04  0.46999998093E+01 0. -1.
</event>
<event>
 5   0  0.2820239E-05  0.2199665E+04  0.7818609E-02  0.8518568E-01
        1   -1    0    0  501    0  0.00000000000E+00  0.00000000000E+00  0.19106041815E+04  0.19106041815E+04  0.50400001928E-02 0.  1.
       -1   -1    0    0    0  501  0.00000000000E+00  0.00000000000E+00 -0.63311462156E+03  0.63311462158E+03  0.50400001928E-02 0. -1.
    10030    2    1    2    0    0  0.00000000000E+00  0.00000000000E+00  0.12774895600E+04  0.25437188031E+04  0.21996649230E+04 0.  0.
        3    1    3    3  502    0 -0.26814793493E+03  0.26409770414E+03 -0.55632767543E+03  0.67167805159E+03  0.10100000352E+00 0. -1.
       -3    1    3    3    0  502  0.26814793493E+03 -0.26409770414E+03  0.18338172354E+04  0.18720407515E+04  0.10100000352E+00 0.  1.
</event>
<event>
 5   0  0.6628798E-05  0.2281682E+04  0.7818609E-02  0.8485179E-01
        2   -1    0    0  501    0  0.00000000000E+00  0.00000000000E+00  0.10609144251E+04  0.10609144251E+04  0.25500000920E-02 0. -1.
       -2   -1    0    0    0  501  0.00000000000E+00  0.00000000000E+00 -0.12267887158E+04  0.12267887158E+04  0.25500000920E-02 0.  1.
    10030    2    1    2    0    0  0.00000000000E+00  0.00000000000E+00 -0.16587429074E+03  0.22877031409E+04  0.22816817001E+04 0.  0.
        4    1    3    3  502    0 -0.48193127398E+03  0.38682807686E+03  0.87856311851E+03  0.10741361552E+04  0.12699999809E+01 0. -1.
       -4    1    3    3    0  502  0.48193127398E+03 -0.38682807686E+03 -0.10444374092E+04  0.12135669856E+04  0.12699999809E+01 0.  1.
</event>
<event>
 5   0  0.2908031E-05  0.2122356E+04  0.7818609E-02  0.8551459E-01
        1   -1    0    0  501    0  0.00000000000E+00  0.00000000000E+00  0.22142629443E+04  0.22142629444E+04  0.50400001928E-02 0. -1.
       -1   -1    0    0    0  501  0.00000000000E+00  0.00000000000E+00 -0.50856597300E+03  0.50856597302E+03  0.50400001928E-02 0.  1.
    10030    2    1    2    0    0  0.00000000000E+00  0.00000000000E+00  0.17056969714E+04  0.27228289174E+04  0.21223560388E+04 0.  0.
        1    1    3    3  502    0  0.84804875287E+03  0.63562505409E+03  0.92185152722E+03  0.14046409274E+04  0.50400001928E-02 0. -1.
       -1    1    3    3    0  502 -0.84804875287E+03 -0.63562505409E+03  0.78384544413E+03  0.13181879900E+04  0.50400001928E-02 0.  1.
</event>
<event>
 5   0  0.6445740E-05  0.2190675E+04  0.7818609E-02  0.8522319E-01
        2   -1    0    0  501    0  0.00000000000E+00  0.00000000000E+00  0.10623857821E+04  0.10623857821E+04  0.25500000920E-02 0.  1.
       -2   -1    0    0    0  501  0.00000000000E+00  0.00000000000E+00 -0.11293115162E+04  0.11293115162E+04  0.25500000920E-02 0. -1.
    10030    2    1    2    0    0  0.00000000000E+00  0.00000000000E+00 -0.66925734115E+02  0.21916972983E+04  0.21906752369E+04 0.  0.
        5    1    3    3  502    0  0.68129016490E+03  0.72807384423E+03  0.42006374630E+03  0.10819997469E+04  0.46999998093E+01 0.  1.
       -5    1    3    3    0  502 -0.68129016490E+03 -0.72807384423E+03 -0.48698948042E+03  0.11096975513E+04  0.46999998093E+01 0. -1.
</event>
<event>
 5   0  0.2910318E-05  0.2182798E+04  0.7818609E-02  0.8525622E-01
        1   -1    0    0  501    0  0.00000000000E+00  0.00000000000E+00  0.11134757213E+04  0.11134757213E+04  0.50400001928E-02 0.  1.
       -1   -1    0    0    0  501  0.00000000000E+00  0.00000000000E+00 -0.10697597980E+04  0.10697597980E+04  0.50400001928E-02 0. -1.
    10030    2    1    2    0    0  0.00000000000E+00  0.00000000000E+00  0.43715923284E+02  0.21832355193E+04  0.21827978034E+04 0.  0.
        5    1    3    3  502    0 -0.44821544923E+03  0.49440488739E+03 -0.84191013784E+03  0.10743221360E+04  0.46999998093E+01 0. -1.
       -5    1    3    3    0  502  0.44821544923E+03 -0.49440488739E+03  0.88562606113E+03  0.11089133833E+04  0.46999998093E+01 0.  1.
</event>
<event>
 5   0  0.2910318E-05  0.2090371E+04  0.7818609E-02  0.8565497E-01
        1   -1    0    0  501    0  0.00000000000E+00  0.00000000000E+00  0.10980264387E+04  0.10980264387E+04  0.50400001928E-02 0. -1.
       -1   -1    0    0    0  501  0.00000000000E+00  0.00000000000E+00 -0.99488754320E+03  0.99488754322E+03  0.50400001928E-02 0.  1.
    10030    2    1    2    0    0  0.00000000000E+00  0.00000000000E+00  0.10313889553E+03  0.20929139820E+04  0.20903710924E+04 0.  0.
        5    1    3    3  502    0  0.46599868955E+02 -0.85836613415E+03  0.64678971159E+03  0.10757894725E+04  0.46999998093E+01 0. -1.
       -5    1    3    3    0  502 -0.46599868955E+02  0.85836613415E+03 -0.54365081605E+03  0.10171245095E+04  0.46999998093E+01 0.  1.
</event>
<event>
 5   0  0.6445740E-05  0.1958126E+04  0.7818609E-02  0.8626452E-01
       -2   -1    0    0    0  501  0.00000000000E+00  0.00000000000E+00  0.95036712220E+03  0.95036712221E+03  0.25500000920E-02 0.  1.
        2   -1    0    0  501    0  0.00000000000E+00  0.00000000000E+00 -0.10086250793E+04  0.10086250793E+04  0.25500000920E-02 0. -1.
    10030    2    1    2    0    0  0.00000000000E+00  0.00000000000E+00 -0.58257957052E+02  0.19589922015E+04  0.19581257508E+04 0.  0.
        5    1    3    3  502    0 -0.73125181388E+02  0.29225050156E+03  0.90283267173E+03  0.95178073680E+03  0.46999998093E+01 0.  1.
       -5    1    3    3    0  502  0.73125181388E+02 -0.29225050156E+03 -0.96109062878E+03  0.10072114647E+04  0.46999998093E+01 0. -1.
</event>
<event>
 5   0  0.2753631E-05  0.2214323E+04  0.7818609E-02  0.8512490E-01
       -1   -1    0    0    0  501  0.00000000000E+00  0.00000000000E+00  0.71747103799E+03  0.71747103801E+03  0.50400001928E-02 0.  1.
        1   -1    0    0  501    0  0.00000000000E+00  0.00000000000E+00 -0.17085099591E+04  0.17085099591E+04  0.50400001928E-02 0. -1.
    10030    2    1    2    0    0  0.00000000000E+00  0.00000000000E+00 -0.99103892109E+03  0.24259809971E+04  0.22143228435E+04 0.  0.
        4    1    3    3  502    0  0.52397561785E+03 -0.92748464376E+03 -0.16497446427E+03  0.10779593681E+04  0.12699999809E+01 0.  1.
       -4    1    3    3    0  502 -0.52397561785E+03  0.92748464376E+03 -0.82606445682E+03  0.13480216290E+04  0.12699999809E+01 0. -1.
</event>
<event>
 5   0  0.2753631E-05  0.2173167E+04  0.7818609E-02  0.8529680E-01
       -1   -1    0    0    0  501  0.00000000000E+00  0.00000000000E+00  0.29304060115E+04  0.29304060115E+04  0.50400001928E-02 0.  1.
        1   -1    0    0  501    0  0.00000000000E+00  0.00000000000E+00 -0.40290121206E+03  0.40290121209E+03  0.50400001928E-02 0. -1.
    10030    2    1    2    0    0  0.00000000000E+00  0.00000000000E+00  0.25275047994E+04  0.33333072236E+04  0.21731673971E+04 0.  0.
        4    1    3    3  502    0 -0.43979925385E+03 -0.13079695560E+03  0.27745191550E+04  0.28122036522E+04  0.12699999809E+01 0.  1.
       -4    1    3    3    0  502  0.43979925385E+03  0.13079695560E+03 -0.24701435559E+03  0.52110357133E+03  0.12699999809E+01 0. -1.
</event>
<event>
 5   0  0.2910318E-05  0.2202972E+04  0.7818609E-02  0.8517192E-01
       -1   -1    0    0    0  501  0.00000000000E+00  0.00000000000E+00  0.90453751171E+03  0.90453751172E+03  0.50400001928E-02 0. -1.
        1   -1    0    0  501    0  0.00000000000E+00  0.00000000000E+00 -0.13413168301E+04  0.13413168301E+04  0.50400001928E-02 0.  1.
    10030    2    1    2    0    0  0.00000000000E+00  0.00000000000E+00 -0.43677931835E+03  0.22458543418E+04  0.22029719816E+04 0.  0.
        5    1    3    3  502    0 -0.61243888824E+03  0.38502380618E+03 -0.10651751727E+04  0.12876121162E+04  0.46999998093E+01 0.  1.
       -5    1    3    3    0  502  0.61243888824E+03 -0.38502380618E+03  0.62839585437E+03  0.95824222561E+03  0.46999998093E+01 0. -1.
</event>
<event>
 5   0  0.2753631E-05  0.2168537E+04  0.7818609E-02  0.8531639E-01
        1   -1    0    0  501    0  0.00000000000E+00  0.00000000000E+00  0.16567177999E+04  0.16567177999E+04  0.50400001928E-02 0.  1.
       -1   -1    0    0    0  501  0.00000000000E+00  0.00000000000E+00 -0.70961888683E+03  0.70961888685E+03  0.50400001928E-02 0. -1.
    10030    2    1    2    0    0  0.00000000000E+00  0.00000000000E+00  0.94709891305E+03  0.23663366867E+04  0.21685370561E+04 0.  0.
        4    1    3    3  502    0 -0.87019042735E+03 -0.60048662069E+03  0.21115615839E+03  0.10781484581E+04  0.12699999809E+01 0. -1.
       -4    1    3    3    0  502  0.87019042735E+03  0.60048662069E+03  0.73594275466E+03  0.12881882287E+04  0.12699999809E+01 0.  1.
</event>
<event>
 5   0  0.2753631E-05  0.2212107E+04  0.7818609E-02  0.8513406E-01
        1   -1    0    0  501    0  0.00000000000E+00  0.00000000000E+00  0.13577469135E+04  0.13577469135E+04  0.50400001928E-02 0.  1.
       -1   -1    0    0    0  501  0.00000000000E+00  0.00000000000E+00 -0.90101783091E+03  0.90101783092E+03  0.50400001928E-02 0. -1.
    10030    2    1    2    0    0  0.00000000000E+00  0.00000000000E+00  0.45672908262E+03  0.22587647445E+04  0.22121068500E+04 0.  0.
        4    1    3    3  502    0 -0.98051234116E+03  0.50251087072E+03  0.32752588079E+03  0.11494330959E+04  0.12699999809E+01 0. -1.
       -4    1    3    3    0  502  0.98051234116E+03 -0.50251087072E+03  0.12920320183E+03  0.11093316486E+04  0.12699999809E+01 0.  1.
</event>
<event>
 5   0  0.2753631E-05  0.2123556E+04  0.7818609E-02  0.8550937E-01
       -1   -1    0    0    0  501  0.00000000000E+00  0.00000000000E+00  0.56659742263E+03  0.56659742265E+03  0.50400001928E-02 0. -1.
        1   -1    0    0  501    0  0.00000000000E+00  0.00000000000E+00 -0.19897245206E+04  0.19897245206E+04  0.50400001928E-02 0.  1.
    10030    2    1    2    0    0  0.00000000000E+00  0.00000000000E+00 -0.14231270979E+04  0.25563219432E+04  0.21235562485E+04 0.  0.
        4    1    3    3  502    0 -0.86984308845E+03 -0.46066572623E+03 -0.23226155257E+03  0.10113292993E+04  0.12699999809E+01 0. -1.
       -4    1    3    3    0  502  0.86984308845E+03  0.46066572623E+03 -0.11908655454E+04  0.15449926440E+04  0.12699999809E+01 0.  1.
</event>
<event>
 5   0  0.2908031E-05  0.2038118E+04  0.7818609E-02  0.8589004E-01
       -1   -1    0    0    0  501  0.00000000000E+00  0.00000000000E+00  0.13047458228E+04  0.13047458228E+04  0.50400001928E-02 0. -1.
        1   -1    0    0  501    0  0.00000000000E+00  0.00000000000E+00 -0.79592619135E+03  0.79592619137E+03  0.50400001928E-02 0.  1.
    10030    2    1    2    0    0  0.00000000000E+00  0.00000000000E+00  0.50881963144E+03  0.21006720142E+04  0.20381181256E+04 0.  0.
        1    1    3    3  502    0 -0.66088170269E+02  0.99048388443E+03  0.17002716012E+02  0.99283184072E+03  0.50400001928E-02 0.  1.
       -1    1    3    3    0  502  0.66088170269E+02 -0.99048388443E+03  0.49181691543E+03  0.11078401734E+04  0.50400001928E-02 0. -1.
</event>
<event>
 5   0  0.6414768E-05  0.2169584E+04  0.7818609E-02  0.8531196E-01
        2   -1    0    0  501    0  0.00000000000E+00  0.00000000000E+00  0.92883206875E+03  0.92883206876E+03  0.25500000920E-02 0.  1.
       -2   -1    0    0    0  501  0.00000000000E+00  0.00000000000E+00 -0.12669390844E+04  0.12669390844E+04  0.25500000920E-02 0. -1.
    10030    2    1    2    0    0  0.00000000000E+00  0.00000000000E+00 -0.33810701567E+03  0.21957711532E+04  0.21695839701E+04 0.  0.
        2    1    3    3  502    0 -0.54912253752E+03 -0.81743648133E+03  0.29145029332E+03  0.10269767455E+04  0.25500000920E-02 0. -1.
       -2    1    3    3    0  502  0.54912253752E+03  0.81743648133E+03 -0.62955730900E+03  0.11687944077E+04  0.25500000920E-02 0.  1.
</event>
<event>
 5   0  0.2908031E-05  0.1803972E+04  0.7818609E-02  0.8704190E-01
       -1   -1    0    0    0  501  0.00000000000E+00  0.00000000000E+00  0.58387395058E+03  0.58387395060E+03  0.50400001928E-02 0.  1.
        1   -1    0    0  501    0  0.00000000000E+00  0.00000000000E+00 -0.13934153337E+04  0.13934153338E+04  0.50400001928E-02 0. -1.
    10030    2    1    2    0    0  0.00000000000E+00  0.00000000000E+00 -0.80954138316E+03  0.19772892844E+04  0.18039721902E+04 0.  0.
        1    1    3    3  502    0 -0.65531914366E+03 -0.21182072499E+03 -0.10431982744E+04  0.12500295354E+04  0.50400001928E-02 0. -1.
       -1    1    3    3    0  502  0.65531914366E+03  0.21182072499E+03  0.23365689128E+03  0.72725974895E+03  0.50400001928E-02 0.  1.
</event>
<event>
 5   0  0.2753631E-05  0.2212597E+04  0.7818609E-02  0.8513203E-01
        1   -1    0    0  501    0  0.00000000000E+00  0.00000000000E+00  0.12122578430E+04  0.12122578430E+04  0.50400001928E-02 0.  1.
       -1   -1    0    0    0  501  0.00000000000E+00  0.00000000000E+00 -0.10096009135E+04  0.10096009135E+04  0.50400001928E-02 0. -1.
    10030    2    1    2    0    0  0.00000000000E+00  0.00000000000E+00  0.20265692953E+03  0.22218587565E+04  0.22125972301E+04 0.  0.
        4    1    3    3  502    0 -0.57754005942E+03  0.80176648058E+02  0.10454309435E+04  0.11970414720E+04  0.12699999809E+01 0.  1.
       -4    1    3    3    0  502  0.57754005942E+03 -0.80176648058E+02 -0.84277401398E+03  0.10248172845E+04  0.12699999809E+01 0. -1.
</event>
<event>
 5   0  0.6445740E-05  0.2227132E+04  0.7818609E-02  0.8507219E-01
       -2   -1    0    0    0  501  0.00000000000E+00  0.00000000000E+00  0.12043345649E+04  0.12043345649E+04  0.25500000920E-02 0.  1.
        2   -1    0    0  501    0  0.00000000000E+00  0.00000000000E+00 -0.10296389549E+04  0.10296389549E+04  0.25500000920E-02 0. -1.
    10030    2    1    2    0    0  0.00000000000E+00  0.00000000000E+00  0.17469561006E+03  0.22339735198E+04  0.22271324907E+04 0.  0.
        5    1    3    3  502    0  0.11827263274E+03  0.67408728459E+03 -0.79377265088E+03  0.10480835817E+04  0.46999998093E+01 0. -1.
       -5    1    3    3    0  502 -0.11827263274E+03 -0.67408728459E+03  0.96846826094E+03  0.11858899381E+04  0.46999998093E+01 0.  1.
</event>
<event>
 5   0  0.2245375E-05  0.2192490E+04  0.7818609E-02  0.8521560E-01
       -4   -1    0    0    0  501  0.00000000000E+00  0.00000000000E+00  0.11572649428E+04  0.11572656396E+04  0.12699999809E+01 0. -1.
        4   -1    0    0  501    0  0.00000000000E+00  0.00000000000E+00 -0.10384411324E+04  0.10384419090E+04  0.12699999809E+01 0.  1.
    10030    2    1    2    0    0  0.00000000000E+00  0.00000000000E+00  0.11882381034E+03  0.21957075487E+04  0.21924900322E+04 0.  0.
        1    1    3    3  502    0  0.51213157487E+03 -0.41662586168E+03 -0.81702797338E+03  0.10504239944E+04  0.50400001928E-02 0.  1.
       -1    1    3    3    0  502 -0.51213157487E+03  0.41662586168E+03  0.93585178373E+03  0.11452835543E+04  0.50400001928E-02 0. -1.
</event>
<event>
 5   0  0.2820239E-05  0.2197320E+04  0.7818609E-02  0.8519545E-01
        1   -1    0    0  501    0  0.00000000000E+00  0.00000000000E+00  0.19650915965E+04  0.19650915965E+04  0.50400001928E-02 0.  1.
       -1   -1    0    0    0  501  0.00000000000E+00  0.00000000000E+00 -0.61424786741E+03  0.61424786743E+03  0.50400001928E-02 0. -1.
    10030    2    1    2    0    0  0.00000000000E+00  0.00000000000E+00  0.13508437291E+04  0.25793394639E+04  0.21973195693E+04 0.  0.
        3    1    3    3  502    0 -0.45167766090E+03 -0.47764708965E+03 -0.35790183313E+03  0.74850062389E+03  0.10100000352E+00 0. -1.
       -3    1    3    3    0  502  0.45167766090E+03  0.47764708965E+03  0.17087455622E+04  0.18308388400E+04  0.10100000352E+00 0.  1.
</event>
<event>
 5   0  0.2753631E-05  0.2211806E+04  0.7818609E-02  0.8513530E-01
        1   -1    0    0  501    0  0.00000000000E+00  0.00000000000E+00  0.18706736355E+04  0.18706736355E+04  0.50400001928E-02 0.  1.
       -1   -1    0    0    0  501  0.00000000000E+00  0.00000000000E+00 -0.65378648145E+03  0.65378648147E+03  0.50400001928E-02 0. -1.
    10030    2    1    2    0    0  0.00000000000E+00  0.00000000000E+00  0.12168871541E+04  0.25244601170E+04  0.22118057185E+04 0.  0.
        4    1    3    3  502    0  0.16508762513E+03  0.75286887424E+03  0.15136153412E+04  0.16985577646E+04  0.12699999809E+01 0.  1.
       -4    1    3    3    0  502 -0.16508762513E+03 -0.75286887424E+03 -0.29672818710E+03  0.82590235239E+03  0.12699999809E+01 0. -1.
</event>
<event>
 5   0  0.2753631E-05  0.2203662E+04  0.7818609E-02  0.8516906E-01
        1   -1    0    0  501    0  0.00000000000E+00  0.00000000000E+00  0.16260732804E+04  0.16260732805E+04  0.50400001928E-02 0.  1.
       -1   -1    0    0    0  501  0.00000000000E+00  0.00000000000E+00 -0.74660307366E+03  0.74660307368E+03  0.50400001928E-02 0. -1.
    10030    2    1    2    0    0  0.00000000000E+00  0.00000000000E+00  0.87947020679E+03  0.23726763541E+04  0.22036617791E+04 0.  0.
        4    1    3    3  502    0 -0.74770394261E+03  0.24785803053E+03  0.12692356870E+04  0.14938057541E+04  0.12699999809E+01 0.  1.
       -4    1    3    3    0  502  0.74770394261E+03 -0.24785803053E+03 -0.38976548020E+03  0.87887060000E+03  0.12699999809E+01 0. -1.
</event>
<event>
 5   0  0.6628798E-05  0.2175414E+04  0.7818609E-02  0.8528732E-01
       -2   -1    0    0    0  501  0.00000000000E+00  0.00000000000E+00  0.17701008518E+04  0.17701008518E+04  0.25500000920E-02 0. -1.
        2   -1    0    0  501    0  0.00000000000E+00  0.00000000000E+00 -0.66838341569E+03  0.66838341570E+03  0.25500000920E-02 0.  1.
    10030    2    1    2    0    0  0.00000000000E+00  0.00000000000E+00  0.11017174361E+04  0.24384842675E+04  0.21754135730E+04 0.  0.
        4    1    3    3  502    0 -0.35195154754E+03  0.77617933674E+03 -0.20672695426E+03  0.87696174439E+03  0.12699999809E+01 0.  1.
       -4    1    3    3    0  502  0.35195154754E+03 -0.77617933674E+03  0.13084443903E+04  0.15615225231E+04  0.12699999809E+01 0. -1.
</event>
<event>
 5   0  0.2245375E-05  0.2210274E+04  0.7818609E-02  0.8514164E-01
        3   -1    0    0  501    0  0.00000000000E+00  0.00000000000E+00  0.24930376427E+04  0.24930376447E+04  0.10100000352E+00 0.  1.
       -3   -1    0    0    0  501  0.00000000000E+00  0.00000000000E+00 -0.48989539050E+03  0.48989540092E+03  0.10100000352E+00 0. -1.
    10030    2    1    2    0    0  0.00000000000E+00  0.00000000000E+00  0.20031422522E+04  0.29829330456E+04  0.22102738908E+04 0.  0.
        1    1    3    3  502    0  0.51919864798E+03 -0.76382549555E+03  0.18250950985E+03  0.94143844458E+03  0.50400001928E-02 0. -1.
       -1    1    3    3    0  502 -0.51919864798E+03  0.76382549555E+03  0.18206327423E+04  0.20414946011E+04  0.50400001928E-02 0.  1.
</event>
<event>
 5   0  0.2820239E-05  0.2244934E+04  0.7818609E-02  0.8499955E-01
       -1   -1    0    0    0  501  0.00000000000E+00  0.00000000000E+00  0.53183887846E+03  0.53183887849E+03  0.50400001928E-02 0. -1.
        1   -1    0    0  501    0  0.00000000000E+00  0.00000000000E+00 -0.23690101032E+04  0.23690101032E+04  0.50400001928E-02 0.  1.
    10030    2    1    2    0    0  0.00000000000E+00  0.00000000000E+00 -0.18371712247E+04  0.29008489817E+04  0.22449335637E+04 0.  0.
        3    1    3    3  502    0 -0.44252800180E+03  0.51152558725E+03  0.23893440165E+03  0.71734170190E+03  0.10100000352E+00 0. -1.
       -3    1    3    3    0  502  0.44252800180E+03 -0.51152558725E+03 -0.20761056264E+04  0.21835072798E+04  0.10100000352E+00 0.  1.
</event>
<event>
 5   0  0.6414768E-05  0.2211223E+04  0.7818609E-02  0.8513771E-01
       -2   -1    0    0    0  501  0.00000000000E+00  0.00000000000E+00  0.64581891859E+03  0.64581891859E+03  0.25500000920E-02 0. -1.
        2   -1    0    0  501    0  0.00000000000E+00  0.00000000000E+00 -0.18927540565E+04  0.18927540565E+04  0.25500000920E-02 0.  1.
    10030    2    1    2    0    0  0.00000000000E+00  0.00000000000E+00 -0.12469351379E+04  0.25385729751E+04  0.22112226282E+04 0.  0.
        2    1    3    3  502    0  0.18184894702E+03 -0.17037631633E+02 -0.18753144881E+04  0.18841878223E+04  0.25500000920E-02 0.  1.
       -2    1    3    3    0  502 -0.18184894702E+03  0.17037631633E+02  0.62837935020E+03  0.65438515279E+03  0.25500000920E-02 0. -1.
</event>
<event>
 5   0  0.6445740E-05  0.2155146E+04  0.7818609E-02  0.8537333E-01
       -2   -1    0    0    0  501  0.00000000000E+00  0.00000000000E+00  0.10195863082E+04  0.10195863082E+04  0.25500000920E-02 0.  1.
        2   -1    0    0  501    0  0.00000000000E+00  0.00000000000E+00 -0.11388578316E+04  0.11388578316E+04  0.25500000920E-02 0. -1.
    10030    2    1    2    0    0  0.00000000000E+00  0.00000000000E+00 -0.11927152345E+03  0.21584441398E+04  0.21551462615E+04 0.  0.
        5    1    3    3  502    0 -0.63508592463E+03  0.77499485971E+03 -0.45671515272E+03  0.11011639228E+04  0.46999998093E+01 0. -1.
       -5    1    3    3    0  502  0.63508592463E+03 -0.77499485971E+03  0.33744362928E+03  0.10572802170E+04  0.46999998093E+01 0.  1.
</event>
<event>
 5   0  0.6306919E-05  0.2159849E+04  0.7818609E-02  0.8535328E-01
       -2   -1    0    0    0  501  0.00000000000E+00  0.00000000000E+00  0.80527675109E+03  0.80527675110E+03  0.25500000920E-02 0. -1.
        2   -1    0    0  501    0  0.00000000000E+00  0.00000000000E+00 -0.14482433464E+04  0.14482433464E+04  0.25500000920E-02 0.  1.
    10030    2    1    2    0    0  0.00000000000E+00  0.00000000000E+00 -0.64296659528E+03  0.22535200975E+04  0.21598487880E+04 0.  0.
        3    1    3    3  502    0 -0.59445109668E+03 -0.66619415338E+03 -0.95532477079E+03  0.13076055155E+04  0.10100000352E+00 0.  1.
       -3    1    3    3    0  502  0.59445109668E+03  0.66619415338E+03  0.31235817550E+03  0.94591458195E+03  0.10100000352E+00 0. -1.
</event>
<event>
 5   0  0.2929471E-05  0.2215522E+04  0.7818609E-02  0.8511995E-01
        1   -1    0    0  501    0  0.00000000000E+00  0.00000000000E+00  0.16853457722E+04  0.16853457722E+04  0.50400001928E-02 0. -1.
       -1   -1    0    0    0  501  0.00000000000E+00  0.00000000000E+00 -0.72812038375E+03  0.72812038377E+03  0.50400001928E-02 0.  1.
    10030    2    1    2    0    0  0.00000000000E+00  0.00000000000E+00  0.95722538843E+03  0.24134661560E+04  0.22155221601E+04 0.  0.
        2    1    3    3  502    0  0.27562602997E+03 -0.41616711938E+03  0.15558908250E+04  0.16340015419E+04  0.25500000920E-02 0. -1.
       -2    1    3    3    0  502 -0.27562602997E+03  0.41616711938E+03 -0.59866543655E+03  0.77946461407E+03  0.25500000920E-02 0.  1.
</event>
<event>
 5   0  0.6306919E-05  0.2236978E+04  0.7818609E-02  0.8503193E-01
        2   -1    0    0  501    0  0.00000000000E+00  0.00000000000E+00  0.14997564542E+04  0.14997564542E+04  0.25500000920E-02 0.  1.
       -2   -1    0    0    0  501  0.00000000000E+00  0.00000000000E+00 -0.83414703148E+03  0.83414703148E+03  0.25500000920E-02 0. -1.
    10030    2    1    2    0    0  0.00000000000E+00  0.00000000000E+00  0.66560942270E+03  0.23339034857E+04  0.22369777775E+04 0.  0.
        3    1    3    3  502    0 -0.33290288274E+03 -0.89194161796E+03  0.94529581103E+03  0.13416289948E+04  0.10100000352E+00 0.  1.
       -3    1    3    3    0  502  0.33290288274E+03  0.89194161796E+03 -0.27968638832E+03  0.99227449085E+03  0.10100000352E+00 0. -1.
</event>
<event>
 5   0  0.2910318E-05  0.2171514E+04  0.7818609E-02  0.8530379E-01
       -1   -1    0    0    0  501  0.00000000000E+00  0.00000000000E+00  0.54167818095E+03  0.54167818097E+03  0.50400001928E-02 0. -1.
        1   -1    0    0  501    0  0.00000000000E+00  0.00000000000E+00 -0.21763251018E+04  0.21763251018E+04  0.50400001928E-02 0.  1.
    10030    2    1    2    0    0  0.00000000000E+00  0.00000000000E+00 -0.16346469209E+04  0.27180032828E+04  0.21715135941E+04 0.  0.
        5    1    3    3  502    0 -0.13064916919E+03 -0.20100011966E+03  0.50812532658E+03  0.56185735825E+03  0.46999998093E+01 0. -1.
       -5    1    3    3    0  502  0.13064916919E+03  0.20100011966E+03 -0.21427722475E+04  0.21561459246E+04  0.46999998093E+01 0.  1.
</event>
<event>
 5   0  0.2820239E-05  0.2191649E+04  0.7818609E-02  0.8521912E-01
       -1   -1    0    0    0  501  0.00000000000E+00  0.00000000000E+00  0.55862474257E+03  0.55862474259E+03  0.50400001928E-02 0.  1.
        1   -1    0    0  501    0  0.00000000000E+00  0.00000000000E+00 -0.21496207196E+04  0.21496207196E+04  0.50400001928E-02 0. -1.
    10030    2    1    2    0    0  0.00000000000E+00  0.00000000000E+00 -0.15909959770E+04  0.27082454622E+04  0.21916489875E+04 0.  0.
        3    1    3    3  502    0  0.48760404021E+03 -0.77965097035E+03 -0.59011994334E+02  0.92146392293E+03  0.10100000352E+00 0.  1.
       -3    1    3    3    0  502 -0.48760404021E+03  0.77965097035E+03 -0.15319839827E+04  0.17867815392E+04  0.10100000352E+00 0. -1.
</event>
<event>
 5   0  0.2753631E-05  0.2039515E+04  0.7818609E-02  0.8588366E-01
       -1   -1    0    0    0  501  0.00000000000E+00  0.00000000000E+00  0.19350269270E+04  0.19350269270E+04  0.50400001928E-02 0. -1.
        1   -1    0    0  501    0  0.00000000000E+00  0.00000000000E+00 -0.53741150365E+03  0.53741150368E+03  0.50400001928E-02 0.  1.
    10030    2    1    2    0    0  0.00000000000E+00  0.00000000000E+00  0.13976154233E+04  0.24724384307E+04  0.20395153645E+04 0.  0.
        4    1    3    3  502    0  0.30768764559E+03  0.87971493912E+03  0.19701961778E+03  0.95256936968E+03  0.12699999809E+01 0.  1.
       -4    1    3    3    0  502 -0.30768764559E+03 -0.87971493912E+03  0.12005958055E+04  0.15198690610E+04  0.12699999809E+01 0. -1.
</event>
<event>
 5   0  0.6628798E-05  0.2226421E+04  0.7818609E-02  0.8507511E-01
        2   -1    0    0  501    0  0.00000000000E+00  0.00000000000E+00  0.17686281908E+04  0.17686281908E+04  0.25500000920E-02 0. -1.
       -2   -1    0    0    0  501  0.00000000000E+00  0.00000000000E+00 -0.70067728737E+03  0.70067728738E+03  0.25500000920E-02 0.  1.
    10030    2    1    2    0    0  0.00000000000E+00  0.00000000000E+00  0.10679509034E+04  0.24693054782E+04  0.22264209872E+04 0.  0.
        4    1    3    3  502    0  0.49887175581E+03  0.58794347557E+03 -0.35654000233E+03  0.84951335797E+03  0.12699999809E+01 0.  1.
       -4    1    3    3    0  502 -0.49887175581E+03 -0.58794347557E+03  0.14244909058E+04  0.16197921202E+04  0.12699999809E+01 0. -1.
</event>
<event>
 5   0  0.2753631E-05  0.2188731E+04  0.7818609E-02  0.8523133E-01
        1   -1    0    0  501    0  0.00000000000E+00  0.00000000000E+00  0.87539501627E+03  0.87539501628E+03  0.50400001928E-02 0.  1.
       -1   -1    0    0    0  501  0.00000000000E+00  0.00000000000E+00 -0.13681085385E+04  0.13681085385E+04  0.50400001928E-02 0. -1.
    10030    2    1    2    0    0  0.00000000000E+00  0.00000000000E+00 -0.49271352220E+03  0.22435035548E+04  0.21887305876E+04 0.  0.
        4    1    3    3  502    0  0.21370870566E+03 -0.33107074651E+03 -0.12928638740E+04  0.13515834639E+04  0.12699999809E+01 0. -1.
       -4    1    3    3    0  502 -0.21370870566E+03  0.33107074651E+03  0.80015035185E+03  0.89192009089E+03  0.12699999809E+01 0.  1.
</event>
<event>
 5   0  0.6445740E-05  0.1927552E+04  0.7818609E-02  0.8641262E-01
       -2   -1    0    0    0  501  0.00000000000E+00  0.00000000000E+00  0.61603618711E+03  0.61603618711E+03  0.25500000920E-02 0.  1.
        2   -1    0    0  501    0  0.00000000000E+00  0.00000000000E+00 -0.15078081303E+04  0.15078081303E+04  0.25500000920E-02 0. -1.
    10030    2    1    2    0    0  0.00000000000E+00  0.00000000000E+00 -0.89177194316E+03  0.21238443174E+04  0.19275522006E+04 0.  0.
        5    1    3    3  502    0 -0.40513809588E+03  0.56737787905E+03 -0.11790722490E+04  0.13697766214E+04  0.46999998093E+01 0. -1.
       -5    1    3    3    0  502  0.40513809588E+03 -0.56737787905E+03  0.28730030579E+03  0.75406769595E+03  0.46999998093E+01 0.  1.
</event>
<event>
 5   0  0.2820239E-05  0.2220894E+04  0.7818609E-02  0.8509781E-01
       -1   -1    0    0    0  501  0.00000000000E+00  0.00000000000E+00  0.18922120237E+04  0.18922120237E+04  0.50400001928E-02 0.  1.
        1   -1    0    0  501    0  0.00000000000E+00  0.00000000000E+00 -0.65166733993E+03  0.65166733995E+03  0.50400001928E-02 0. -1.
    10030    2    1    2    0    0  0.00000000000E+00  0.00000000000E+00  0.12405446838E+04  0.25438793637E+04  0.22208942128E+04 0.  0.
        3    1    3    3  502    0  0.48069962796E+03  0.84270632029E+03  0.14572351768E+01  0.97016916479E+03  0.10100000352E+00 0. -1.
       -3    1    3    3    0  502 -0.48069962796E+03 -0.84270632029E+03  0.12390874486E+04  0.15737101989E+04  0.10100000352E+00 0.  1.
</event>
<event>
 5   0  0.6414768E-05  0.2231434E+04  0.7818609E-02  0.8505457E-01
       -2   -1    0    0    0  501  0.00000000000E+00  0.00000000000E+00  0.11584655521E+04  0.11584655521E+04  0.25500000920E-02 0.  1.
        2   -1    0    0  501    0  0.00000000000E+00  0.00000000000E+00 -0.10745462810E+04  0.10745462810E+04  0.25500000920E-02 0. -1.
    10030    2    1    2    0    0  0.00000000000E+00  0.00000000000E+00  0.83919271101E+02  0.22330118331E+04  0.22314343823E+04 0.  0.
        2    1    3    3  502    0  0.99917258395E+03 -0.21078259686E+03 -0.40785750824E+03  0.10996012471E+04  0.25500000920E-02 0. -1.
       -2    1    3    3    0  502 -0.99917258395E+03  0.21078259686E+03  0.49177677934E+03  0.11334105860E+04  0.25500000920E-02 0.  1.
</event>
<event>
 5   0  0.6628798E-05  0.2203445E+04  0.7818609E-02  0.8516996E-01
       -2   -1    0    0    0  501  0.00000000000E+00  0.00000000000E+00  0.10345365088E+04  0.10345365088E+04  0.25500000920E-02 0. -1.
        2   -1    0    0  501    0  0.00000000000E+00  0.00000000000E+00 -0.11732719615E+04  0.11732719615E+04  0.25500000920E-02 0.  1.
    10030    2    1    2    0    0  0.00000000000E+00  0.00000000000E+00 -0.13873545274E+03  0.22078084703E+04  0.22034451923E+04 0.  0.
        4    1    3    3  502    0 -0.95813432893E+03 -0.45697043712E+03  0.22608511779E+03  0.10853384108E+04  0.12699999809E+01 0.  1.
       -4    1    3    3    0  502  0.95813432893E+03  0.45697043712E+03 -0.36482057053E+03  0.11224700594E+04  0.12699999809E+01 0. -1.
</event>
<event>
 5   0  0.6414768E-05  0.2153019E+04  0.7818609E-02  0.8538241E-01
       -2   -1    0    0    0  501  0.00000000000E+00  0.00000000000E+00  0.12938292136E+04  0.12938292136E+04  0.25500000920E-02 0.  1.
        2   -1    0    0  501    0  0.00000000000E+00  0.00000000000E+00 -0.89569232476E+03  0.89569232476E+03  0.25500000920E-02 0. -1.
    10030    2    1    2    0    0  0.00000000000E+00  0.00000000000E+00  0.39813688884E+03  0.21895215384E+04  0.21530191789E+04 0.  0.
        2    1    3    3  502    0  0.36290658263E+03 -0.24690483745E+03 -0.80055635521E+03  0.91299160146E+03  0.25500000920E-02 0. -1.
       -2    1    3    3    0  502 -0.36290658263E+03  0.24690483745E+03  0.11986932440E+04  0.12765299369E+04  0.25500000920E-02 0.  1.
</event>
<event>
 5   0  0.2753631E-05  0.2213871E+04  0.7818609E-02  0.8512677E-01
        1   -1    0    0  501    0  0.00000000000E+00  0.00000000000E+00  0.12931186445E+04  0.12931186445E+04  0.50400001928E-02 0. -1.
       -1   -1    0    0    0  501  0.00000000000E+00  0.00000000000E+00 -0.94755891987E+03  0.94755891988E+03  0.50400001928E-02 0.  1.
    10030    2    1    2    0    0  0.00000000000E+00  0.00000000000E+00  0.34555972465E+03  0.22406775644E+04  0.22138709141E+04 0.  0.
        4    1    3    3  502    0 -0.56633082502E-02 -0.10136352103E+04  0.62296698891E+03  0.11897671292E+04  0.12699999809E+01 0. -1.
       -4    1    3    3    0  502  0.56633082502E-02  0.10136352103E+04 -0.27740726426E+03  0.10509104352E+04  0.12699999809E+01 0.  1.
</event>
<event>
 5   0  0.6445740E-05  0.2149240E+04  0.7818609E-02  0.8539857E-01
        2   -1    0    0  501    0  0.00000000000E+00  0.00000000000E+00  0.86528526977E+03  0.86528526977E+03  0.25500000920E-02 0.  1.
       -2   -1    0    0    0  501  0.00000000000E+00  0.00000000000E+00 -0.13345987548E+04  0.13345987548E+04  0.25500000920E-02 0. -1.
    10030    2    1    2    0    0  0.00000000000E+00  0.00000000000E+00 -0.46931348507E+03  0.21998840246E+04  0.21492404646E+04 0.  0.
        5    1    3    3  502    0 -0.82373998680E+03  0.68801491794E+03 -0.17977941590E+03  0.10882347272E+04  0.46999998093E+01 0.  1.
       -5    1    3    3    0  502  0.82373998680E+03 -0.68801491794E+03 -0.28953406918E+03  0.11116492974E+04  0.46999998093E+01 0. -1.
</event>
<event>
 5   0  0.2929471E-05  0.2150016E+04  0.7818609E-02  0.8539525E-01
        1   -1    0    0  501    0  0.00000000000E+00  0.00000000000E+00  0.83442166336E+03  0.83442166337E+03  0.50400001928E-02 0.  1.
       -1   -1    0    0    0  501  0.00000000000E+00  0.00000000000E+00 -0.13849622068E+04  0.13849622068E+04  0.50400001928E-02 0. -1.
    10030    2    1    2    0    0  0.00000000000E+00  0.00000000000E+00 -0.55054054340E+03  0.22193838701E+04  0.21500162495E+04 0.  0.
        2    1    3    3  502    0  0.57350449258E+03  0.90921029769E+03 -0.28401104300E+03  0.11118601715E+04  0.25500000920E-02 0.  1.
       -2    1    3    3    0  502 -0.57350449258E+03 -0.90921029769E+03 -0.26652950039E+03  0.11075236986E+04  0.25500000920E-02 0. -1.
</event>
<event>
 5   0  0.2908031E-05  0.2218002E+04  0.7818609E-02  0.8510973E-01
        1   -1    0    0  501    0  0.00000000000E+00  0.00000000000E+00  0.12451642184E+04  0.12451642184E+04  0.50400001928E-02 0. -1.
       -1   -1    0    0    0  501  0.00000000000E+00  0.00000000000E+00 -0.98772746394E+03  0.98772746395E+03  0.50400001928E-02 0.  1.
    10030    2    1    2    0    0  0.00000000000E+00  0.00000000000E+00  0.25743675443E+03  0.22328916823E+04  0.22180017093E+04 0.  0.
        1    1    3    3  502    0  0.95496759074E+03 -0.18004212766E+03  0.66663176845E+03  0.11784634834E+04  0.50400001928E-02 0. -1.
       -1    1    3    3    0  502 -0.95496759074E+03  0.18004212766E+03 -0.40919501401E+03  0.10544281989E+04  0.50400001928E-02 0.  1.
</event>
<event>
 5   0  0.2910318E-05  0.2307005E+04  0.7818609E-02  0.8475164E-01
       -1   -1    0    0    0  501  0.00000000000E+00  0.00000000000E+00  0.13481541771E+04  0.13481541771E+04  0.50400001928E-02 0.  1.
        1   -1    0    0  501    0  0.00000000000E+00  0.00000000000E+00 -0.98695502771E+03  0.98695502772E+03  0.50400001928E-02 0. -1.
    10030    2    1    2    0    0  0.00000000000E+00  0.00000000000E+00  0.36119914936E+03  0.23351092048E+04  0.23070045888E+04 0.  0.
        5    1    3    3  502    0  0.11171456424E+04  0.12905547966E+03 -0.79189883607E+02  0.11273698731E+04  0.46999998093E+01 0. -1.
       -5    1    3    3    0  502 -0.11171456424E+04 -0.12905547966E+03  0.44038903297E+03  0.12077393317E+04  0.46999998093E+01 0.  1.
</event>
<event>
 5   0  0.2753631E-05  0.2161958E+04  0.7818609E-02  0.8534431E-01
        1   -1    0    0  501    0  0.00000000000E+00  0.00000000000E+00  0.24912963485E+04  0.24912963485E+04  0.50400001928E-02 0.  1.
       -1   -1    0    0    0  501  0.00000000000E+00  0.00000000000E+00 -0.46903913224E+03  0.46903913227E+03  0.50400001928E-02 0. -1.
    10030    2    1    2    0    0  0.00000000000E+00  0.00000000000E+00  0.20222572163E+04  0.29603354808E+04  0.21619578881E+04 0.  0.
        4    1    3    3  502    0  0.90119985239E+02  0.33254388040E+03 -0.39184142614E+03  0.52177424262E+03  0.12699999809E+01 0. -1.
       -4    1    3    3    0  502 -0.90119985239E+02 -0.33254388040E+03  0.24140986424E+04  0.24385612382E+04  0.12699999809E+01 0.  1.
</event>
<event>
 5   0  0.6293013E-05  0.2186671E+04  0.7818609E-02  0.8523996E-01
       -2   -1    0    0    0  501  0.00000000000E+00  0.00000000000E+00  0.11502291349E+04  0.11502291349E+04  0.25500000920E-02 0.  1.
        2   -1    0    0  501    0  0.00000000000E+00  0.00000000000E+00 -0.10392562551E+04  0.10392562551E+04  0.25500000920E-02 0. -1.
    10030    2    1    2    0    0  0.00000000000E+00  0.00000000000E+00  0.11097287977E+03  0.21894853900E+04  0.21866712814E+04 0.  0.
        1    1    3    3  502    0 -0.51125315297E+03  0.85734883027E+03 -0.39113245503E+03  0.10721060585E+04  0.50400001928E-02 0. -1.
       -1    1    3    3    0  502  0.51125315297E+03 -0.85734883027E+03  0.50210533480E+03  0.11173793315E+04  0.50400001928E-02 0.  1.
</event>
<event>
 5   0  0.2908031E-05  0.2189913E+04  0.7818609E-02  0.8522638E-01
        1   -1    0    0  501    0  0.00000000000E+00  0.00000000000E+00  0.87819912483E+03  0.87819912484E+03  0.50400001928E-02 0.  1.
       -1   -1    0    0    0  501  0.00000000000E+00  0.00000000000E+00 -0.13652141092E+04  0.13652141092E+04  0.50400001928E-02 0. -1.
    10030    2    1    2    0    0  0.00000000000E+00  0.00000000000E+00 -0.48701498433E+03  0.22434132340E+04  0.21899130904E+04 0.  0.
        1    1    3    3  502    0  0.41005769634E+03  0.29710659270E+03  0.75103976944E+03  0.90580371883E+03  0.50400001928E-02 0.  1.
       -1    1    3    3    0  502 -0.41005769634E+03 -0.29710659270E+03 -0.12380547538E+04  0.13376095152E+04  0.50400001928E-02 0. -1.
</event>
<event>
 5   0  0.6306919E-05  0.2021059E+04  0.7818609E-02  0.8596838E-01
       -2   -1    0    0    0  501  0.00000000000E+00  0.00000000000E+00  0.12601046089E+04  0.12601046089E+04  0.25500000920E-02 0. -1.
        2   -1    0    0  501    0  0.00000000000E+00  0.00000000000E+00 -0.81038508333E+03  0.81038508334E+03  0.25500000920E-02 0.  1.
    10030    2    1    2    0    0  0.00000000000E+00  0.00000000000E+00  0.44971952555E+03  0.20704896922E+04  0.20210591070E+04 0.  0.
        3    1    3    3  502    0 -0.32318249050E+03  0.79561380551E+03 -0.32082314254E+03  0.91672010378E+03  0.10100000352E+00 0.  1.
       -3    1    3    3    0  502  0.32318249050E+03 -0.79561380551E+03  0.77054266808E+03  0.11537695884E+04  0.10100000352E+00 0. -1.
</event>
<event>
 5   0  0.6293013E-05  0.2204585E+04  0.7818609E-02  0.8516522E-01
       -2   -1    0    0    0  501  0.00000000000E+00  0.00000000000E+00  0.98431948649E+03  0.98431948650E+03  0.25500000920E-02 0.  1.
        2   -1    0    0  501    0  0.00000000000E+00  0.00000000000E+00 -0.12344052483E+04  0.12344052483E+04  0.25500000920E-02 0. -1.
    10030    2    1    2    0    0  0.00000000000E+00  0.00000000000E+00 -0.25008576183E+03  0.22187247348E+04  0.22045853489E+04 0.  0.
        1    1    3    3  502    0  0.38524275631E+03 -0.10126360043E+04 -0.32933612547E+03  0.11323894833E+04  0.50400001928E-02 0. -1.
       -1    1    3    3    0  502 -0.38524275631E+03  0.10126360043E+04  0.79250363646E+02  0.10863352515E+04  0.50400001928E-02 0.  1.
</event>
<event>
 5   0  0.6293013E-05  0.2255654E+04  0.7818609E-02  0.8495614E-01
       -2   -1    0    0    0  501  0.00000000000E+00  0.00000000000E+00  0.12713119384E+04  0.12713119384E+04  0.25500000920E-02 0.  1.
        2   -1    0    0  501    0  0.00000000000E+00  0.00000000000E+00 -0.10005366273E+04  0.10005366273E+04  0.25500000920E-02 0. -1.
    10030    2    1    2    0    0  0.00000000000E+00  0.00000000000E+00  0.27077531115E+03  0.22718485657E+04  0.22556543698E+04 0.  0.
        1    1    3    3  502    0  0.99986192413E+03  0.19417107233E+03 -0.35241156536E+03  0.10777848506E+04  0.50400001928E-02 0. -1.
       -1    1    3    3    0  502 -0.99986192413E+03 -0.19417107233E+03  0.62318687651E+03  0.11940637151E+04  0.50400001928E-02 0.  1.
</event>
<event>
 5   0  0.6445740E-05  0.2190078E+04  0.7818609E-02  0.8522569E-01
        2   -1    0    0  501    0  0.00000000000E+00  0.00000000000E+00  0.30887471446E+04  0.30887471446E+04  0.25500000920E-02 0.  1.
       -2   -1    0    0    0  501  0.00000000000E+00  0.00000000000E+00 -0.38821889114E+03  0.38821889115E+03  0.25500000920E-02 0. -1.
    10030    2    1    2    0    0  0.00000000000E+00  0.00000000000E+00  0.27005282534E+04  0.34769660357E+04  0.21900776164E+04 0.  0.
        5    1    3    3  502    0  0.33535262077E+03 -0.65462390567E+02  0.30019331980E+04  0.30213195330E+04  0.46999998093E+01 0.  1.
       -5    1    3    3    0  502 -0.33535262077E+03  0.65462390567E+02 -0.30140494461E+03  0.45564650275E+03  0.46999998093E+01 0. -1.
</event>
<event>
 5   0  0.2910318E-05  0.2180817E+04  0.7818609E-02  0.8526455E-01
       -1   -1    0    0    0  501  0.00000000000E+00  0.00000000000E+00  0.73264074334E+03  0.73264074336E+03  0.50400001928E-02 0. -1.
        1   -1    0    0  501    0  0.00000000000E+00  0.00000000000E+00 -0.16228836927E+04  0.16228836927E+04  0.50400001928E-02 0.  1.
    10030    2    1    2    0    0  0.00000000000E+00  0.00000000000E+00 -0.89024294934E+03  0.23555244361E+04  0.21808170166E+04 0.  0.
        5    1    3    3  502    0 -0.13693193184E+03  0.43693765034E+03  0.62375396441E+03  0.77379322972E+03  0.46999998093E+01 0. -1.
       -5    1    3    3    0  502  0.13693193184E+03 -0.43693765034E+03 -0.15139969138E+04  0.15817312063E+04  0.46999998093E+01 0.  1.
</event>
<event>
 5   0  0.6306919E-05  0.2206518E+04  0.7818609E-02  0.8515720E-01
       -2   -1    0    0    0  501  0.00000000000E+00  0.00000000000E+00  0.69419819007E+03  0.69419819008E+03  0.25500000920E-02 0. -1.
        2   -1    0    0  501    0  0.00000000000E+00  0.00000000000E+00 -0.17533620403E+04  0.17533620403E+04  0.25500000920E-02 0.  1.
    10030    2    1    2    0    0  0.00000000000E+00  0.00000000000E+00 -0.10591638502E+04  0.24475602304E+04  0.22065183026E+04 0.  0.
        3    1    3    3  502    0 -0.34990984498E+02 -0.97799113695E+03 -0.10946306843E+04  0.14683008473E+04  0.10100000352E+00 0.  1.
       -3    1    3    3    0  502  0.34990984498E+02  0.97799113695E+03  0.35466834013E+02  0.97925938314E+03  0.10100000352E+00 0. -1.
</event>
<event>
 5   0  0.2929471E-05  0.2211096E+04  0.7818609E-02  0.8513824E-01
        1   -1    0    0  501    0  0.00000000000E+00  0.00000000000E+00  0.13168389695E+04  0.13168389695E+04  0.50400001928E-02 0. -1.
       -1   -1    0    0    0  501  0.00000000000E+00  0.00000000000E+00 -0.92815912758E+03  0.92815912759E+03  0.50400001928E-02 0.  1.
    10030    2    1    2    0    0  0.00000000000E+00  0.00000000000E+00  0.38867984189E+03  0.22449980971E+04  0.22110957547E+04 0.  0.
        2    1    3    3  502    0  0.47356641048E+03 -0.77708994538E+03  0.83174107505E+03  0.12328532533E+04  0.25500000920E-02 0. -1.
       -2    1    3    3    0  502 -0.47356641048E+03  0.77708994538E+03 -0.44306123315E+03  0.10121448437E+04  0.25500000920E-02 0.  1.
</event>
<event>
 5   0  0.2908031E-05  0.2233942E+04  0.7818609E-02  0.8504432E-01
       -1   -1    0    0    0  501  0.00000000000E+00  0.00000000000E+00  0.86149013610E+03  0.86149013611E+03  0.50400001928E-02 0. -1.
        1   -1    0    0  501    0  0.00000000000E+00  0.00000000000E+00 -0.14482167707E+04  0.14482167707E+04  0.50400001928E-02 0.  1.
    10030    2    1    2    0    0  0.00000000000E+00  0.00000000000E+00 -0.58672663461E+03  0.23097069068E+04  0.22339422221E+04 0.  0.
        1    1    3    3  502    0  0.24875750855E+03  0.90142443286E+03  0.33823802473E+03  0.99441000982E+03  0.50400001928E-02 0. -1.
       -1    1    3    3    0  502 -0.24875750855E+03 -0.90142443286E+03 -0.92496465934E+03  0.13152968970E+04  0.50400001928E-02 0.  1.
</event>
<event>
 5   0  0.2820239E-05  0.2192594E+04  0.7818609E-02  0.8521517E-01
       -1   -1    0    0    0  501  0.00000000000E+00  0.00000000000E+00  0.11944306630E+04  0.11944306630E+04  0.50400001928E-02 0.  1.
        1   -1    0    0  501    0  0.00000000000E+00  0.00000000000E+00 -0.10062259111E+04  0.10062259112E+04  0.50400001928E-02 0. -1.
    10030    2    1    2    0    0  0.00000000000E+00  0.00000000000E+00  0.18820475184E+03  0.22006565742E+04  0.21925939726E+04 0.  0.
        3    1    3    3  502    0 -0.47759297168E+03  0.24686012305E+03  0.10530381279E+04  0.11823384777E+04  0.10100000352E+00 0.  1.
       -3    1    3    3    0  502  0.47759297168E+03 -0.24686012305E+03 -0.86483337605E+03  0.10183180964E+04  0.10100000352E+00 0. -1.
</event>
<event>
 5   0  0.2820239E-05  0.2173895E+04  0.7818609E-02  0.8529373E-01
       -1   -1    0    0    0  501  0.00000000000E+00  0.00000000000E+00  0.77281171706E+03  0.77281171708E+03  0.50400001928E-02 0.  1.
        1   -1    0    0  501    0  0.00000000000E+00  0.00000000000E+00 -0.15287741604E+04  0.15287741604E+04  0.50400001928E-02 0. -1.
    10030    2    1    2    0    0  0.00000000000E+00  0.00000000000E+00 -0.75596244330E+03  0.23015858774E+04  0.21738947388E+04 0.  0.
        3    1    3    3  502    0 -0.46051789144E+03 -0.95533565839E+03 -0.63011133498E+03  0.12336057933E+04  0.10100000352E+00 0. -1.
       -3    1    3    3    0  502  0.46051789144E+03  0.95533565839E+03 -0.12585110831E+03  0.10679800842E+04  0.10100000352E+00 0.  1.
</event>
<event>
 5   0  0.6414768E-05  0.2225837E+04  0.7818609E-02  0.8507750E-01
       -2   -1    0    0    0  501  0.00000000000E+00  0.00000000000E+00  0.15166048390E+04  0.15166048390E+04  0.25500000920E-02 0.  1.
        2   -1    0    0  501    0  0.00000000000E+00  0.00000000000E+00 -0.81668471798E+03  0.81668471799E+03  0.25500000920E-02 0. -1.
    10030    2    1    2    0    0  0.00000000000E+00  0.00000000000E+00  0.69992012100E+03  0.23332895570E+04  0.22258373662E+04 0.  0.
        2    1    3    3  502    0 -0.22674130345E+03 -0.10823377122E+04  0.21852187538E+03  0.11272170829E+04  0.25500000920E-02 0. -1.
       -2    1    3    3    0  502  0.22674130345E+03  0.10823377122E+04  0.48139824562E+03  0.12060724741E+04  0.25500000920E-02 0.  1.
</event>
<event>
 5   0  0.2910318E-05  0.2196683E+04  0.7818609E-02  0.8519810E-01
        1   -1    0    0  501    0  0.00000000000E+00  0.00000000000E+00  0.19053318894E+04  0.19053318894E+04  0.50400001928E-02 0.  1.
       -1   -1    0    0    0  501  0.00000000000E+00  0.00000000000E+00 -0.63314628032E+03  0.63314628034E+03  0.50400001928E-02 0. -1.
    10030    2    1    2    0    0  0.00000000000E+00  0.00000000000E+00  0.12721856091E+04  0.25384781698E+04  0.21966827705E+04 0.  0.
        5    1    3    3  502    0  0.29050248347E+03  0.10428864796E+04  0.42198666778E+03  0.11619374940E+04  0.46999998093E+01 0.  1.
       -5    1    3    3    0  502 -0.29050248347E+03 -0.10428864796E+04  0.85019894131E+03  0.13765406758E+04  0.46999998093E+01 0. -1.
</event>
<event>
 5   0  0.6445740E-05  0.2200768E+04  0.7818609E-02  0.8518109E-01
       -2   -1    0    0    0  501  0.00000000000E+00  0.00000000000E+00  0.43285560522E+03  0.43285560522E+03  0.25500000920E-02 0.  1.
        2   -1    0    0  501    0  0.00000000000E+00  0.00000000000E+00 -0.27973405411E+04  0.27973405411E+04  0.25500000920E-02 0. -1.
    10030    2    1    2    0    0  0.00000000000E+00  0.00000000000E+00 -0.23644849359E+04  0.32301961463E+04  0.22007676233E+04 0.  0.
        5    1    3    3  502    0 -0.88757150208E+03 -0.39127499650E+03 -0.19448320379E+04  0.21733092370E+04  0.46999998093E+01 0. -1.
       -5    1    3    3    0  502  0.88757150208E+03  0.39127499650E+03 -0.41965289796E+03  0.10568869093E+04  0.46999998093E+01 0.  1.
</event>
<event>
 5   0  0.2929471E-05  0.2187711E+04  0.7818609E-02  0.8523561E-01
       -1   -1    0    0    0  501  0.00000000000E+00  0.00000000000E+00  0.14241635124E+04  0.14241635124E+04  0.50400001928E-02 0. -1.
        1   -1    0    0  501    0  0.00000000000E+00  0.00000000000E+00 -0.84015597902E+03  0.84015597903E+03  0.50400001928E-02 0.  1.
    10030    2    1    2    0    0  0.00000000000E+00  0.00000000000E+00  0.58400753339E+03  0.22643194914E+04  0.21877106665E+04 0.  0.
        2    1    3    3  502    0  0.49615673379E+03 -0.62723042924E+03 -0.48040664101E+03  0.93294161477E+03  0.25500000920E-02 0.  1.
       -2    1    3    3    0  502 -0.49615673379E+03  0.62723042924E+03  0.10644141744E+04  0.13313778767E+04  0.25500000920E-02 0. -1.
</event>
<event>
 5   0  0.2245375E-05  0.2189306E+04  0.7818609E-02  0.8522892E-01
        4   -1    0    0  501    0  0.00000000000E+00  0.00000000000E+00  0.86879684080E+03  0.86879776904E+03  0.12699999809E+01 0. -1.
       -4   -1    0    0    0  501  0.00000000000E+00  0.00000000000E+00 -0.13792215272E+04  0.13792221119E+04  0.12699999809E+01 0.  1.
    10030    2    1    2    0    0  0.00000000000E+00  0.00000000000E+00 -0.51042468638E+03  0.22480198809E+04  0.21893058317E+04 0.  0.
        5    1    3    3  502    0 -0.11175135809E+03  0.35447958691E+03 -0.13124360174E+04  0.13640581122E+04  0.46999998093E+01 0.  1.
       -5    1    3    3    0  502  0.11175135809E+03 -0.35447958691E+03  0.80201133102E+03  0.88396176877E+03  0.46999998093E+01 0. -1.
</event>
<event>
 5   0  0.2908031E-05  0.2188186E+04  0.7818609E-02  0.8523361E-01
        1   -1    0    0  501    0  0.00000000000E+00  0.00000000000E+00  0.86304788865E+03  0.86304788866E+03  0.50400001928E-02 0.  1.
       -1   -1    0    0    0  501  0.00000000000E+00  0.00000000000E+00 -0.13869910859E+04  0.13869910859E+04  0.50400001928E-02 0. -1.
    10030    2    1    2    0    0  0.00000000000E+00  0.00000000000E+00 -0.52394319723E+03  0.22500389746E+04  0.21881862154E+04 0.  0.
        1    1    3    3  502    0 -0.43634478102E+03 -0.26406302784E+03 -0.12572751475E+04  0.13567854831E+04  0.50400001928E-02 0. -1.
       -1    1    3    3    0  502  0.43634478102E+03  0.26406302784E+03  0.73333195030E+03  0.89325349143E+03  0.50400001928E-02 0.  1.
</event>
<event>
 5   0  0.2929471E-05  0.2192442E+04  0.7818609E-02  0.8521581E-01
       -1   -1    0    0    0  501  0.00000000000E+00  0.00000000000E+00  0.58656661664E+03  0.58656661666E+03  0.50400001928E-02 0. -1.
        1   -1    0    0  501    0  0.00000000000E+00  0.00000000000E+00 -0.20487018697E+04  0.20487018697E+04  0.50400001928E-02 0.  1.
    10030    2    1    2    0    0  0.00000000000E+00  0.00000000000E+00 -0.14621352531E+04  0.26352684864E+04  0.21924416747E+04 0.  0.
        2    1    3    3  502    0 -0.10179229758E+04  0.23264885815E+03 -0.32987408440E+03  0.10950386237E+04  0.25500000920E-02 0. -1.
       -2    1    3    3    0  502  0.10179229758E+04 -0.23264885815E+03 -0.11322611687E+04  0.15402298627E+04  0.25500000920E-02 0.  1.
</event>
<event>
 5   0  0.6293013E-05  0.2213818E+04  0.7818609E-02  0.8512699E-01
        2   -1    0    0  501    0  0.00000000000E+00  0.00000000000E+00  0.22168611928E+04  0.22168611928E+04  0.25500000920E-02 0. -1.
       -2   -1    0    0    0  501  0.00000000000E+00  0.00000000000E+00 -0.55269457272E+03  0.55269457273E+03  0.25500000920E-02 0.  1.
    10030    2    1    2    0    0  0.00000000000E+00  0.00000000000E+00  0.16641666201E+04  0.27695557656E+04  0.22138176526E+04 0.  0.
        1    1    3    3  502    0 -0.86582998390E+03  0.37580563883E+03  0.15554735428E+04  0.18194475484E+04  0.50400001928E-02 0. -1.
       -1    1    3    3    0  502  0.86582998390E+03 -0.37580563883E+03  0.10869307734E+03  0.95010821714E+03  0.50400001928E-02 0.  1.
</event>
<event>
 5   0  0.6293013E-05  0.2173951E+04  0.7818609E-02  0.8529349E-01
       -2   -1    0    0    0  501  0.00000000000E+00  0.00000000000E+00  0.10740319525E+04  0.10740319525E+04  0.25500000920E-02 0.  1.
        2   -1    0    0  501    0  0.00000000000E+00  0.00000000000E+00 -0.11000753201E+04  0.11000753201E+04  0.25500000920E-02 0. -1.
    10030    2    1    2    0    0  0.00000000000E+00  0.00000000000E+00 -0.26043367578E+02  0.21741072726E+04  0.21739512818E+04 0.  0.
        1    1    3    3  502    0 -0.60624107408E+03  0.88455379653E+03 -0.19066433994E+03  0.10891815962E+04  0.50400001928E-02 0. -1.
       -1    1    3    3    0  502  0.60624107408E+03 -0.88455379653E+03  0.16462097236E+03  0.10849256765E+04  0.50400001928E-02 0.  1.
</event>
<event>
 5   0  0.2245375E-05  0.2247975E+04  0.7818609E-02  0.8498721E-01
       -3   -1    0    0    0  501  0.00000000000E+00  0.00000000000E+00  0.11913984269E+04  0.11913984312E+04  0.10100000352E+00 0.  1.
        3   -1    0    0  501    0  0.00000000000E+00  0.00000000000E+00 -0.10603911416E+04  0.10603911464E+04  0.10100000352E+00 0. -1.
    10030    2    1    2    0    0  0.00000000000E+00  0.00000000000E+00  0.13100728533E+03  0.22517895776E+04  0.22479753987E+04 0.  0.
        1    1    3    3  502    0 -0.42555214744E+03  0.81874663706E+03  0.70839292547E+03  0.11632975642E+04  0.50400001928E-02 0.  1.
       -1    1    3    3    0  502  0.42555214744E+03 -0.81874663706E+03 -0.57738564014E+03  0.10884920135E+04  0.50400001928E-02 0. -1.
</event>
<event>
 5   0  0.2753631E-05  0.2215510E+04  0.7818609E-02  0.8512000E-01
        1   -1    0    0  501    0  0.00000000000E+00  0.00000000000E+00  0.19578852500E+04  0.19578852500E+04  0.50400001928E-02 0.  1.
       -1   -1    0    0    0  501  0.00000000000E+00  0.00000000000E+00 -0.62675869507E+03  0.62675869509E+03  0.50400001928E-02 0. -1.
    10030    2    1    2    0    0  0.00000000000E+00  0.00000000000E+00  0.13311265549E+04  0.25846439451E+04  0.22155104192E+04 0.  0.
        4    1    3    3  502    0  0.54746852695E+03  0.46602199560E+03 -0.31759603460E+03  0.78598164258E+03  0.12699999809E+01 0. -1.
       -4    1    3    3    0  502 -0.54746852695E+03 -0.46602199560E+03  0.16487225895E+04  0.17986623025E+04  0.12699999809E+01 0.  1.
</event>
<event>
 5   0  0.6445740E-05  0.2172626E+04  0.7818609E-02  0.8529909E-01
        2   -1    0    0  501    0  0.00000000000E+00  0.00000000000E+00  0.17860192409E+04  0.17860192409E+04  0.25500000920E-02 0.  1.
       -2   -1    0    0    0  501  0.00000000000E+00  0.00000000000E+00 -0.66072992905E+03  0.66072992905E+03  0.25500000920E-02 0. -1.
    10030    2    1    2    0    0  0.00000000000E+00  0.00000000000E+00  0.11252893119E+04  0.24467491700E+04  0.21726263980E+04 0.  0.
        5    1    3    3  502    0 -0.56177080647E+03  0.28432674352E+03  0.15595613188E+04  0.16818685243E+04  0.46999998093E+01 0.  1.
       -5    1    3    3    0  502  0.56177080647E+03 -0.28432674352E+03 -0.43427200691E+03  0.76488064564E+03  0.46999998093E+01 0. -1.
</event>
<event>
 5   0  0.2910318E-05  0.2207699E+04  0.7818609E-02  0.8515231E-01
       -1   -1    0    0    0  501  0.00000000000E+00  0.00000000000E+00  0.10892256347E+04  0.10892256347E+04  0.50400001928E-02 0. -1.
        1   -1    0    0  501    0  0.00000000000E+00  0.00000000000E+00 -0.11186692562E+04  0.11186692562E+04  0.50400001928E-02 0.  1.
    10030    2    1    2    0    0  0.00000000000E+00  0.00000000000E+00 -0.29443621554E+02  0.22078948909E+04  0.22076985579E+04 0.  0.
        5    1    3    3  502    0 -0.81101761263E+03  0.62885247318E+03 -0.42127504682E+03  0.11093690802E+04  0.46999998093E+01 0.  1.
       -5    1    3    3    0  502  0.81101761263E+03 -0.62885247318E+03  0.39183142526E+03  0.10985258107E+04  0.46999998093E+01 0. -1.
</event>
<event>
 5   0  0.2929471E-05  0.2231386E+04  0.7818609E-02  0.8505477E-01
        1   -1    0    0  501    0  0.00000000000E+00  0.00000000000E+00  0.46278115728E+03  0.46278115731E+03  0.50400001928E-02 0.  1.
       -1   -1    0    0    0  501  0.00000000000E+00  0.00000000000E+00 -0.26897612442E+04  0.26897612442E+04  0.50400001928E-02 0. -1.
    10030    2    1    2    0    0  0.00000000000E+00  0.00000000000E+00 -0.22269800870E+04  0.31525424015E+04  0.22313859563E+04 0.  0.
        2    1    3    3  502    0 -0.18843182935E+03  0.10994727366E+04 -0.11425806751E+04  0.15968210456E+04  0.25500000920E-02 0. -1.
       -2    1    3    3    0  502  0.18843182935E+03 -0.10994727366E+04 -0.10843994119E+04  0.15557213559E+04  0.25500000920E-02 0.  1.
</event>
<event>
 5   0  0.6445740E-05  0.2165163E+04  0.7818609E-02  0.8533070E-01
       -2   -1    0    0    0  501  0.00000000000E+00  0.00000000000E+00  0.84077383674E+03  0.84077383674E+03  0.25500000920E-02 0. -1.
        2   -1    0    0  501    0  0.00000000000E+00  0.00000000000E+00 -0.13939330342E+04  0.13939330342E+04  0.25500000920E-02 0.  1.
    10030    2    1    2    0    0  0.00000000000E+00  0.00000000000E+00 -0.55315919745E+03  0.22347068709E+04  0.21651627424E+04 0.  0.
        5    1    3    3  502    0  0.74129333389E+03 -0.41355411867E+03 -0.97003609983E+03  0.12890054076E+04  0.46999998093E+01 0.  1.
       -5    1    3    3    0  502 -0.74129333389E+03  0.41355411867E+03  0.41687690238E+03  0.94570146330E+03  0.46999998093E+01 0. -1.
</event>
<event>
 5   0  0.6293013E-05  0.2181405E+04  0.7818609E-02  0.8526208E-01
        2   -1    0    0  501    0  0.00000000000E+00  0.00000000000E+00  0.62134211176E+03  0.62134211177E+03  0.25500000920E-02 0.  1.
       -2   -1    0    0    0  501  0.00000000000E+00  0.00000000000E+00 -0.19146163828E+04  0.19146163828E+04  0.25500000920E-02 0. -1.
    10030    2    1    2    0    0  0.00000000000E+00  0.00000000000E+00 -0.12932742710E+04  0.25359584945E+04  0.21814048560E+04 0.  0.
        1    1    3    3  502    0  0.76650741816E+03 -0.29313949823E+03  0.18858337592E+03  0.84203804975E+03  0.50400001928E-02 0.  1.
       -1    1    3    3    0  502 -0.76650741816E+03  0.29313949823E+03 -0.14818576469E+04  0.16939204448E+04  0.50400001928E-02 0. -1.
</event>
<event>
 5   0  0.2929471E-05  0.2210694E+04  0.7818609E-02  0.8513990E-01
       -1   -1    0    0    0  501  0.00000000000E+00  0.00000000000E+00  0.11472661297E+04  0.11472661297E+04  0.50400001928E-02 0.  1.
        1   -1    0    0  501    0  0.00000000000E+00  0.00000000000E+00 -0.10649595937E+04  0.10649595937E+04  0.50400001928E-02 0. -1.
    10030    2    1    2    0    0  0.00000000000E+00  0.00000000000E+00  0.82306535946E+02  0.22122257234E+04  0.22106940732E+04 0.  0.
        2    1    3    3  502    0  0.18274328114E+03  0.74877931216E+03 -0.75168759348E+03  0.10766149745E+04  0.25500000920E-02 0. -1.
       -2    1    3    3    0  502 -0.18274328114E+03 -0.74877931216E+03  0.83399412943E+03  0.11356107489E+04  0.25500000920E-02 0.  1.
</event>
<event>
 5   0  0.2910318E-05  0.2207281E+04  0.7818609E-02  0.8515404E-01
        1   -1    0    0  501    0  0.00000000000E+00  0.00000000000E+00  0.22485012544E+04  0.22485012545E+04  0.50400001928E-02 0.  1.
       -1   -1    0    0    0  501  0.00000000000E+00  0.00000000000E+00 -0.54170428942E+03  0.54170428945E+03  0.50400001928E-02 0. -1.
    10030    2    1    2    0    0  0.00000000000E+00  0.00000000000E+00  0.17067969650E+04  0.27902055439E+04  0.22072813816E+04 0.  0.
        5    1    3    3  502    0  0.68198723823E+03 -0.85653524856E+03  0.10287451431E+04  0.15023640986E+04  0.46999998093E+01 0. -1.
       -5    1    3    3    0  502 -0.68198723823E+03  0.85653524856E+03  0.67805182190E+03  0.12878414453E+04  0.46999998093E+01 0.  1.
</event>
<event>
 5   0  0.2820239E-05  0.2186045E+04  0.7818609E-02  0.8524259E-01
        1   -1    0    0  501    0  0.00000000000E+00  0.00000000000E+00  0.15964566540E+04  0.15964566540E+04  0.50400001928E-02 0.  1.
       -1   -1    0    0    0  501  0.00000000000E+00  0.00000000000E+00 -0.74834370122E+03  0.74834370124E+03  0.50400001928E-02 0. -1.
    10030    2    1    2    0    0  0.00000000000E+00  0.00000000000E+00  0.84811295276E+03  0.23448003552E+04  0.21860450876E+04 0.  0.
        3    1    3    3  502    0 -0.97932004118E+02 -0.94426552054E+03  0.10051269063E+04  0.13825730211E+04  0.10100000352E+00 0.  1.
       -3    1    3    3    0  502  0.97932004118E+02  0.94426552054E+03 -0.15701395355E+03  0.96222733412E+03  0.10100000352E+00 0. -1.
</event>
<event>
 5   0  0.2820239E-05  0.2199994E+04  0.7818609E-02  0.8518430E-01
        1   -1    0    0  501    0  0.00000000000E+00  0.00000000000E+00  0.79333757985E+03  0.79333757987E+03  0.50400001928E-02 0.  1.
       -1   -1    0    0    0  501  0.00000000000E+00  0.00000000000E+00 -0.15251939724E+04  0.15251939724E+04  0.50400001928E-02 0. -1.
    10030    2    1    2    0    0  0.00000000000E+00  0.00000000000E+00 -0.73185639257E+03  0.23185315523E+04  0.21999942681E+04 0.  0.
        3    1    3    3  502    0  0.39766355939E+03 -0.34356657392E+03  0.65248238813E+03  0.83779924457E+03  0.10100000352E+00 0.  1.
       -3    1    3    3    0  502 -0.39766355939E+03  0.34356657392E+03 -0.13843387807E+04  0.14807323077E+04  0.10100000352E+00 0. -1.
</event>
<event>
 5   0  0.2910318E-05  0.2191579E+04  0.7818609E-02  0.8521941E-01
       -1   -1    0    0    0  501  0.00000000000E+00  0.00000000000E+00  0.82764480869E+03  0.82764480870E+03  0.50400001928E-02 0. -1.
        1   -1    0    0  501    0  0.00000000000E+00  0.00000000000E+00 -0.14508085013E+04  0.14508085013E+04  0.50400001928E-02 0.  1.
    10030    2    1    2    0    0  0.00000000000E+00  0.00000000000E+00 -0.62316369257E+03  0.22784533100E+04  0.21915785402E+04 0.  0.
        5    1    3    3  502    0  0.41945490919E+03 -0.99635829632E+03 -0.12543176895E+03  0.10883140604E+04  0.46999998093E+01 0. -1.
       -5    1    3    3    0  502 -0.41945490919E+03  0.99635829632E+03 -0.49773192361E+03  0.11901392495E+04  0.46999998093E+01 0.  1.
</event>
<event>
 5   0  0.2753631E-05  0.2174659E+04  0.7818609E-02  0.8529050E-01
        1   -1    0    0  501    0  0.00000000000E+00  0.00000000000E+00  0.14320690896E+04  0.14320690896E+04  0.50400001928E-02 0. -1.
       -1   -1    0    0    0  501  0.00000000000E+00  0.00000000000E+00 -0.82557822102E+03  0.82557822104E+03  0.50400001928E-02 0.  1.
    10030    2    1    2    0    0  0.00000000000E+00  0.00000000000E+00  0.60649086858E+03  0.22576473106E+04  0.21746586412E+04 0.  0.
        4    1    3    3  502    0 -0.26707922067E+02  0.10496651913E+04  0.10025650766E+02  0.10500535479E+04  0.12699999809E+01 0. -1.
       -4    1    3    3    0  502  0.26707922067E+02 -0.10496651913E+04  0.59646521781E+03  0.12075937628E+04  0.12699999809E+01 0.  1.
</event>
<event>
 5   0  0.2910318E-05  0.2201235E+04  0.7818609E-02  0.8517914E-01
       -1   -1    0    0    0  501  0.00000000000E+00  0.00000000000E+00  0.13308378668E+04  0.13308378668E+04  0.50400001928E-02 0.  1.
        1   -1    0    0  501    0  0.00000000000E+00  0.00000000000E+00 -0.91022249751E+03  0.91022249752E+03  0.50400001928E-02 0. -1.
    10030    2    1    2    0    0  0.00000000000E+00  0.00000000000E+00  0.42061536931E+03  0.22410603644E+04  0.22012347144E+04 0.  0.
        5    1    3    3  502    0 -0.22472722831E+03 -0.10902084500E+03  0.13015909681E+04  0.13253486371E+04  0.46999998093E+01 0.  1.
       -5    1    3    3    0  502  0.22472722831E+03  0.10902084500E+03 -0.88097559875E+03  0.91571172723E+03  0.46999998093E+01 0. -1.
</event>
<event>
 5   0  0.6628798E-05  0.2216036E+04  0.7818609E-02  0.8511783E-01
       -2   -1    0    0    0  501  0.00000000000E+00  0.00000000000E+00  0.58912657920E+03  0.58912657920E+03  0.25500000920E-02 0. -1.
        2   -1    0    0  501    0  0.00000000000E+00  0.00000000000E+00 -0.20839387341E+04  0.20839387341E+04  0.25500000920E-02 0.  1.
    10030    2    1    2    0    0  0.00000000000E+00  0.00000000000E+00 -0.14948121549E+04  0.26730653133E+04  0.22160358279E+04 0.  0.
        4    1    3    3  502    0  0.75303632633E+03 -0.21570342913E+03  0.19786424105E+03  0.80792545999E+03  0.12699999809E+01 0. -1.
       -4    1    3    3    0  502 -0.75303632633E+03  0.21570342913E+03 -0.16926763959E+04  0.18651398533E+04  0.12699999809E+01 0.  1.
</event>
<event>
 5   0  0.2910318E-05  0.2185603E+04  0.7818609E-02  0.8524444E-01
       -1   -1    0    0    0  501  0.00000000000E+00  0.00000000000E+00  0.99292251936E+03  0.99292251938E+03  0.50400001928E-02 0.  1.
        1   -1    0    0  501    0  0.00000000000E+00  0.00000000000E+00 -0.12027273419E+04  0.12027273420E+04  0.50400001928E-02 0. -1.
    10030    2    1    2    0    0  0.00000000000E+00  0.00000000000E+00 -0.20980482258E+03  0.21956498613E+04  0.21856029488E+04 0.  0.
        5    1    3    3  502    0 -0.90415270462E+03  0.61370850271E+03 -0.11285923242E+03  0.10985852429E+04  0.46999998093E+01 0. -1.
       -5    1    3    3    0  502  0.90415270462E+03 -0.61370850271E+03 -0.96945590164E+02  0.10970646184E+04  0.46999998093E+01 0.  1.
</event>
<event>
 5   0  0.6306919E-05  0.2284193E+04  0.7818609E-02  0.8484180E-01
        2   -1    0    0  501    0  0.00000000000E+00  0.00000000000E+00  0.11927852401E+04  0.11927852401E+04  0.25500000920E-02 0.  1.
       -2   -1    0    0    0  501  0.00000000000E+00  0.00000000000E+00 -0.10935617481E+04  0.10935617481E+04  0.25500000920E-02 0. -1.
    10030    2    1    2    0    0  0.00000000000E+00  0.00000000000E+00  0.99223491968E+02  0.22863469882E+04  0.22841929097E+04 0.  0.
        3    1    3    3  502    0  0.35238736230E+03  0.56232248442E+03 -0.88078129482E+03  0.11027960505E+04  0.10100000352E+00 0. -1.
       -3    1    3    3    0  502 -0.35238736230E+03 -0.56232248442E+03  0.98000478679E+03  0.11835509376E+04  0.10100000352E+00 0.  1.
</event>
<event>
 5   0  0.6306919E-05  0.2193725E+04  0.7818609E-02  0.8521044E-01
        2   -1    0    0  501    0  0.00000000000E+00  0.00000000000E+00  0.99121300767E+03  0.99121300767E+03  0.25500000920E-02 0. -1.
       -2   -1    0    0    0  501  0.00000000000E+00  0.00000000000E+00 -0.12137730368E+04  0.12137730368E+04  0.25500000920E-02 0.  1.
    10030    2    1    2    0    0  0.00000000000E+00  0.00000000000E+00 -0.22256002909E+03  0.22049860444E+04  0.21937252539E+04 0.  0.
        3    1    3    3  502    0  0.50472166258E+03  0.95572806656E+03 -0.29918217813E+03  0.11214589069E+04  0.10100000352E+00 0.  1.
       -3    1    3    3    0  502 -0.50472166258E+03 -0.95572806656E+03  0.76622149047E+02  0.10835271376E+04  0.10100000352E+00 0. -1.
</event>
<event>
 5   0  0.2929471E-05  0.2210393E+04  0.7818609E-02  0.8514115E-01
       -1   -1    0    0    0  501  0.00000000000E+00  0.00000000000E+00  0.10227329506E+04  0.10227329507E+04  0.50400001928E-02 0. -1.
        1   -1    0    0  501    0  0.00000000000E+00  0.00000000000E+00 -0.11943093247E+04  0.11943093247E+04  0.50400001928E-02 0.  1.
    10030    2    1    2    0    0  0.00000000000E+00  0.00000000000E+00 -0.17157637404E+03  0.22170422754E+04  0.22103931774E+04 0.  0.
        2    1    3    3  502    0  0.74526278729E+03 -0.77044437579E+03 -0.35577878277E+03  0.11294156456E+04  0.25500000920E-02 0.  1.
       -2    1    3    3    0  502 -0.74526278729E+03  0.77044437579E+03  0.18420240873E+03  0.10876266297E+04  0.25500000920E-02 0. -1.
</event>
<event>
 5   0  0.6445740E-05  0.2227448E+04  0.7818609E-02  0.8507090E-01
        2   -1    0    0  501    0  0.00000000000E+00  0.00000000000E+00  0.24541237312E+04  0.24541237312E+04  0.25500000920E-02 0.  1.
       -2   -1    0    0    0  501  0.00000000000E+00  0.00000000000E+00 -0.50542723346E+03  0.50542723347E+03  0.25500000920E-02 0. -1.
    10030    2    1    2    0    0  0.00000000000E+00  0.00000000000E+00  0.19486964977E+04  0.29595509646E+04  0.22274478382E+04 0.  0.
        5    1    3    3  502    0 -0.39932419684E+03  0.40136405142E+03 -0.29993622205E+03  0.64073141272E+03  0.46999998093E+01 0. -1.
       -5    1    3    3    0  502  0.39932419684E+03 -0.40136405142E+03  0.22486327197E+04  0.23188195519E+04  0.46999998093E+01 0.  1.
</event>
<event>
 5   0  0.2910318E-05  0.2277020E+04  0.7818609E-02  0.8487037E-01
        1   -1    0    0  501    0  0.00000000000E+00  0.00000000000E+00  0.15386368237E+04  0.15386368237E+04  0.50400001928E-02 0. -1.
       -1   -1    0    0    0  501  0.00000000000E+00  0.00000000000E+00 -0.84243706448E+03  0.84243706450E+03  0.50400001928E-02 0.  1.
    10030    2    1    2    0    0  0.00000000000E+00  0.00000000000E+00  0.69619975924E+03  0.23810738882E+04  0.22770197093E+04 0.  0.
        5    1    3    3  502    0  0.22602393204E+03 -0.79172083212E+03  0.11703359811E+04  0.14309497170E+04  0.46999998093E+01 0. -1.
       -5    1    3    3    0  502 -0.22602393204E+03  0.79172083212E+03 -0.47413622188E+03  0.95012417124E+03  0.46999998093E+01 0.  1.
</event>
<event>
 5   0  0.2929471E-05  0.2188079E+04  0.7818609E-02  0.8523406E-01
       -1   -1    0    0    0  501  0.00000000000E+00  0.00000000000E+00  0.11031160348E+04  0.11031160348E+04  0.50400001928E-02 0. -1.
        1   -1    0    0  501    0  0.00000000000E+00  0.00000000000E+00 -0.10850381017E+04  0.10850381017E+04  0.50400001928E-02 0.  1.
    10030    2    1    2    0    0  0.00000000000E+00  0.00000000000E+00  0.18077933111E+02  0.21881541365E+04  0.21880794578E+04 0.  0.
        2    1    3    3  502    0 -0.14684992253E+03  0.75573102495E+03 -0.76830901967E+03  0.10876548311E+04  0.25500000920E-02 0.  1.
       -2    1    3    3    0  502  0.14684992253E+03 -0.75573102495E+03  0.78638695279E+03  0.11004993055E+04  0.25500000920E-02 0. -1.
</event>
<event>
 5   0  0.6445740E-05  0.2221098E+04  0.7818609E-02  0.8509698E-01
       -2   -1    0    0    0  501  0.00000000000E+00  0.00000000000E+00  0.12594049106E+04  0.12594049106E+04  0.25500000920E-02 0.  1.
        2   -1    0    0  501    0  0.00000000000E+00  0.00000000000E+00 -0.97928686223E+03  0.97928686223E+03  0.25500000920E-02 0. -1.
    10030    2    1    2    0    0  0.00000000000E+00  0.00000000000E+00  0.28011804842E+03  0.22386917729E+04  0.22210976415E+04 0.  0.
        5    1    3    3  502    0  0.11062717267E+04 -0.27886687138E+02  0.23397324415E+03  0.11310969762E+04  0.46999998093E+01 0.  1.
       -5    1    3    3    0  502 -0.11062717267E+04  0.27886687138E+02  0.46144804267E+02  0.11075947967E+04  0.46999998093E+01 0. -1.
</event>
<event>
 5   0  0.6293013E-05  0.2213243E+04  0.7818609E-02  0.8512936E-01
        2   -1    0    0  501    0  0.00000000000E+00  0.00000000000E+00  0.13213071928E+04  0.13213071928E+04  0.25500000920E-02 0.  1.
       -2   -1    0    0    0  501  0.00000000000E+00  0.00000000000E+00 -0.92681750776E+03  0.92681750776E+03  0.25500000920E-02 0. -1.
    10030    2    1    2    0    0  0.00000000000E+00  0.00000000000E+00  0.39448968501E+03  0.22481247005E+04  0.22132425438E+04 0.  0.
        1    1    3    3  502    0  0.17544108559E+03 -0.93078317199E+03  0.77851715262E+03  0.12260611097E+04  0.50400001928E-02 0.  1.
       -1    1    3    3    0  502 -0.17544108559E+03  0.93078317199E+03 -0.38402746761E+03  0.10220635908E+04  0.50400001928E-02 0. -1.
</event>
<event>
 5   0  0.2929471E-05  0.2206856E+04  0.7818609E-02  0.8515580E-01
        1   -1    0    0  501    0  0.00000000000E+00  0.00000000000E+00  0.19519805382E+04  0.19519805382E+04  0.50400001928E-02 0.  1.
       -1   -1    0    0    0  501  0.00000000000E+00  0.00000000000E+00 -0.62375298967E+03  0.62375298969E+03  0.50400001928E-02 0. -1.
    10030    2    1    2    0    0  0.00000000000E+00  0.00000000000E+00  0.13282275486E+04  0.25757335279E+04  0.22068563130E+04 0.  0.
        2    1    3    3  502    0 -0.52776382137E+03 -0.52571280375E+03 -0.28598195728E+03  0.79793125210E+03  0.25500000920E-02 0. -1.
       -2    1    3    3    0  502  0.52776382137E+03  0.52571280375E+03  0.16142095058E+04  0.17778022758E+04  0.25500000920E-02 0.  1.
</event>
<event>
 5   0  0.6293013E-05  0.2220239E+04  0.7818609E-02  0.8510051E-01
       -2   -1    0    0    0  501  0.00000000000E+00  0.00000000000E+00  0.61977321936E+03  0.61977321936E+03  0.25500000920E-02 0.  1.
        2   -1    0    0  501    0  0.00000000000E+00  0.00000000000E+00 -0.19884138911E+04  0.19884138911E+04  0.25500000920E-02 0. -1.
    10030    2    1    2    0    0  0.00000000000E+00  0.00000000000E+00 -0.13686406718E+04  0.26081871105E+04  0.22202393373E+04 0.  0.
        1    1    3    3  502    0 -0.23792637130E+02  0.11014307101E+04 -0.52389308710E+03  0.12199096956E+04  0.50400001928E-02 0.  1.
       -1    1    3    3    0  502  0.23792637130E+02 -0.11014307101E+04 -0.84474758465E+03  0.13882774148E+04  0.50400001928E-02 0. -1.
</event>
<event>
 5   0  0.2753631E-05  0.2182749E+04  0.7818609E-02  0.8525643E-01
        1   -1    0    0  501    0  0.00000000000E+00  0.00000000000E+00  0.15353005470E+04  0.15353005470E+04  0.50400001928E-02 0. -1.
       -1   -1    0    0    0  501  0.00000000000E+00  0.00000000000E+00 -0.77580802759E+03  0.77580802760E+03  0.50400001928E-02 0.  1.
    10030    2    1    2    0    0  0.00000000000E+00  0.00000000000E+00  0.75949251940E+03  0.23111085746E+04  0.21827491740E+04 0.  0.
        4    1    3    3  502    0 -0.30934780843E+03  0.74536548178E+03  0.11576851268E+04  0.14112059501E+04  0.12699999809E+01 0. -1.
       -4    1    3    3    0  502  0.30934780843E+03 -0.74536548178E+03 -0.39819260740E+03  0.89990262446E+03  0.12699999809E+01 0.  1.
</event>
<event>
 5   0  0.6306919E-05  0.2191416E+04  0.7818609E-02  0.8522010E-01
       -2   -1    0    0    0  501  0.00000000000E+00  0.00000000000E+00  0.51747741391E+03  0.51747741392E+03  0.25500000920E-02 0. -1.
        2   -1    0    0  501    0  0.00000000000E+00  0.00000000000E+00 -0.23200539603E+04  0.23200539603E+04  0.25500000920E-02 0.  1.
    10030    2    1    2    0    0  0.00000000000E+00  0.00000000000E+00 -0.18025765463E+04  0.28375313742E+04  0.21914155457E+04 0.  0.
        3    1    3    3  502    0  0.20516544164E+03  0.75049059083E+03 -0.19002856996E+04  0.20533910333E+04  0.10100000352E+00 0.  1.
       -3    1    3    3    0  502 -0.20516544164E+03 -0.75049059083E+03  0.97709153245E+02  0.78414034088E+03  0.10100000352E+00 0. -1.
</event>
<event>
 5   0  0.2753631E-05  0.2216701E+04  0.7818609E-02  0.8511509E-01
        1   -1    0    0  501    0  0.00000000000E+00  0.00000000000E+00  0.12657191133E+04  0.12657191133E+04  0.50400001928E-02 0.  1.
       -1   -1    0    0    0  501  0.00000000000E+00  0.00000000000E+00 -0.97054740786E+03  0.97054740787E+03  0.50400001928E-02 0. -1.
    10030    2    1    2    0    0  0.00000000000E+00  0.00000000000E+00  0.29517170542E+03  0.22362665212E+04  0.22167006153E+04 0.  0.
        4    1    3    3  502    0  0.81150108651E+03 -0.19621150986E+03  0.88299609506E+03  0.12152023234E+04  0.12699999809E+01 0.  1.
       -4    1    3    3    0  502 -0.81150108651E+03  0.19621150986E+03 -0.58782438964E+03  0.10210641978E+04  0.12699999809E+01 0. -1.
</event>
<event>
 5   0  0.6306919E-05  0.2203165E+04  0.7818609E-02  0.8517112E-01
        2   -1    0    0  501    0  0.00000000000E+00  0.00000000000E+00  0.11229404955E+04  0.11229404955E+04  0.25500000920E-02 0.  1.
       -2   -1    0    0    0  501  0.00000000000E+00  0.00000000000E+00 -0.10806308510E+04  0.10806308510E+04  0.25500000920E-02 0. -1.
    10030    2    1    2    0    0  0.00000000000E+00  0.00000000000E+00  0.42309644493E+02  0.22035713466E+04  0.22031651262E+04 0.  0.
        3    1    3    3  502    0  0.72029041594E+02  0.11738810477E+03  0.11142954876E+04  0.11227745072E+04  0.10100000352E+00 0.  1.
       -3    1    3    3    0  502 -0.72029041594E+02 -0.11738810477E+03 -0.10719858432E+04  0.10807968394E+04  0.10100000352E+00 0. -1.
</event>
<event>
 5   0  0.6628798E-05  0.2169075E+04  0.7818609E-02  0.8531411E-01
       -2   -1    0    0    0  501  0.00000000000E+00  0.00000000000E+00  0.99481803046E+03  0.99481803046E+03  0.25500000920E-02 0. -1.
        2   -1    0    0  501    0  0.00000000000E+00  0.00000000000E+00 -0.11823483649E+04  0.11823483650E+04  0.25500000920E-02 0.  1.
    10030    2    1    2    0    0  0.00000000000E+00  0.00000000000E+00 -0.18753033449E+03  0.21771663954E+04  0.21690748920E+04 0.  0.
        4    1    3    3  502    0 -0.15737664305E+03  0.10730525704E+04 -0.97038038061E+02  0.10888651066E+04  0.12699999809E+01 0. -1.
       -4    1    3    3    0  502  0.15737664305E+03 -0.10730525704E+04 -0.90492296429E+02  0.10883012888E+04  0.12699999809E+01 0.  1.
</event>
<event>
 5   0  0.6414768E-05  0.2204088E+04  0.7818609E-02  0.8516728E-01
       -2   -1    0    0    0  501  0.00000000000E+00  0.00000000000E+00  0.80654566871E+03  0.80654566871E+03  0.25500000920E-02 0. -1.
        2   -1    0    0  501    0  0.00000000000E+00  0.00000000000E+00 -0.15058057021E+04  0.15058057021E+04  0.25500000920E-02 0.  1.
    10030    2    1    2    0    0  0.00000000000E+00  0.00000000000E+00 -0.69926003336E+03  0.23123513708E+04  0.22040880807E+04 0.  0.
        2    1    3    3  502    0 -0.51437563871E+03  0.59288520338E+03 -0.11611940964E+04  0.14015944105E+04  0.25500000920E-02 0.  1.
       -2    1    3    3    0  502  0.51437563871E+03 -0.59288520338E+03  0.46193406303E+03  0.91075696027E+03  0.25500000920E-02 0. -1.
</event>
<event>
 5   0  0.6414768E-05  0.2141860E+04  0.7818609E-02  0.8543024E-01
       -2   -1    0    0    0  501  0.00000000000E+00  0.00000000000E+00  0.12081305028E+04  0.12081305028E+04  0.25500000920E-02 0. -1.
        2   -1    0    0  501    0  0.00000000000E+00  0.00000000000E+00 -0.94931090517E+03  0.94931090518E+03  0.25500000920E-02 0.  1.
    10030    2    1    2    0    0  0.00000000000E+00  0.00000000000E+00  0.25881959758E+03  0.21574414079E+04  0.21418603700E+04 0.  0.
        2    1    3    3  502    0  0.53765059812E+03  0.78184305372E+02 -0.80018536956E+03  0.96720089791E+03  0.25500000920E-02 0.  1.
       -2    1    3    3    0  502 -0.53765059812E+03 -0.78184305372E+02  0.10590049671E+04  0.11902405100E+04  0.25500000920E-02 0. -1.
</event>
<event>
 5   0  0.2753631E-05  0.2177351E+04  0.7818609E-02  0.8527915E-01
        1   -1    0    0  501    0  0.00000000000E+00  0.00000000000E+00  0.11287767832E+04  0.11287767833E+04  0.50400001928E-02 0.  1.
       -1   -1    0    0    0  501  0.00000000000E+00  0.00000000000E+00 -0.10499987922E+04  0.10499987922E+04  0.50400001928E-02 0. -1.
    10030    2    1    2    0    0  0.00000000000E+00  0.00000000000E+00  0.78777991075E+02  0.21787755754E+04  0.21773509217E+04 0.  0.
        4    1    3    3  502    0  0.81941961491E+03 -0.54326832506E+03 -0.42848903878E+03  0.10724707211E+04  0.12699999809E+01 0. -1.
       -4    1    3    3    0  502 -0.81941961491E+03  0.54326832506E+03  0.50726702985E+03  0.11063048544E+04  0.12699999809E+01 0.  1.
</event>
<event>
 5   0  0.6414768E-05  0.2196721E+04  0.7818609E-02  0.8519794E-01
       -2   -1    0    0    0  501  0.00000000000E+00  0.00000000000E+00  0.50945321303E+03  0.50945321304E+03  0.25500000920E-02 0.  1.
        2   -1    0    0  501    0  0.00000000000E+00  0.00000000000E+00 -0.23680201756E+04  0.23680201756E+04  0.25500000920E-02 0. -1.
    10030    2    1    2    0    0  0.00000000000E+00  0.00000000000E+00 -0.18585669626E+04  0.28774733886E+04  0.21967207260E+04 0.  0.
        2    1    3    3  502    0 -0.35633746181E+03 -0.98913894415E+03 -0.13456225200E+04  0.17076510779E+04  0.25500000920E-02 0.  1.
       -2    1    3    3    0  502  0.35633746181E+03  0.98913894415E+03 -0.51294444259E+03  0.11698223107E+04  0.25500000920E-02 0. -1.
</event>
<event>
 5   0  0.6445740E-05  0.2136196E+04  0.7818609E-02  0.8545464E-01
       -2   -1    0    0    0  501  0.00000000000E+00  0.00000000000E+00  0.11343751801E+04  0.11343751801E+04  0.25500000920E-02 0.  1.
        2   -1    0    0  501    0  0.00000000000E+00  0.00000000000E+00 -0.10056931797E+04  0.10056931797E+04  0.25500000920E-02 0. -1.
    10030    2    1    2    0    0  0.00000000000E+00  0.00000000000E+00  0.12868200034E+03  0.21400683598E+04  0.21361960414E+04 0.  0.
        5    1    3    3  502    0 -0.49852373674E+03 -0.92899310784E+03  0.23569836779E+03  0.10803378736E+04  0.46999998093E+01 0. -1.
       -5    1    3    3    0  502  0.49852373674E+03  0.92899310784E+03 -0.10701636745E+03  0.10597304862E+04  0.46999998093E+01 0.  1.
</event>
<event>
 5   0  0.6445740E-05  0.2187633E+04  0.7818609E-02  0.8523593E-01
        2   -1    0    0  501    0  0.00000000000E+00  0.00000000000E+00  0.11301331020E+04  0.11301331020E+04  0.25500000920E-02 0.  1.
       -2   -1    0    0    0  501  0.00000000000E+00  0.00000000000E+00 -0.10586665582E+04  0.10586665582E+04  0.25500000920E-02 0. -1.
    10030    2    1    2    0    0  0.00000000000E+00  0.00000000000E+00  0.71466543854E+02  0.21887996602E+04  0.21876326213E+04 0.  0.
        5    1    3    3  502    0  0.68123782597E+02  0.73402262170E+03  0.84423735506E+03  0.11207983140E+04  0.46999998093E+01 0.  1.
       -5    1    3    3    0  502 -0.68123782597E+02 -0.73402262170E+03 -0.77277081121E+03  0.10680013462E+04  0.46999998093E+01 0. -1.
</event>
<event>
 5   0  0.6306919E-05  0.2200685E+04  0.7818609E-02  0.8518143E-01
        2   -1    0    0  501    0  0.00000000000E+00  0.00000000000E+00  0.89148702554E+03  0.89148702554E+03  0.25500000920E-02 0.  1.
       -2   -1    0    0    0  501  0.00000000000E+00  0.00000000000E+00 -0.13581280838E+04  0.13581280839E+04  0.25500000920E-02 0. -1.
    10030    2    1    2    0    0  0.00000000000E+00  0.00000000000E+00 -0.46664105831E+03  0.22496151094E+04  0.22006849532E+04 0.  0.
        3    1    3    3  502    0  0.46093755922E+03 -0.26961474373E+03  0.75015045857E+03  0.92080468300E+03  0.10100000352E+00 0.  1.
       -3    1    3    3    0  502 -0.46093755922E+03  0.26961474373E+03 -0.12167915169E+04  0.13288104264E+04  0.10100000352E+00 0. -1.
</event>
<event>
 5   0  0.2910318E-05  0.2146692E+04  0.7818609E-02  0.8540950E-01
        1   -1    0    0  501    0  0.00000000000E+00  0.00000000000E+00  0.15610205507E+04  0.15610205508E+04  0.50400001928E-02 0.  1.
       -1   -1    0    0    0  501  0.00000000000E+00  0.00000000000E+00 -0.73802443604E+03  0.73802443606E+03  0.50400001928E-02 0. -1.
    10030    2    1    2    0    0  0.00000000000E+00  0.00000000000E+00  0.82299611471E+03  0.22990449868E+04  0.21466916981E+04 0.  0.
        5    1    3    3  502    0  0.41139031845E+03 -0.42737153145E+03  0.13695000863E+04  0.14924613886E+04  0.46999998093E+01 0.  1.
       -5    1    3    3    0  502 -0.41139031845E+03  0.42737153145E+03 -0.54650397158E+03  0.80658359825E+03  0.46999998093E+01 0. -1.
</event>
<event>
 5   0  0.2908031E-05  0.2244022E+04  0.7818609E-02  0.8500325E-01
       -1   -1    0    0    0  501  0.00000000000E+00  0.00000000000E+00  0.66115282427E+03  0.66115282429E+03  0.50400001928E-02 0. -1.
        1   -1    0    0  501    0  0.00000000000E+00  0.00000000000E+00 -0.19041118130E+04  0.19041118130E+04  0.50400001928E-02 0.  1.
    10030    2    1    2    0    0  0.00000000000E+00  0.00000000000E+00 -0.12429589887E+04  0.25652646373E+04  0.22440221950E+04 0.  0.
        1    1    3    3  502    0  0.11043252067E+04  0.19818618270E+03 -0.61022201702E+03  0.12771776835E+04  0.50400001928E-02 0.  1.
       -1    1    3    3    0  502 -0.11043252067E+04 -0.19818618270E+03 -0.63273697167E+03  0.12880869538E+04  0.50400001928E-02 0. -1.
</event>
<event>
 5   0  0.6306919E-05  0.2188044E+04  0.7818609E-02  0.8523421E-01
        2   -1    0    0  501    0  0.00000000000E+00  0.00000000000E+00  0.91776210407E+03  0.91776210408E+03  0.25500000920E-02 0.  1.
       -2   -1    0    0    0  501  0.00000000000E+00  0.00000000000E+00 -0.13041331172E+04  0.13041331172E+04  0.25500000920E-02 0. -1.
    10030    2    1    2    0    0  0.00000000000E+00  0.00000000000E+00 -0.38637101316E+03  0.22218952213E+04  0.21880438329E+04 0.  0.
        3    1    3    3  502    0 -0.55883698177E+03  0.50103104208E+03 -0.10014603377E+04  0.12515005775E+04  0.10100000352E+00 0. -1.
       -3    1    3    3    0  502  0.55883698177E+03 -0.50103104208E+03  0.61508932455E+03  0.97039464379E+03  0.10100000352E+00 0.  1.
</event>
<event>
 5   0  0.2929471E-05  0.2173764E+04  0.7818609E-02  0.8529428E-01
        1   -1    0    0  501    0  0.00000000000E+00  0.00000000000E+00  0.26863115064E+04  0.26863115064E+04  0.50400001928E-02 0.  1.
       -1   -1    0    0    0  501  0.00000000000E+00  0.00000000000E+00 -0.43975270426E+03  0.43975270429E+03  0.50400001928E-02 0. -1.
    10030    2    1    2    0    0  0.00000000000E+00  0.00000000000E+00  0.22465588021E+04  0.31260642107E+04  0.21737642461E+04 0.  0.
        2    1    3    3  502    0 -0.36749313090E+03 -0.10222148211E+04  0.11758907782E+04  0.16008414862E+04  0.25500000920E-02 0. -1.
       -2    1    3    3    0  502  0.36749313090E+03  0.10222148211E+04  0.10706680239E+04  0.15252227245E+04  0.25500000920E-02 0.  1.
</event>
<event>
 5   0  0.6628798E-05  0.2091813E+04  0.7818609E-02  0.8564858E-01
        2   -1    0    0  501    0  0.00000000000E+00  0.00000000000E+00  0.16244380965E+04  0.16244380965E+04  0.25500000920E-02 0.  1.
       -2   -1    0    0    0  501  0.00000000000E+00  0.00000000000E+00 -0.67341484547E+03  0.67341484547E+03  0.25500000920E-02 0. -1.
    10030    2    1    2    0    0  0.00000000000E+00  0.00000000000E+00  0.95102325101E+03  0.22978529420E+04  0.20918133088E+04 0.  0.
        4    1    3    3  502    0  0.11088162846E+03  0.78197018324E+02 -0.66370537321E+03  0.67743335062E+03  0.12699999809E+01 0. -1.
       -4    1    3    3    0  502 -0.11088162846E+03 -0.78197018324E+02  0.16147286242E+04  0.16204195913E+04  0.12699999809E+01 0.  1.
</event>
<event>
 5   0  0.2753631E-05  0.2228515E+04  0.7818609E-02  0.8506652E-01
       -1   -1    0    0    0  501  0.00000000000E+00  0.00000000000E+00  0.68748955454E+03  0.68748955456E+03  0.50400001928E-02 0. -1.
        1   -1    0    0  501    0  0.00000000000E+00  0.00000000000E+00 -0.18059471700E+04  0.18059471700E+04  0.50400001928E-02 0.  1.
    10030    2    1    2    0    0  0.00000000000E+00  0.00000000000E+00 -0.11184576154E+04  0.24934367246E+04  0.22285150351E+04 0.  0.
        4    1    3    3  502    0  0.41161932639E+03  0.76982532160E+03 -0.13340118848E+04  0.15942555684E+04  0.12699999809E+01 0.  1.
       -4    1    3    3    0  502 -0.41161932639E+03 -0.76982532160E+03  0.21555426938E+03  0.89918115615E+03  0.12699999809E+01 0. -1.
</event>
<event>
 5   0  0.6628798E-05  0.2159572E+04  0.7818609E-02  0.8535446E-01
       -2   -1    0    0    0  501  0.00000000000E+00  0.00000000000E+00  0.66836365614E+03  0.66836365615E+03  0.25500000920E-02 0. -1.
        2   -1    0    0  501    0  0.00000000000E+00  0.00000000000E+00 -0.17444658726E+04  0.17444658726E+04  0.25500000920E-02 0.  1.
    10030    2    1    2    0    0  0.00000000000E+00  0.00000000000E+00 -0.10761022165E+04  0.24128295288E+04  0.21595717989E+04 0.  0.
        4    1    3    3  502    0  0.10659047524E+04  0.17067991428E+03 -0.56656676115E+03  0.12191325121E+04  0.12699999809E+01 0. -1.
       -4    1    3    3    0  502 -0.10659047524E+04 -0.17067991428E+03 -0.50953545533E+03  0.11936970166E+04  0.12699999809E+01 0.  1.
</event>
<event>
 5   0  0.6293013E-05  0.2215621E+04  0.7818609E-02  0.8511954E-01
        2   -1    0    0  501    0  0.00000000000E+00  0.00000000000E+00  0.12920807574E+04  0.12920807574E+04  0.25500000920E-02 0.  1.
       -2   -1    0    0    0  501  0.00000000000E+00  0.00000000000E+00 -0.94981987378E+03  0.94981987378E+03  0.25500000920E-02 0. -1.
    10030    2    1    2    0    0  0.00000000000E+00  0.00000000000E+00  0.34226088363E+03  0.22419006312E+04  0.22156208899E+04 0.  0.
        1    1    3    3  502    0  0.29460680651E+02  0.10534212126E+03  0.12866030764E+04  0.12912445045E+04  0.50400001928E-02 0.  1.
       -1    1    3    3    0  502 -0.29460680651E+02 -0.10534212126E+03 -0.94434219274E+03  0.95065612670E+03  0.50400001928E-02 0. -1.
</event>
<event>
 5   0  0.6414768E-05  0.2183854E+04  0.7818609E-02  0.8525179E-01
        2   -1    0    0  501    0  0.00000000000E+00  0.00000000000E+00  0.20755065593E+04  0.20755065593E+04  0.25500000920E-02 0. -1.
       -2   -1    0    0    0  501  0.00000000000E+00  0.00000000000E+00 -0.57446450422E+03  0.57446450423E+03  0.25500000920E-02 0.  1.
    10030    2    1    2    0    0  0.00000000000E+00  0.00000000000E+00  0.15010420551E+04  0.26499710635E+04  0.21838542503E+04 0.  0.
        2    1    3    3  502    0  0.82930875686E+03 -0.67282450766E+03  0.47419002659E+03  0.11684613873E+04  0.25500000920E-02 0. -1.
       -2    1    3    3    0  502 -0.82930875686E+03  0.67282450766E+03  0.10268520285E+04  0.14815096762E+04  0.25500000920E-02 0.  1.
</event>
<event>
 5   0  0.2820239E-05  0.2145542E+04  0.7818609E-02  0.8541443E-01
        1   -1    0    0  501    0  0.00000000000E+00  0.00000000000E+00  0.13264701445E+04  0.13264701445E+04  0.50400001928E-02 0. -1.
       -1   -1    0    0    0  501  0.00000000000E+00  0.00000000000E+00 -0.86759420772E+03  0.86759420774E+03  0.50400001928E-02 0.  1.
    10030    2    1    2    0    0  0.00000000000E+00  0.00000000000E+00  0.45887593674E+03  0.21940643522E+04  0.21455421824E+04 0.  0.
        3    1    3    3  502    0 -0.56963452455E+03  0.66621258927E+03  0.86190311079E+03  0.12293086221E+04  0.10100000352E+00 0. -1.
       -3    1    3    3    0  502  0.56963452455E+03 -0.66621258927E+03 -0.40302717405E+03  0.96475573016E+03  0.10100000352E+00 0.  1.
</event>
<event>
 5   0  0.2908031E-05  0.2210840E+04  0.7818609E-02  0.8513930E-01
        1   -1    0    0  501    0  0.00000000000E+00  0.00000000000E+00  0.12801191331E+04  0.12801191331E+04  0.50400001928E-02 0.  1.
       -1   -1    0    0    0  501  0.00000000000E+00  0.00000000000E+00 -0.95456199226E+03  0.95456199227E+03  0.50400001928E-02 0. -1.
    10030    2    1    2    0    0  0.00000000000E+00  0.00000000000E+00  0.32555714080E+03  0.22346811253E+04  0.22108397228E+04 0.  0.
        1    1    3    3  502    0  0.73218403057E+03  0.80751654445E+03 -0.22987571510E+02  0.10902774200E+04  0.50400001928E-02 0. -1.
       -1    1    3    3    0  502 -0.73218403057E+03 -0.80751654445E+03  0.34854471231E+03  0.11444037053E+04  0.50400001928E-02 0.  1.
</event>
<event>
 5   0  0.2929471E-05  0.2170694E+04  0.7818609E-02  0.8530726E-01
        1   -1    0    0  501    0  0.00000000000E+00  0.00000000000E+00  0.21730844755E+04  0.21730844755E+04  0.50400001928E-02 0. -1.
       -1   -1    0    0    0  501  0.00000000000E+00  0.00000000000E+00 -0.54207647681E+03  0.54207647683E+03  0.50400001928E-02 0.  1.
    10030    2    1    2    0    0  0.00000000000E+00  0.00000000000E+00  0.16310079987E+04  0.27151609524E+04  0.21706938765E+04 0.  0.
        2    1    3    3  502    0 -0.69465521560E+03  0.69927367189E+01 -0.22755553740E+03  0.73101045789E+03  0.25500000920E-02 0.  1.
       -2    1    3    3    0  502  0.69465521560E+03 -0.69927367189E+01  0.18585635361E+04  0.19841504945E+04  0.25500000920E-02 0. -1.
</event>
<event>
 5   0  0.6414768E-05  0.2193899E+04  0.7818609E-02  0.8520972E-01
        2   -1    0    0  501    0  0.00000000000E+00  0.00000000000E+00  0.10743930297E+04  0.10743930297E+04  0.25500000920E-02 0.  1.
       -2   -1    0    0    0  501  0.00000000000E+00  0.00000000000E+00 -0.11199795914E+04  0.11199795914E+04  0.25500000920E-02 0. -1.
    10030    2    1    2    0    0  0.00000000000E+00  0.00000000000E+00 -0.45586561666E+02  0.21943726211E+04  0.21938990555E+04 0.  0.
        2    1    3    3  502    0  0.45257537251E+03  0.66367704802E+03 -0.76995290120E+03  0.11127080309E+04  0.25500000920E-02 0. -1.
       -2    1    3    3    0  502 -0.45257537251E+03 -0.66367704802E+03  0.72436633953E+03  0.10816645902E+04  0.25500000920E-02 0.  1.
</event>
<event>
 5   0  0.6445740E-05  0.2131410E+04  0.7818609E-02  0.8547532E-01
        2   -1    0    0  501    0  0.00000000000E+00  0.00000000000E+00  0.15171500135E+04  0.15171500135E+04  0.25500000920E-02 0. -1.
       -2   -1    0    0    0  501  0.00000000000E+00  0.00000000000E+00 -0.74859285900E+03  0.74859285901E+03  0.25500000920E-02 0.  1.
    10030    2    1    2    0    0  0.00000000000E+00  0.00000000000E+00  0.76855715451E+03  0.22657428725E+04  0.21314104871E+04 0.  0.
        5    1    3    3  502    0  0.93010376635E+03  0.10805159071E+03  0.92520840171E+03  0.13163589324E+04  0.46999998093E+01 0.  1.
       -5    1    3    3    0  502 -0.93010376635E+03 -0.10805159071E+03 -0.15665124721E+03  0.94938394008E+03  0.46999998093E+01 0. -1.
</event>
<event>
 5   0  0.2908031E-05  0.2194732E+04  0.7818609E-02  0.8520624E-01
        1   -1    0    0  501    0  0.00000000000E+00  0.00000000000E+00  0.12919292777E+04  0.12919292777E+04  0.50400001928E-02 0. -1.
       -1   -1    0    0    0  501  0.00000000000E+00  0.00000000000E+00 -0.93210399091E+03  0.93210399092E+03  0.50400001928E-02 0.  1.
    10030    2    1    2    0    0  0.00000000000E+00  0.00000000000E+00  0.35982528683E+03  0.22240332687E+04  0.21947322714E+04 0.  0.
        1    1    3    3  502    0 -0.17174955516E+03  0.78962280190E+03  0.93226002595E+03  0.12337385602E+04  0.50400001928E-02 0. -1.
       -1    1    3    3    0  502  0.17174955516E+03 -0.78962280190E+03 -0.57243473912E+03  0.99029470844E+03  0.50400001928E-02 0.  1.
</event>
<event>
 5   0  0.6293013E-05  0.2199826E+04  0.7818609E-02  0.8518500E-01
        2   -1    0    0  501    0  0.00000000000E+00  0.00000000000E+00  0.16154790967E+04  0.16154790967E+04  0.25500000920E-02 0.  1.
       -2   -1    0    0    0  501  0.00000000000E+00  0.00000000000E+00 -0.74888546573E+03  0.74888546574E+03  0.25500000920E-02 0. -1.
    10030    2    1    2    0    0  0.00000000000E+00  0.00000000000E+00  0.86659363093E+03  0.23643645624E+04  0.21998261892E+04 0.  0.
        1    1    3    3  502    0 -0.87506570777E+03  0.21988952944E+03 -0.24281520383E+03  0.93437177895E+03  0.50400001928E-02 0. -1.
       -1    1    3    3    0  502  0.87506570777E+03 -0.21988952944E+03  0.11094088348E+04  0.14299927835E+04  0.50400001928E-02 0.  1.
</event>
<event>
 5   0  0.2908031E-05  0.2129237E+04  0.7818609E-02  0.8548473E-01
       -1   -1    0    0    0  501  0.00000000000E+00  0.00000000000E+00  0.13672550150E+04  0.13672550150E+04  0.50400001928E-02 0.  1.
        1   -1    0    0  501    0  0.00000000000E+00  0.00000000000E+00 -0.82896906219E+03  0.82896906221E+03  0.50400001928E-02 0. -1.
    10030    2    1    2    0    0  0.00000000000E+00  0.00000000000E+00  0.53828595278E+03  0.21962240772E+04  0.21292365839E+04 0.  0.
        1    1    3    3  502    0  0.65641858596E+03  0.28778938516E+03 -0.54283618693E+03  0.89909911359E+03  0.50400001928E-02 0. -1.
       -1    1    3    3    0  502 -0.65641858596E+03 -0.28778938516E+03  0.10811221397E+04  0.12971249636E+04  0.50400001928E-02 0.  1.
</event>
<event>
 5   0  0.6445740E-05  0.2205152E+04  0.7818609E-02  0.8516287E-01
        2   -1    0    0  501    0  0.00000000000E+00  0.00000000000E+00  0.12054723836E+04  0.12054723836E+04  0.25500000920E-02 0.  1.
       -2   -1    0    0    0  501  0.00000000000E+00  0.00000000000E+00 -0.10084630152E+04  0.10084630152E+04  0.25500000920E-02 0. -1.
    10030    2    1    2    0    0  0.00000000000E+00  0.00000000000E+00  0.19700936837E+03  0.22139353988E+04  0.22051524344E+04 0.  0.
        5    1    3    3  502    0  0.18480864817E+03  0.10830203936E+04  0.55897910179E+01  0.10986995700E+04  0.46999998093E+01 0. -1.
       -5    1    3    3    0  502 -0.18480864817E+03 -0.10830203936E+04  0.19141957735E+03  0.11152358288E+04  0.46999998093E+01 0.  1.
</event>
<event>
 5   0  0.6293013E-05  0.2230576E+04  0.7818609E-02  0.8505808E-01
        2   -1    0    0  501    0  0.00000000000E+00  0.00000000000E+00  0.99702768836E+03  0.99702768836E+03  0.25500000920E-02 0.  1.
       -2   -1    0    0    0  501  0.00000000000E+00  0.00000000000E+00 -0.12475754869E+04  0.12475754869E+04  0.25500000920E-02 0. -1.
    10030    2    1    2    0    0  0.00000000000E+00  0.00000000000E+00 -0.25054779851E+03  0.22446031752E+04  0.22305759828E+04 0.  0.
        1    1    3    3  502    0  0.37088493423E+03  0.10513894857E+04 -0.95222769339E+02  0.11189472110E+04  0.50400001928E-02 0.  1.
       -1    1    3    3    0  502 -0.37088493423E+03 -0.10513894857E+04 -0.15532502917E+03  0.11256559643E+04  0.50400001928E-02 0. -1.
</event>
<event>
 5   0  0.6445740E-05  0.2197880E+04  0.7818609E-02  0.8519311E-01
       -2   -1    0    0    0  501  0.00000000000E+00  0.00000000000E+00  0.42096017550E+03  0.42096017551E+03  0.25500000920E-02 0. -1.
        2   -1    0    0  501    0  0.00000000000E+00  0.00000000000E+00 -0.28688447151E+04  0.28688447151E+04  0.25500000920E-02 0.  1.
    10030    2    1    2    0    0  0.00000000000E+00  0.00000000000E+00 -0.24478845396E+04  0.32898048906E+04  0.21978802286E+04 0.  0.
        5    1    3    3  502    0 -0.13245928122E+03 -0.49535571862E+03 -0.26787939400E+04  0.27274313579E+04  0.46999998093E+01 0.  1.
       -5    1    3    3    0  502  0.13245928122E+03  0.49535571862E+03  0.23090940036E+03  0.56237353274E+03  0.46999998093E+01 0. -1.
</event>
<event>
 5   0  0.6445740E-05  0.2223696E+04  0.7818609E-02  0.8508629E-01
       -2   -1    0    0    0  501  0.00000000000E+00  0.00000000000E+00  0.11483164614E+04  0.11483164614E+04  0.25500000920E-02 0.  1.
        2   -1    0    0  501    0  0.00000000000E+00  0.00000000000E+00 -0.10765380599E+04  0.10765380599E+04  0.25500000920E-02 0. -1.
    10030    2    1    2    0    0  0.00000000000E+00  0.00000000000E+00  0.71778401476E+02  0.22248545212E+04  0.22236963601E+04 0.  0.
        5    1    3    3  502    0  0.49546631852E+02  0.11106086917E+04  0.19214668461E+02  0.11118893058E+04  0.46999998093E+01 0. -1.
       -5    1    3    3    0  502 -0.49546631852E+02 -0.11106086917E+04  0.52563733015E+02  0.11129652155E+04  0.46999998093E+01 0.  1.
</event>
<event>
 5   0  0.2929471E-05  0.2196693E+04  0.7818609E-02  0.8519806E-01
       -1   -1    0    0    0  501  0.00000000000E+00  0.00000000000E+00  0.14897350792E+04  0.14897350792E+04  0.50400001928E-02 0. -1.
        1   -1    0    0  501    0  0.00000000000E+00  0.00000000000E+00 -0.80978523767E+03  0.80978523768E+03  0.50400001928E-02 0.  1.
    10030    2    1    2    0    0  0.00000000000E+00  0.00000000000E+00  0.67994984149E+03  0.22995203169E+04  0.21966934016E+04 0.  0.
        2    1    3    3  502    0 -0.22367738682E+03  0.10547841593E+04  0.55896664069E+03  0.12145142657E+04  0.25500000920E-02 0.  1.
       -2    1    3    3    0  502  0.22367738682E+03 -0.10547841593E+04  0.12098320080E+03  0.10850060512E+04  0.25500000920E-02 0. -1.
</event>
<event>
 5   0  0.6293013E-05  0.2225198E+04  0.7818609E-02  0.8508013E-01
       -2   -1    0    0    0  501  0.00000000000E+00  0.00000000000E+00  0.53069361392E+03  0.53069361393E+03  0.25500000920E-02 0.  1.
        2   -1    0    0  501    0  0.00000000000E+00  0.00000000000E+00 -0.23325627596E+04  0.23325627596E+04  0.25500000920E-02 0. -1.
    10030    2    1    2    0    0  0.00000000000E+00  0.00000000000E+00 -0.18018691457E+04  0.28632563735E+04  0.22251976637E+04 0.  0.
        1    1    3    3  502    0 -0.24709896765E+03 -0.68983228035E+03  0.17636146737E+03  0.75367754512E+03  0.50400001928E-02 0.  1.
       -1    1    3    3    0  502  0.24709896765E+03  0.68983228035E+03 -0.19782306130E+04  0.21095788284E+04  0.50400001928E-02 0. -1.
</event>
<event>
 5   0  0.2929471E-05  0.2202013E+04  0.7818609E-02  0.8517591E-01
        1   -1    0    0  501    0  0.00000000000E+00  0.00000000000E+00  0.19474223577E+04  0.19474223577E+04  0.50400001928E-02 0.  1.
       -1   -1    0    0    0  501  0.00000000000E+00  0.00000000000E+00 -0.62247173062E+03  0.62247173064E+03  0.50400001928E-02 0. -1.
    10030    2    1    2    0    0  0.00000000000E+00  0.00000000000E+00  0.13249506271E+04  0.25698940884E+04  0.22020130475E+04 0.  0.
        2    1    3    3  502    0 -0.84459122155E+03 -0.43607134309E+03  0.13109301025E+04  0.16192684402E+04  0.25500000920E-02 0.  1.
       -2    1    3    3    0  502  0.84459122155E+03  0.43607134309E+03  0.14020524566E+02  0.95062564814E+03  0.25500000920E-02 0. -1.
</event>
<event>
 5   0  0.6628798E-05  0.2194959E+04  0.7818609E-02  0.8520529E-01
        2   -1    0    0  501    0  0.00000000000E+00  0.00000000000E+00  0.14224426523E+04  0.14224426523E+04  0.25500000920E-02 0.  1.
       -2   -1    0    0    0  501  0.00000000000E+00  0.00000000000E+00 -0.84675545219E+03  0.84675545220E+03  0.25500000920E-02 0. -1.
    10030    2    1    2    0    0  0.00000000000E+00  0.00000000000E+00  0.57568720006E+03  0.22691981045E+04  0.21949588345E+04 0.  0.
        4    1    3    3  502    0  0.25786714606E+03 -0.90317558960E+03 -0.29901612597E+03  0.98571490155E+03  0.12699999809E+01 0. -1.
       -4    1    3    3    0  502 -0.25786714606E+03  0.90317558960E+03  0.87470332603E+03  0.12834832029E+04  0.12699999809E+01 0.  1.
</event>
<event>
 5   0  0.2820239E-05  0.2229923E+04  0.7818609E-02  0.8506076E-01
       -1   -1    0    0    0  501  0.00000000000E+00  0.00000000000E+00  0.12195288427E+04  0.12195288427E+04  0.50400001928E-02 0.  1.
        1   -1    0    0  501    0  0.00000000000E+00  0.00000000000E+00 -0.10193597837E+04  0.10193597837E+04  0.50400001928E-02 0. -1.
    10030    2    1    2    0    0  0.00000000000E+00  0.00000000000E+00  0.20016905904E+03  0.22388886264E+04  0.22299225612E+04 0.  0.
        3    1    3    3  502    0  0.65755925042E+02  0.10374821951E+04 -0.30458131668E+03  0.10832649424E+04  0.10100000352E+00 0. -1.
       -3    1    3    3    0  502 -0.65755925042E+02 -0.10374821951E+04  0.50475037572E+03  0.11556236839E+04  0.10100000352E+00 0.  1.
</event>
<event>
 5   0  0.6306919E-05  0.2185048E+04  0.7818609E-02  0.8524677E-01
       -2   -1    0    0    0  501  0.00000000000E+00  0.00000000000E+00  0.64870166947E+03  0.64870166948E+03  0.25500000920E-02 0.  1.
        2   -1    0    0  501    0  0.00000000000E+00  0.00000000000E+00 -0.18399956929E+04  0.18399956929E+04  0.25500000920E-02 0. -1.
    10030    2    1    2    0    0  0.00000000000E+00  0.00000000000E+00 -0.11912940235E+04  0.24886973624E+04  0.21850476222E+04 0.  0.
        3    1    3    3  502    0  0.18427093924E+03 -0.10453592893E+04 -0.30110464682E+03  0.11033566248E+04  0.10100000352E+00 0.  1.
       -3    1    3    3    0  502 -0.18427093924E+03  0.10453592893E+04 -0.89018937664E+03  0.13853407376E+04  0.10100000352E+00 0. -1.
</event>
<event>
 5   0  0.2753631E-05  0.2193662E+04  0.7818609E-02  0.8521071E-01
       -1   -1    0    0    0  501  0.00000000000E+00  0.00000000000E+00  0.59019891804E+03  0.59019891806E+03  0.50400001928E-02 0. -1.
        1   -1    0    0  501    0  0.00000000000E+00  0.00000000000E+00 -0.20383607551E+04  0.20383607551E+04  0.50400001928E-02 0.  1.
    10030    2    1    2    0    0  0.00000000000E+00  0.00000000000E+00 -0.14481618371E+04  0.26285596732E+04  0.21936620636E+04 0.  0.
        4    1    3    3  502    0  0.93284769795E+03 -0.44601243589E+03 -0.28560458836E+03  0.10727084946E+04  0.12699999809E+01 0. -1.
       -4    1    3    3    0  502 -0.93284769795E+03  0.44601243589E+03 -0.11625572487E+04  0.15558511786E+04  0.12699999809E+01 0.  1.
</event>
<event>
 5   0  0.6293013E-05  0.2192250E+04  0.7818609E-02  0.8521661E-01
        2   -1    0    0  501    0  0.00000000000E+00  0.00000000000E+00  0.17093812456E+04  0.17093812456E+04  0.25500000920E-02 0. -1.
       -2   -1    0    0    0  501  0.00000000000E+00  0.00000000000E+00 -0.70288003942E+03  0.70288003942E+03  0.25500000920E-02 0.  1.
    10030    2    1    2    0    0  0.00000000000E+00  0.00000000000E+00  0.10065012062E+04  0.24122612850E+04  0.21922499468E+04 0.  0.
        1    1    3    3  502    0 -0.77650792632E+03  0.37420820974E+03 -0.24182599650E+03  0.89525200725E+03  0.50400001928E-02 0.  1.
       -1    1    3    3    0  502  0.77650792632E+03 -0.37420820974E+03  0.12483272027E+04  0.15170092778E+04  0.50400001928E-02 0. -1.
</event>
<event>
 5   0  0.2910318E-05  0.2574594E+04  0.7818609E-02  0.8376882E-01
        1   -1    0    0  501    0  0.00000000000E+00  0.00000000000E+00  0.10340719195E+04  0.10340719195E+04  0.50400001928E-02 0.  1.
       -1   -1    0    0    0  501  0.00000000000E+00  0.00000000000E+00 -0.16025326438E+04  0.16025326439E+04  0.50400001928E-02 0. -1.
    10030    2    1    2    0    0  0.00000000000E+00  0.00000000000E+00 -0.56846072439E+03  0.26366045633E+04  0.25745943424E+04 0.  0.
        5    1    3    3  502    0  0.56186673541E+03 -0.11359870040E+04 -0.53069948262E+02  0.12684633266E+04  0.46999998093E+01 0.  1.
       -5    1    3    3    0  502 -0.56186673541E+03  0.11359870040E+04 -0.51539077613E+03  0.13681412367E+04  0.46999998093E+01 0. -1.
</event>
<event>
 5   0  0.2753631E-05  0.2214666E+04  0.7818609E-02  0.8512349E-01
       -1   -1    0    0    0  501  0.00000000000E+00  0.00000000000E+00  0.10485740636E+04  0.10485740636E+04  0.50400001928E-02 0.  1.
        1   -1    0    0  501    0  0.00000000000E+00  0.00000000000E+00 -0.11693844472E+04  0.11693844472E+04  0.50400001928E-02 0. -1.
    10030    2    1    2    0    0  0.00000000000E+00  0.00000000000E+00 -0.12081038367E+03  0.22179585108E+04  0.22146658454E+04 0.  0.
        4    1    3    3  502    0  0.57911296471E+03 -0.93618303379E+03 -0.18047543565E+03  0.11155193833E+04  0.12699999809E+01 0.  1.
       -4    1    3    3    0  502 -0.57911296471E+03  0.93618303379E+03  0.59665051979E+02  0.11024391276E+04  0.12699999809E+01 0. -1.
</event>
<event>
 5   0  0.6306919E-05  0.2159203E+04  0.7818609E-02  0.8535603E-01
        2   -1    0    0  501    0  0.00000000000E+00  0.00000000000E+00  0.90203157994E+03  0.90203157995E+03  0.25500000920E-02 0. -1.
       -2   -1    0    0    0  501  0.00000000000E+00  0.00000000000E+00 -0.12921266623E+04  0.12921266623E+04  0.25500000920E-02 0.  1.
    10030    2    1    2    0    0  0.00000000000E+00  0.00000000000E+00 -0.39009508236E+03  0.21941582423E+04  0.21592026813E+04 0.  0.
        3    1    3    3  502    0 -0.72122105777E+03 -0.53440293794E+03  0.41449037606E+03  0.98871057257E+03  0.10100000352E+00 0. -1.
       -3    1    3    3    0  502  0.72122105777E+03  0.53440293794E+03 -0.80458545843E+03  0.12054476697E+04  0.10100000352E+00 0.  1.
</event>
<event>
 5   0  0.2910318E-05  0.1844002E+04  0.7818609E-02  0.8683243E-01
        1   -1    0    0  501    0  0.00000000000E+00  0.00000000000E+00  0.93325899159E+03  0.93325899161E+03  0.50400001928E-02 0.  1.
       -1   -1    0    0    0  501  0.00000000000E+00  0.00000000000E+00 -0.91087898774E+03  0.91087898775E+03  0.50400001928E-02 0. -1.
    10030    2    1    2    0    0  0.00000000000E+00  0.00000000000E+00  0.22380003853E+02  0.18441379794E+04  0.18440021753E+04 0.  0.
        5    1    3    3  502    0  0.46174379907E+03 -0.54416126525E+03  0.59496674705E+03  0.92915356033E+03  0.46999998093E+01 0.  1.
       -5    1    3    3    0  502 -0.46174379907E+03  0.54416126525E+03 -0.57258674320E+03  0.91498441903E+03  0.46999998093E+01 0. -1.
</event>
<event>
 5   0  0.2820239E-05  0.2176923E+04  0.7818609E-02  0.8528095E-01
       -1   -1    0    0    0  501  0.00000000000E+00  0.00000000000E+00  0.88299670081E+03  0.88299670083E+03  0.50400001928E-02 0. -1.
        1   -1    0    0  501    0  0.00000000000E+00  0.00000000000E+00 -0.13417357111E+04  0.13417357112E+04  0.50400001928E-02 0.  1.
    10030    2    1    2    0    0  0.00000000000E+00  0.00000000000E+00 -0.45873901034E+03  0.22247324120E+04  0.21769227881E+04 0.  0.
        3    1    3    3  502    0 -0.39791023074E+03  0.10013877097E+04 -0.38649362928E+03  0.11447651430E+04  0.10100000352E+00 0. -1.
       -3    1    3    3    0  502  0.39791023074E+03 -0.10013877097E+04 -0.72245381053E+02  0.10799672690E+04  0.10100000352E+00 0.  1.
</event>
<event>
 5   0  0.2929471E-05  0.2209480E+04  0.7818609E-02  0.8514493E-01
       -1   -1    0    0    0  501  0.00000000000E+00  0.00000000000E+00  0.57671355831E+03  0.57671355833E+03  0.50400001928E-02 0. -1.
        1   -1    0    0  501    0  0.00000000000E+00  0.00000000000E+00 -0.21162165759E+04  0.21162165759E+04  0.50400001928E-02 0.  1.
    10030    2    1    2    0    0  0.00000000000E+00  0.00000000000E+00 -0.15395030176E+04  0.26929301343E+04  0.22094802934E+04 0.  0.
        2    1    3    3  502    0  0.80833976201E+03  0.40881367564E+03 -0.15405050744E+04  0.17870919609E+04  0.25500000920E-02 0.  1.
       -2    1    3    3    0  502 -0.80833976201E+03 -0.40881367564E+03  0.10020568199E+01  0.90583817339E+03  0.25500000920E-02 0. -1.
</event>
<event>
 5   0  0.6414768E-05  0.2200011E+04  0.7818609E-02  0.8518424E-01
       -2   -1    0    0    0  501  0.00000000000E+00  0.00000000000E+00  0.74989643977E+03  0.74989643978E+03  0.25500000920E-02 0. -1.
        2   -1    0    0  501    0  0.00000000000E+00  0.00000000000E+00 -0.16135720215E+04  0.16135720215E+04  0.25500000920E-02 0.  1.
    10030    2    1    2    0    0  0.00000000000E+00  0.00000000000E+00 -0.86367558172E+03  0.23634684613E+04  0.22000108311E+04 0.  0.
        2    1    3    3  502    0  0.49176607662E+03  0.56620363192E+03 -0.12963588125E+04  0.14976536975E+04  0.25500000920E-02 0.  1.
       -2    1    3    3    0  502 -0.49176607662E+03 -0.56620363192E+03  0.43268323079E+03  0.86581476375E+03  0.25500000920E-02 0. -1.
</event>
<event>
 5   0  0.2929471E-05  0.2209965E+04  0.7818609E-02  0.8514292E-01
        1   -1    0    0  501    0  0.00000000000E+00  0.00000000000E+00  0.87401184659E+03  0.87401184660E+03  0.50400001928E-02 0. -1.
       -1   -1    0    0    0  501  0.00000000000E+00  0.00000000000E+00 -0.13969908891E+04  0.13969908891E+04  0.50400001928E-02 0.  1.
    10030    2    1    2    0    0  0.00000000000E+00  0.00000000000E+00 -0.52297904247E+03  0.22710027357E+04  0.22099652365E+04 0.  0.
        2    1    3    3  502    0 -0.85465939699E+03  0.19458185841E+03  0.42990945687E+03  0.97628219568E+03  0.25500000920E-02 0.  1.
       -2    1    3    3    0  502  0.85465939699E+03 -0.19458185841E+03 -0.95288849934E+03  0.12947205400E+04  0.25500000920E-02 0. -1.
</event>
<event>
 5   0  0.2929471E-05  0.2197353E+04  0.7818609E-02  0.8519531E-01
        1   -1    0    0  501    0  0.00000000000E+00  0.00000000000E+00  0.19593373075E+04  0.19593373075E+04  0.50400001928E-02 0.  1.
       -1   -1    0    0    0  501  0.00000000000E+00  0.00000000000E+00 -0.61607035668E+03  0.61607035670E+03  0.50400001928E-02 0. -1.
    10030    2    1    2    0    0  0.00000000000E+00  0.00000000000E+00  0.13432669509E+04  0.25754076642E+04  0.21973526198E+04 0.  0.
        2    1    3    3  502    0  0.57566754604E+03  0.74718105425E+03  0.13319638994E+04  0.16321153393E+04  0.25500000920E-02 0.  1.
       -2    1    3    3    0  502 -0.57566754604E+03 -0.74718105425E+03  0.11303051469E+02  0.94329232498E+03  0.25500000920E-02 0. -1.
</event>
<event>
 5   0  0.2820239E-05  0.2206105E+04  0.7818609E-02  0.8515891E-01
       -1   -1    0    0    0  501  0.00000000000E+00  0.00000000000E+00  0.99823544540E+03  0.99823544541E+03  0.50400001928E-02 0.  1.
        1   -1    0    0  501    0  0.00000000000E+00  0.00000000000E+00 -0.12188754935E+04  0.12188754935E+04  0.50400001928E-02 0. -1.
    10030    2    1    2    0    0  0.00000000000E+00  0.00000000000E+00 -0.22064004813E+03  0.22171109389E+04  0.22061049125E+04 0.  0.
        3    1    3    3  502    0  0.62094010251E+03  0.26121535157E+02  0.80553080909E+03  0.10174128170E+04  0.10100000352E+00 0.  1.
       -3    1    3    3    0  502 -0.62094010251E+03 -0.26121535157E+02 -0.10261708572E+04  0.11996981220E+04  0.10100000352E+00 0. -1.
</event>
<event>
 5   0  0.6293013E-05  0.2196138E+04  0.7818609E-02  0.8520037E-01
        2   -1    0    0  501    0  0.00000000000E+00  0.00000000000E+00  0.14917723732E+04  0.14917723732E+04  0.25500000920E-02 0. -1.
       -2   -1    0    0    0  501  0.00000000000E+00  0.00000000000E+00 -0.80827050542E+03  0.80827050542E+03  0.25500000920E-02 0.  1.
    10030    2    1    2    0    0  0.00000000000E+00  0.00000000000E+00  0.68350186775E+03  0.23000428786E+04  0.21961380740E+04 0.  0.
        1    1    3    3  502    0 -0.55865174565E+03 -0.47264274946E+02 -0.64707510860E+03  0.85617281012E+03  0.50400001928E-02 0.  1.
       -1    1    3    3    0  502  0.55865174565E+03  0.47264274946E+02  0.13305769763E+04  0.14438700685E+04  0.50400001928E-02 0. -1.
</event>
<event>
 5   0  0.6628798E-05  0.2198445E+04  0.7818609E-02  0.8519075E-01
       -2   -1    0    0    0  501  0.00000000000E+00  0.00000000000E+00  0.70397606152E+03  0.70397606152E+03  0.25500000920E-02 0. -1.
        2   -1    0    0  501    0  0.00000000000E+00  0.00000000000E+00 -0.17163800733E+04  0.17163800733E+04  0.25500000920E-02 0.  1.
    10030    2    1    2    0    0  0.00000000000E+00  0.00000000000E+00 -0.10124040118E+04  0.24203561349E+04  0.21984453453E+04 0.  0.
        4    1    3    3  502    0  0.59579996813E+03 -0.91265039904E+03 -0.34903144161E+03  0.11444356308E+04  0.12699999809E+01 0.  1.
       -4    1    3    3    0  502 -0.59579996813E+03  0.91265039904E+03 -0.66337257020E+03  0.12759205041E+04  0.12699999809E+01 0. -1.
</event>
<event>
 5   0  0.2908031E-05  0.2229281E+04  0.7818609E-02  0.8506339E-01
        1   -1    0    0  501    0  0.00000000000E+00  0.00000000000E+00  0.78705524919E+03  0.78705524921E+03  0.50400001928E-02 0.  1.
       -1   -1    0    0    0  501  0.00000000000E+00  0.00000000000E+00 -0.15785723036E+04  0.15785723036E+04  0.50400001928E-02 0. -1.
    10030    2    1    2    0    0  0.00000000000E+00  0.00000000000E+00 -0.79151705442E+03  0.23656275528E+04  0.22292811557E+04 0.  0.
        1    1    3    3  502    0 -0.89253925874E+03  0.25577850045E+03 -0.10502248545E+04  0.14017921439E+04  0.50400001928E-02 0. -1.
       -1    1    3    3    0  502  0.89253925874E+03 -0.25577850045E+03  0.25870780005E+03  0.96383540894E+03  0.50400001928E-02 0.  1.
</event>
<event>
 5   0  0.6293013E-05  0.2140860E+04  0.7818609E-02  0.8543455E-01
       -2   -1    0    0    0  501  0.00000000000E+00  0.00000000000E+00  0.10895470191E+04  0.10895470191E+04  0.25500000920E-02 0.  1.
        2   -1    0    0  501    0  0.00000000000E+00  0.00000000000E+00 -0.10516487463E+04  0.10516487463E+04  0.25500000920E-02 0. -1.
    10030    2    1    2    0    0  0.00000000000E+00  0.00000000000E+00  0.37898272858E+02  0.21411957654E+04  0.21408603473E+04 0.  0.
        1    1    3    3  502    0  0.55299824040E+02 -0.16320055724E+03 -0.10376861030E+04  0.10518958792E+04  0.50400001928E-02 0. -1.
       -1    1    3    3    0  502 -0.55299824040E+02  0.16320055724E+03  0.10755843758E+04  0.10892998861E+04  0.50400001928E-02 0.  1.
</event>
<event>
 5   0  0.6628798E-05  0.2141488E+04  0.7818609E-02  0.8543185E-01
       -2   -1    0    0    0  501  0.00000000000E+00  0.00000000000E+00  0.54077505534E+03  0.54077505534E+03  0.25500000920E-02 0. -1.
        2   -1    0    0  501    0  0.00000000000E+00  0.00000000000E+00 -0.21200914035E+04  0.21200914035E+04  0.25500000920E-02 0.  1.
    10030    2    1    2    0    0  0.00000000000E+00  0.00000000000E+00 -0.15793163482E+04  0.26608664588E+04  0.21414878436E+04 0.  0.
        4    1    3    3  502    0  0.50750896322E+03  0.44880991525E+03  0.24059109528E+03  0.71894462638E+03  0.12699999809E+01 0. -1.
       -4    1    3    3    0  502 -0.50750896322E+03 -0.44880991525E+03 -0.18199074434E+04  0.19419218325E+04  0.12699999809E+01 0.  1.
</event>
<event>
 5   0  0.6445740E-05  0.1959309E+04  0.7818609E-02  0.8625885E-01
        2   -1    0    0  501    0  0.00000000000E+00  0.00000000000E+00  0.10045095029E+04  0.10045095029E+04  0.25500000920E-02 0. -1.
       -2   -1    0    0    0  501  0.00000000000E+00  0.00000000000E+00 -0.95541436402E+03  0.95541436402E+03  0.25500000920E-02 0.  1.
    10030    2    1    2    0    0  0.00000000000E+00  0.00000000000E+00  0.49095138889E+02  0.19599238669E+04  0.19593088658E+04 0.  0.
        5    1    3    3  502    0  0.41791854528E+03  0.67241246849E+03 -0.55261384834E+03  0.96550432088E+03  0.46999998093E+01 0.  1.
       -5    1    3    3    0  502 -0.41791854528E+03 -0.67241246849E+03  0.60170898723E+03  0.99441954605E+03  0.46999998093E+01 0. -1.
</event>
<event>
 5   0  0.6293013E-05  0.2135587E+04  0.7818609E-02  0.8545727E-01
        2   -1    0    0  501    0  0.00000000000E+00  0.00000000000E+00  0.14112555884E+04  0.14112555884E+04  0.25500000920E-02 0. -1.
       -2   -1    0    0    0  501  0.00000000000E+00  0.00000000000E+00 -0.80792131570E+03  0.80792131570E+03  0.25500000920E-02 0.  1.
    10030    2    1    2    0    0  0.00000000000E+00  0.00000000000E+00  0.60333427270E+03  0.22191769041E+04  0.21355874805E+04 0.  0.
        1    1    3    3  502    0  0.37563428845E+03  0.96576430492E+03  0.33936165230E+02  0.10367996309E+04  0.50400001928E-02 0. -1.
       -1    1    3    3    0  502 -0.37563428845E+03 -0.96576430492E+03  0.56939810747E+03  0.11823772732E+04  0.50400001928E-02 0.  1.
</event>
<event>
 5   0  0.6445740E-05  0.2198620E+04  0.7818609E-02  0.8519003E-01
       -2   -1    0    0    0  501  0.00000000000E+00  0.00000000000E+00  0.77947057463E+03  0.77947057463E+03  0.25500000920E-02 0. -1.
        2   -1    0    0  501    0  0.00000000000E+00  0.00000000000E+00 -0.15503884120E+04  0.15503884120E+04  0.25500000920E-02 0.  1.
    10030    2    1    2    0    0  0.00000000000E+00  0.00000000000E+00 -0.77091783737E+03  0.23298589866E+04  0.21986197001E+04 0.  0.
        5    1    3    3  502    0  0.67289565583E+02 -0.69369323103E+02  0.77494946268E+03  0.78096654751E+03  0.46999998093E+01 0. -1.
       -5    1    3    3    0  502 -0.67289565583E+02  0.69369323103E+02 -0.15458673000E+04  0.15488924391E+04  0.46999998093E+01 0.  1.
</event>
<event>
 5   0  0.6293013E-05  0.2259209E+04  0.7818609E-02  0.8494180E-01
        2   -1    0    0  501    0  0.00000000000E+00  0.00000000000E+00  0.13974453627E+04  0.13974453627E+04  0.25500000920E-02 0.  1.
       -2   -1    0    0    0  501  0.00000000000E+00  0.00000000000E+00 -0.91309918857E+03  0.91309918857E+03  0.25500000920E-02 0. -1.
    10030    2    1    2    0    0  0.00000000000E+00  0.00000000000E+00  0.48434617409E+03  0.23105445512E+04  0.22592089117E+04 0.  0.
        1    1    3    3  502    0 -0.82726641509E+03  0.38844253023E+03  0.92114776193E+03  0.12976018342E+04  0.50400001928E-02 0.  1.
       -1    1    3    3    0  502  0.82726641509E+03 -0.38844253023E+03 -0.43680158783E+03  0.10129427170E+04  0.50400001928E-02 0. -1.
</event>
<event>
 5   0  0.2753631E-05  0.2196935E+04  0.7818609E-02  0.8519705E-01
        1   -1    0    0  501    0  0.00000000000E+00  0.00000000000E+00  0.19159379305E+04  0.19159379305E+04  0.50400001928E-02 0. -1.
       -1   -1    0    0    0  501  0.00000000000E+00  0.00000000000E+00 -0.62978591021E+03  0.62978591023E+03  0.50400001928E-02 0.  1.
    10030    2    1    2    0    0  0.00000000000E+00  0.00000000000E+00  0.12861520203E+04  0.25457238407E+04  0.21969348770E+04 0.  0.
        4    1    3    3  502    0 -0.86949142854E+03 -0.42133785412E+03  0.37532227979E+02  0.96692875262E+03  0.12699999809E+01 0.  1.
       -4    1    3    3    0  502  0.86949142854E+03  0.42133785412E+03  0.12486197923E+04  0.15787950881E+04  0.12699999809E+01 0. -1.
</event>
<event>
 5   0  0.2820239E-05  0.2109006E+04  0.7818609E-02  0.8557287E-01
        1   -1    0    0  501    0  0.00000000000E+00  0.00000000000E+00  0.13978757447E+04  0.13978757447E+04  0.50400001928E-02 0. -1.
       -1   -1    0    0    0  501  0.00000000000E+00  0.00000000000E+00 -0.79547593977E+03  0.79547593979E+03  0.50400001928E-02 0.  1.
    10030    2    1    2    0    0  0.00000000000E+00  0.00000000000E+00  0.60239980490E+03  0.21933516845E+04  0.21090059476E+04 0.  0.
        3    1    3    3  502    0 -0.28842447444E+03 -0.36855525314E+03  0.12839548085E+04  0.13665875795E+04  0.10100000352E+00 0. -1.
       -3    1    3    3    0  502  0.28842447444E+03  0.36855525314E+03 -0.68155500360E+03  0.82676410493E+03  0.10100000352E+00 0.  1.
</event>
<event>
 5   0  0.6293013E-05  0.2202351E+04  0.7818609E-02  0.8517450E-01
       -2   -1    0    0    0  501  0.00000000000E+00  0.00000000000E+00  0.58809642047E+03  0.58809642047E+03  0.25500000920E-02 0.  1.
        2   -1    0    0  501    0  0.00000000000E+00  0.00000000000E+00 -0.20618857431E+04  0.20618857431E+04  0.25500000920E-02 0. -1.
    10030    2    1    2    0    0  0.00000000000E+00  0.00000000000E+00 -0.14737893226E+04  0.26499821635E+04  0.22023511300E+04 0.  0.
        1    1    3    3  502    0 -0.19300283881E+03 -0.10800720070E+04 -0.84965407997E+03  0.13877023066E+04  0.50400001928E-02 0.  1.
       -1    1    3    3    0  502  0.19300283881E+03  0.10800720070E+04 -0.62413524263E+03  0.12622798569E+04  0.50400001928E-02 0. -1.
</event>
<event>
 5   0  0.2929471E-05  0.2165042E+04  0.7818609E-02  0.8533121E-01
        1   -1    0    0  501    0  0.00000000000E+00  0.00000000000E+00  0.11522490824E+04  0.11522490824E+04  0.50400001928E-02 0. -1.
       -1   -1    0    0    0  501  0.00000000000E+00  0.00000000000E+00 -0.10170129635E+04  0.10170129635E+04  0.50400001928E-02 0.  1.
    10030    2    1    2    0    0  0.00000000000E+00  0.00000000000E+00  0.13523611886E+03  0.21692620459E+04  0.21650424975E+04 0.  0.
        2    1    3    3  502    0  0.60290231238E+03 -0.30091413045E+02 -0.83271854560E+03  0.10285022448E+04  0.25500000920E-02 0.  1.
       -2    1    3    3    0  502 -0.60290231238E+03  0.30091413045E+02  0.96795466445E+03  0.11407598011E+04  0.25500000920E-02 0. -1.
</event>
<event>
 5   0  0.6414768E-05  0.2192990E+04  0.7818609E-02  0.8521351E-01
        2   -1    0    0  501    0  0.00000000000E+00  0.00000000000E+00  0.29904287405E+04  0.29904287405E+04  0.25500000920E-02 0. -1.
       -2   -1    0    0    0  501  0.00000000000E+00  0.00000000000E+00 -0.40204989572E+03  0.40204989572E+03  0.25500000920E-02 0.  1.
    10030    2    1    2    0    0  0.00000000000E+00  0.00000000000E+00  0.25883788448E+04  0.33924786362E+04  0.21929902538E+04 0.  0.
        2    1    3    3  502    0  0.72016840000E+03  0.72632614332E+01  0.25732274091E+04  0.26721142525E+04  0.25500000920E-02 0. -1.
       -2    1    3    3    0  502 -0.72016840000E+03 -0.72632614332E+01  0.15151435660E+02  0.72036438373E+03  0.25500000920E-02 0.  1.
</event>
<event>
 5   0  0.2753631E-05  0.1767898E+04  0.7818609E-02  0.8723560E-01
       -1   -1    0    0    0  501  0.00000000000E+00  0.00000000000E+00  0.66834918599E+03  0.66834918601E+03  0.50400001928E-02 0. -1.
        1   -1    0    0  501    0  0.00000000000E+00  0.00000000000E+00 -0.11690982710E+04  0.11690982710E+04  0.50400001928E-02 0.  1.
    10030    2    1    2    0    0  0.00000000000E+00  0.00000000000E+00 -0.50074908501E+03  0.18374474570E+04  0.17678980489E+04 0.  0.
        4    1    3    3  502    0  0.38626635777E+03  0.56252332646E+03  0.33362927696E+03  0.75956849546E+03  0.12699999809E+01 0. -1.
       -4    1    3    3    0  502 -0.38626635777E+03 -0.56252332646E+03 -0.83437836196E+03  0.10778789616E+04  0.12699999809E+01 0.  1.
</event>
<event>
 5   0  0.6445740E-05  0.2246599E+04  0.7818609E-02  0.8499279E-01
       -2   -1    0    0    0  501  0.00000000000E+00  0.00000000000E+00  0.12178294229E+04  0.12178294229E+04  0.25500000920E-02 0.  1.
        2   -1    0    0  501    0  0.00000000000E+00  0.00000000000E+00 -0.10361068200E+04  0.10361068200E+04  0.25500000920E-02 0. -1.
    10030    2    1    2    0    0  0.00000000000E+00  0.00000000000E+00  0.18172260281E+03  0.22539362429E+04  0.22465986474E+04 0.  0.
        5    1    3    3  502    0 -0.28551556936E+03 -0.77895892085E+03  0.85062136463E+03  0.11882234372E+04  0.46999998093E+01 0.  1.
       -5    1    3    3    0  502  0.28551556936E+03  0.77895892085E+03 -0.66889876181E+03  0.10657128057E+04  0.46999998093E+01 0. -1.
</event>
<event>
 5   0  0.2753631E-05  0.2197948E+04  0.7818609E-02  0.8519283E-01
        1   -1    0    0  501    0  0.00000000000E+00  0.00000000000E+00  0.11645639479E+04  0.11645639479E+04  0.50400001928E-02 0. -1.
       -1   -1    0    0    0  501  0.00000000000E+00  0.00000000000E+00 -0.10370783532E+04  0.10370783532E+04  0.50400001928E-02 0.  1.
    10030    2    1    2    0    0  0.00000000000E+00  0.00000000000E+00  0.12748559469E+03  0.22016423011E+04  0.21979481898E+04 0.  0.
        4    1    3    3  502    0  0.27182223612E+03 -0.79145199911E+03  0.77730153228E+03  0.11421396061E+04  0.12699999809E+01 0. -1.
       -4    1    3    3    0  502 -0.27182223612E+03  0.79145199911E+03 -0.64981593759E+03  0.10595026949E+04  0.12699999809E+01 0.  1.
</event>
<event>
 5   0  0.6293013E-05  0.2210148E+04  0.7818609E-02  0.8514216E-01
        2   -1    0    0  501    0  0.00000000000E+00  0.00000000000E+00  0.16831468537E+04  0.16831468537E+04  0.25500000920E-02 0. -1.
       -2   -1    0    0    0  501  0.00000000000E+00  0.00000000000E+00 -0.72553864573E+03  0.72553864573E+03  0.25500000920E-02 0.  1.
    10030    2    1    2    0    0  0.00000000000E+00  0.00000000000E+00  0.95760820799E+03  0.24086854994E+04  0.22101475868E+04 0.  0.
        1    1    3    3  502    0 -0.10078537921E+04 -0.22045459801E+02 -0.14556629371E+02  0.10081999624E+04  0.50400001928E-02 0.  1.
       -1    1    3    3    0  502  0.10078537921E+04  0.22045459801E+02  0.97216483736E+03  0.14004855371E+04  0.50400001928E-02 0. -1.
</event>
<event>
 5   0  0.2929471E-05  0.2174275E+04  0.7818609E-02  0.8529213E-01
        1   -1    0    0  501    0  0.00000000000E+00  0.00000000000E+00  0.17019767063E+04  0.17019767063E+04  0.50400001928E-02 0.  1.
       -1   -1    0    0    0  501  0.00000000000E+00  0.00000000000E+00 -0.69440869930E+03  0.69440869932E+03  0.50400001928E-02 0. -1.
    10030    2    1    2    0    0  0.00000000000E+00  0.00000000000E+00  0.10075680070E+04  0.23963854056E+04  0.21742745281E+04 0.  0.
        2    1    3    3  502    0 -0.75192121558E+03 -0.63870437372E+03  0.10070939995E+04  0.14098110212E+04  0.25500000920E-02 0.  1.
       -2    1    3    3    0  502  0.75192121558E+03  0.63870437372E+03  0.47400747520E+00  0.98657438449E+03  0.25500000920E-02 0. -1.
</event>
<event>
 5   0  0.2929471E-05  0.2215471E+04  0.7818609E-02  0.8512016E-01
       -1   -1    0    0    0  501  0.00000000000E+00  0.00000000000E+00  0.88472841186E+03  0.88472841187E+03  0.50400001928E-02 0.  1.
        1   -1    0    0  501    0  0.00000000000E+00  0.00000000000E+00 -0.13869544495E+04  0.13869544495E+04  0.50400001928E-02 0. -1.
    10030    2    1    2    0    0  0.00000000000E+00  0.00000000000E+00 -0.50222603759E+03  0.22716828613E+04  0.22154710627E+04 0.  0.
        2    1    3    3  502    0 -0.17616443599E+03  0.77022322505E+03  0.54498829974E+03  0.95983851339E+03  0.25500000920E-02 0.  1.
       -2    1    3    3    0  502  0.17616443599E+03 -0.77022322505E+03 -0.10472143373E+04  0.13118443479E+04  0.25500000920E-02 0. -1.
</event>
<event>
 5   0  0.2820239E-05  0.2201268E+04  0.7818609E-02  0.8517900E-01
        1   -1    0    0  501    0  0.00000000000E+00  0.00000000000E+00  0.13647923383E+04  0.13647923383E+04  0.50400001928E-02 0. -1.
       -1   -1    0    0    0  501  0.00000000000E+00  0.00000000000E+00 -0.88760427995E+03  0.88760427996E+03  0.50400001928E-02 0.  1.
    10030    2    1    2    0    0  0.00000000000E+00  0.00000000000E+00  0.47718805838E+03  0.22523966183E+04  0.22012682897E+04 0.  0.
        3    1    3    3  502    0  0.18932602471E+03  0.10809908164E+04  0.32426458324E+03  0.11443482944E+04  0.10100000352E+00 0.  1.
       -3    1    3    3    0  502 -0.18932602471E+03 -0.10809908164E+04  0.15292347515E+03  0.11080483239E+04  0.10100000352E+00 0. -1.
</event>
<event>
 5   0  0.2910318E-05  0.2220712E+04  0.7818609E-02  0.8509856E-01
        1   -1    0    0  501    0  0.00000000000E+00  0.00000000000E+00  0.23194810738E+04  0.23194810738E+04  0.50400001928E-02 0.  1.
       -1   -1    0    0    0  501  0.00000000000E+00  0.00000000000E+00 -0.53153724905E+03  0.53153724908E+03  0.50400001928E-02 0. -1.
    10030    2    1    2    0    0  0.00000000000E+00  0.00000000000E+00  0.17879438247E+04  0.28510183229E+04  0.22207121283E+04 0.  0.
        5    1    3    3  502    0  0.10429813561E+04 -0.14492117801E+03  0.13461578527E+04  0.17090861042E+04  0.46999998093E+01 0.  1.
       -5    1    3    3    0  502 -0.10429813561E+04  0.14492117801E+03  0.44178597205E+03  0.11419322187E+04  0.46999998093E+01 0. -1.
</event>
<event>
 5   0  0.2753631E-05  0.2173105E+04  0.7818609E-02  0.8529706E-01
        1   -1    0    0  501    0  0.00000000000E+00  0.00000000000E+00  0.15124165040E+04  0.15124165040E+04  0.50400001928E-02 0.  1.
       -1   -1    0    0    0  501  0.00000000000E+00  0.00000000000E+00 -0.78060293822E+03  0.78060293823E+03  0.50400001928E-02 0. -1.
    10030    2    1    2    0    0  0.00000000000E+00  0.00000000000E+00  0.73181356575E+03  0.22930194422E+04  0.21731053972E+04 0.  0.
        4    1    3    3  502    0 -0.15203316570E+03 -0.23948505998E+03 -0.74084072099E+03  0.79329298762E+03  0.12699999809E+01 0. -1.
       -4    1    3    3    0  502  0.15203316570E+03  0.23948505998E+03  0.14726542867E+04  0.14997264546E+04  0.12699999809E+01 0.  1.
</event>
<event>
 5   0  0.6628798E-05  0.2179488E+04  0.7818609E-02  0.8527014E-01
       -2   -1    0    0    0  501  0.00000000000E+00  0.00000000000E+00  0.76038793180E+03  0.76038793180E+03  0.25500000920E-02 0.  1.
        2   -1    0    0  501    0  0.00000000000E+00  0.00000000000E+00 -0.15617582222E+04  0.15617582222E+04  0.25500000920E-02 0. -1.
    10030    2    1    2    0    0  0.00000000000E+00  0.00000000000E+00 -0.80137029044E+03  0.23221461540E+04  0.21794881092E+04 0.  0.
        4    1    3    3  502    0 -0.99802949497E+03 -0.92544159709E+02 -0.85636262655E+03  0.13183269152E+04  0.12699999809E+01 0. -1.
       -4    1    3    3    0  502  0.99802949497E+03  0.92544159709E+02  0.54992336108E+02  0.10038192388E+04  0.12699999809E+01 0.  1.
</event>
<event>
 5   0  0.6293013E-05  0.2156488E+04  0.7818609E-02  0.8536760E-01
        2   -1    0    0  501    0  0.00000000000E+00  0.00000000000E+00  0.65629672373E+03  0.65629672373E+03  0.25500000920E-02 0. -1.
       -2   -1    0    0    0  501  0.00000000000E+00  0.00000000000E+00 -0.17714702593E+04  0.17714702593E+04  0.25500000920E-02 0.  1.
    10030    2    1    2    0    0  0.00000000000E+00  0.00000000000E+00 -0.11151735356E+04  0.24277669830E+04  0.21564880036E+04 0.  0.
        1    1    3    3  502    0  0.23488969126E+03 -0.72225598149E+03 -0.14192318858E+04  0.16096726424E+04  0.50400001928E-02 0.  1.
       -1    1    3    3    0  502 -0.23488969126E+03  0.72225598149E+03  0.30405835023E+03  0.81809434067E+03  0.50400001928E-02 0. -1.
</event>
<event>
 5   0  0.6445740E-05  0.2229814E+04  0.7818609E-02  0.8506120E-01
        2   -1    0    0  501    0  0.00000000000E+00  0.00000000000E+00  0.20370218843E+04  0.20370218843E+04  0.25500000920E-02 0.  1.
       -2   -1    0    0    0  501  0.00000000000E+00  0.00000000000E+00 -0.61021313476E+03  0.61021313477E+03  0.25500000920E-02 0. -1.
    10030    2    1    2    0    0  0.00000000000E+00  0.00000000000E+00  0.14268087496E+04  0.26472350191E+04  0.22298139022E+04 0.  0.
        5    1    3    3  502    0  0.70536722641E+03 -0.76675193231E+03  0.24218322698E+03  0.10696383759E+04  0.46999998093E+01 0. -1.
       -5    1    3    3    0  502 -0.70536722641E+03  0.76675193231E+03  0.11846255226E+04  0.15775966432E+04  0.46999998093E+01 0.  1.
</event>
<event>
 5   0  0.6414768E-05  0.2231624E+04  0.7818609E-02  0.8505380E-01
       -2   -1    0    0    0  501  0.00000000000E+00  0.00000000000E+00  0.70983240574E+03  0.70983240574E+03  0.25500000920E-02 0. -1.
        2   -1    0    0  501    0  0.00000000000E+00  0.00000000000E+00 -0.17539867731E+04  0.17539867731E+04  0.25500000920E-02 0.  1.
    10030    2    1    2    0    0  0.00000000000E+00  0.00000000000E+00 -0.10441543674E+04  0.24638191789E+04  0.22316242074E+04 0.  0.
        2    1    3    3  502    0  0.19580558659E+03  0.76318369506E+03  0.35022340075E+03  0.86223292130E+03  0.25500000920E-02 0. -1.
       -2    1    3    3    0  502 -0.19580558659E+03 -0.76318369506E+03 -0.13943777681E+04  0.16015862575E+04  0.25500000920E-02 0.  1.
</event>
<event>
 5   0  0.2929471E-05  0.2207902E+04  0.7818609E-02  0.8515146E-01
        1   -1    0    0  501    0  0.00000000000E+00  0.00000000000E+00  0.19490622055E+04  0.19490622056E+04  0.50400001928E-02 0. -1.
       -1   -1    0    0    0  501  0.00000000000E+00  0.00000000000E+00 -0.62527923375E+03  0.62527923377E+03  0.50400001928E-02 0.  1.
    10030    2    1    2    0    0  0.00000000000E+00  0.00000000000E+00  0.13237829718E+04  0.25743414393E+04  0.22079022827E+04 0.  0.
        2    1    3    3  502    0  0.56147725123E+03  0.94083893876E+03  0.50427657963E+03  0.12061216693E+04  0.25500000920E-02 0. -1.
       -2    1    3    3    0  502 -0.56147725123E+03 -0.94083893876E+03  0.81950639217E+03  0.13682197700E+04  0.25500000920E-02 0.  1.
</event>
<event>
 5   0  0.2908031E-05  0.2199374E+04  0.7818609E-02  0.8518689E-01
        1   -1    0    0  501    0  0.00000000000E+00  0.00000000000E+00  0.16031555860E+04  0.16031555860E+04  0.50400001928E-02 0.  1.
       -1   -1    0    0    0  501  0.00000000000E+00  0.00000000000E+00 -0.75433199005E+03  0.75433199007E+03  0.50400001928E-02 0. -1.
    10030    2    1    2    0    0  0.00000000000E+00  0.00000000000E+00  0.84882359595E+03  0.23574875761E+04  0.21993740415E+04 0.  0.
        1    1    3    3  502    0 -0.60229293540E+03  0.44900839325E+03 -0.43640765116E+03  0.86880202305E+03  0.50400001928E-02 0. -1.
       -1    1    3    3    0  502  0.60229293540E+03 -0.44900839325E+03  0.12852312471E+04  0.14886855530E+04  0.50400001928E-02 0.  1.
</event>
<event>
 5   0  0.6445740E-05  0.2195890E+04  0.7818609E-02  0.8520141E-01
        2   -1    0    0  501    0  0.00000000000E+00  0.00000000000E+00  0.11118129193E+04  0.11118129193E+04  0.25500000920E-02 0. -1.
       -2   -1    0    0    0  501  0.00000000000E+00  0.00000000000E+00 -0.10842502281E+04  0.10842502281E+04  0.25500000920E-02 0.  1.
    10030    2    1    2    0    0  0.00000000000E+00  0.00000000000E+00  0.27562691166E+02  0.21960631474E+04  0.21958901715E+04 0.  0.
        5    1    3    3  502    0 -0.26237797147E+02 -0.77121384091E+03 -0.76730649685E+03  0.10882281748E+04  0.46999998093E+01 0.  1.
       -5    1    3    3    0  502  0.26237797147E+02  0.77121384091E+03  0.79486918802E+03  0.11078349726E+04  0.46999998093E+01 0. -1.
</event>
<event>
 5   0  0.6293013E-05  0.2209252E+04  0.7818609E-02  0.8514587E-01
       -2   -1    0    0    0  501  0.00000000000E+00  0.00000000000E+00  0.91659572107E+03  0.91659572107E+03  0.25500000920E-02 0. -1.
        2   -1    0    0  501    0  0.00000000000E+00  0.00000000000E+00 -0.13312290689E+04  0.13312290689E+04  0.25500000920E-02 0.  1.
    10030    2    1    2    0    0  0.00000000000E+00  0.00000000000E+00 -0.41463334780E+03  0.22478247899E+04  0.22092522430E+04 0.  0.
        1    1    3    3  502    0  0.29649764049E+03  0.32400501126E+03  0.82394208388E+03  0.93368659397E+03  0.50400001928E-02 0. -1.
       -1    1    3    3    0  502 -0.29649764049E+03 -0.32400501126E+03 -0.12385754317E+04  0.13141381960E+04  0.50400001928E-02 0.  1.
</event>
<event>
 5   0  0.2910318E-05  0.2185619E+04  0.7818609E-02  0.8524438E-01
       -1   -1    0    0    0  501  0.00000000000E+00  0.00000000000E+00  0.13663500265E+04  0.13663500265E+04  0.50400001928E-02 0. -1.
        1   -1    0    0  501    0  0.00000000000E+00  0.00000000000E+00 -0.87403144976E+03  0.87403144977E+03  0.50400001928E-02 0.  1.
    10030    2    1    2    0    0  0.00000000000E+00  0.00000000000E+00  0.49231857677E+03  0.22403814763E+04  0.21856192666E+04 0.  0.
        5    1    3    3  502    0  0.30790227514E+03  0.71573195656E+03 -0.53928676000E+03  0.94759081052E+03  0.46999998093E+01 0.  1.
       -5    1    3    3    0  502 -0.30790227514E+03 -0.71573195656E+03  0.10316053368E+04  0.12927906658E+04  0.46999998093E+01 0. -1.
</event>
<event>
 5   0  0.2820239E-05  0.2202879E+04  0.7818609E-02  0.8517231E-01
       -1   -1    0    0    0  501  0.00000000000E+00  0.00000000000E+00  0.24190048168E+04  0.24190048168E+04  0.50400001928E-02 0.  1.
        1   -1    0    0  501    0  0.00000000000E+00  0.00000000000E+00 -0.50151560414E+03  0.50151560417E+03  0.50400001928E-02 0. -1.
    10030    2    1    2    0    0  0.00000000000E+00  0.00000000000E+00  0.19174892127E+04  0.29205204210E+04  0.22028787186E+04 0.  0.
        3    1    3    3  502    0 -0.55197303986E+03  0.65636417817E+03  0.42443085027E+02  0.85865569164E+03  0.10100000352E+00 0. -1.
       -3    1    3    3    0  502  0.55197303986E+03 -0.65636417817E+03  0.18750461276E+04  0.20618647293E+04  0.10100000352E+00 0.  1.
</event>
<event>
 5   0  0.6445740E-05  0.2209515E+04  0.7818609E-02  0.8514478E-01
       -2   -1    0    0    0  501  0.00000000000E+00  0.00000000000E+00  0.13658394310E+04  0.13658394310E+04  0.25500000920E-02 0. -1.
        2   -1    0    0  501    0  0.00000000000E+00  0.00000000000E+00 -0.89358178316E+03  0.89358178316E+03  0.25500000920E-02 0.  1.
    10030    2    1    2    0    0  0.00000000000E+00  0.00000000000E+00  0.47225764786E+03  0.22594212142E+04  0.22095150910E+04 0.  0.
        5    1    3    3  502    0  0.45239579142E+03  0.27312723887E+03  0.12281997810E+04  0.13370703919E+04  0.46999998093E+01 0. -1.
       -5    1    3    3    0  502 -0.45239579142E+03 -0.27312723887E+03 -0.75594213317E+03  0.92235082231E+03  0.46999998093E+01 0.  1.
</event>
<event>
 5   0  0.2820239E-05  0.2236200E+04  0.7818609E-02  0.8503510E-01
        1   -1    0    0  501    0  0.00000000000E+00  0.00000000000E+00  0.71532911165E+03  0.71532911167E+03  0.50400001928E-02 0. -1.
       -1   -1    0    0    0  501  0.00000000000E+00  0.00000000000E+00 -0.17476544331E+04  0.17476544331E+04  0.50400001928E-02 0.  1.
    10030    2    1    2    0    0  0.00000000000E+00  0.00000000000E+00 -0.10323253214E+04  0.24629835447E+04  0.22362004321E+04 0.  0.
        3    1    3    3  502    0  0.10903545129E+04  0.78640086813E+02 -0.25764480632E+03  0.11231376067E+04  0.10100000352E+00 0. -1.
       -3    1    3    3    0  502 -0.10903545129E+04 -0.78640086813E+02 -0.77468051510E+03  0.13398459381E+04  0.10100000352E+00 0.  1.
</event>
<event>
 5   0  0.6445740E-05  0.2204059E+04  0.7818609E-02  0.8516741E-01
       -2   -1    0    0    0  501  0.00000000000E+00  0.00000000000E+00  0.12655551461E+04  0.12655551461E+04  0.25500000920E-02 0.  1.
        2   -1    0    0  501    0  0.00000000000E+00  0.00000000000E+00 -0.95963302215E+03  0.95963302215E+03  0.25500000920E-02 0. -1.
    10030    2    1    2    0    0  0.00000000000E+00  0.00000000000E+00  0.30592212393E+03  0.22251881682E+04  0.22040585378E+04 0.  0.
        5    1    3    3  502    0  0.91269872815E+02  0.73830644375E+03 -0.66786447538E+03  0.99974578870E+03  0.46999998093E+01 0. -1.
       -5    1    3    3    0  502 -0.91269872815E+02 -0.73830644375E+03  0.97378659931E+03  0.12254423795E+04  0.46999998093E+01 0.  1.
</event>
<event>
 5   0  0.2929471E-05  0.2201408E+04  0.7818609E-02  0.8517842E-01
        1   -1    0    0  501    0  0.00000000000E+00  0.00000000000E+00  0.99043924557E+03  0.99043924559E+03  0.50400001928E-02 0. -1.
       -1   -1    0    0    0  501  0.00000000000E+00  0.00000000000E+00 -0.12232445977E+04  0.12232445977E+04  0.50400001928E-02 0.  1.
    10030    2    1    2    0    0  0.00000000000E+00  0.00000000000E+00 -0.23280535213E+03  0.22136838433E+04  0.22014081462E+04 0.  0.
        2    1    3    3  502    0  0.72702394054E+03 -0.53169805152E+03 -0.75260976813E+03  0.11737495862E+04  0.25500000920E-02 0.  1.
       -2    1    3    3    0  502 -0.72702394054E+03  0.53169805152E+03  0.51980441600E+03  0.10399342571E+04  0.25500000920E-02 0. -1.
</event>
<event>
 5   0  0.6293013E-05  0.2200751E+04  0.7818609E-02  0.8518115E-01
       -2   -1    0    0    0  501  0.00000000000E+00  0.00000000000E+00  0.85614704684E+03  0.85614704685E+03  0.25500000920E-02 0.  1.
        2   -1    0    0  501    0  0.00000000000E+00  0.00000000000E+00 -0.14142741880E+04  0.14142741880E+04  0.25500000920E-02 0. -1.
    10030    2    1    2    0    0  0.00000000000E+00  0.00000000000E+00 -0.55812714119E+03  0.22704212349E+04  0.22007513894E+04 0.  0.
        1    1    3    3  502    0  0.18589048031E+03  0.10544282112E+04 -0.54097562987E+03  0.11995952464E+04  0.50400001928E-02 0.  1.
       -1    1    3    3    0  502 -0.18589048031E+03 -0.10544282112E+04 -0.17151511322E+02  0.10708259884E+04  0.50400001928E-02 0. -1.
</event>
<event>
 5   0  0.2929471E-05  0.2205512E+04  0.7818609E-02  0.8516137E-01
       -1   -1    0    0    0  501  0.00000000000E+00  0.00000000000E+00  0.55173498540E+03  0.55173498542E+03  0.50400001928E-02 0.  1.
        1   -1    0    0  501    0  0.00000000000E+00  0.00000000000E+00 -0.22040859557E+04  0.22040859557E+04  0.50400001928E-02 0. -1.
    10030    2    1    2    0    0  0.00000000000E+00  0.00000000000E+00 -0.16523509703E+04  0.27558209411E+04  0.22055124870E+04 0.  0.
        2    1    3    3  502    0 -0.19514426693E+03  0.80580745041E+03  0.82338272674E+02  0.83317856622E+03  0.25500000920E-02 0.  1.
       -2    1    3    3    0  502  0.19514426693E+03 -0.80580745041E+03 -0.17346892429E+04  0.19226423749E+04  0.25500000920E-02 0. -1.
</event>
<event>
 5   0  0.6628798E-05  0.2150424E+04  0.7818609E-02  0.8539351E-01
       -2   -1    0    0    0  501  0.00000000000E+00  0.00000000000E+00  0.11740357723E+04  0.11740357723E+04  0.25500000920E-02 0.  1.
        2   -1    0    0  501    0  0.00000000000E+00  0.00000000000E+00 -0.98470676993E+03  0.98470676993E+03  0.25500000920E-02 0. -1.
    10030    2    1    2    0    0  0.00000000000E+00  0.00000000000E+00  0.18932900241E+03  0.21587425423E+04  0.21504241193E+04 0.  0.
        4    1    3    3  502    0 -0.63129379760E+03 -0.43636544533E+03 -0.66133075779E+03  0.10130679369E+04  0.12699999809E+01 0. -1.
       -4    1    3    3    0  502  0.63129379760E+03  0.43636544533E+03  0.85065976020E+03  0.11456746053E+04  0.12699999809E+01 0.  1.
</event>
<event>
 5   0  0.2753631E-05  0.2197218E+04  0.7818609E-02  0.8519587E-01
       -1   -1    0    0    0  501  0.00000000000E+00  0.00000000000E+00  0.58062292570E+03  0.58062292573E+03  0.50400001928E-02 0.  1.
        1   -1    0    0  501    0  0.00000000000E+00  0.00000000000E+00 -0.20787009526E+04  0.20787009526E+04  0.50400001928E-02 0. -1.
    10030    2    1    2    0    0  0.00000000000E+00  0.00000000000E+00 -0.14980780269E+04  0.26593238784E+04  0.21972177214E+04 0.  0.
        4    1    3    3  502    0  0.68433278291E+03  0.17944527873E+03  0.26822117035E+03  0.75660833656E+03  0.12699999809E+01 0.  1.
       -4    1    3    3    0  502 -0.68433278291E+03 -0.17944527873E+03 -0.17662991973E+04  0.19027155418E+04  0.12699999809E+01 0. -1.
</event>
<event>
 5   0  0.2929471E-05  0.2200021E+04  0.7818609E-02  0.8518419E-01
       -1   -1    0    0    0  501  0.00000000000E+00  0.00000000000E+00  0.10334780514E+04  0.10334780514E+04  0.50400001928E-02 0.  1.
        1   -1    0    0  501    0  0.00000000000E+00  0.00000000000E+00 -0.11708260039E+04  0.11708260039E+04  0.50400001928E-02 0. -1.
    10030    2    1    2    0    0  0.00000000000E+00  0.00000000000E+00 -0.13734795246E+03  0.22043040553E+04  0.22000208881E+04 0.  0.
        2    1    3    3  502    0  0.70363167397E+03  0.82370809169E+03  0.12256517569E+03  0.10902361099E+04  0.25500000920E-02 0.  1.
       -2    1    3    3    0  502 -0.70363167397E+03 -0.82370809169E+03 -0.25991312816E+03  0.11140679455E+04  0.25500000920E-02 0. -1.
</event>
<event>
 5   0  0.2910318E-05  0.2199635E+04  0.7818609E-02  0.8518580E-01
       -1   -1    0    0    0  501  0.00000000000E+00  0.00000000000E+00  0.81057111530E+03  0.81057111532E+03  0.50400001928E-02 0.  1.
        1   -1    0    0  501    0  0.00000000000E+00  0.00000000000E+00 -0.14922795046E+04  0.14922795046E+04  0.50400001928E-02 0. -1.
    10030    2    1    2    0    0  0.00000000000E+00  0.00000000000E+00 -0.68170838926E+03  0.23028506199E+04  0.21996351174E+04 0.  0.
        5    1    3    3  502    0 -0.89989292071E+03  0.61350273291E+03 -0.50094697286E+03  0.11988172637E+04  0.46999998093E+01 0. -1.
       -5    1    3    3    0  502  0.89989292071E+03 -0.61350273291E+03 -0.18076141640E+03  0.11040333562E+04  0.46999998093E+01 0.  1.
</event>
<event>
 5   0  0.2929471E-05  0.2226185E+04  0.7818609E-02  0.8507608E-01
       -1   -1    0    0    0  501  0.00000000000E+00  0.00000000000E+00  0.73989862949E+03  0.73989862951E+03  0.50400001928E-02 0.  1.
        1   -1    0    0  501    0  0.00000000000E+00  0.00000000000E+00 -0.16745193856E+04  0.16745193856E+04  0.50400001928E-02 0. -1.
    10030    2    1    2    0    0  0.00000000000E+00  0.00000000000E+00 -0.93462075612E+03  0.24144180151E+04  0.22261847170E+04 0.  0.
        2    1    3    3  502    0  0.50754238909E+03 -0.19872993672E+02  0.60688042067E+03  0.79138995293E+03  0.25500000920E-02 0.  1.
       -2    1    3    3    0  502 -0.50754238909E+03  0.19872993672E+02 -0.15415011768E+04  0.16230280622E+04  0.25500000920E-02 0. -1.
</event>
<event>
 5   0  0.2820239E-05  0.2198057E+04  0.7818609E-02  0.8519237E-01
       -1   -1    0    0    0  501  0.00000000000E+00  0.00000000000E+00  0.85092557188E+03  0.85092557190E+03  0.50400001928E-02 0. -1.
        1   -1    0    0  501    0  0.00000000000E+00  0.00000000000E+00 -0.14194707210E+04  0.14194707210E+04  0.50400001928E-02 0.  1.
    10030    2    1    2    0    0  0.00000000000E+00  0.00000000000E+00 -0.56854514908E+03  0.22703962929E+04  0.21980572650E+04 0.  0.
        3    1    3    3  502    0  0.76109004202E+03 -0.63816665396E+03  0.20168867410E+03  0.10135053339E+04  0.10100000352E+00 0. -1.
       -3    1    3    3    0  502 -0.76109004202E+03  0.63816665396E+03 -0.77023382318E+03  0.12568909590E+04  0.10100000352E+00 0.  1.
</event>
<event>
 5   0  0.2910318E-05  0.2134229E+04  0.7818609E-02  0.8546313E-01
       -1   -1    0    0    0  501  0.00000000000E+00  0.00000000000E+00  0.86051097597E+03  0.86051097599E+03  0.50400001928E-02 0.  1.
        1   -1    0    0  501    0  0.00000000000E+00  0.00000000000E+00 -0.13233226601E+04  0.13233226601E+04  0.50400001928E-02 0. -1.
    10030    2    1    2    0    0  0.00000000000E+00  0.00000000000E+00 -0.46281168409E+03  0.21838336361E+04  0.21342292977E+04 0.  0.
        5    1    3    3  502    0 -0.29439222176E+03 -0.39367119699E+03  0.73774439337E+03  0.88652843808E+03  0.46999998093E+01 0.  1.
       -5    1    3    3    0  502  0.29439222176E+03  0.39367119699E+03 -0.12005560775E+04  0.12973051980E+04  0.46999998093E+01 0. -1.
</event>
<event>
 5   0  0.2910318E-05  0.2240722E+04  0.7818609E-02  0.8501667E-01
        1   -1    0    0  501    0  0.00000000000E+00  0.00000000000E+00  0.13114231505E+04  0.13114231505E+04  0.50400001928E-02 0. -1.
       -1   -1    0    0    0  501  0.00000000000E+00  0.00000000000E+00 -0.95713494718E+03  0.95713494720E+03  0.50400001928E-02 0.  1.
    10030    2    1    2    0    0  0.00000000000E+00  0.00000000000E+00  0.35428820329E+03  0.22685580977E+04  0.22407221406E+04 0.  0.
        5    1    3    3  502    0 -0.47149076755E+03  0.90483041375E+03  0.64567298473E+03  0.12074507504E+04  0.46999998093E+01 0. -1.
       -5    1    3    3    0  502  0.47149076755E+03 -0.90483041375E+03 -0.29138478144E+03  0.10611073472E+04  0.46999998093E+01 0.  1.
</event>
<event>
 5   0  0.2910318E-05  0.2187794E+04  0.7818609E-02  0.8523526E-01
       -1   -1    0    0    0  501  0.00000000000E+00  0.00000000000E+00  0.10243806046E+04  0.10243806046E+04  0.50400001928E-02 0. -1.
        1   -1    0    0  501    0  0.00000000000E+00  0.00000000000E+00 -0.11681310126E+04  0.11681310126E+04  0.50400001928E-02 0.  1.
    10030    2    1    2    0    0  0.00000000000E+00  0.00000000000E+00 -0.14375040802E+03  0.21925116172E+04  0.21877940972E+04 0.  0.
        5    1    3    3  502    0  0.31890180309E+03 -0.88636870940E+03 -0.62916855402E+03  0.11327943363E+04  0.46999998093E+01 0.  1.
       -5    1    3    3    0  502 -0.31890180309E+03  0.88636870940E+03  0.48541814600E+03  0.10597172809E+04  0.46999998093E+01 0. -1.
</event>
<event>
 5   0  0.6628798E-05  0.2222902E+04  0.7818609E-02  0.8508956E-01
       -2   -1    0    0    0  501  0.00000000000E+00  0.00000000000E+00  0.17306496179E+04  0.17306496179E+04  0.25500000920E-02 0. -1.
        2   -1    0    0  501    0  0.00000000000E+00  0.00000000000E+00 -0.71379192792E+03  0.71379192792E+03  0.25500000920E-02 0.  1.
    10030    2    1    2    0    0  0.00000000000E+00  0.00000000000E+00  0.10168576900E+04  0.24444415458E+04  0.22229023616E+04 0.  0.
        4    1    3    3  502    0 -0.43387536015E+03  0.88495657840E+03  0.10733664347E+04  0.14572278785E+04  0.12699999809E+01 0. -1.
       -4    1    3    3    0  502  0.43387536015E+03 -0.88495657840E+03 -0.56508744761E+02  0.98721366731E+03  0.12699999809E+01 0.  1.
</event>
<event>
 5   0  0.2753631E-05  0.2198284E+04  0.7818609E-02  0.8519143E-01
       -1   -1    0    0    0  501  0.00000000000E+00  0.00000000000E+00  0.75266732999E+03  0.75266733001E+03  0.50400001928E-02 0. -1.
        1   -1    0    0  501    0  0.00000000000E+00  0.00000000000E+00 -0.16051091616E+04  0.16051091616E+04  0.50400001928E-02 0.  1.
    10030    2    1    2    0    0  0.00000000000E+00  0.00000000000E+00 -0.85244183161E+03  0.23577764916E+04  0.21982840827E+04 0.  0.
        4    1    3    3  502    0 -0.79878848069E+03  0.75331486580E+03 -0.37189749987E+03  0.11592478972E+04  0.12699999809E+01 0.  1.
       -4    1    3    3    0  502  0.79878848069E+03 -0.75331486580E+03 -0.48054433173E+03  0.11985285944E+04  0.12699999809E+01 0. -1.
</event>
<event>
 5   0  0.6306919E-05  0.2216654E+04  0.7818609E-02  0.8511528E-01
        2   -1    0    0  501    0  0.00000000000E+00  0.00000000000E+00  0.11984347902E+04  0.11984347902E+04  0.25500000920E-02 0.  1.
       -2   -1    0    0    0  501  0.00000000000E+00  0.00000000000E+00 -0.10249940401E+04  0.10249940401E+04  0.25500000920E-02 0. -1.
    10030    2    1    2    0    0  0.00000000000E+00  0.00000000000E+00  0.17344075010E+03  0.22234288303E+04  0.22166538001E+04 0.  0.
        3    1    3    3  502    0 -0.63268592093E+02  0.21309030964E+03  0.11758466469E+04  0.11966727799E+04  0.10100000352E+00 0.  1.
       -3    1    3    3    0  502  0.63268592093E+02 -0.21309030964E+03 -0.10024058968E+04  0.10267560504E+04  0.10100000352E+00 0. -1.
</event>
<event>
 5   0  0.6293013E-05  0.2363209E+04  0.7818609E-02  0.8453407E-01
        2   -1    0    0  501    0  0.00000000000E+00  0.00000000000E+00  0.11606294153E+04  0.11606294153E+04  0.25500000920E-02 0.  1.
       -2   -1    0    0    0  501  0.00000000000E+00  0.00000000000E+00 -0.12029586672E+04  0.12029586672E+04  0.25500000920E-02 0. -1.
    10030    2    1    2    0    0  0.00000000000E+00  0.00000000000E+00 -0.42329251902E+02  0.23635880825E+04  0.23632090170E+04 0.  0.
        1    1    3    3  502    0  0.17045897158E+03 -0.90603441619E+03  0.71803077407E+03  0.11685558681E+04  0.50400001928E-02 0.  1.
       -1    1    3    3    0  502 -0.17045897158E+03  0.90603441619E+03 -0.76036002597E+03  0.11950322144E+04  0.50400001928E-02 0. -1.
</event>
<event>
 5   0  0.2753631E-05  0.2193132E+04  0.7818609E-02  0.8521292E-01
       -1   -1    0    0    0  501  0.00000000000E+00  0.00000000000E+00  0.14491929212E+04  0.14491929212E+04  0.50400001928E-02 0. -1.
        1   -1    0    0  501    0  0.00000000000E+00  0.00000000000E+00 -0.82974274853E+03  0.82974274855E+03  0.50400001928E-02 0.  1.
    10030    2    1    2    0    0  0.00000000000E+00  0.00000000000E+00  0.61945017268E+03  0.22789356698E+04  0.21931322966E+04 0.  0.
        4    1    3    3  502    0 -0.79500656314E+02 -0.14269925954E+03 -0.81702822360E+03  0.83319875425E+03  0.12699999809E+01 0.  1.
       -4    1    3    3    0  502  0.79500656314E+02  0.14269925954E+03  0.14364783963E+04  0.14457369155E+04  0.12699999809E+01 0. -1.
</event>
<event>
 5   0  0.6293013E-05  0.2197053E+04  0.7818609E-02  0.8519656E-01
       -2   -1    0    0    0  501  0.00000000000E+00  0.00000000000E+00  0.44148587809E+03  0.44148587809E+03  0.25500000920E-02 0.  1.
        2   -1    0    0  501    0  0.00000000000E+00  0.00000000000E+00 -0.27334062147E+04  0.27334062147E+04  0.25500000920E-02 0. -1.
    10030    2    1    2    0    0  0.00000000000E+00  0.00000000000E+00 -0.22919203366E+04  0.31748920928E+04  0.21970527922E+04 0.  0.
        1    1    3    3  502    0  0.51574316363E+03  0.46892802615E+03  0.80966711755E+02  0.70174077335E+03  0.50400001928E-02 0. -1.
       -1    1    3    3    0  502 -0.51574316363E+03 -0.46892802615E+03 -0.23728870484E+04  0.24731513195E+04  0.50400001928E-02 0.  1.
</event>
<event>
 5   0  0.6306919E-05  0.2190271E+04  0.7818609E-02  0.8522489E-01
        2   -1    0    0  501    0  0.00000000000E+00  0.00000000000E+00  0.10759206652E+04  0.10759206652E+04  0.25500000920E-02 0. -1.
       -2   -1    0    0    0  501  0.00000000000E+00  0.00000000000E+00 -0.11146933080E+04  0.11146933080E+04  0.25500000920E-02 0.  1.
    10030    2    1    2    0    0  0.00000000000E+00  0.00000000000E+00 -0.38772642722E+02  0.21906139732E+04  0.21902708193E+04 0.  0.
        3    1    3    3  502    0  0.25140411961E+03 -0.18109165151E+03  0.10311702379E+04  0.10767127228E+04  0.10100000352E+00 0. -1.
       -3    1    3    3    0  502 -0.25140411961E+03  0.18109165151E+03 -0.10699428807E+04  0.11139012504E+04  0.10100000352E+00 0.  1.
</event>
<event>
 5   0  0.2929471E-05  0.2185823E+04  0.7818609E-02  0.8524352E-01
        1   -1    0    0  501    0  0.00000000000E+00  0.00000000000E+00  0.13764177835E+04  0.13764177835E+04  0.50400001928E-02 0. -1.
       -1   -1    0    0    0  501  0.00000000000E+00  0.00000000000E+00 -0.86780033452E+03  0.86780033453E+03  0.50400001928E-02 0.  1.
    10030    2    1    2    0    0  0.00000000000E+00  0.00000000000E+00  0.50861744898E+03  0.22442181180E+04  0.21858232435E+04 0.  0.
        2    1    3    3  502    0 -0.45929971116E+03 -0.70448518764E+03 -0.46233575081E+03  0.95969263348E+03  0.25500000920E-02 0.  1.
       -2    1    3    3    0  502  0.45929971116E+03  0.70448518764E+03  0.97095319979E+03  0.12845254846E+04  0.25500000920E-02 0. -1.
</event>
<event>
 5   0  0.6306919E-05  0.2199578E+04  0.7818609E-02  0.8518604E-01
        2   -1    0    0  501    0  0.00000000000E+00  0.00000000000E+00  0.15002028412E+04  0.15002028413E+04  0.25500000920E-02 0. -1.
       -2   -1    0    0    0  501  0.00000000000E+00  0.00000000000E+00 -0.80624785088E+03  0.80624785089E+03  0.25500000920E-02 0.  1.
    10030    2    1    2    0    0  0.00000000000E+00  0.00000000000E+00  0.69395499037E+03  0.23064506921E+04  0.21995775200E+04 0.  0.
        3    1    3    3  502    0 -0.34734163885E+03  0.89469956110E+03 -0.21614629617E+03  0.98379507534E+03  0.10100000352E+00 0.  1.
       -3    1    3    3    0  502  0.34734163885E+03 -0.89469956110E+03  0.91010128653E+03  0.13226556168E+04  0.10100000352E+00 0. -1.
</event>
<event>
 5   0  0.2753631E-05  0.2174380E+04  0.7818609E-02  0.8529168E-01
       -1   -1    0    0    0  501  0.00000000000E+00  0.00000000000E+00  0.10765115146E+04  0.10765115146E+04  0.50400001928E-02 0. -1.
        1   -1    0    0  501    0  0.00000000000E+00  0.00000000000E+00 -0.10979740348E+04  0.10979740348E+04  0.50400001928E-02 0.  1.
    10030    2    1    2    0    0  0.00000000000E+00  0.00000000000E+00 -0.21462520224E+02  0.21744855494E+04  0.21743796276E+04 0.  0.
        4    1    3    3  502    0 -0.38954090315E+03 -0.88580264883E+02  0.10004517653E+04  0.10772622365E+04  0.12699999809E+01 0. -1.
       -4    1    3    3    0  502  0.38954090315E+03  0.88580264883E+02 -0.10219142855E+04  0.10972233129E+04  0.12699999809E+01 0.  1.
</event>
<event>
 5   0  0.2929471E-05  0.2211216E+04  0.7818609E-02  0.8513774E-01
       -1   -1    0    0    0  501  0.00000000000E+00  0.00000000000E+00  0.72361220602E+03  0.72361220604E+03  0.50400001928E-02 0. -1.
        1   -1    0    0  501    0  0.00000000000E+00  0.00000000000E+00 -0.16892592521E+04  0.16892592521E+04  0.50400001928E-02 0.  1.
    10030    2    1    2    0    0  0.00000000000E+00  0.00000000000E+00 -0.96564704606E+03  0.24128714581E+04  0.22112156059E+04 0.  0.
        2    1    3    3  502    0 -0.26510315620E+03  0.97485498983E+03  0.73008423237E+01  0.10102847306E+04  0.25500000920E-02 0. -1.
       -2    1    3    3    0  502  0.26510315620E+03 -0.97485498983E+03 -0.97294788839E+03  0.14025867275E+04  0.25500000920E-02 0.  1.
</event>
<event>
 5   0  0.2908031E-05  0.2232313E+04  0.7818609E-02  0.8505098E-01
       -1   -1    0    0    0  501  0.00000000000E+00  0.00000000000E+00  0.10608165884E+04  0.10608165884E+04  0.50400001928E-02 0.  1.
        1   -1    0    0  501    0  0.00000000000E+00  0.00000000000E+00 -0.11743830322E+04  0.11743830322E+04  0.50400001928E-02 0. -1.
    10030    2    1    2    0    0  0.00000000000E+00  0.00000000000E+00 -0.11356644378E+03  0.22351996206E+04  0.22323127036E+04 0.  0.
        1    1    3    3  502    0  0.88518906779E+03 -0.67677096614E+03  0.83114310764E+01  0.11142924689E+04  0.50400001928E-02 0.  1.
       -1    1    3    3    0  502 -0.88518906779E+03  0.67677096614E+03 -0.12187787485E+03  0.11209071517E+04  0.50400001928E-02 0. -1.
</event>
<event>
 5   0  0.6293013E-05  0.2168290E+04  0.7818609E-02  0.8531743E-01
        2   -1    0    0  501    0  0.00000000000E+00  0.00000000000E+00  0.27050236274E+04  0.27050236274E+04  0.25500000920E-02 0. -1.
       -2   -1    0    0    0  501  0.00000000000E+00  0.00000000000E+00 -0.43451404000E+03  0.43451404001E+03  0.25500000920E-02 0.  1.
    10030    2    1    2    0    0  0.00000000000E+00  0.00000000000E+00  0.22705095874E+04  0.31395376674E+04  0.21682903354E+04 0.  0.
        1    1    3    3  502    0 -0.84541307501E+03  0.63115915639E+03  0.14966164582E+04  0.18311051229E+04  0.50400001928E-02 0. -1.
       -1    1    3    3    0  502  0.84541307501E+03 -0.63115915639E+03  0.77389312918E+03  0.13084325445E+04  0.50400001928E-02 0.  1.
</event>
<event>
 5   0  0.2908031E-05  0.2225967E+04  0.7818609E-02  0.8507697E-01
        1   -1    0    0  501    0  0.00000000000E+00  0.00000000000E+00  0.12919652890E+04  0.12919652890E+04  0.50400001928E-02 0.  1.
       -1   -1    0    0    0  501  0.00000000000E+00  0.00000000000E+00 -0.95879660298E+03  0.95879660299E+03  0.50400001928E-02 0. -1.
    10030    2    1    2    0    0  0.00000000000E+00  0.00000000000E+00  0.33316868605E+03  0.22507618920E+04  0.22259666937E+04 0.  0.
        1    1    3    3  502    0 -0.99387858692E+03 -0.49072811509E+03  0.64849471975E+02  0.11103216572E+04  0.50400001928E-02 0.  1.
       -1    1    3    3    0  502  0.99387858692E+03  0.49072811509E+03  0.26831921408E+03  0.11404402348E+04  0.50400001928E-02 0. -1.
</event>
<event>
 5   0  0.2753631E-05  0.2176659E+04  0.7818609E-02  0.8528206E-01
       -1   -1    0    0    0  501  0.00000000000E+00  0.00000000000E+00  0.79646935278E+03  0.79646935280E+03  0.50400001928E-02 0.  1.
        1   -1    0    0  501    0  0.00000000000E+00  0.00000000000E+00 -0.14871395639E+04  0.14871395639E+04  0.50400001928E-02 0. -1.
    10030    2    1    2    0    0  0.00000000000E+00  0.00000000000E+00 -0.69067021108E+03  0.22836089167E+04  0.21766589866E+04 0.  0.
        4    1    3    3  502    0 -0.50100871051E+02  0.35884520463E+03 -0.14220049102E+04  0.14674397962E+04  0.12699999809E+01 0. -1.
       -4    1    3    3    0  502  0.50100871051E+02 -0.35884520463E+03  0.73133469908E+03  0.81616912043E+03  0.12699999809E+01 0.  1.
</event>
<event>
 5   0  0.6414768E-05  0.2122793E+04  0.7818609E-02  0.8551269E-01
        2   -1    0    0  501    0  0.00000000000E+00  0.00000000000E+00  0.16355707361E+04  0.16355707361E+04  0.25500000920E-02 0.  1.
       -2   -1    0    0    0  501  0.00000000000E+00  0.00000000000E+00 -0.68878873752E+03  0.68878873753E+03  0.25500000920E-02 0. -1.
    10030    2    1    2    0    0  0.00000000000E+00  0.00000000000E+00  0.94678199855E+03  0.23243594736E+04  0.21227931623E+04 0.  0.
        2    1    3    3  502    0  0.63714114621E+03  0.80926549877E+03  0.75405642996E+03  0.12765032657E+04  0.25500000920E-02 0. -1.
       -2    1    3    3    0  502 -0.63714114621E+03 -0.80926549877E+03  0.19272556859E+03  0.10478562079E+04  0.25500000920E-02 0.  1.
</event>
<event>
 5   0  0.6414768E-05  0.2191611E+04  0.7818609E-02  0.8521928E-01
       -2   -1    0    0    0  501  0.00000000000E+00  0.00000000000E+00  0.65033525749E+03  0.65033525749E+03  0.25500000920E-02 0.  1.
        2   -1    0    0  501    0  0.00000000000E+00  0.00000000000E+00 -0.18464161462E+04  0.18464161462E+04  0.25500000920E-02 0. -1.
    10030    2    1    2    0    0  0.00000000000E+00  0.00000000000E+00 -0.11960808887E+04  0.24967514037E+04  0.21916108412E+04 0.  0.
        2    1    3    3  502    0 -0.95160008742E+03  0.17185830479E+02  0.20669538717E+02  0.95197967887E+03  0.25500000920E-02 0.  1.
       -2    1    3    3    0  502  0.95160008742E+03 -0.17185830479E+02 -0.12167504274E+04  0.15447717248E+04  0.25500000920E-02 0. -1.
</event>
<event>
 5   0  0.2245375E-05  0.2177732E+04  0.7818609E-02  0.8527754E-01
       -4   -1    0    0    0  501  0.00000000000E+00  0.00000000000E+00  0.12897217132E+04  0.12897223385E+04  0.12699999809E+01 0.  1.
        4   -1    0    0  501    0  0.00000000000E+00  0.00000000000E+00 -0.91928947723E+03  0.91929035448E+03  0.12699999809E+01 0. -1.
    10030    2    1    2    0    0  0.00000000000E+00  0.00000000000E+00  0.37043223601E+03  0.22090126930E+04  0.21777320855E+04 0.  0.
        2    1    3    3  502    0  0.58806963874E+03 -0.79590734760E+03 -0.27554949280E+03  0.10272399569E+04  0.25500000920E-02 0. -1.
       -2    1    3    3    0  502 -0.58806963874E+03  0.79590734760E+03  0.64598172881E+03  0.11817727362E+04  0.25500000920E-02 0.  1.
</event>
<event>
 5   0  0.6293013E-05  0.2193406E+04  0.7818609E-02  0.8521178E-01
        2   -1    0    0  501    0  0.00000000000E+00  0.00000000000E+00  0.20365485020E+04  0.20365485020E+04  0.25500000920E-02 0.  1.
       -2   -1    0    0    0  501  0.00000000000E+00  0.00000000000E+00 -0.59058629704E+03  0.59058629705E+03  0.25500000920E-02 0. -1.
    10030    2    1    2    0    0  0.00000000000E+00  0.00000000000E+00  0.14459622050E+04  0.26271347991E+04  0.21934061535E+04 0.  0.
        1    1    3    3  502    0  0.74262156256E+03  0.58899694456E+03  0.13837542960E+04  0.16772537487E+04  0.50400001928E-02 0.  1.
       -1    1    3    3    0  502 -0.74262156256E+03 -0.58899694456E+03  0.62207908994E+02  0.94988105037E+03  0.50400001928E-02 0. -1.
</event>
<event>
 5   0  0.2820239E-05  0.2205770E+04  0.7818609E-02  0.8516030E-01
        1   -1    0    0  501    0  0.00000000000E+00  0.00000000000E+00  0.11356611197E+04  0.11356611197E+04  0.50400001928E-02 0. -1.
       -1   -1    0    0    0  501  0.00000000000E+00  0.00000000000E+00 -0.10710553092E+04  0.10710553092E+04  0.50400001928E-02 0.  1.
    10030    2    1    2    0    0  0.00000000000E+00  0.00000000000E+00  0.64605810518E+02  0.22067164289E+04  0.22057704973E+04 0.  0.
        3    1    3    3  502    0 -0.39797825271E+03 -0.10285722656E+04  0.29426559238E+02  0.11032740040E+04  0.10100000352E+00 0.  1.
       -3    1    3    3    0  502  0.39797825271E+03  0.10285722656E+04  0.35179251279E+02  0.11034424249E+04  0.10100000352E+00 0. -1.
</event>
<event>
 5   0  0.6628798E-05  0.2224175E+04  0.7818609E-02  0.8508433E-01
        2   -1    0    0  501    0  0.00000000000E+00  0.00000000000E+00  0.13941386581E+04  0.13941386581E+04  0.25500000920E-02 0.  1.
       -2   -1    0    0    0  501  0.00000000000E+00  0.00000000000E+00 -0.88709861811E+03  0.88709861812E+03  0.25500000920E-02 0. -1.
    10030    2    1    2    0    0  0.00000000000E+00  0.00000000000E+00  0.50704003996E+03  0.22812372762E+04  0.22241748825E+04 0.  0.
        4    1    3    3  502    0 -0.89625528941E+02  0.10812681295E+04  0.50383746921E+03  0.11962555378E+04  0.12699999809E+01 0. -1.
       -4    1    3    3    0  502  0.89625528941E+02 -0.10812681295E+04  0.32025707492E+01  0.10849817384E+04  0.12699999809E+01 0.  1.
</event>
<event>
 5   0  0.6445740E-05  0.2187415E+04  0.7818609E-02  0.8523685E-01
        2   -1    0    0  501    0  0.00000000000E+00  0.00000000000E+00  0.95384463334E+03  0.95384463334E+03  0.25500000920E-02 0. -1.
       -2   -1    0    0    0  501  0.00000000000E+00  0.00000000000E+00 -0.12540785690E+04  0.12540785690E+04  0.25500000920E-02 0.  1.
    10030    2    1    2    0    0  0.00000000000E+00  0.00000000000E+00 -0.30023393567E+03  0.22079232024E+04  0.21874150158E+04 0.  0.
        5    1    3    3  502    0 -0.65908179698E+03  0.56743988592E+02  0.72900527497E+03  0.98441834414E+03  0.46999998093E+01 0. -1.
       -5    1    3    3    0  502  0.65908179698E+03 -0.56743988592E+02 -0.10292392106E+04  0.12235048582E+04  0.46999998093E+01 0.  1.
</event>
<event>
 5   0  0.6306919E-05  0.2228101E+04  0.7818609E-02  0.8506822E-01
       -2   -1    0    0    0  501  0.00000000000E+00  0.00000000000E+00  0.19655929906E+04  0.19655929906E+04  0.25500000920E-02 0. -1.
        2   -1    0    0  501    0  0.00000000000E+00  0.00000000000E+00 -0.63141696061E+03  0.63141696062E+03  0.25500000920E-02 0.  1.
    10030    2    1    2    0    0  0.00000000000E+00  0.00000000000E+00  0.13341760300E+04  0.25970099512E+04  0.22281012113E+04 0.  0.
        3    1    3    3  502    0  0.76922613937E+03  0.80289466605E+03  0.74750432827E+03  0.13398176851E+04  0.10100000352E+00 0.  1.
       -3    1    3    3    0  502 -0.76922613937E+03 -0.80289466605E+03  0.58667170172E+03  0.12571922661E+04  0.10100000352E+00 0. -1.
</event>
<event>
 5   0  0.2908031E-05  0.1969327E+04  0.7818609E-02  0.8621097E-01
       -1   -1    0    0    0  501  0.00000000000E+00  0.00000000000E+00  0.11604714452E+04  0.11604714452E+04  0.50400001928E-02 0. -1.
        1   -1    0    0  501    0  0.00000000000E+00  0.00000000000E+00 -0.83549013835E+03  0.83549013837E+03  0.50400001928E-02 0.  1.
    10030    2    1    2    0    0  0.00000000000E+00  0.00000000000E+00  0.32498130685E+03  0.19959615836E+04  0.19693272438E+04 0.  0.
        1    1    3    3  502    0 -0.12961703284E+03  0.44102528665E+03  0.10450480372E+04  0.11416782729E+04  0.50400001928E-02 0. -1.
       -1    1    3    3    0  502  0.12961703284E+03 -0.44102528665E+03 -0.72006673038E+03  0.85428331068E+03  0.50400001928E-02 0.  1.
</event>
<event>
 5   0  0.2929471E-05  0.2224262E+04  0.7818609E-02  0.8508397E-01
       -1   -1    0    0    0  501  0.00000000000E+00  0.00000000000E+00  0.12402881828E+04  0.12402881829E+04  0.50400001928E-02 0. -1.
        1   -1    0    0  501    0  0.00000000000E+00  0.00000000000E+00 -0.99721618373E+03  0.99721618374E+03  0.50400001928E-02 0.  1.
    10030    2    1    2    0    0  0.00000000000E+00  0.00000000000E+00  0.24307199911E+03  0.22375043666E+04  0.22242620785E+04 0.  0.
        2    1    3    3  502    0 -0.32439274372E+03 -0.92625138393E+02 -0.94450208325E+03  0.10029427968E+04  0.25500000920E-02 0.  1.
       -2    1    3    3    0  502  0.32439274372E+03  0.92625138393E+02  0.11875740824E+04  0.12345615698E+04  0.25500000920E-02 0. -1.
</event>
<event>
 5   0  0.2929471E-05  0.2241006E+04  0.7818609E-02  0.8501552E-01
        1   -1    0    0  501    0  0.00000000000E+00  0.00000000000E+00  0.11319914850E+04  0.11319914850E+04  0.50400001928E-02 0. -1.
       -1   -1    0    0    0  501  0.00000000000E+00  0.00000000000E+00 -0.11091313220E+04  0.11091313220E+04  0.50400001928E-02 0.  1.
    10030    2    1    2    0    0  0.00000000000E+00  0.00000000000E+00  0.22860163036E+02  0.22411228070E+04  0.22410062135E+04 0.  0.
        2    1    3    3  502    0  0.41085954236E+02  0.59197979830E+02 -0.11068117806E+04  0.11091549820E+04  0.25500000920E-02 0.  1.
       -2    1    3    3    0  502 -0.41085954236E+02 -0.59197979830E+02  0.11296719437E+04  0.11319678250E+04  0.25500000920E-02 0. -1.
</event>
<event>
 5   0  0.6414768E-05  0.2211180E+04  0.7818609E-02  0.8513789E-01
       -2   -1    0    0    0  501  0.00000000000E+00  0.00000000000E+00  0.58748758368E+03  0.58748758368E+03  0.25500000920E-02 0.  1.
        2   -1    0    0  501    0  0.00000000000E+00  0.00000000000E+00 -0.20806041362E+04  0.20806041362E+04  0.25500000920E-02 0. -1.
    10030    2    1    2    0    0  0.00000000000E+00  0.00000000000E+00 -0.14931165526E+04  0.26680917199E+04  0.22111798630E+04 0.  0.
        2    1    3    3  502    0  0.58734708341E+03  0.40120809267E+03 -0.17678499587E+04  0.19055807531E+04  0.25500000920E-02 0. -1.
       -2    1    3    3    0  502 -0.58734708341E+03 -0.40120809267E+03  0.27473340618E+03  0.76251096680E+03  0.25500000920E-02 0.  1.
</event>
<event>
 5   0  0.6628798E-05  0.2209648E+04  0.7818609E-02  0.8514423E-01
       -2   -1    0    0    0  501  0.00000000000E+00  0.00000000000E+00  0.82650767898E+03  0.82650767899E+03  0.25500000920E-02 0.  1.
        2   -1    0    0  501    0  0.00000000000E+00  0.00000000000E+00 -0.14768601701E+04  0.14768601701E+04  0.25500000920E-02 0. -1.
    10030    2    1    2    0    0  0.00000000000E+00  0.00000000000E+00 -0.65035249114E+03  0.23033678491E+04  0.22096481814E+04 0.  0.
        4    1    3    3  502    0  0.56343458982E+03 -0.48158088641E+02 -0.13145675268E+04  0.14310370833E+04  0.12699999809E+01 0. -1.
       -4    1    3    3    0  502 -0.56343458982E+03  0.48158088641E+02  0.66421503562E+03  0.87233076580E+03  0.12699999809E+01 0.  1.
</event>
<event>
 5   0  0.6445740E-05  0.2203137E+04  0.7818609E-02  0.8517124E-01
        2   -1    0    0  501    0  0.00000000000E+00  0.00000000000E+00  0.76714905887E+03  0.76714905887E+03  0.25500000920E-02 0.  1.
       -2   -1    0    0    0  501  0.00000000000E+00  0.00000000000E+00 -0.15817691315E+04  0.15817691315E+04  0.25500000920E-02 0. -1.
    10030    2    1    2    0    0  0.00000000000E+00  0.00000000000E+00 -0.81462007268E+03  0.23489181904E+04  0.22031365828E+04 0.  0.
        5    1    3    3  502    0 -0.58239469955E+03  0.14924709719E+03  0.57678992315E+03  0.83316684255E+03  0.46999998093E+01 0.  1.
       -5    1    3    3    0  502  0.58239469955E+03 -0.14924709719E+03 -0.13914099958E+04  0.15157513479E+04  0.46999998093E+01 0. -1.
</event>
<event>
 5   0  0.2908031E-05  0.2185742E+04  0.7818609E-02  0.8524386E-01
       -1   -1    0    0    0  501  0.00000000000E+00  0.00000000000E+00  0.46571701170E+03  0.46571701172E+03  0.50400001928E-02 0.  1.
        1   -1    0    0  501    0  0.00000000000E+00  0.00000000000E+00 -0.25645765144E+04  0.25645765144E+04  0.50400001928E-02 0. -1.
    10030    2    1    2    0    0  0.00000000000E+00  0.00000000000E+00 -0.20988595027E+04  0.30302935261E+04  0.21857418975E+04 0.  0.
        1    1    3    3  502    0  0.59586672530E+03  0.47369139504E+02  0.21899775524E+03  0.63660113613E+03  0.50400001928E-02 0.  1.
       -1    1    3    3    0  502 -0.59586672530E+03 -0.47369139504E+02 -0.23178572579E+04  0.23936923900E+04  0.50400001928E-02 0. -1.
</event>
<event>
 5   0  0.2753631E-05  0.2188883E+04  0.7818609E-02  0.8523070E-01
        1   -1    0    0  501    0  0.00000000000E+00  0.00000000000E+00  0.18509894929E+04  0.18509894929E+04  0.50400001928E-02 0. -1.
       -1   -1    0    0    0  501  0.00000000000E+00  0.00000000000E+00 -0.64711428147E+03  0.64711428149E+03  0.50400001928E-02 0.  1.
    10030    2    1    2    0    0  0.00000000000E+00  0.00000000000E+00  0.12038752114E+04  0.24981037744E+04  0.21888825786E+04 0.  0.
        4    1    3    3  502    0 -0.10539533019E+04  0.26686021284E+03  0.45862681535E+03  0.11799881798E+04  0.12699999809E+01 0. -1.
       -4    1    3    3    0  502  0.10539533019E+04 -0.26686021284E+03  0.74524839608E+03  0.13181155946E+04  0.12699999809E+01 0.  1.
</event>
<event>
 5   0  0.6414768E-05  0.2189904E+04  0.7818609E-02  0.8522642E-01
       -2   -1    0    0    0  501  0.00000000000E+00  0.00000000000E+00  0.67730766335E+03  0.67730766336E+03  0.25500000920E-02 0.  1.
        2   -1    0    0  501    0  0.00000000000E+00  0.00000000000E+00 -0.17701253669E+04  0.17701253669E+04  0.25500000920E-02 0. -1.
    10030    2    1    2    0    0  0.00000000000E+00  0.00000000000E+00 -0.10928177036E+04  0.24474330303E+04  0.21899036290E+04 0.  0.
        2    1    3    3  502    0  0.87396242222E+03  0.56240906193E+03 -0.16119353004E+03  0.10517117583E+04  0.25500000920E-02 0.  1.
       -2    1    3    3    0  502 -0.87396242222E+03 -0.56240906193E+03 -0.93162417354E+03  0.13957212720E+04  0.25500000920E-02 0. -1.
</event>
<event>
 5   0  0.6293013E-05  0.2193276E+04  0.7818609E-02  0.8521232E-01
        2   -1    0    0  501    0  0.00000000000E+00  0.00000000000E+00  0.16293109910E+04  0.16293109910E+04  0.25500000920E-02 0.  1.
       -2   -1    0    0    0  501  0.00000000000E+00  0.00000000000E+00 -0.73811269797E+03  0.73811269797E+03  0.25500000920E-02 0. -1.
    10030    2    1    2    0    0  0.00000000000E+00  0.00000000000E+00  0.89119829307E+03  0.23674236890E+04  0.21932762083E+04 0.  0.
        1    1    3    3  502    0  0.48602026767E+03  0.61559467593E+03 -0.38170535909E+03  0.87227947746E+03  0.50400001928E-02 0. -1.
       -1    1    3    3    0  502 -0.48602026767E+03 -0.61559467593E+03  0.12729036522E+04  0.14951442116E+04  0.50400001928E-02 0.  1.
</event>
<event>
 5   0  0.6293013E-05  0.2195544E+04  0.7818609E-02  0.8520285E-01
       -2   -1    0    0    0  501  0.00000000000E+00  0.00000000000E+00  0.14827082083E+04  0.14827082083E+04  0.25500000920E-02 0.  1.
        2   -1    0    0  501    0  0.00000000000E+00  0.00000000000E+00 -0.81277193423E+03  0.81277193424E+03  0.25500000920E-02 0. -1.
    10030    2    1    2    0    0  0.00000000000E+00  0.00000000000E+00  0.66993627408E+03  0.22954801425E+04  0.21955442317E+04 0.  0.
        1    1    3    3  502    0 -0.28056364012E+03  0.10280174370E+04  0.59205438851E+02  0.10672586804E+04  0.50400001928E-02 0. -1.
       -1    1    3    3    0  502  0.28056364012E+03 -0.10280174370E+04  0.61073083523E+03  0.12282214621E+04  0.50400001928E-02 0.  1.
</event>
<event>
 5   0  0.2929471E-05  0.2206738E+04  0.7818609E-02  0.8515629E-01
        1   -1    0    0  501    0  0.00000000000E+00  0.00000000000E+00  0.17901022862E+04  0.17901022862E+04  0.50400001928E-02 0. -1.
       -1   -1    0    0    0  501  0.00000000000E+00  0.00000000000E+00 -0.68008560372E+03  0.68008560374E+03  0.50400001928E-02 0.  1.
    10030    2    1    2    0    0  0.00000000000E+00  0.00000000000E+00  0.11100166825E+04  0.24701878900E+04  0.22067376773E+04 0.  0.
        2    1    3    3  502    0 -0.54482532654E+03  0.93500431402E+03  0.79601441870E+03  0.13433937094E+04  0.25500000920E-02 0.  1.
       -2    1    3    3    0  502  0.54482532654E+03 -0.93500431402E+03  0.31400226380E+03  0.11267941806E+04  0.25500000920E-02 0. -1.
</event>
<event>
 5   0  0.6445740E-05  0.2180829E+04  0.7818609E-02  0.8526450E-01
        2   -1    0    0  501    0  0.00000000000E+00  0.00000000000E+00  0.13504133214E+04  0.13504133214E+04  0.25500000920E-02 0. -1.
       -2   -1    0    0    0  501  0.00000000000E+00  0.00000000000E+00 -0.88047423218E+03  0.88047423218E+03  0.25500000920E-02 0.  1.
    10030    2    1    2    0    0  0.00000000000E+00  0.00000000000E+00  0.46993908917E+03  0.22308875535E+04  0.21808293214E+04 0.  0.
        5    1    3    3  502    0  0.64828680449E+03 -0.46189751705E+03 -0.52735886795E+03  0.95485839932E+03  0.46999998093E+01 0.  1.
       -5    1    3    3    0  502 -0.64828680449E+03  0.46189751705E+03  0.99729795713E+03  0.12760291542E+04  0.46999998093E+01 0. -1.
</event>
<event>
 5   0  0.2753631E-05  0.2095683E+04  0.7818609E-02  0.8563147E-01
        1   -1    0    0  501    0  0.00000000000E+00  0.00000000000E+00  0.12765450910E+04  0.12765450910E+04  0.50400001928E-02 0.  1.
       -1   -1    0    0    0  501  0.00000000000E+00  0.00000000000E+00 -0.86011197798E+03  0.86011197800E+03  0.50400001928E-02 0. -1.
    10030    2    1    2    0    0  0.00000000000E+00  0.00000000000E+00  0.41643311300E+03  0.21366570690E+04  0.20956829180E+04 0.  0.
        4    1    3    3  502    0  0.70651490847E+03  0.15818139986E+03 -0.56407984642E+03  0.91780845343E+03  0.12699999809E+01 0. -1.
       -4    1    3    3    0  502 -0.70651490847E+03 -0.15818139986E+03  0.98051295942E+03  0.12188486156E+04  0.12699999809E+01 0.  1.
</event>
<event>
 5   0  0.2908031E-05  0.2037511E+04  0.7818609E-02  0.8589281E-01
        1   -1    0    0  501    0  0.00000000000E+00  0.00000000000E+00  0.16816801034E+04  0.16816801035E+04  0.50400001928E-02 0. -1.
       -1   -1    0    0    0  501  0.00000000000E+00  0.00000000000E+00 -0.61715808073E+03  0.61715808075E+03  0.50400001928E-02 0.  1.
    10030    2    1    2    0    0  0.00000000000E+00  0.00000000000E+00  0.10645220227E+04  0.22988381842E+04  0.20375107019E+04 0.  0.
        1    1    3    3  502    0 -0.11240702310E+03  0.76235415561E+03 -0.21957158096E+03  0.80126829253E+03  0.50400001928E-02 0.  1.
       -1    1    3    3    0  502  0.11240702310E+03 -0.76235415561E+03  0.12840936037E+04  0.14975698917E+04  0.50400001928E-02 0. -1.
</event>
<event>
 5   0  0.2908031E-05  0.2246725E+04  0.7818609E-02  0.8499228E-01
        1   -1    0    0  501    0  0.00000000000E+00  0.00000000000E+00  0.14865088286E+04  0.14865088286E+04  0.50400001928E-02 0.  1.
       -1   -1    0    0    0  501  0.00000000000E+00  0.00000000000E+00 -0.84893100435E+03  0.84893100437E+03  0.50400001928E-02 0. -1.
    10030    2    1    2    0    0  0.00000000000E+00  0.00000000000E+00  0.63757782423E+03  0.23354398330E+04  0.22467251126E+04 0.  0.
        1    1    3    3  502    0 -0.10748239275E+04  0.30669131950E+03  0.20193386450E+03  0.11358183509E+04  0.50400001928E-02 0. -1.
       -1    1    3    3    0  502  0.10748239275E+04 -0.30669131950E+03  0.43564395973E+03  0.11996214821E+04  0.50400001928E-02 0.  1.
</event>
<event>
 5   0  0.2929471E-05  0.2201365E+04  0.7818609E-02  0.8517860E-01
       -1   -1    0    0    0  501  0.00000000000E+00  0.00000000000E+00  0.19182762191E+04  0.19182762191E+04  0.50400001928E-02 0. -1.
        1   -1    0    0  501    0  0.00000000000E+00  0.00000000000E+00 -0.63155773915E+03  0.63155773917E+03  0.50400001928E-02 0.  1.
    10030    2    1    2    0    0  0.00000000000E+00  0.00000000000E+00  0.12867184800E+04  0.25498339583E+04  0.22013652055E+04 0.  0.
        2    1    3    3  502    0  0.10357022191E+04  0.30071781477E+03  0.38855529621E+03  0.11463356877E+04  0.25500000920E-02 0. -1.
       -2    1    3    3    0  502 -0.10357022191E+04 -0.30071781477E+03  0.89816318375E+03  0.14034982705E+04  0.25500000920E-02 0.  1.
</event>
<event>
 5   0  0.2820239E-05  0.2184000E+04  0.7818609E-02  0.8525117E-01
       -1   -1    0    0    0  501  0.00000000000E+00  0.00000000000E+00  0.68964006480E+03  0.68964006482E+03  0.50400001928E-02 0. -1.
        1   -1    0    0  501    0  0.00000000000E+00  0.00000000000E+00 -0.17291110524E+04  0.17291110524E+04  0.50400001928E-02 0.  1.
    10030    2    1    2    0    0  0.00000000000E+00  0.00000000000E+00 -0.10394709876E+04  0.24187511172E+04  0.21840002365E+04 0.  0.
        3    1    3    3  502    0  0.63914911273E+03 -0.86853030803E+03 -0.71029968927E+03  0.12912715218E+04  0.10100000352E+00 0.  1.
       -3    1    3    3    0  502 -0.63914911273E+03  0.86853030803E+03 -0.32917129835E+03  0.11274795954E+04  0.10100000352E+00 0. -1.
</event>
<event>
 5   0  0.6306919E-05  0.2198733E+04  0.7818609E-02  0.8518955E-01
        2   -1    0    0  501    0  0.00000000000E+00  0.00000000000E+00  0.96090691524E+03  0.96090691524E+03  0.25500000920E-02 0. -1.
       -2   -1    0    0    0  501  0.00000000000E+00  0.00000000000E+00 -0.12577775586E+04  0.12577775586E+04  0.25500000920E-02 0.  1.
    10030    2    1    2    0    0  0.00000000000E+00  0.00000000000E+00 -0.29687064337E+03  0.22186844739E+04  0.21987334117E+04 0.  0.
        3    1    3    3  502    0 -0.40934065382E+03 -0.92079904489E+03 -0.59194194057E+03  0.11686855536E+04  0.10100000352E+00 0.  1.
       -3    1    3    3    0  502  0.40934065382E+03  0.92079904489E+03  0.29507129720E+03  0.10499989203E+04  0.10100000352E+00 0. -1.
</event>
<event>
 5   0  0.2820239E-05  0.2196285E+04  0.7818609E-02  0.8519976E-01
       -1   -1    0    0    0  501  0.00000000000E+00  0.00000000000E+00  0.14549010426E+04  0.14549010426E+04  0.50400001928E-02 0. -1.
        1   -1    0    0  501    0  0.00000000000E+00  0.00000000000E+00 -0.82886502920E+03  0.82886502921E+03  0.50400001928E-02 0.  1.
    10030    2    1    2    0    0  0.00000000000E+00  0.00000000000E+00  0.62603601336E+03  0.22837660718E+04  0.21962846766E+04 0.  0.
        3    1    3    3  502    0  0.85615497364E+03 -0.28768584243E+03  0.96251921110E+03  0.13199271665E+04  0.10100000352E+00 0. -1.
       -3    1    3    3    0  502 -0.85615497364E+03  0.28768584243E+03 -0.33648319774E+03  0.96383890531E+03  0.10100000352E+00 0.  1.
</event>
<event>
 5   0  0.6628798E-05  0.2086268E+04  0.7818609E-02  0.8567317E-01
       -2   -1    0    0    0  501  0.00000000000E+00  0.00000000000E+00  0.10398464792E+04  0.10398464792E+04  0.25500000920E-02 0.  1.
        2   -1    0    0  501    0  0.00000000000E+00  0.00000000000E+00 -0.10464315161E+04  0.10464315161E+04  0.25500000920E-02 0. -1.
    10030    2    1    2    0    0  0.00000000000E+00  0.00000000000E+00 -0.65850368480E+01  0.20862779953E+04  0.20862676029E+04 0.  0.
        4    1    3    3  502    0 -0.11863201895E+03 -0.11425071644E+03  0.10267610254E+04  0.10398877816E+04  0.12699999809E+01 0.  1.
       -4    1    3    3    0  502  0.11863201895E+03  0.11425071644E+03 -0.10333460622E+04  0.10463902137E+04  0.12699999809E+01 0. -1.
</event>
<event>
 5   0  0.6306919E-05  0.2177522E+04  0.7818609E-02  0.8527843E-01
       -2   -1    0    0    0  501  0.00000000000E+00  0.00000000000E+00  0.71202086102E+03  0.71202086102E+03  0.25500000920E-02 0. -1.
        2   -1    0    0  501    0  0.00000000000E+00  0.00000000000E+00 -0.16648393424E+04  0.16648393424E+04  0.25500000920E-02 0.  1.
    10030    2    1    2    0    0  0.00000000000E+00  0.00000000000E+00 -0.95281848135E+03  0.23768602034E+04  0.21775218410E+04 0.  0.
        3    1    3    3  502    0  0.82959192757E+03 -0.38749834543E+02  0.29208403550E+03  0.88036209025E+03  0.10100000352E+00 0. -1.
       -3    1    3    3    0  502 -0.82959192757E+03  0.38749834543E+02 -0.12449025168E+04  0.14964981131E+04  0.10100000352E+00 0.  1.
</event>
<event>
 5   0  0.6414768E-05  0.2215552E+04  0.7818609E-02  0.8511983E-01
        2   -1    0    0  501    0  0.00000000000E+00  0.00000000000E+00  0.18884577846E+04  0.18884577846E+04  0.25500000920E-02 0. -1.
       -2   -1    0    0    0  501  0.00000000000E+00  0.00000000000E+00 -0.64982549697E+03  0.64982549697E+03  0.25500000920E-02 0.  1.
    10030    2    1    2    0    0  0.00000000000E+00  0.00000000000E+00  0.12386322876E+04  0.25382832816E+04  0.22155523179E+04 0.  0.
        2    1    3    3  502    0 -0.68383513002E+03  0.18285527620E+03 -0.35692417653E+03  0.79275557701E+03  0.25500000920E-02 0.  1.
       -2    1    3    3    0  502  0.68383513002E+03 -0.18285527620E+03  0.15955564642E+04  0.17455277046E+04  0.25500000920E-02 0. -1.
</event>
<event>
 5   0  0.2910318E-05  0.2202013E+04  0.7818609E-02  0.8517591E-01
        1   -1    0    0  501    0  0.00000000000E+00  0.00000000000E+00  0.13246737370E+04  0.13246737370E+04  0.50400001928E-02 0. -1.
       -1   -1    0    0    0  501  0.00000000000E+00  0.00000000000E+00 -0.91510511034E+03  0.91510511035E+03  0.50400001928E-02 0.  1.
    10030    2    1    2    0    0  0.00000000000E+00  0.00000000000E+00  0.40956862664E+03  0.22397788473E+04  0.22020133571E+04 0.  0.
        5    1    3    3  502    0  0.70181952367E+03 -0.45963843873E+03 -0.52044856863E+03  0.98727247543E+03  0.46999998093E+01 0.  1.
       -5    1    3    3    0  502 -0.70181952367E+03  0.45963843873E+03  0.93001719527E+03  0.12525063719E+04  0.46999998093E+01 0. -1.
</event>
<event>
 5   0  0.2908031E-05  0.2215052E+04  0.7818609E-02  0.8512189E-01
        1   -1    0    0  501    0  0.00000000000E+00  0.00000000000E+00  0.39306305532E+03  0.39306305535E+03  0.50400001928E-02 0. -1.
       -1   -1    0    0    0  501  0.00000000000E+00  0.00000000000E+00 -0.31206542102E+04  0.31206542102E+04  0.50400001928E-02 0.  1.
    10030    2    1    2    0    0  0.00000000000E+00  0.00000000000E+00 -0.27275911549E+04  0.35137172656E+04  0.22150520342E+04 0.  0.
        1    1    3    3  502    0 -0.10960039538E+04 -0.10221873484E+03 -0.11699008244E+04  0.16063440713E+04  0.50400001928E-02 0.  1.
       -1    1    3    3    0  502  0.10960039538E+04  0.10221873484E+03 -0.15576903305E+04  0.19073731943E+04  0.50400001928E-02 0. -1.
</event>
<event>
 5   0  0.6293013E-05  0.2259476E+04  0.7818609E-02  0.8494073E-01
        2   -1    0    0  501    0  0.00000000000E+00  0.00000000000E+00  0.11783762132E+04  0.11783762132E+04  0.25500000920E-02 0.  1.
       -2   -1    0    0    0  501  0.00000000000E+00  0.00000000000E+00 -0.10831077269E+04  0.10831077269E+04  0.25500000920E-02 0. -1.
    10030    2    1    2    0    0  0.00000000000E+00  0.00000000000E+00  0.95268486303E+02  0.22614839400E+04  0.22594763833E+04 0.  0.
        1    1    3    3  502    0 -0.63319767201E+03  0.36488795639E+03  0.90992502837E+03  0.11670672945E+04  0.50400001928E-02 0.  1.
       -1    1    3    3    0  502  0.63319767201E+03 -0.36488795639E+03 -0.81465654206E+03  0.10944166456E+04  0.50400001928E-02 0. -1.
</event>
<event>
 5   0  0.6628798E-05  0.2188847E+04  0.7818609E-02  0.8523085E-01
        2   -1    0    0  501    0  0.00000000000E+00  0.00000000000E+00  0.63549219775E+03  0.63549219776E+03  0.25500000920E-02 0.  1.
       -2   -1    0    0    0  501  0.00000000000E+00  0.00000000000E+00 -0.18847794949E+04  0.18847794949E+04  0.25500000920E-02 0. -1.
    10030    2    1    2    0    0  0.00000000000E+00  0.00000000000E+00 -0.12492872971E+04  0.25202716927E+04  0.21888468777E+04 0.  0.
        4    1    3    3  502    0 -0.45301637469E+03  0.36522931576E+03 -0.16918911667E+04  0.17891656216E+04  0.12699999809E+01 0. -1.
       -4    1    3    3    0  502  0.45301637469E+03 -0.36522931576E+03  0.44260386955E+03  0.73110607101E+03  0.12699999809E+01 0.  1.
</event>
<event>
 5   0  0.6445740E-05  0.2204651E+04  0.7818609E-02  0.8516495E-01
       -2   -1    0    0    0  501  0.00000000000E+00  0.00000000000E+00  0.10420389784E+04  0.10420389784E+04  0.25500000920E-02 0.  1.
        2   -1    0    0  501    0  0.00000000000E+00  0.00000000000E+00 -0.11660998838E+04  0.11660998838E+04  0.25500000920E-02 0. -1.
    10030    2    1    2    0    0  0.00000000000E+00  0.00000000000E+00 -0.12406090543E+03  0.22081388622E+04  0.22046510215E+04 0.  0.
        5    1    3    3  502    0 -0.62752189920E+03 -0.35842032151E+03  0.77166286391E+03  0.10572296469E+04  0.46999998093E+01 0.  1.
       -5    1    3    3    0  502  0.62752189920E+03  0.35842032151E+03 -0.89572376934E+03  0.11509092153E+04  0.46999998093E+01 0. -1.
</event>
<event>
 5   0  0.6306919E-05  0.2078612E+04  0.7818609E-02  0.8570724E-01
        2   -1    0    0  501    0  0.00000000000E+00  0.00000000000E+00  0.95825254827E+03  0.95825254827E+03  0.25500000920E-02 0.  1.
       -2   -1    0    0    0  501  0.00000000000E+00  0.00000000000E+00 -0.11272155382E+04  0.11272155382E+04  0.25500000920E-02 0. -1.
    10030    2    1    2    0    0  0.00000000000E+00  0.00000000000E+00 -0.16896298988E+03  0.20854680864E+04  0.20786121927E+04 0.  0.
        3    1    3    3  502    0 -0.54125159378E+03  0.64076486905E+03 -0.70020284899E+03  0.10926193047E+04  0.10100000352E+00 0. -1.
       -3    1    3    3    0  502  0.54125159378E+03 -0.64076486905E+03  0.53123985911E+03  0.99284878168E+03  0.10100000352E+00 0.  1.
</event>
<event>
 5   0  0.6628798E-05  0.2194867E+04  0.7818609E-02  0.8520568E-01
        2   -1    0    0  501    0  0.00000000000E+00  0.00000000000E+00  0.20799793600E+04  0.20799793600E+04  0.25500000920E-02 0. -1.
       -2   -1    0    0    0  501  0.00000000000E+00  0.00000000000E+00 -0.57902514407E+03  0.57902514407E+03  0.25500000920E-02 0.  1.
    10030    2    1    2    0    0  0.00000000000E+00  0.00000000000E+00  0.15009542159E+04  0.26590045040E+04  0.21948670562E+04 0.  0.
        4    1    3    3  502    0  0.21396754612E+03 -0.72517802081E+03 -0.21314671155E+03  0.78555611270E+03  0.12699999809E+01 0.  1.
       -4    1    3    3    0  502 -0.21396754612E+03  0.72517802081E+03  0.17141009274E+04  0.18734483913E+04  0.12699999809E+01 0. -1.
</event>
<event>
 5   0  0.2910318E-05  0.2201114E+04  0.7818609E-02  0.8517965E-01
        1   -1    0    0  501    0  0.00000000000E+00  0.00000000000E+00  0.11502227610E+04  0.11502227610E+04  0.50400001928E-02 0.  1.
       -1   -1    0    0    0  501  0.00000000000E+00  0.00000000000E+00 -0.10530353488E+04  0.10530353488E+04  0.50400001928E-02 0. -1.
    10030    2    1    2    0    0  0.00000000000E+00  0.00000000000E+00  0.97187412245E+02  0.22032581098E+04  0.22011135603E+04 0.  0.
        5    1    3    3  502    0  0.65055302236E+03  0.35345234153E+03  0.86366916611E+03  0.11375826612E+04  0.46999998093E+01 0.  1.
       -5    1    3    3    0  502 -0.65055302236E+03 -0.35345234153E+03 -0.76648175386E+03  0.10656754485E+04  0.46999998093E+01 0. -1.
</event>
<event>
 5   0  0.2929471E-05  0.2207413E+04  0.7818609E-02  0.8515349E-01
       -1   -1    0    0    0  501  0.00000000000E+00  0.00000000000E+00  0.12564613914E+04  0.12564613915E+04  0.50400001928E-02 0.  1.
        1   -1    0    0  501    0  0.00000000000E+00  0.00000000000E+00 -0.96952258677E+03  0.96952258678E+03  0.50400001928E-02 0. -1.
    10030    2    1    2    0    0  0.00000000000E+00  0.00000000000E+00  0.28693880468E+03  0.22259839782E+04  0.22074126922E+04 0.  0.
        2    1    3    3  502    0  0.55764556223E+03  0.95163905102E+03  0.10335734443E+03  0.11078213742E+04  0.25500000920E-02 0.  1.
       -2    1    3    3    0  502 -0.55764556223E+03 -0.95163905102E+03  0.18358146025E+03  0.11181626040E+04  0.25500000920E-02 0. -1.
</event>
<event>
 5   0  0.6628798E-05  0.2196757E+04  0.7818609E-02  0.8519779E-01
       -2   -1    0    0    0  501  0.00000000000E+00  0.00000000000E+00  0.84968187393E+03  0.84968187394E+03  0.25500000920E-02 0.  1.
        2   -1    0    0  501    0  0.00000000000E+00  0.00000000000E+00 -0.14198674477E+04  0.14198674477E+04  0.25500000920E-02 0. -1.
    10030    2    1    2    0    0  0.00000000000E+00  0.00000000000E+00 -0.57018557374E+03  0.22695493216E+04  0.21967572772E+04 0.  0.
        4    1    3    3  502    0 -0.88003079991E+03  0.64319260867E+03 -0.42478822786E+03  0.11698707587E+04  0.12699999809E+01 0. -1.
       -4    1    3    3    0  502  0.88003079991E+03 -0.64319260867E+03 -0.14539734587E+03  0.10996785629E+04  0.12699999809E+01 0.  1.
</event>
<event>
 5   0  0.6306919E-05  0.2222772E+04  0.7818609E-02  0.8509009E-01
        2   -1    0    0  501    0  0.00000000000E+00  0.00000000000E+00  0.24182261728E+04  0.24182261728E+04  0.25500000920E-02 0. -1.
       -2   -1    0    0    0  501  0.00000000000E+00  0.00000000000E+00 -0.51077869727E+03  0.51077869727E+03  0.25500000920E-02 0.  1.
    10030    2    1    2    0    0  0.00000000000E+00  0.00000000000E+00  0.19074474755E+04  0.29290048701E+04  0.22227716160E+04 0.  0.
        3    1    3    3  502    0  0.20912235956E+03  0.10782647901E+04  0.11773154889E+04  0.16101114525E+04  0.10100000352E+00 0. -1.
       -3    1    3    3    0  502 -0.20912235956E+03 -0.10782647901E+04  0.73013198664E+03  0.13188934176E+04  0.10100000352E+00 0.  1.
</event>
<event>
 5   0  0.2245375E-05  0.2220317E+04  0.7818609E-02  0.8510019E-01
       -3   -1    0    0    0  501  0.00000000000E+00  0.00000000000E+00  0.14025976632E+04  0.14025976668E+04  0.10100000352E+00 0. -1.
        3   -1    0    0  501    0  0.00000000000E+00  0.00000000000E+00 -0.87869258754E+03  0.87869259334E+03  0.10100000352E+00 0.  1.
    10030    2    1    2    0    0  0.00000000000E+00  0.00000000000E+00  0.52390507566E+03  0.22812902602E+04  0.22203172573E+04 0.  0.
        4    1    3    3  502    0 -0.60222162048E+03  0.83293091701E+03 -0.16909877380E+03  0.10416529177E+04  0.12699999809E+01 0.  1.
       -4    1    3    3    0  502  0.60222162048E+03 -0.83293091701E+03  0.69300384946E+03  0.12396373425E+04  0.12699999809E+01 0. -1.
</event>
<event>
 5   0  0.6414768E-05  0.2184812E+04  0.7818609E-02  0.8524776E-01
       -2   -1    0    0    0  501  0.00000000000E+00  0.00000000000E+00  0.93689164121E+03  0.93689164121E+03  0.25500000920E-02 0. -1.
        2   -1    0    0  501    0  0.00000000000E+00  0.00000000000E+00 -0.12737342871E+04  0.12737342871E+04  0.25500000920E-02 0.  1.
    10030    2    1    2    0    0  0.00000000000E+00  0.00000000000E+00 -0.33684264589E+03  0.22106259283E+04  0.21848121262E+04 0.  0.
        2    1    3    3  502    0  0.17746563531E+03  0.69864639243E+03  0.66209965548E+03  0.97876288608E+03  0.25500000920E-02 0. -1.
       -2    1    3    3    0  502 -0.17746563531E+03 -0.69864639243E+03 -0.99894230137E+03  0.12318630422E+04  0.25500000920E-02 0.  1.
</event>
<event>
 5   0  0.6628798E-05  0.2174922E+04  0.7818609E-02  0.8528939E-01
       -2   -1    0    0    0  501  0.00000000000E+00  0.00000000000E+00  0.11329803361E+04  0.11329803361E+04  0.25500000920E-02 0. -1.
        2   -1    0    0  501    0  0.00000000000E+00  0.00000000000E+00 -0.10437703517E+04  0.10437703517E+04  0.25500000920E-02 0.  1.
    10030    2    1    2    0    0  0.00000000000E+00  0.00000000000E+00  0.89209984460E+02  0.21767506878E+04  0.21749218688E+04 0.  0.
        4    1    3    3  502    0 -0.14057060093E+03  0.74429715797E+02  0.11212743155E+04  0.11325005871E+04  0.12699999809E+01 0. -1.
       -4    1    3    3    0  502  0.14057060093E+03 -0.74429715797E+02 -0.10320643310E+04  0.10442501006E+04  0.12699999809E+01 0.  1.
</event>
<event>
 5   0  0.2908031E-05  0.2216817E+04  0.7818609E-02  0.8511461E-01
       -1   -1    0    0    0  501  0.00000000000E+00  0.00000000000E+00  0.10329911590E+04  0.10329911590E+04  0.50400001928E-02 0.  1.
        1   -1    0    0  501    0  0.00000000000E+00  0.00000000000E+00 -0.11893320079E+04  0.11893320079E+04  0.50400001928E-02 0. -1.
    10030    2    1    2    0    0  0.00000000000E+00  0.00000000000E+00 -0.15634084893E+03  0.22223231670E+04  0.22168170419E+04 0.  0.
        1    1    3    3  502    0  0.74151073721E+03 -0.77520278604E+03 -0.35777520825E+03  0.11308318321E+04  0.50400001928E-02 0. -1.
       -1    1    3    3    0  502 -0.74151073721E+03  0.77520278604E+03  0.20143435932E+03  0.10914913348E+04  0.50400001928E-02 0.  1.
</event>
<event>
 5   0  0.6414768E-05  0.2212484E+04  0.7818609E-02  0.8513250E-01
       -2   -1    0    0    0  501  0.00000000000E+00  0.00000000000E+00  0.92271441209E+03  0.92271441209E+03  0.25500000920E-02 0. -1.
        2   -1    0    0  501    0  0.00000000000E+00  0.00000000000E+00 -0.13262726051E+04  0.13262726051E+04  0.25500000920E-02 0.  1.
    10030    2    1    2    0    0  0.00000000000E+00  0.00000000000E+00 -0.40355819297E+03  0.22489870172E+04  0.22124835340E+04 0.  0.
        2    1    3    3  502    0  0.76096445942E+03  0.77026249709E+03 -0.43223448787E+03  0.11658464202E+04  0.25500000920E-02 0.  1.
       -2    1    3    3    0  502 -0.76096445942E+03 -0.77026249709E+03  0.28676294893E+02  0.10831405970E+04  0.25500000920E-02 0. -1.
</event>
<event>
 5   0  0.2910318E-05  0.2120947E+04  0.7818609E-02  0.8552072E-01
        1   -1    0    0  501    0  0.00000000000E+00  0.00000000000E+00  0.85862408630E+03  0.85862408631E+03  0.50400001928E-02 0. -1.
       -1   -1    0    0    0  501  0.00000000000E+00  0.00000000000E+00 -0.13097745517E+04  0.13097745517E+04  0.50400001928E-02 0.  1.
    10030    2    1    2    0    0  0.00000000000E+00  0.00000000000E+00 -0.45115046540E+03  0.21683986380E+04  0.21209469373E+04 0.  0.
        5    1    3    3  502    0  0.85578642807E+03 -0.54767368913E+03 -0.53612258669E+03  0.11488108627E+04  0.46999998093E+01 0.  1.
       -5    1    3    3    0  502 -0.85578642807E+03  0.54767368913E+03  0.84972121291E+02  0.10195877753E+04  0.46999998093E+01 0. -1.
</event>
<event>
 5   0  0.2820239E-05  0.2192712E+04  0.7818609E-02  0.8521468E-01
       -1   -1    0    0    0  501  0.00000000000E+00  0.00000000000E+00  0.86921893500E+03  0.86921893501E+03  0.50400001928E-02 0. -1.
        1   -1    0    0  501    0  0.00000000000E+00  0.00000000000E+00 -0.13828466670E+04  0.13828466670E+04  0.50400001928E-02 0.  1.
    10030    2    1    2    0    0  0.00000000000E+00  0.00000000000E+00 -0.51362773195E+03  0.22520656020E+04  0.21927120259E+04 0.  0.
        3    1    3    3  502    0 -0.94749907252E+03 -0.55115450498E+03 -0.23453059246E+03  0.11209506634E+04  0.10100000352E+00 0. -1.
       -3    1    3    3    0  502  0.94749907252E+03  0.55115450498E+03 -0.27909713949E+03  0.11311149386E+04  0.10100000352E+00 0.  1.
</event>
<event>
 5   0  0.6445740E-05  0.2200960E+04  0.7818609E-02  0.8518029E-01
        2   -1    0    0  501    0  0.00000000000E+00  0.00000000000E+00  0.14779738726E+04  0.14779738726E+04  0.25500000920E-02 0.  1.
       -2   -1    0    0    0  501  0.00000000000E+00  0.00000000000E+00 -0.81940324310E+03  0.81940324310E+03  0.25500000920E-02 0. -1.
    10030    2    1    2    0    0  0.00000000000E+00  0.00000000000E+00  0.65857062950E+03  0.22973771157E+04  0.22009603217E+04 0.  0.
        5    1    3    3  502    0  0.40137141532E+03  0.69098795151E+03  0.11190484781E+04  0.13750836151E+04  0.46999998093E+01 0.  1.
       -5    1    3    3    0  502 -0.40137141532E+03 -0.69098795151E+03 -0.46047784862E+03  0.92229350059E+03  0.46999998093E+01 0. -1.
</event>
<event>
 5   0  0.2910318E-05  0.2246554E+04  0.7818609E-02  0.8499297E-01
       -1   -1    0    0    0  501  0.00000000000E+00  0.00000000000E+00  0.15624411385E+04  0.15624411385E+04  0.50400001928E-02 0. -1.
        1   -1    0    0  501    0  0.00000000000E+00  0.00000000000E+00 -0.80755111507E+03  0.80755111509E+03  0.50400001928E-02 0.  1.
    10030    2    1    2    0    0  0.00000000000E+00  0.00000000000E+00  0.75489002339E+03  0.23699922536E+04  0.22465538797E+04 0.  0.
        5    1    3    3  502    0  0.30219375866E+03  0.10071353329E+04 -0.39340435088E+02  0.10522416103E+04  0.46999998093E+01 0.  1.
       -5    1    3    3    0  502 -0.30219375866E+03 -0.10071353329E+04  0.79423045848E+03  0.13177506433E+04  0.46999998093E+01 0. -1.
</event>
<event>
 5   0  0.6306919E-05  0.2210016E+04  0.7818609E-02  0.8514271E-01
       -2   -1    0    0    0  501  0.00000000000E+00  0.00000000000E+00  0.94262223431E+03  0.94262223432E+03  0.25500000920E-02 0. -1.
        2   -1    0    0  501    0  0.00000000000E+00  0.00000000000E+00 -0.12953675343E+04  0.12953675343E+04  0.25500000920E-02 0.  1.
    10030    2    1    2    0    0  0.00000000000E+00  0.00000000000E+00 -0.35274529999E+03  0.22379897686E+04  0.22100156013E+04 0.  0.
        3    1    3    3  502    0  0.30163966600E+03 -0.83630269796E+02 -0.12495328784E+04  0.12881432120E+04  0.10100000352E+00 0.  1.
       -3    1    3    3    0  502 -0.30163966600E+03  0.83630269796E+02  0.89678757843E+03  0.94984655664E+03  0.10100000352E+00 0. -1.
</event>
<event>
 5   0  0.2908031E-05  0.2149382E+04  0.7818609E-02  0.8539797E-01
        1   -1    0    0  501    0  0.00000000000E+00  0.00000000000E+00  0.92203855672E+03  0.92203855674E+03  0.50400001928E-02 0.  1.
       -1   -1    0    0    0  501  0.00000000000E+00  0.00000000000E+00 -0.12526166688E+04  0.12526166688E+04  0.50400001928E-02 0. -1.
    10030    2    1    2    0    0  0.00000000000E+00  0.00000000000E+00 -0.33057811205E+03  0.21746552255E+04  0.21493821116E+04 0.  0.
        1    1    3    3  502    0 -0.78218104510E+03 -0.72457166515E+03 -0.30159351850E+03  0.11080478039E+04  0.50400001928E-02 0.  1.
       -1    1    3    3    0  502  0.78218104510E+03  0.72457166515E+03 -0.28984593553E+02  0.10666074217E+04  0.50400001928E-02 0. -1.
</event>
<event>
 5   0  0.2910318E-05  0.2195726E+04  0.7818609E-02  0.8520209E-01
        1   -1    0    0  501    0  0.00000000000E+00  0.00000000000E+00  0.22528472099E+04  0.22528472099E+04  0.50400001928E-02 0.  1.
       -1   -1    0    0    0  501  0.00000000000E+00  0.00000000000E+00 -0.53501338106E+03  0.53501338109E+03  0.50400001928E-02 0. -1.
    10030    2    1    2    0    0  0.00000000000E+00  0.00000000000E+00  0.17178338289E+04  0.27878605910E+04  0.21957262150E+04 0.  0.
        5    1    3    3  502    0 -0.53852957543E+03  0.73130992416E+02  0.20700566381E+04  0.21402146669E+04  0.46999998093E+01 0.  1.
       -5    1    3    3    0  502  0.53852957543E+03 -0.73130992416E+02 -0.35222280921E+03  0.64764592409E+03  0.46999998093E+01 0. -1.
</event>
<event>
 5   0  0.6306919E-05  0.2231647E+04  0.7818609E-02  0.8505370E-01
        2   -1    0    0  501    0  0.00000000000E+00  0.00000000000E+00  0.99198783523E+03  0.99198783523E+03  0.25500000920E-02 0.  1.
       -2   -1    0    0    0  501  0.00000000000E+00  0.00000000000E+00 -0.12551181831E+04  0.12551181831E+04  0.25500000920E-02 0. -1.
    10030    2    1    2    0    0  0.00000000000E+00  0.00000000000E+00 -0.26313034789E+03  0.22471060184E+04  0.22316468981E+04 0.  0.
        3    1    3    3  502    0 -0.61076416626E+03 -0.36214619508E+03 -0.99827115191E+03  0.12250420549E+04  0.10100000352E+00 0. -1.
       -3    1    3    3    0  502  0.61076416626E+03  0.36214619508E+03  0.73514080402E+03  0.10220639634E+04  0.10100000352E+00 0.  1.
</event>
<event>
 5   0  0.6445740E-05  0.2281494E+04  0.7818609E-02  0.8485254E-01
        2   -1    0    0  501    0  0.00000000000E+00  0.00000000000E+00  0.17115828100E+04  0.17115828100E+04  0.25500000920E-02 0. -1.
       -2   -1    0    0    0  501  0.00000000000E+00  0.00000000000E+00 -0.76029259889E+03  0.76029259890E+03  0.25500000920E-02 0.  1.
    10030    2    1    2    0    0  0.00000000000E+00  0.00000000000E+00  0.95129021108E+03  0.24718754089E+04  0.22814940218E+04 0.  0.
        5    1    3    3  502    0 -0.58019340062E+03 -0.23063882773E+03 -0.55872691410E+03  0.83786425244E+03  0.46999998093E+01 0.  1.
       -5    1    3    3    0  502  0.58019340062E+03  0.23063882773E+03  0.15100171252E+04  0.16340111564E+04  0.46999998093E+01 0. -1.
</event>
<event>
 5   0  0.6445740E-05  0.2218420E+04  0.7818609E-02  0.8510800E-01
       -2   -1    0    0    0  501  0.00000000000E+00  0.00000000000E+00  0.65645246892E+03  0.65645246892E+03  0.25500000920E-02 0. -1.
        2   -1    0    0  501    0  0.00000000000E+00  0.00000000000E+00 -0.18742362842E+04  0.18742362842E+04  0.25500000920E-02 0.  1.
    10030    2    1    2    0    0  0.00000000000E+00  0.00000000000E+00 -0.12177838153E+04  0.25306887531E+04  0.22184201911E+04 0.  0.
        5    1    3    3  502    0 -0.54670921505E+03  0.95898803978E+03 -0.73268384111E+03  0.13249138565E+04  0.46999998093E+01 0. -1.
       -5    1    3    3    0  502  0.54670921505E+03 -0.95898803978E+03 -0.48509997417E+03  0.12057748966E+04  0.46999998093E+01 0.  1.
</event>
<event>
 5   0  0.2753631E-05  0.2214492E+04  0.7818609E-02  0.8512420E-01
       -1   -1    0    0    0  501  0.00000000000E+00  0.00000000000E+00  0.57707367077E+03  0.57707367079E+03  0.50400001928E-02 0.  1.
        1   -1    0    0  501    0  0.00000000000E+00  0.00000000000E+00 -0.21245016320E+04  0.21245016320E+04  0.50400001928E-02 0. -1.
    10030    2    1    2    0    0  0.00000000000E+00  0.00000000000E+00 -0.15474279613E+04  0.27015753028E+04  0.22144922266E+04 0.  0.
        4    1    3    3  502    0 -0.42872892484E+03 -0.95314851916E+02 -0.20136916763E+04  0.20610310992E+04  0.12699999809E+01 0. -1.
       -4    1    3    3    0  502  0.42872892484E+03  0.95314851916E+02  0.46626371498E+03  0.64054420363E+03  0.12699999809E+01 0.  1.
</event>
<event>
 5   0  0.2910318E-05  0.2215002E+04  0.7818609E-02  0.8512210E-01
        1   -1    0    0  501    0  0.00000000000E+00  0.00000000000E+00  0.13119597144E+04  0.13119597144E+04  0.50400001928E-02 0.  1.
       -1   -1    0    0    0  501  0.00000000000E+00  0.00000000000E+00 -0.93490579469E+03  0.93490579470E+03  0.50400001928E-02 0. -1.
    10030    2    1    2    0    0  0.00000000000E+00  0.00000000000E+00  0.37705391970E+03  0.22468655091E+04  0.22150022478E+04 0.  0.
        5    1    3    3  502    0  0.84429817243E+03  0.14060999051E+03  0.90143560887E+03  0.12430683088E+04  0.46999998093E+01 0.  1.
       -5    1    3    3    0  502 -0.84429817243E+03 -0.14060999051E+03 -0.52438168917E+03  0.10037972003E+04  0.46999998093E+01 0. -1.
</event>
<event>
 5   0  0.2753631E-05  0.2250357E+04  0.7818609E-02  0.8497756E-01
        1   -1    0    0  501    0  0.00000000000E+00  0.00000000000E+00  0.18681225561E+04  0.18681225562E+04  0.50400001928E-02 0. -1.
       -1   -1    0    0    0  501  0.00000000000E+00  0.00000000000E+00 -0.67769997415E+03  0.67769997417E+03  0.50400001928E-02 0.  1.
    10030    2    1    2    0    0  0.00000000000E+00  0.00000000000E+00  0.11904225820E+04  0.25458225303E+04  0.22503569566E+04 0.  0.
        4    1    3    3  502    0  0.52579060057E+03 -0.92980242593E+03  0.99524394586E+03  0.14599659008E+04  0.12699999809E+01 0. -1.
       -4    1    3    3    0  502 -0.52579060057E+03  0.92980242593E+03  0.19517863613E+03  0.10858566295E+04  0.12699999809E+01 0.  1.
</event>
<event>
 5   0  0.2820239E-05  0.2175560E+04  0.7818609E-02  0.8528670E-01
        1   -1    0    0  501    0  0.00000000000E+00  0.00000000000E+00  0.17133594068E+04  0.17133594068E+04  0.50400001928E-02 0. -1.
       -1   -1    0    0    0  501  0.00000000000E+00  0.00000000000E+00 -0.69061113687E+03  0.69061113689E+03  0.50400001928E-02 0.  1.
    10030    2    1    2    0    0  0.00000000000E+00  0.00000000000E+00  0.10227482699E+04  0.24039705437E+04  0.21755597789E+04 0.  0.
        3    1    3    3  502    0  0.59968716577E+03 -0.51386987988E+03  0.13379609739E+04  0.15536494225E+04  0.10100000352E+00 0. -1.
       -3    1    3    3    0  502 -0.59968716577E+03  0.51386987988E+03 -0.31521270393E+03  0.85032112120E+03  0.10100000352E+00 0.  1.
</event>
<event>
 5   0  0.2753631E-05  0.2247978E+04  0.7818609E-02  0.8498720E-01
       -1   -1    0    0    0  501  0.00000000000E+00  0.00000000000E+00  0.16066606265E+04  0.16066606265E+04  0.50400001928E-02 0. -1.
        1   -1    0    0  501    0  0.00000000000E+00  0.00000000000E+00 -0.78632148406E+03  0.78632148408E+03  0.50400001928E-02 0.  1.
    10030    2    1    2    0    0  0.00000000000E+00  0.00000000000E+00  0.82033914244E+03  0.23929821106E+04  0.22479784414E+04 0.  0.
        4    1    3    3  502    0  0.36182826333E+03 -0.60447834563E+03 -0.52212959324E+03  0.87688921051E+03  0.12699999809E+01 0.  1.
       -4    1    3    3    0  502 -0.36182826333E+03  0.60447834563E+03  0.13424687357E+04  0.15160929001E+04  0.12699999809E+01 0. -1.
</event>
<event>
 5   0  0.6306919E-05  0.2205708E+04  0.7818609E-02  0.8516056E-01
       -2   -1    0    0    0  501  0.00000000000E+00  0.00000000000E+00  0.13927920108E+04  0.13927920108E+04  0.25500000920E-02 0. -1.
        2   -1    0    0  501    0  0.00000000000E+00  0.00000000000E+00 -0.87327224601E+03  0.87327224601E+03  0.25500000920E-02 0.  1.
    10030    2    1    2    0    0  0.00000000000E+00  0.00000000000E+00  0.51951976475E+03  0.22660642568E+04  0.22057076937E+04 0.  0.
        3    1    3    3  502    0 -0.32392989504E+03 -0.57872846978E+03 -0.64550410215E+03  0.92549055896E+03  0.10100000352E+00 0.  1.
       -3    1    3    3    0  502  0.32392989504E+03  0.57872846978E+03  0.11650238669E+04  0.13405736978E+04  0.10100000352E+00 0. -1.
</event>
<event>
 5   0  0.6445740E-05  0.2194388E+04  0.7818609E-02  0.8520768E-01
        2   -1    0    0  501    0  0.00000000000E+00  0.00000000000E+00  0.16774949184E+04  0.16774949184E+04  0.25500000920E-02 0. -1.
       -2   -1    0    0    0  501  0.00000000000E+00  0.00000000000E+00 -0.71763817134E+03  0.71763817134E+03  0.25500000920E-02 0.  1.
    10030    2    1    2    0    0  0.00000000000E+00  0.00000000000E+00  0.95985674703E+03  0.23951330897E+04  0.21943877375E+04 0.  0.
        5    1    3    3  502    0 -0.20539083985E+03 -0.72001865344E+03  0.13552936464E+04  0.15483717953E+04  0.46999998093E+01 0. -1.
       -5    1    3    3    0  502  0.20539083985E+03  0.72001865344E+03 -0.39543689937E+03  0.84676129445E+03  0.46999998093E+01 0.  1.
</event>
<event>
 5   0  0.6445740E-05  0.2210868E+04  0.7818609E-02  0.8513918E-01
       -2   -1    0    0    0  501  0.00000000000E+00  0.00000000000E+00  0.48107311473E+03  0.48107311473E+03  0.25500000920E-02 0.  1.
        2   -1    0    0  501    0  0.00000000000E+00  0.00000000000E+00 -0.25401221522E+04  0.25401221522E+04  0.25500000920E-02 0. -1.
    10030    2    1    2    0    0  0.00000000000E+00  0.00000000000E+00 -0.20590490375E+04  0.30211952669E+04  0.22108681332E+04 0.  0.
        5    1    3    3  502    0  0.74175444559E+01  0.47192522380E+02  0.47964820785E+03  0.48204423804E+03  0.46999998093E+01 0.  1.
       -5    1    3    3    0  502 -0.74175444559E+01 -0.47192522380E+02 -0.25386972453E+04  0.25391510289E+04  0.46999998093E+01 0. -1.
</event>
<event>
 5   0  0.2908031E-05  0.2195875E+04  0.7818609E-02  0.8520147E-01
        1   -1    0    0  501    0  0.00000000000E+00  0.00000000000E+00  0.13977823317E+04  0.13977823317E+04  0.50400001928E-02 0.  1.
       -1   -1    0    0    0  501  0.00000000000E+00  0.00000000000E+00 -0.86241376686E+03  0.86241376687E+03  0.50400001928E-02 0. -1.
    10030    2    1    2    0    0  0.00000000000E+00  0.00000000000E+00  0.53536856484E+03  0.22601960986E+04  0.21958749745E+04 0.  0.
        1    1    3    3  502    0 -0.19024484507E+03  0.61454946260E+03  0.11834663032E+04  0.13470176814E+04  0.50400001928E-02 0.  1.
       -1    1    3    3    0  502  0.19024484507E+03 -0.61454946260E+03 -0.64809773840E+03  0.91317841718E+03  0.50400001928E-02 0. -1.
</event>
<event>
 5   0  0.6293013E-05  0.2207513E+04  0.7818609E-02  0.8515308E-01
        2   -1    0    0  501    0  0.00000000000E+00  0.00000000000E+00  0.12411370287E+04  0.12411370287E+04  0.25500000920E-02 0. -1.
       -2   -1    0    0    0  501  0.00000000000E+00  0.00000000000E+00 -0.98158260023E+03  0.98158260023E+03  0.25500000920E-02 0.  1.
    10030    2    1    2    0    0  0.00000000000E+00  0.00000000000E+00  0.25955442844E+03  0.22227196289E+04  0.22075130911E+04 0.  0.
        1    1    3    3  502    0 -0.69288748575E+03 -0.51990653019E+03  0.81850858454E+03  0.11917852873E+04  0.50400001928E-02 0. -1.
       -1    1    3    3    0  502  0.69288748575E+03  0.51990653019E+03 -0.55895415610E+03  0.10309343416E+04  0.50400001928E-02 0.  1.
</event>
<event>
 5   0  0.6293013E-05  0.2200146E+04  0.7818609E-02  0.8518367E-01
       -2   -1    0    0    0  501  0.00000000000E+00  0.00000000000E+00  0.10448790504E+04  0.10448790504E+04  0.25500000920E-02 0. -1.
        2   -1    0    0  501    0  0.00000000000E+00  0.00000000000E+00 -0.11581826384E+04  0.11581826385E+04  0.25500000920E-02 0.  1.
    10030    2    1    2    0    0  0.00000000000E+00  0.00000000000E+00 -0.11330358801E+03  0.22030616889E+04  0.22001461547E+04 0.  0.
        1    1    3    3  502    0 -0.86189137992E+03 -0.91683655833E+02 -0.73496968401E+03  0.11364167721E+04  0.50400001928E-02 0.  1.
       -1    1    3    3    0  502  0.86189137992E+03  0.91683655833E+02  0.62166609599E+03  0.10666449168E+04  0.50400001928E-02 0. -1.
</event>
<event>
 5   0  0.2820239E-05  0.2213526E+04  0.7818609E-02  0.8512819E-01
       -1   -1    0    0    0  501  0.00000000000E+00  0.00000000000E+00  0.19162147146E+04  0.19162147146E+04  0.50400001928E-02 0. -1.
        1   -1    0    0  501    0  0.00000000000E+00  0.00000000000E+00 -0.63924165270E+03  0.63924165272E+03  0.50400001928E-02 0.  1.
    10030    2    1    2    0    0  0.00000000000E+00  0.00000000000E+00  0.12769730619E+04  0.25554563673E+04  0.22135259304E+04 0.  0.
        3    1    3    3  502    0 -0.30398856718E+03 -0.93658937907E+03  0.12218274993E+04  0.15692262941E+04  0.10100000352E+00 0. -1.
       -3    1    3    3    0  502  0.30398856718E+03  0.93658937907E+03  0.55145562598E+02  0.98623007318E+03  0.10100000352E+00 0.  1.
</event>
<event>
 5   0  0.6628798E-05  0.2169308E+04  0.7818609E-02  0.8531312E-01
       -2   -1    0    0    0  501  0.00000000000E+00  0.00000000000E+00  0.10933788882E+04  0.10933788882E+04  0.25500000920E-02 0. -1.
        2   -1    0    0  501    0  0.00000000000E+00  0.00000000000E+00 -0.10759988204E+04  0.10759988204E+04  0.25500000920E-02 0.  1.
    10030    2    1    2    0    0  0.00000000000E+00  0.00000000000E+00  0.17380067844E+02  0.21693777086E+04  0.21693080869E+04 0.  0.
        4    1    3    3  502    0  0.28994141553E+03  0.92854809695E+03 -0.47112239283E+03  0.10808448153E+04  0.12699999809E+01 0.  1.
       -4    1    3    3    0  502 -0.28994141553E+03 -0.92854809695E+03  0.48850246068E+03  0.10885328933E+04  0.12699999809E+01 0. -1.
</event>
<event>
 5   0  0.2929471E-05  0.2204662E+04  0.7818609E-02  0.8516490E-01
       -1   -1    0    0    0  501  0.00000000000E+00  0.00000000000E+00  0.87808035954E+03  0.87808035955E+03  0.50400001928E-02 0.  1.
        1   -1    0    0  501    0  0.00000000000E+00  0.00000000000E+00 -0.13838518831E+04  0.13838518831E+04  0.50400001928E-02 0. -1.
    10030    2    1    2    0    0  0.00000000000E+00  0.00000000000E+00 -0.50577152353E+03  0.22619322426E+04  0.22046615695E+04 0.  0.
        2    1    3    3  502    0 -0.32011617410E+03  0.58647662558E+03  0.64664748428E+03  0.92982910592E+03  0.25500000920E-02 0.  1.
       -2    1    3    3    0  502  0.32011617410E+03 -0.58647662558E+03 -0.11524190078E+04  0.13321031367E+04  0.25500000920E-02 0. -1.
</event>
<event>
 5   0  0.6414768E-05  0.2204748E+04  0.7818609E-02  0.8516454E-01
        2   -1    0    0  501    0  0.00000000000E+00  0.00000000000E+00  0.18622368120E+04  0.18622368120E+04  0.25500000920E-02 0.  1.
       -2   -1    0    0    0  501  0.00000000000E+00  0.00000000000E+00 -0.65256404580E+03  0.65256404580E+03  0.25500000920E-02 0. -1.
    10030    2    1    2    0    0  0.00000000000E+00  0.00000000000E+00  0.12096727662E+04  0.25148008578E+04  0.22047483197E+04 0.  0.
        2    1    3    3  502    0 -0.47651974799E+03 -0.94636522909E+03  0.95184010372E+03  0.14243166081E+04  0.25500000920E-02 0. -1.
       -2    1    3    3    0  502  0.47651974799E+03  0.94636522909E+03  0.25783266252E+03  0.10904842497E+04  0.25500000920E-02 0.  1.
</event>
<event>
 5   0  0.2908031E-05  0.2198007E+04  0.7818609E-02  0.8519258E-01
        1   -1    0    0  501    0  0.00000000000E+00  0.00000000000E+00  0.13474641941E+04  0.13474641942E+04  0.50400001928E-02 0. -1.
       -1   -1    0    0    0  501  0.00000000000E+00  0.00000000000E+00 -0.89635667835E+03  0.89635667837E+03  0.50400001928E-02 0.  1.
    10030    2    1    2    0    0  0.00000000000E+00  0.00000000000E+00  0.45110751580E+03  0.22438208725E+04  0.21980068510E+04 0.  0.
        1    1    3    3  502    0  0.59502077444E+02  0.86514789317E+03 -0.46363817087E+03  0.98335229078E+03  0.50400001928E-02 0. -1.
       -1    1    3    3    0  502 -0.59502077444E+02 -0.86514789317E+03  0.91474568666E+03  0.12604685817E+04  0.50400001928E-02 0.  1.
</event>
<event>
 5   0  0.6414768E-05  0.2219646E+04  0.7818609E-02  0.8510295E-01
       -2   -1    0    0    0  501  0.00000000000E+00  0.00000000000E+00  0.37980195546E+03  0.37980195547E+03  0.25500000920E-02 0. -1.
        2   -1    0    0  501    0  0.00000000000E+00  0.00000000000E+00 -0.32430253881E+04  0.32430253881E+04  0.25500000920E-02 0.  1.
    10030    2    1    2    0    0  0.00000000000E+00  0.00000000000E+00 -0.28632234326E+04  0.36228273436E+04  0.22196462637E+04 0.  0.
        2    1    3    3  502    0  0.86296395491E+03 -0.34877803919E+03 -0.44505720946E+03  0.10317116011E+04  0.25500000920E-02 0. -1.
       -2    1    3    3    0  502 -0.86296395491E+03  0.34877803919E+03 -0.24181662232E+04  0.25911157425E+04  0.25500000920E-02 0.  1.
</event>
<event>
 5   0  0.6445740E-05  0.2168682E+04  0.7818609E-02  0.8531578E-01
        2   -1    0    0  501    0  0.00000000000E+00  0.00000000000E+00  0.51092755911E+03  0.51092755911E+03  0.25500000920E-02 0.  1.
       -2   -1    0    0    0  501  0.00000000000E+00  0.00000000000E+00 -0.23012959801E+04  0.23012959801E+04  0.25500000920E-02 0. -1.
    10030    2    1    2    0    0  0.00000000000E+00  0.00000000000E+00 -0.17903684210E+04  0.28122235392E+04  0.21686821232E+04 0.  0.
        5    1    3    3  502    0  0.12927778882E+03  0.51839991032E+03 -0.21187506295E+04  0.21850806698E+04  0.46999998093E+01 0. -1.
       -5    1    3    3    0  502 -0.12927778882E+03 -0.51839991032E+03  0.32838220853E+03  0.62714286935E+03  0.46999998093E+01 0.  1.
</event>
<event>
 5   0  0.6445740E-05  0.2164826E+04  0.7818609E-02  0.8533213E-01
       -2   -1    0    0    0  501  0.00000000000E+00  0.00000000000E+00  0.57161896036E+03  0.57161896037E+03  0.25500000920E-02 0. -1.
        2   -1    0    0  501    0  0.00000000000E+00  0.00000000000E+00 -0.20496482250E+04  0.20496482250E+04  0.25500000920E-02 0.  1.
    10030    2    1    2    0    0  0.00000000000E+00  0.00000000000E+00 -0.14780292646E+04  0.26212671854E+04  0.21648258937E+04 0.  0.
        5    1    3    3  502    0 -0.10701883441E+04  0.16173577859E+03 -0.75303868136E+03  0.13185412013E+04  0.46999998093E+01 0. -1.
       -5    1    3    3    0  502  0.10701883441E+04 -0.16173577859E+03 -0.72499058329E+03  0.13027259841E+04  0.46999998093E+01 0.  1.
</event>
<event>
 5   0  0.2245375E-05  0.2223586E+04  0.7818609E-02  0.8508675E-01
       -4   -1    0    0    0  501  0.00000000000E+00  0.00000000000E+00  0.72118610006E+03  0.72118721828E+03  0.12699999809E+01 0. -1.
        4   -1    0    0  501    0  0.00000000000E+00  0.00000000000E+00 -0.17139568305E+04  0.17139573010E+04  0.12699999809E+01 0.  1.
    10030    2    1    2    0    0  0.00000000000E+00  0.00000000000E+00 -0.99277073043E+03  0.24351445193E+04  0.22235860916E+04 0.  0.
        2    1    3    3  502    0  0.56632704618E+03 -0.83277432014E+03 -0.10122016063E+04  0.14278625575E+04  0.25500000920E-02 0.  1.
       -2    1    3    3    0  502 -0.56632704618E+03  0.83277432014E+03  0.19430875828E+02  0.10072819617E+04  0.25500000920E-02 0. -1.
</event>
<event>
 5   0  0.2908031E-05  0.2241796E+04  0.7818609E-02  0.8501230E-01
        1   -1    0    0  501    0  0.00000000000E+00  0.00000000000E+00  0.24027221597E+04  0.24027221598E+04  0.50400001928E-02 0. -1.
       -1   -1    0    0    0  501  0.00000000000E+00  0.00000000000E+00 -0.52291209254E+03  0.52291209256E+03  0.50400001928E-02 0.  1.
    10030    2    1    2    0    0  0.00000000000E+00  0.00000000000E+00  0.18798100672E+04  0.29256342523E+04  0.22417961302E+04 0.  0.
        1    1    3    3  502    0  0.54064274746E+03  0.13421075808E+03  0.22092909314E+04  0.22784366412E+04  0.50400001928E-02 0. -1.
       -1    1    3    3    0  502 -0.54064274746E+03 -0.13421075808E+03 -0.32948086424E+03  0.64719761116E+03  0.50400001928E-02 0.  1.
</event>
<event>
 5   0  0.2820239E-05  0.2018722E+04  0.7818609E-02  0.8597917E-01
       -1   -1    0    0    0  501  0.00000000000E+00  0.00000000000E+00  0.59852629438E+03  0.59852629440E+03  0.50400001928E-02 0.  1.
        1   -1    0    0  501    0  0.00000000000E+00  0.00000000000E+00 -0.17021977840E+04  0.17021977840E+04  0.50400001928E-02 0. -1.
    10030    2    1    2    0    0  0.00000000000E+00  0.00000000000E+00 -0.11036714896E+04  0.23007240784E+04  0.20187224990E+04 0.  0.
        3    1    3    3  502    0  0.36919612812E+03  0.35499060402E+03 -0.15430975336E+04  0.16258764154E+04  0.10100000352E+00 0. -1.
       -3    1    3    3    0  502 -0.36919612812E+03 -0.35499060402E+03  0.43942604392E+03  0.67484766299E+03  0.10100000352E+00 0.  1.
</event>
<event>
 5   0  0.2820239E-05  0.2169159E+04  0.7818609E-02  0.8531376E-01
       -1   -1    0    0    0  501  0.00000000000E+00  0.00000000000E+00  0.71088341857E+03  0.71088341858E+03  0.50400001928E-02 0.  1.
        1   -1    0    0  501    0  0.00000000000E+00  0.00000000000E+00 -0.16547194508E+04  0.16547194508E+04  0.50400001928E-02 0. -1.
    10030    2    1    2    0    0  0.00000000000E+00  0.00000000000E+00 -0.94383603220E+03  0.23656028694E+04  0.21691589337E+04 0.  0.
        3    1    3    3  502    0 -0.16012437377E+02 -0.10838742649E+04 -0.43301092603E+03  0.11672781556E+04  0.10100000352E+00 0.  1.
       -3    1    3    3    0  502  0.16012437377E+02  0.10838742649E+04 -0.51082510618E+03  0.11983247138E+04  0.10100000352E+00 0. -1.
</event>
<event>
 5   0  0.6293013E-05  0.2206770E+04  0.7818609E-02  0.8515615E-01
        2   -1    0    0  501    0  0.00000000000E+00  0.00000000000E+00  0.13345354802E+04  0.13345354803E+04  0.25500000920E-02 0.  1.
       -2   -1    0    0    0  501  0.00000000000E+00  0.00000000000E+00 -0.91227155808E+03  0.91227155809E+03  0.25500000920E-02 0. -1.
    10030    2    1    2    0    0  0.00000000000E+00  0.00000000000E+00  0.42226392217E+03  0.22468070383E+04  0.22067702752E+04 0.  0.
        1    1    3    3  502    0 -0.92581315286E+03  0.64114336737E+02 -0.39653644020E+03  0.10091985883E+04  0.50400001928E-02 0. -1.
       -1    1    3    3    0  502  0.92581315286E+03 -0.64114336737E+02  0.81880036236E+03  0.12376084500E+04  0.50400001928E-02 0.  1.
</event>
<event>
 5   0  0.2910318E-05  0.2182803E+04  0.7818609E-02  0.8525620E-01
        1   -1    0    0  501    0  0.00000000000E+00  0.00000000000E+00  0.15230687418E+04  0.15230687419E+04  0.50400001928E-02 0. -1.
       -1   -1    0    0    0  501  0.00000000000E+00  0.00000000000E+00 -0.78207698784E+03  0.78207698785E+03  0.50400001928E-02 0.  1.
    10030    2    1    2    0    0  0.00000000000E+00  0.00000000000E+00  0.74099175401E+03  0.23051457297E+04  0.21828027982E+04 0.  0.
        5    1    3    3  502    0  0.14331096827E+03 -0.71018834229E+03 -0.49148133438E+03  0.87548929588E+03  0.46999998093E+01 0.  1.
       -5    1    3    3    0  502 -0.14331096827E+03  0.71018834229E+03  0.12324730884E+04  0.14296564338E+04  0.46999998093E+01 0. -1.
</event>
<event>
 5   0  0.6293013E-05  0.2183587E+04  0.7818609E-02  0.8525291E-01
       -2   -1    0    0    0  501  0.00000000000E+00  0.00000000000E+00  0.54832088457E+03  0.54832088458E+03  0.25500000920E-02 0.  1.
        2   -1    0    0  501    0  0.00000000000E+00  0.00000000000E+00 -0.21739338999E+04  0.21739339000E+04  0.25500000920E-02 0. -1.
    10030    2    1    2    0    0  0.00000000000E+00  0.00000000000E+00 -0.16256130154E+04  0.27222547845E+04  0.21835872861E+04 0.  0.
        1    1    3    3  502    0 -0.24640124566E+03  0.79859327998E+03 -0.16886432425E+04  0.18841392733E+04  0.50400001928E-02 0. -1.
       -1    1    3    3    0  502  0.24640124566E+03 -0.79859327998E+03  0.63030227081E+02  0.83811551128E+03  0.50400001928E-02 0.  1.
</event>
<event>
 5   0  0.6306919E-05  0.2223756E+04  0.7818609E-02  0.8508605E-01
       -2   -1    0    0    0  501  0.00000000000E+00  0.00000000000E+00  0.59286879472E+03  0.59286879472E+03  0.25500000920E-02 0. -1.
        2   -1    0    0  501    0  0.00000000000E+00  0.00000000000E+00 -0.20852386792E+04  0.20852386792E+04  0.25500000920E-02 0.  1.
    10030    2    1    2    0    0  0.00000000000E+00  0.00000000000E+00 -0.14923698845E+04  0.26781074739E+04  0.22237562298E+04 0.  0.
        3    1    3    3  502    0 -0.92984464160E+02 -0.24860868296E+03 -0.20465242048E+04  0.20636651179E+04  0.10100000352E+00 0.  1.
       -3    1    3    3    0  502  0.92984464160E+02  0.24860868296E+03  0.55415432037E+03  0.61444235597E+03  0.10100000352E+00 0. -1.
</event>
<event>
 5   0  0.6414768E-05  0.2207198E+04  0.7818609E-02  0.8515438E-01
        2   -1    0    0  501    0  0.00000000000E+00  0.00000000000E+00  0.16235242968E+04  0.16235242968E+04  0.25500000920E-02 0.  1.
       -2   -1    0    0    0  501  0.00000000000E+00  0.00000000000E+00 -0.75017696710E+03  0.75017696710E+03  0.25500000920E-02 0. -1.
    10030    2    1    2    0    0  0.00000000000E+00  0.00000000000E+00  0.87334732972E+03  0.23737012639E+04  0.22071978008E+04 0.  0.
        2    1    3    3  502    0  0.39660064958E+02 -0.10792193796E+04  0.68106800232E+03  0.12767697575E+04  0.25500000920E-02 0.  1.
       -2    1    3    3    0  502 -0.39660064958E+02  0.10792193796E+04  0.19227932740E+03  0.10969315064E+04  0.25500000920E-02 0. -1.
</event>
<event>
 5   0  0.2929471E-05  0.2252172E+04  0.7818609E-02  0.8497021E-01
       -1   -1    0    0    0  501  0.00000000000E+00  0.00000000000E+00  0.79835195954E+03  0.79835195955E+03  0.50400001928E-02 0.  1.
        1   -1    0    0  501    0  0.00000000000E+00  0.00000000000E+00 -0.15883597540E+04  0.15883597540E+04  0.50400001928E-02 0. -1.
    10030    2    1    2    0    0  0.00000000000E+00  0.00000000000E+00 -0.79000779442E+03  0.23867117135E+04  0.22521723931E+04 0.  0.
        2    1    3    3  502    0 -0.13650294726E+03 -0.38037624869E+02  0.78886584969E+03  0.80149188663E+03  0.25500000920E-02 0.  1.
       -2    1    3    3    0  502  0.13650294726E+03  0.38037624869E+02 -0.15788736441E+04  0.15852198269E+04  0.25500000920E-02 0. -1.
</event>
<event>
 5   0  0.6445740E-05  0.2195939E+04  0.7818609E-02  0.8520120E-01
        2   -1    0    0  501    0  0.00000000000E+00  0.00000000000E+00  0.11362890131E+04  0.11362890131E+04  0.25500000920E-02 0. -1.
       -2   -1    0    0    0  501  0.00000000000E+00  0.00000000000E+00 -0.10609426327E+04  0.10609426327E+04  0.25500000920E-02 0.  1.
    10030    2    1    2    0    0  0.00000000000E+00  0.00000000000E+00  0.75346380440E+02  0.21972316458E+04  0.21959393954E+04 0.  0.
        5    1    3    3  502    0  0.26645743478E+03  0.44059260004E+03  0.10079829765E+04  0.11318892060E+04  0.46999998093E+01 0. -1.
       -5    1    3    3    0  502 -0.26645743478E+03 -0.44059260004E+03 -0.93263659604E+03  0.10653424398E+04  0.46999998093E+01 0.  1.
</event>
<event>
 5   0  0.2245375E-05  0.2224337E+04  0.7818609E-02  0.8508366E-01
       -3   -1    0    0    0  501  0.00000000000E+00  0.00000000000E+00  0.42924983939E+03  0.42924985127E+03  0.10100000352E+00 0. -1.
        3   -1    0    0  501    0  0.00000000000E+00  0.00000000000E+00 -0.28815833694E+04  0.28815833712E+04  0.10100000352E+00 0.  1.
    10030    2    1    2    0    0  0.00000000000E+00  0.00000000000E+00 -0.24523335300E+04  0.33108332225E+04  0.22243374035E+04 0.  0.
        1    1    3    3  502    0  0.43891397093E+03 -0.10550034843E+03 -0.27390901908E+04  0.27760387012E+04  0.50400001928E-02 0.  1.
       -1    1    3    3    0  502 -0.43891397093E+03  0.10550034843E+03  0.28675666077E+03  0.53479452121E+03  0.50400001928E-02 0. -1.
</event>
<event>
 5   0  0.6445740E-05  0.2207729E+04  0.7818609E-02  0.8515218E-01
       -2   -1    0    0    0  501  0.00000000000E+00  0.00000000000E+00  0.11343944004E+04  0.11343944004E+04  0.25500000920E-02 0. -1.
        2   -1    0    0  501    0  0.00000000000E+00  0.00000000000E+00 -0.10741563667E+04  0.10741563667E+04  0.25500000920E-02 0.  1.
    10030    2    1    2    0    0  0.00000000000E+00  0.00000000000E+00  0.60238033700E+02  0.22085507672E+04  0.22077291207E+04 0.  0.
        5    1    3    3  502    0  0.24853896036E+03  0.10662084521E+04 -0.11108166112E+03  0.11004241471E+04  0.46999998093E+01 0.  1.
       -5    1    3    3    0  502 -0.24853896036E+03 -0.10662084521E+04  0.17131969482E+03  0.11081266200E+04  0.46999998093E+01 0. -1.
</event>
<event>
 5   0  0.6293013E-05  0.2213708E+04  0.7818609E-02  0.8512744E-01
       -2   -1    0    0    0  501  0.00000000000E+00  0.00000000000E+00  0.61274534961E+03  0.61274534961E+03  0.25500000920E-02 0.  1.
        2   -1    0    0  501    0  0.00000000000E+00  0.00000000000E+00 -0.19994052302E+04  0.19994052302E+04  0.25500000920E-02 0. -1.
    10030    2    1    2    0    0  0.00000000000E+00  0.00000000000E+00 -0.13866598806E+04  0.26121505798E+04  0.22137084332E+04 0.  0.
        1    1    3    3  502    0 -0.27328643598E+03  0.57228989940E+03 -0.17637590989E+04  0.18743125044E+04  0.50400001928E-02 0. -1.
       -1    1    3    3    0  502  0.27328643598E+03 -0.57228989940E+03  0.37709921834E+03  0.73783807542E+03  0.50400001928E-02 0.  1.
</event>
<event>
 5   0  0.6628798E-05  0.2175525E+04  0.7818609E-02  0.8528685E-01
       -2   -1    0    0    0  501  0.00000000000E+00  0.00000000000E+00  0.12446546301E+04  0.12446546301E+04  0.25500000920E-02 0. -1.
        2   -1    0    0  501    0  0.00000000000E+00  0.00000000000E+00 -0.95064685970E+03  0.95064685970E+03  0.25500000920E-02 0.  1.
    10030    2    1    2    0    0  0.00000000000E+00  0.00000000000E+00  0.29400777040E+03  0.21953014898E+04  0.21755247785E+04 0.  0.
        4    1    3    3  502    0  0.44739474594E+03 -0.92360370838E+03 -0.21685621956E+03  0.10489204458E+04  0.12699999809E+01 0.  1.
       -4    1    3    3    0  502 -0.44739474594E+03  0.92360370838E+03  0.51086398997E+03  0.11463810440E+04  0.12699999809E+01 0. -1.
</event>
<event>
 5   0  0.2929471E-05  0.2134054E+04  0.7818609E-02  0.8546389E-01
        1   -1    0    0  501    0  0.00000000000E+00  0.00000000000E+00  0.73644467132E+03  0.73644467133E+03  0.50400001928E-02 0.  1.
       -1   -1    0    0    0  501  0.00000000000E+00  0.00000000000E+00 -0.15460047104E+04  0.15460047104E+04  0.50400001928E-02 0. -1.
    10030    2    1    2    0    0  0.00000000000E+00  0.00000000000E+00 -0.80956003904E+03  0.22824493817E+04  0.21340542925E+04 0.  0.
        2    1    3    3  502    0  0.63370143254E+03  0.77472564249E+03 -0.80032008909E+03  0.12815184633E+04  0.25500000920E-02 0. -1.
       -2    1    3    3    0  502 -0.63370143254E+03 -0.77472564249E+03 -0.92399499414E+01  0.10009309184E+04  0.25500000920E-02 0.  1.
</event>
<event>
 5   0  0.2929471E-05  0.2196948E+04  0.7818609E-02  0.8519699E-01
       -1   -1    0    0    0  501  0.00000000000E+00  0.00000000000E+00  0.52595055970E+03  0.52595055972E+03  0.50400001928E-02 0. -1.
        1   -1    0    0  501    0  0.00000000000E+00  0.00000000000E+00 -0.22942181849E+04  0.22942181849E+04  0.50400001928E-02 0.  1.
    10030    2    1    2    0    0  0.00000000000E+00  0.00000000000E+00 -0.17682676252E+04  0.28201687446E+04  0.21969481910E+04 0.  0.
        2    1    3    3  502    0  0.16033666641E+03 -0.30202470180E+03 -0.22241574398E+04  0.22502895556E+04  0.25500000920E-02 0.  1.
       -2    1    3    3    0  502 -0.16033666641E+03  0.30202470180E+03  0.45588981456E+03  0.56987918905E+03  0.25500000920E-02 0. -1.
</event>
<event>
 5   0  0.6445740E-05  0.2230358E+04  0.7818609E-02  0.8505898E-01
        2   -1    0    0  501    0  0.00000000000E+00  0.00000000000E+00  0.12617088924E+04  0.12617088924E+04  0.25500000920E-02 0. -1.
       -2   -1    0    0    0  501  0.00000000000E+00  0.00000000000E+00 -0.98566676110E+03  0.98566676111E+03  0.25500000920E-02 0.  1.
    10030    2    1    2    0    0  0.00000000000E+00  0.00000000000E+00  0.27604213131E+03  0.22473756535E+04  0.22303582828E+04 0.  0.
        5    1    3    3  502    0  0.14763788235E+02  0.69336862564E+03 -0.74192567809E+03  0.10156051508E+04  0.46999998093E+01 0.  1.
       -5    1    3    3    0  502 -0.14763788235E+02 -0.69336862564E+03  0.10179678094E+04  0.12317705027E+04  0.46999998093E+01 0. -1.
</event>
<event>
 5   0  0.6306919E-05  0.2205134E+04  0.7818609E-02  0.8516294E-01
       -2   -1    0    0    0  501  0.00000000000E+00  0.00000000000E+00  0.84033052655E+03  0.84033052655E+03  0.25500000920E-02 0. -1.
        2   -1    0    0  501    0  0.00000000000E+00  0.00000000000E+00 -0.14466376359E+04  0.14466376359E+04  0.25500000920E-02 0.  1.
    10030    2    1    2    0    0  0.00000000000E+00  0.00000000000E+00 -0.60630710937E+03  0.22869681625E+04  0.22051337976E+04 0.  0.
        3    1    3    3  502    0  0.54904641027E+03 -0.19547253738E+03  0.66752472803E+03  0.88614375032E+03  0.10100000352E+00 0. -1.
       -3    1    3    3    0  502 -0.54904641027E+03  0.19547253738E+03 -0.12738318374E+04  0.14008244122E+04  0.10100000352E+00 0.  1.
</event>
<event>
 5   0  0.2929471E-05  0.2182226E+04  0.7818609E-02  0.8525863E-01
        1   -1    0    0  501    0  0.00000000000E+00  0.00000000000E+00  0.22026223807E+04  0.22026223807E+04  0.50400001928E-02 0. -1.
       -1   -1    0    0    0  501  0.00000000000E+00  0.00000000000E+00 -0.54050475779E+03  0.54050475781E+03  0.50400001928E-02 0.  1.
    10030    2    1    2    0    0  0.00000000000E+00  0.00000000000E+00  0.16621176229E+04  0.27431271385E+04  0.21822262728E+04 0.  0.
        2    1    3    3  502    0 -0.44511327019E+03 -0.34002558228E+03 -0.34598499711E+03  0.65836831495E+03  0.25500000920E-02 0.  1.
       -2    1    3    3    0  502  0.44511327019E+03  0.34002558228E+03  0.20081026200E+04  0.20847588236E+04  0.25500000920E-02 0. -1.
</event>
<event>
 5   0  0.6628798E-05  0.1928277E+04  0.7818609E-02  0.8640908E-01
       -2   -1    0    0    0  501  0.00000000000E+00  0.00000000000E+00  0.71334542720E+03  0.71334542720E+03  0.25500000920E-02 0.  1.
        2   -1    0    0  501    0  0.00000000000E+00  0.00000000000E+00 -0.13031034427E+04  0.13031034428E+04  0.25500000920E-02 0. -1.
    10030    2    1    2    0    0  0.00000000000E+00  0.00000000000E+00 -0.58975801555E+03  0.20164488700E+04  0.19282768287E+04 0.  0.
        4    1    3    3  502    0 -0.96316773161E+03 -0.40542073533E+02 -0.27917464942E+03  0.10036313251E+04  0.12699999809E+01 0. -1.
       -4    1    3    3    0  502  0.96316773161E+03  0.40542073533E+02 -0.31058336613E+03  0.10128175449E+04  0.12699999809E+01 0.  1.
</event>
<event>
 5   0  0.2753631E-05  0.2205790E+04  0.7818609E-02  0.8516022E-01
       -1   -1    0    0    0  501  0.00000000000E+00  0.00000000000E+00  0.43987634689E+03  0.43987634692E+03  0.50400001928E-02 0. -1.
        1   -1    0    0  501    0  0.00000000000E+00  0.00000000000E+00 -0.27652700528E+04  0.27652700528E+04  0.50400001928E-02 0.  1.
    10030    2    1    2    0    0  0.00000000000E+00  0.00000000000E+00 -0.23253937059E+04  0.32051463997E+04  0.22057895539E+04 0.  0.
        4    1    3    3  502    0 -0.75301489264E+03  0.73036045134E+03 -0.66797827290E+03  0.12436456100E+04  0.12699999809E+01 0. -1.
       -4    1    3    3    0  502  0.75301489264E+03 -0.73036045134E+03 -0.16574154330E+04  0.19615007897E+04  0.12699999809E+01 0.  1.
</event>
<event>
 5   0  0.2820239E-05  0.2205589E+04  0.7818609E-02  0.8516105E-01
       -1   -1    0    0    0  501  0.00000000000E+00  0.00000000000E+00  0.92615687371E+03  0.92615687372E+03  0.50400001928E-02 0.  1.
        1   -1    0    0  501    0  0.00000000000E+00  0.00000000000E+00 -0.13131208101E+04  0.13131208101E+04  0.50400001928E-02 0. -1.
    10030    2    1    2    0    0  0.00000000000E+00  0.00000000000E+00 -0.38696393636E+03  0.22392776838E+04  0.22055891406E+04 0.  0.
        3    1    3    3  502    0 -0.24056573498E+03  0.82480874277E+03 -0.89539888539E+03  0.12409353364E+04  0.10100000352E+00 0. -1.
       -3    1    3    3    0  502  0.24056573498E+03 -0.82480874277E+03  0.50843494903E+03  0.99834234739E+03  0.10100000352E+00 0.  1.
</event>
<event>
 5   0  0.6293013E-05  0.2254275E+04  0.7818609E-02  0.8496171E-01
        2   -1    0    0  501    0  0.00000000000E+00  0.00000000000E+00  0.56228716473E+03  0.56228716474E+03  0.25500000920E-02 0.  1.
       -2   -1    0    0    0  501  0.00000000000E+00  0.00000000000E+00 -0.22594129327E+04  0.22594129327E+04  0.25500000920E-02 0. -1.
    10030    2    1    2    0    0  0.00000000000E+00  0.00000000000E+00 -0.16971257680E+04  0.28217000975E+04  0.22542749539E+04 0.  0.
        1    1    3    3  502    0  0.75355984081E+02  0.96726702170E+03 -0.13043115739E+03  0.97892609653E+03  0.50400001928E-02 0.  1.
       -1    1    3    3    0  502 -0.75355984081E+02 -0.96726702170E+03 -0.15666946106E+04  0.18427740009E+04  0.50400001928E-02 0. -1.
</event>
<event>
 5   0  0.2929471E-05  0.2191051E+04  0.7818609E-02  0.8522162E-01
       -1   -1    0    0    0  501  0.00000000000E+00  0.00000000000E+00  0.15150444504E+04  0.15150444504E+04  0.50400001928E-02 0. -1.
        1   -1    0    0  501    0  0.00000000000E+00  0.00000000000E+00 -0.79217238489E+03  0.79217238491E+03  0.50400001928E-02 0.  1.
    10030    2    1    2    0    0  0.00000000000E+00  0.00000000000E+00  0.72287206552E+03  0.23072168353E+04  0.21910512322E+04 0.  0.
        2    1    3    3  502    0  0.45165880397E+03  0.53353409890E+03  0.12496754992E+04  0.14319019391E+04  0.25500000920E-02 0. -1.
       -2    1    3    3    0  502 -0.45165880397E+03 -0.53353409890E+03 -0.52680343365E+03  0.87531489625E+03  0.25500000920E-02 0.  1.
</event>
<event>
 5   0  0.6293013E-05  0.2194908E+04  0.7818609E-02  0.8520550E-01
        2   -1    0    0  501    0  0.00000000000E+00  0.00000000000E+00  0.12053063279E+04  0.12053063279E+04  0.25500000920E-02 0.  1.
       -2   -1    0    0    0  501  0.00000000000E+00  0.00000000000E+00 -0.99925260588E+03  0.99925260588E+03  0.25500000920E-02 0. -1.
    10030    2    1    2    0    0  0.00000000000E+00  0.00000000000E+00  0.20605372199E+03  0.22045589338E+04  0.21949081885E+04 0.  0.
        1    1    3    3  502    0  0.51021076253E+03  0.72501577470E+03 -0.54668874255E+03  0.10415524360E+04  0.50400001928E-02 0. -1.
       -1    1    3    3    0  502 -0.51021076253E+03 -0.72501577470E+03  0.75274246454E+03  0.11630064977E+04  0.50400001928E-02 0.  1.
</event>
<event>
 5   0  0.6306919E-05  0.2196804E+04  0.7818609E-02  0.8519760E-01
       -2   -1    0    0    0  501  0.00000000000E+00  0.00000000000E+00  0.10815168535E+04  0.10815168535E+04  0.25500000920E-02 0.  1.
        2   -1    0    0  501    0  0.00000000000E+00  0.00000000000E+00 -0.11155504039E+04  0.11155504039E+04  0.25500000920E-02 0. -1.
    10030    2    1    2    0    0  0.00000000000E+00  0.00000000000E+00 -0.34033550362E+02  0.21970672574E+04  0.21968036442E+04 0.  0.
        3    1    3    3  502    0 -0.98611788087E+02 -0.73513513563E+03  0.79322771198E+03  0.10859825807E+04  0.10100000352E+00 0.  1.
       -3    1    3    3    0  502  0.98611788087E+02  0.73513513563E+03 -0.82726126234E+03  0.11110846767E+04  0.10100000352E+00 0. -1.
</event>
<event>
 5   0  0.2908031E-05  0.2204623E+04  0.7818609E-02  0.8516506E-01
       -1   -1    0    0    0  501  0.00000000000E+00  0.00000000000E+00  0.51023134188E+03  0.51023134191E+03  0.50400001928E-02 0.  1.
        1   -1    0    0  501    0  0.00000000000E+00  0.00000000000E+00 -0.23814513057E+04  0.23814513057E+04  0.50400001928E-02 0. -1.
    10030    2    1    2    0    0  0.00000000000E+00  0.00000000000E+00 -0.18712199638E+04  0.28916826476E+04  0.22046234103E+04 0.  0.
        1    1    3    3  502    0  0.54885300075E+03 -0.53242311730E+03 -0.19770072382E+04  0.21197338541E+04  0.50400001928E-02 0. -1.
       -1    1    3    3    0  502 -0.54885300075E+03  0.53242311730E+03  0.10578727444E+03  0.77194879346E+03  0.50400001928E-02 0.  1.
</event>
<event>
 5   0  0.2908031E-05  0.2209765E+04  0.7818609E-02  0.8514375E-01
        1   -1    0    0  501    0  0.00000000000E+00  0.00000000000E+00  0.19536145787E+04  0.19536145787E+04  0.50400001928E-02 0.  1.
       -1   -1    0    0    0  501  0.00000000000E+00  0.00000000000E+00 -0.62487494435E+03  0.62487494437E+03  0.50400001928E-02 0. -1.
    10030    2    1    2    0    0  0.00000000000E+00  0.00000000000E+00  0.13287396343E+04  0.25784895231E+04  0.22097645134E+04 0.  0.
        1    1    3    3  502    0  0.11806039287E+02  0.22883279098E+03 -0.59684571477E+03  0.63931888449E+03  0.50400001928E-02 0. -1.
       -1    1    3    3    0  502 -0.11806039287E+02 -0.22883279098E+03  0.19255853491E+04  0.19391706386E+04  0.50400001928E-02 0.  1.
</event>
<event>
 5   0  0.6293013E-05  0.2212399E+04  0.7818609E-02  0.8513285E-01
       -2   -1    0    0    0  501  0.00000000000E+00  0.00000000000E+00  0.11976925802E+04  0.11976925802E+04  0.25500000920E-02 0. -1.
        2   -1    0    0  501    0  0.00000000000E+00  0.00000000000E+00 -0.10216955613E+04  0.10216955613E+04  0.25500000920E-02 0.  1.
    10030    2    1    2    0    0  0.00000000000E+00  0.00000000000E+00  0.17599701887E+03  0.22193881415E+04  0.22123988727E+04 0.  0.
        1    1    3    3  502    0 -0.60304867172E+03  0.10004572635E+03 -0.83686870346E+03  0.10363522927E+04  0.50400001928E-02 0.  1.
       -1    1    3    3    0  502  0.60304867172E+03 -0.10004572635E+03  0.10128657223E+04  0.11830358487E+04  0.50400001928E-02 0. -1.
</event>
<event>
 5   0  0.2929471E-05  0.2184315E+04  0.7818609E-02  0.8524985E-01
        1   -1    0    0  501    0  0.00000000000E+00  0.00000000000E+00  0.13999256344E+04  0.13999256344E+04  0.50400001928E-02 0. -1.
       -1   -1    0    0    0  501  0.00000000000E+00  0.00000000000E+00 -0.85205118614E+03  0.85205118616E+03  0.50400001928E-02 0.  1.
    10030    2    1    2    0    0  0.00000000000E+00  0.00000000000E+00  0.54787444825E+03  0.22519768206E+04  0.21843152678E+04 0.  0.
        2    1    3    3  502    0 -0.63858728805E+03 -0.32467445560E+01 -0.63951226705E+03  0.90375893109E+03  0.25500000920E-02 0.  1.
       -2    1    3    3    0  502  0.63858728805E+03  0.32467445560E+01  0.11873867153E+04  0.13482178895E+04  0.25500000920E-02 0. -1.
</event>
<event>
 5   0  0.2908031E-05  0.2205767E+04  0.7818609E-02  0.8516032E-01
       -1   -1    0    0    0  501  0.00000000000E+00  0.00000000000E+00  0.78450143203E+03  0.78450143205E+03  0.50400001928E-02 0. -1.
        1   -1    0    0  501    0  0.00000000000E+00  0.00000000000E+00 -0.15504780066E+04  0.15504780066E+04  0.50400001928E-02 0.  1.
    10030    2    1    2    0    0  0.00000000000E+00  0.00000000000E+00 -0.76597657458E+03  0.23349794387E+04  0.22057671831E+04 0.  0.
        1    1    3    3  502    0 -0.63897243913E+02 -0.16139815630E+03 -0.15359264359E+04  0.15457044475E+04  0.50400001928E-02 0.  1.
       -1    1    3    3    0  502  0.63897243913E+02  0.16139815630E+03  0.76994986132E+03  0.78927499112E+03  0.50400001928E-02 0. -1.
</event>
<event>
 5   0  0.6306919E-05  0.2189869E+04  0.7818609E-02  0.8522657E-01
        2   -1    0    0  501    0  0.00000000000E+00  0.00000000000E+00  0.30196507805E+04  0.30196507805E+04  0.25500000920E-02 0. -1.
       -2   -1    0    0    0  501  0.00000000000E+00  0.00000000000E+00 -0.39702671514E+03  0.39702671514E+03  0.25500000920E-02 0.  1.
    10030    2    1    2    0    0  0.00000000000E+00  0.00000000000E+00  0.26226240654E+04  0.34166774956E+04  0.21898694301E+04 0.  0.
        3    1    3    3  502    0 -0.13072163417E+03  0.16233250244E+03  0.29884154633E+04  0.29956747118E+04  0.10100000352E+00 0. -1.
       -3    1    3    3    0  502  0.13072163417E+03 -0.16233250244E+03 -0.36579139798E+03  0.42100278387E+03  0.10100000352E+00 0.  1.
</event>
<event>
 5   0  0.2753631E-05  0.2162019E+04  0.7818609E-02  0.8534405E-01
        1   -1    0    0  501    0  0.00000000000E+00  0.00000000000E+00  0.10049735951E+04  0.10049735951E+04  0.50400001928E-02 0.  1.
       -1   -1    0    0    0  501  0.00000000000E+00  0.00000000000E+00 -0.11627981007E+04  0.11627981007E+04  0.50400001928E-02 0. -1.
    10030    2    1    2    0    0  0.00000000000E+00  0.00000000000E+00 -0.15782450561E+03  0.21677716959E+04  0.21620188600E+04 0.  0.
        4    1    3    3  502    0  0.24069467153E+03 -0.91939404826E+03  0.43758991391E+03  0.10462819345E+04  0.12699999809E+01 0. -1.
       -4    1    3    3    0  502 -0.24069467153E+03  0.91939404826E+03 -0.59541441952E+03  0.11214897613E+04  0.12699999809E+01 0.  1.
</event>
<event>
 5   0  0.2908031E-05  0.2157449E+04  0.7818609E-02  0.8536350E-01
        1   -1    0    0  501    0  0.00000000000E+00  0.00000000000E+00  0.96104344435E+03  0.96104344436E+03  0.50400001928E-02 0.  1.
       -1   -1    0    0    0  501  0.00000000000E+00  0.00000000000E+00 -0.12108159259E+04  0.12108159259E+04  0.50400001928E-02 0. -1.
    10030    2    1    2    0    0  0.00000000000E+00  0.00000000000E+00 -0.24977248155E+03  0.21718593703E+04  0.21574491493E+04 0.  0.
        1    1    3    3  502    0 -0.90344222045E+03  0.52898075989E+02  0.46609594045E+03  0.10179643795E+04  0.50400001928E-02 0.  1.
       -1    1    3    3    0  502  0.90344222045E+03 -0.52898075989E+02 -0.71586842200E+03  0.11538949908E+04  0.50400001928E-02 0. -1.
</event>
<event>
 5   0  0.2753631E-05  0.2200567E+04  0.7818609E-02  0.8518192E-01
       -1   -1    0    0    0  501  0.00000000000E+00  0.00000000000E+00  0.66031015138E+03  0.66031015140E+03  0.50400001928E-02 0.  1.
        1   -1    0    0  501    0  0.00000000000E+00  0.00000000000E+00 -0.18334168377E+04  0.18334168378E+04  0.50400001928E-02 0. -1.
    10030    2    1    2    0    0  0.00000000000E+00  0.00000000000E+00 -0.11731066864E+04  0.24937269892E+04  0.22005669721E+04 0.  0.
        4    1    3    3  502    0 -0.32783976710E+03  0.10167623142E+04 -0.28815336885E+03  0.11064892649E+04  0.12699999809E+01 0.  1.
       -4    1    3    3    0  502  0.32783976710E+03 -0.10167623142E+04 -0.88495331752E+03  0.13872377242E+04  0.12699999809E+01 0. -1.
</event>
<event>
 5   0  0.6414768E-05  0.2183743E+04  0.7818609E-02  0.8525225E-01
        2   -1    0    0  501    0  0.00000000000E+00  0.00000000000E+00  0.19259162065E+04  0.19259162065E+04  0.25500000920E-02 0. -1.
       -2   -1    0    0    0  501  0.00000000000E+00  0.00000000000E+00 -0.61902165262E+03  0.61902165263E+03  0.25500000920E-02 0.  1.
    10030    2    1    2    0    0  0.00000000000E+00  0.00000000000E+00  0.13068945539E+04  0.25449378591E+04  0.21837434217E+04 0.  0.
        2    1    3    3  502    0  0.58832079404E+03 -0.88704086736E+03  0.36984262350E+03  0.11268302548E+04  0.25500000920E-02 0.  1.
       -2    1    3    3    0  502 -0.58832079404E+03  0.88704086736E+03  0.93705193036E+03  0.14181076043E+04  0.25500000920E-02 0. -1.
</event>
<event>
 5   0  0.6628798E-05  0.2192638E+04  0.7818609E-02  0.8521498E-01
       -2   -1    0    0    0  501  0.00000000000E+00  0.00000000000E+00  0.83983820261E+03  0.83983820261E+03  0.25500000920E-02 0.  1.
        2   -1    0    0  501    0  0.00000000000E+00  0.00000000000E+00 -0.14311278905E+04  0.14311278905E+04  0.25500000920E-02 0. -1.
    10030    2    1    2    0    0  0.00000000000E+00  0.00000000000E+00 -0.59128968792E+03  0.22709660931E+04  0.21926384794E+04 0.  0.
        4    1    3    3  502    0  0.68462132765E+03 -0.36727336028E+03  0.50549755722E+03  0.92689021826E+03  0.12699999809E+01 0. -1.
       -4    1    3    3    0  502 -0.68462132765E+03  0.36727336028E+03 -0.10967872451E+04  0.13440758749E+04  0.12699999809E+01 0.  1.
</event>
<event>
 5   0  0.6306919E-05  0.2204628E+04  0.7818609E-02  0.8516504E-01
       -2   -1    0    0    0  501  0.00000000000E+00  0.00000000000E+00  0.62009797890E+03  0.62009797891E+03  0.25500000920E-02 0. -1.
        2   -1    0    0  501    0  0.00000000000E+00  0.00000000000E+00 -0.19595228710E+04  0.19595228710E+04  0.25500000920E-02 0.  1.
    10030    2    1    2    0    0  0.00000000000E+00  0.00000000000E+00 -0.13394248921E+04  0.25796208499E+04  0.22046280157E+04 0.  0.
        3    1    3    3  502    0  0.40767611460E+03 -0.97481268167E+03 -0.10371974029E+04  0.14806208298E+04  0.10100000352E+00 0.  1.
       -3    1    3    3    0  502 -0.40767611460E+03  0.97481268167E+03 -0.30222748915E+03  0.10990000201E+04  0.10100000352E+00 0. -1.
</event>
<event>
 5   0  0.2820239E-05  0.2197068E+04  0.7818609E-02  0.8519649E-01
        1   -1    0    0  501    0  0.00000000000E+00  0.00000000000E+00  0.12217334953E+04  0.12217334953E+04  0.50400001928E-02 0. -1.
       -1   -1    0    0    0  501  0.00000000000E+00  0.00000000000E+00 -0.98775812603E+03  0.98775812604E+03  0.50400001928E-02 0.  1.
    10030    2    1    2    0    0  0.00000000000E+00  0.00000000000E+00  0.23397536926E+03  0.22094916213E+04  0.21970682173E+04 0.  0.
        3    1    3    3  502    0  0.95792662241E+03 -0.53665937571E+03  0.82877190402E+02  0.11011336605E+04  0.10100000352E+00 0. -1.
       -3    1    3    3    0  502 -0.95792662241E+03  0.53665937571E+03  0.15109817886E+03  0.11083579608E+04  0.10100000352E+00 0.  1.
</event>
<event>
 5   0  0.6445740E-05  0.2256268E+04  0.7818609E-02  0.8495367E-01
        2   -1    0    0  501    0  0.00000000000E+00  0.00000000000E+00  0.16034231971E+04  0.16034231971E+04  0.25500000920E-02 0.  1.
       -2   -1    0    0    0  501  0.00000000000E+00  0.00000000000E+00 -0.79373043313E+03  0.79373043314E+03  0.25500000920E-02 0. -1.
    10030    2    1    2    0    0  0.00000000000E+00  0.00000000000E+00  0.80969276399E+03  0.23971536303E+04  0.22562675274E+04 0.  0.
        5    1    3    3  502    0  0.75268219547E+03 -0.52765095136E+03 -0.28999212590E+03  0.96387942032E+03  0.46999998093E+01 0. -1.
       -5    1    3    3    0  502 -0.75268219547E+03  0.52765095136E+03  0.10996848899E+04  0.14332742099E+04  0.46999998093E+01 0.  1.
</event>
<event>
 5   0  0.6414768E-05  0.2217523E+04  0.7818609E-02  0.8511170E-01
       -2   -1    0    0    0  501  0.00000000000E+00  0.00000000000E+00  0.58975232598E+03  0.58975232598E+03  0.25500000920E-02 0. -1.
        2   -1    0    0  501    0  0.00000000000E+00  0.00000000000E+00 -0.20845227618E+04  0.20845227618E+04  0.25500000920E-02 0.  1.
    10030    2    1    2    0    0  0.00000000000E+00  0.00000000000E+00 -0.14947704358E+04  0.26742750878E+04  0.22175230753E+04 0.  0.
        2    1    3    3  502    0 -0.74364602703E+03  0.50596957062E+03 -0.15292596535E+04  0.17741616916E+04  0.25500000920E-02 0.  1.
       -2    1    3    3    0  502  0.74364602703E+03 -0.50596957062E+03  0.34489217692E+02  0.90011339622E+03  0.25500000920E-02 0. -1.
</event>
<event>
 5   0  0.2820239E-05  0.2117949E+04  0.7818609E-02  0.8553378E-01
       -1   -1    0    0    0  501  0.00000000000E+00  0.00000000000E+00  0.10642944461E+04  0.10642944461E+04  0.50400001928E-02 0.  1.
        1   -1    0    0  501    0  0.00000000000E+00  0.00000000000E+00 -0.10536811780E+04  0.10536811780E+04  0.50400001928E-02 0. -1.
    10030    2    1    2    0    0  0.00000000000E+00  0.00000000000E+00  0.10613268095E+02  0.21179756240E+04  0.21179490321E+04 0.  0.
        3    1    3    3  502    0 -0.12368083407E+03 -0.92905458752E+03 -0.48763732001E+03  0.10565176484E+04  0.10100000352E+00 0. -1.
       -3    1    3    3    0  502  0.12368083407E+03  0.92905458752E+03  0.49825058810E+03  0.10614579756E+04  0.10100000352E+00 0.  1.
</event>
<event>
 5   0  0.6445740E-05  0.2208194E+04  0.7818609E-02  0.8515025E-01
        2   -1    0    0  501    0  0.00000000000E+00  0.00000000000E+00  0.20882470496E+04  0.20882470496E+04  0.25500000920E-02 0. -1.
       -2   -1    0    0    0  501  0.00000000000E+00  0.00000000000E+00 -0.58375784780E+03  0.58375784781E+03  0.25500000920E-02 0.  1.
    10030    2    1    2    0    0  0.00000000000E+00  0.00000000000E+00  0.15044892018E+04  0.26720048974E+04  0.22081943785E+04 0.  0.
        5    1    3    3  502    0 -0.10833836946E+04 -0.14127501495E+03  0.55966309614E+03  0.12275682184E+04  0.46999998093E+01 0.  1.
       -5    1    3    3    0  502  0.10833836946E+04  0.14127501495E+03  0.94482610562E+03  0.14444366790E+04  0.46999998093E+01 0. -1.
</event>
<event>
 5   0  0.2245375E-05  0.2186444E+04  0.7818609E-02  0.8524091E-01
        3   -1    0    0  501    0  0.00000000000E+00  0.00000000000E+00  0.80000577618E+03  0.80000578256E+03  0.10100000352E+00 0.  1.
       -3   -1    0    0    0  501  0.00000000000E+00  0.00000000000E+00 -0.14939076722E+04  0.14939076756E+04  0.10100000352E+00 0. -1.
    10030    2    1    2    0    0  0.00000000000E+00  0.00000000000E+00 -0.69390189605E+03  0.22939134582E+04  0.21864443996E+04 0.  0.
        2    1    3    3  502    0  0.26469219351E+03  0.99152447264E+03  0.48333212498E+02  0.10273844639E+04  0.25500000920E-02 0.  1.
       -2    1    3    3    0  502 -0.26469219351E+03 -0.99152447264E+03 -0.74223510855E+03  0.12665289943E+04  0.25500000920E-02 0. -1.
</event>
<event>
 5   0  0.6445740E-05  0.2197861E+04  0.7818609E-02  0.8519319E-01
        2   -1    0    0  501    0  0.00000000000E+00  0.00000000000E+00  0.24073397428E+04  0.24073397428E+04  0.25500000920E-02 0.  1.
       -2   -1    0    0    0  501  0.00000000000E+00  0.00000000000E+00 -0.50165275860E+03  0.50165275861E+03  0.25500000920E-02 0. -1.
    10030    2    1    2    0    0  0.00000000000E+00  0.00000000000E+00  0.19056869842E+04  0.29089925014E+04  0.21978613449E+04 0.  0.
        5    1    3    3  502    0 -0.74607131887E+03 -0.18722840574E+03  0.19916027685E+04  0.21349895940E+04  0.46999998093E+01 0.  1.
       -5    1    3    3    0  502  0.74607131887E+03  0.18722840574E+03 -0.85915784309E+02  0.77400290746E+03  0.46999998093E+01 0. -1.
</event>
<event>
 5   0  0.6293013E-05  0.2207570E+04  0.7818609E-02  0.8515284E-01
        2   -1    0    0  501    0  0.00000000000E+00  0.00000000000E+00  0.25954587875E+04  0.25954587875E+04  0.25500000920E-02 0. -1.
       -2   -1    0    0    0  501  0.00000000000E+00  0.00000000000E+00 -0.46941289974E+03  0.46941289975E+03  0.25500000920E-02 0.  1.
    10030    2    1    2    0    0  0.00000000000E+00  0.00000000000E+00  0.21260458877E+04  0.30648716872E+04  0.22075704615E+04 0.  0.
        1    1    3    3  502    0 -0.65134113395E+03  0.41359326603E+02  0.22988739379E+04  0.23897232579E+04  0.50400001928E-02 0. -1.
       -1    1    3    3    0  502  0.65134113395E+03 -0.41359326603E+02 -0.17282805021E+03  0.67514842934E+03  0.50400001928E-02 0.  1.
</event>
<event>
 5   0  0.6628798E-05  0.2207078E+04  0.7818609E-02  0.8515488E-01
       -2   -1    0    0    0  501  0.00000000000E+00  0.00000000000E+00  0.74995052616E+03  0.74995052616E+03  0.25500000920E-02 0.  1.
        2   -1    0    0  501    0  0.00000000000E+00  0.00000000000E+00 -0.16238383337E+04  0.16238383337E+04  0.25500000920E-02 0. -1.
    10030    2    1    2    0    0  0.00000000000E+00  0.00000000000E+00 -0.87388780750E+03  0.23737888598E+04  0.22070780799E+04 0.  0.
        4    1    3    3  502    0  0.75012308908E+03 -0.34607362471E+03 -0.12238834043E+04  0.14765987277E+04  0.12699999809E+01 0. -1.
       -4    1    3    3    0  502 -0.75012308908E+03  0.34607362471E+03  0.34999559679E+03  0.89719013211E+03  0.12699999809E+01 0.  1.
</event>
<event>
 5   0  0.2820239E-05  0.2242916E+04  0.7818609E-02  0.8500775E-01
        1   -1    0    0  501    0  0.00000000000E+00  0.00000000000E+00  0.15452133810E+04  0.15452133810E+04  0.50400001928E-02 0.  1.
       -1   -1    0    0    0  501  0.00000000000E+00  0.00000000000E+00 -0.81391231866E+03  0.81391231867E+03  0.50400001928E-02 0. -1.
    10030    2    1    2    0    0  0.00000000000E+00  0.00000000000E+00  0.73130106234E+03  0.23591256997E+04  0.22429161427E+04 0.  0.
        3    1    3    3  502    0 -0.83242538484E+03  0.25590673893E+03 -0.37753316750E+03  0.94918469389E+03  0.10100000352E+00 0. -1.
       -3    1    3    3    0  502  0.83242538484E+03 -0.25590673893E+03  0.11088342298E+04  0.14099410058E+04  0.10100000352E+00 0.  1.
</event>
<event>
 5   0  0.2753631E-05  0.2209785E+04  0.7818609E-02  0.8514366E-01
       -1   -1    0    0    0  501  0.00000000000E+00  0.00000000000E+00  0.13160433034E+04  0.13160433034E+04  0.50400001928E-02 0.  1.
        1   -1    0    0  501    0  0.00000000000E+00  0.00000000000E+00 -0.92761982802E+03  0.92761982803E+03  0.50400001928E-02 0. -1.
    10030    2    1    2    0    0  0.00000000000E+00  0.00000000000E+00  0.38842347542E+03  0.22436631315E+04  0.22097853858E+04 0.  0.
        4    1    3    3  502    0 -0.81778452905E+03 -0.61657014530E+03  0.61512234070E+03  0.11946997058E+04  0.12699999809E+01 0.  1.
       -4    1    3    3    0  502  0.81778452905E+03  0.61657014530E+03 -0.22669886528E+03  0.10489634257E+04  0.12699999809E+01 0. -1.
</event>
<event>
 5   0  0.6293013E-05  0.2209599E+04  0.7818609E-02  0.8514443E-01
        2   -1    0    0  501    0  0.00000000000E+00  0.00000000000E+00  0.67081685542E+03  0.67081685543E+03  0.25500000920E-02 0.  1.
       -2   -1    0    0    0  501  0.00000000000E+00  0.00000000000E+00 -0.18195464994E+04  0.18195464994E+04  0.25500000920E-02 0. -1.
    10030    2    1    2    0    0  0.00000000000E+00  0.00000000000E+00 -0.11487296440E+04  0.24903633549E+04  0.22095994760E+04 0.  0.
        1    1    3    3  502    0  0.60905541961E+03  0.55622652833E+03  0.25404443147E+03  0.86306142780E+03  0.50400001928E-02 0.  1.
       -1    1    3    3    0  502 -0.60905541961E+03 -0.55622652833E+03 -0.14027740755E+04  0.16273019271E+04  0.50400001928E-02 0. -1.
</event>
<event>
 5   0  0.2908031E-05  0.2223311E+04  0.7818609E-02  0.8508788E-01
       -1   -1    0    0    0  501  0.00000000000E+00  0.00000000000E+00  0.22531136985E+04  0.22531136985E+04  0.50400001928E-02 0. -1.
        1   -1    0    0  501    0  0.00000000000E+00  0.00000000000E+00 -0.54847565352E+03  0.54847565355E+03  0.50400001928E-02 0.  1.
    10030    2    1    2    0    0  0.00000000000E+00  0.00000000000E+00  0.17046380450E+04  0.28015893521E+04  0.22233110518E+04 0.  0.
        1    1    3    3  502    0  0.44855899621E+03 -0.16206026160E+02 -0.42921356776E+03  0.62104113805E+03  0.50400001928E-02 0.  1.
       -1    1    3    3    0  502 -0.44855899621E+03  0.16206026160E+02  0.21338516128E+04  0.21805482140E+04  0.50400001928E-02 0. -1.
</event>
<event>
 5   0  0.6628798E-05  0.2209159E+04  0.7818609E-02  0.8514625E-01
        2   -1    0    0  501    0  0.00000000000E+00  0.00000000000E+00  0.15057252438E+04  0.15057252438E+04  0.25500000920E-02 0.  1.
       -2   -1    0    0    0  501  0.00000000000E+00  0.00000000000E+00 -0.81030471610E+03  0.81030471611E+03  0.25500000920E-02 0. -1.
    10030    2    1    2    0    0  0.00000000000E+00  0.00000000000E+00  0.69542052769E+03  0.23160299599E+04  0.22091593570E+04 0.  0.
        4    1    3    3  502    0 -0.93722723877E+03  0.24072774638E+03 -0.21074063376E+03  0.99033225364E+03  0.12699999809E+01 0. -1.
       -4    1    3    3    0  502  0.93722723877E+03 -0.24072774638E+03  0.90616116145E+03  0.13256977063E+04  0.12699999809E+01 0.  1.
</event>
<event>
 5   0  0.6445740E-05  0.2186166E+04  0.7818609E-02  0.8524208E-01
        2   -1    0    0  501    0  0.00000000000E+00  0.00000000000E+00  0.71765301393E+03  0.71765301393E+03  0.25500000920E-02 0.  1.
       -2   -1    0    0    0  501  0.00000000000E+00  0.00000000000E+00 -0.16649145011E+04  0.16649145011E+04  0.25500000920E-02 0. -1.
    10030    2    1    2    0    0  0.00000000000E+00  0.00000000000E+00 -0.94726148720E+03  0.23825675151E+04  0.21861664252E+04 0.  0.
        5    1    3    3  502    0  0.11281699922E+03 -0.69390661958E+03  0.43856750793E+03  0.82861186391E+03  0.46999998093E+01 0.  1.
       -5    1    3    3    0  502 -0.11281699922E+03  0.69390661958E+03 -0.13858289951E+04  0.15539556512E+04  0.46999998093E+01 0. -1.
</event>
<event>
 5   0  0.6445740E-05  0.2227868E+04  0.7818609E-02  0.8506918E-01
       -2   -1    0    0    0  501  0.00000000000E+00  0.00000000000E+00  0.11900495863E+04  0.11900495863E+04  0.25500000920E-02 0.  1.
        2   -1    0    0  501    0  0.00000000000E+00  0.00000000000E+00 -0.10426864836E+04  0.10426864836E+04  0.25500000920E-02 0. -1.
    10030    2    1    2    0    0  0.00000000000E+00  0.00000000000E+00  0.14736310273E+03  0.22327360699E+04  0.22278676967E+04 0.  0.
        5    1    3    3  502    0 -0.48759879528E+03  0.75619345189E+03  0.73180934675E+03  0.11598052129E+04  0.46999998093E+01 0.  1.
       -5    1    3    3    0  502  0.48759879528E+03 -0.75619345189E+03 -0.58444624402E+03  0.10729308570E+04  0.46999998093E+01 0. -1.
</event>
<event>
 5   0  0.2753631E-05  0.2150838E+04  0.7818609E-02  0.8539174E-01
        1   -1    0    0  501    0  0.00000000000E+00  0.00000000000E+00  0.89859025645E+03  0.89859025647E+03  0.50400001928E-02 0. -1.
       -1   -1    0    0    0  501  0.00000000000E+00  0.00000000000E+00 -0.12870450392E+04  0.12870450392E+04  0.50400001928E-02 0.  1.
    10030    2    1    2    0    0  0.00000000000E+00  0.00000000000E+00 -0.38845478271E+03  0.21856352956E+04  0.21508380988E+04 0.  0.
        4    1    3    3  502    0  0.62628205543E+03 -0.80692152322E+03  0.14762711935E+03  0.10320595607E+04  0.12699999809E+01 0. -1.
       -4    1    3    3    0  502 -0.62628205543E+03  0.80692152322E+03 -0.53608190206E+03  0.11535757349E+04  0.12699999809E+01 0.  1.
</event>
<event>
 5   0  0.2753631E-05  0.2223987E+04  0.7818609E-02  0.8508510E-01
        1   -1    0    0  501    0  0.00000000000E+00  0.00000000000E+00  0.19442106948E+04  0.19442106948E+04  0.50400001928E-02 0.  1.
       -1   -1    0    0    0  501  0.00000000000E+00  0.00000000000E+00 -0.63600604636E+03  0.63600604638E+03  0.50400001928E-02 0. -1.
    10030    2    1    2    0    0  0.00000000000E+00  0.00000000000E+00  0.13082046484E+04  0.25802167411E+04  0.22239871918E+04 0.  0.
        4    1    3    3  502    0  0.47160158552E+03  0.43990975839E+03 -0.39686576400E+03  0.75725339123E+03  0.12699999809E+01 0. -1.
       -4    1    3    3    0  502 -0.47160158552E+03 -0.43990975839E+03  0.17050704124E+04  0.18229633499E+04  0.12699999809E+01 0.  1.
</event>
<event>
 5   0  0.2908031E-05  0.2193067E+04  0.7818609E-02  0.8521319E-01
        1   -1    0    0  501    0  0.00000000000E+00  0.00000000000E+00  0.14983483003E+04  0.14983483003E+04  0.50400001928E-02 0.  1.
       -1   -1    0    0    0  501  0.00000000000E+00  0.00000000000E+00 -0.80247443928E+03  0.80247443929E+03  0.50400001928E-02 0. -1.
    10030    2    1    2    0    0  0.00000000000E+00  0.00000000000E+00  0.69587386097E+03  0.23008227396E+04  0.21930674519E+04 0.  0.
        1    1    3    3  502    0 -0.10480509371E+04 -0.26773510474E+03  0.53647010588E+03  0.12074324112E+04  0.50400001928E-02 0. -1.
       -1    1    3    3    0  502  0.10480509371E+04  0.26773510474E+03  0.15940375509E+03  0.10933903284E+04  0.50400001928E-02 0.  1.
</event>
<event>
 5   0  0.6445740E-05  0.2274961E+04  0.7818609E-02  0.8487859E-01
        2   -1    0    0  501    0  0.00000000000E+00  0.00000000000E+00  0.11676383420E+04  0.11676383420E+04  0.25500000920E-02 0.  1.
       -2   -1    0    0    0  501  0.00000000000E+00  0.00000000000E+00 -0.11081020109E+04  0.11081020109E+04  0.25500000920E-02 0. -1.
    10030    2    1    2    0    0  0.00000000000E+00  0.00000000000E+00  0.59536331075E+02  0.22757403529E+04  0.22749614457E+04 0.  0.
        5    1    3    3  502    0 -0.53122677993E+03 -0.10054923348E+04  0.54748254376E+02  0.11385236881E+04  0.46999998093E+01 0.  1.
       -5    1    3    3    0  502  0.53122677993E+03  0.10054923348E+04  0.47880766985E+01  0.11372166648E+04  0.46999998093E+01 0. -1.
</event>
<event>
 5   0  0.6293013E-05  0.2192354E+04  0.7818609E-02  0.8521617E-01
        2   -1    0    0  501    0  0.00000000000E+00  0.00000000000E+00  0.16369020232E+04  0.16369020232E+04  0.25500000920E-02 0.  1.
       -2   -1    0    0    0  501  0.00000000000E+00  0.00000000000E+00 -0.73407211490E+03  0.73407211490E+03  0.25500000920E-02 0. -1.
    10030    2    1    2    0    0  0.00000000000E+00  0.00000000000E+00  0.90282990831E+03  0.23709741381E+04  0.21923541047E+04 0.  0.
        1    1    3    3  502    0 -0.16865621577E+03  0.58848567484E+03 -0.53197973318E+03  0.81102573643E+03  0.50400001928E-02 0. -1.
       -1    1    3    3    0  502  0.16865621577E+03 -0.58848567484E+03  0.14348096415E+04  0.15599484017E+04  0.50400001928E-02 0.  1.
</event>
<event>
 5   0  0.6293013E-05  0.2167753E+04  0.7818609E-02  0.8531971E-01
       -2   -1    0    0    0  501  0.00000000000E+00  0.00000000000E+00  0.66331058722E+03  0.66331058722E+03  0.25500000920E-02 0. -1.
        2   -1    0    0  501    0  0.00000000000E+00  0.00000000000E+00 -0.17710990844E+04  0.17710990844E+04  0.25500000920E-02 0.  1.
    10030    2    1    2    0    0  0.00000000000E+00  0.00000000000E+00 -0.11077884972E+04  0.24344096717E+04  0.21677534673E+04 0.  0.
        1    1    3    3  502    0  0.18185474000E+03  0.93898153834E+03 -0.11265539033E+04  0.14777960525E+04  0.50400001928E-02 0.  1.
       -1    1    3    3    0  502 -0.18185474000E+03 -0.93898153834E+03  0.18765406088E+02  0.95661361913E+03  0.50400001928E-02 0. -1.
</event>
<event>
 5   0  0.6293013E-05  0.2203129E+04  0.7818609E-02  0.8517127E-01
        2   -1    0    0  501    0  0.00000000000E+00  0.00000000000E+00  0.12135433727E+04  0.12135433727E+04  0.25500000920E-02 0. -1.
       -2   -1    0    0    0  501  0.00000000000E+00  0.00000000000E+00 -0.99991821269E+03  0.99991821269E+03  0.25500000920E-02 0.  1.
    10030    2    1    2    0    0  0.00000000000E+00  0.00000000000E+00  0.21362516001E+03  0.22134615854E+04  0.22031287936E+04 0.  0.
        1    1    3    3  502    0  0.10119051335E+03  0.96587752763E+03  0.62914049551E+03  0.11571415996E+04  0.50400001928E-02 0.  1.
       -1    1    3    3    0  502 -0.10119051335E+03 -0.96587752763E+03 -0.41551533550E+03  0.10563199858E+04  0.50400001928E-02 0. -1.
</event>
<event>
 5   0  0.2929471E-05  0.2206235E+04  0.7818609E-02  0.8515837E-01
        1   -1    0    0  501    0  0.00000000000E+00  0.00000000000E+00  0.13826798334E+04  0.13826798334E+04  0.50400001928E-02 0. -1.
       -1   -1    0    0    0  501  0.00000000000E+00  0.00000000000E+00 -0.88007982992E+03  0.88007982994E+03  0.50400001928E-02 0.  1.
    10030    2    1    2    0    0  0.00000000000E+00  0.00000000000E+00  0.50260000347E+03  0.22627596633E+04  0.22062353751E+04 0.  0.
        2    1    3    3  502    0  0.41756065043E+03  0.21702204441E+03 -0.77196536477E+03  0.90409401555E+03  0.25500000920E-02 0.  1.
       -2    1    3    3    0  502 -0.41756065043E+03 -0.21702204441E+03  0.12745653682E+04  0.13586656478E+04  0.25500000920E-02 0. -1.
</event>
<event>
 5   0  0.2910318E-05  0.2198661E+04  0.7818609E-02  0.8518986E-01
        1   -1    0    0  501    0  0.00000000000E+00  0.00000000000E+00  0.11976642578E+04  0.11976642578E+04  0.50400001928E-02 0. -1.
       -1   -1    0    0    0  501  0.00000000000E+00  0.00000000000E+00 -0.10090700346E+04  0.10090700347E+04  0.50400001928E-02 0.  1.
    10030    2    1    2    0    0  0.00000000000E+00  0.00000000000E+00  0.18859422314E+03  0.22067342925E+04  0.21986606051E+04 0.  0.
        5    1    3    3  502    0 -0.92489370863E+03 -0.24104868975E+03  0.63940488933E+03  0.11499537145E+04  0.46999998093E+01 0. -1.
       -5    1    3    3    0  502  0.92489370863E+03  0.24104868975E+03 -0.45081066620E+03  0.10567805779E+04  0.46999998093E+01 0.  1.
</event>
<event>
 5   0  0.6445740E-05  0.2210700E+04  0.7818609E-02  0.8513988E-01
        2   -1    0    0  501    0  0.00000000000E+00  0.00000000000E+00  0.16994269591E+04  0.16994269591E+04  0.25500000920E-02 0. -1.
       -2   -1    0    0    0  501  0.00000000000E+00  0.00000000000E+00 -0.71894769525E+03  0.71894769526E+03  0.25500000920E-02 0.  1.
    10030    2    1    2    0    0  0.00000000000E+00  0.00000000000E+00  0.98047926387E+03  0.24183746544E+04  0.22107004279E+04 0.  0.
        5    1    3    3  502    0 -0.55365215788E+03  0.89928321786E+03  0.84730017033E+03  0.13539500310E+04  0.46999998093E+01 0. -1.
       -5    1    3    3    0  502  0.55365215788E+03 -0.89928321786E+03  0.13317909354E+03  0.10644246234E+04  0.46999998093E+01 0.  1.
</event>
<event>
 5   0  0.2753631E-05  0.2229952E+04  0.7818609E-02  0.8506064E-01
        1   -1    0    0  501    0  0.00000000000E+00  0.00000000000E+00  0.68563999489E+03  0.68563999491E+03  0.50400001928E-02 0.  1.
       -1   -1    0    0    0  501  0.00000000000E+00  0.00000000000E+00 -0.18131554589E+04  0.18131554589E+04  0.50400001928E-02 0. -1.
    10030    2    1    2    0    0  0.00000000000E+00  0.00000000000E+00 -0.11275154640E+04  0.24987954538E+04  0.22299523758E+04 0.  0.
        4    1    3    3  502    0 -0.81650036161E+03 -0.18656921185E+03 -0.13884848554E+04  0.16215340631E+04  0.12699999809E+01 0. -1.
       -4    1    3    3    0  502  0.81650036161E+03  0.18656921185E+03  0.26096939144E+03  0.87726139063E+03  0.12699999809E+01 0.  1.
</event>
<event>
 5   0  0.6414768E-05  0.2205553E+04  0.7818609E-02  0.8516121E-01
       -2   -1    0    0    0  501  0.00000000000E+00  0.00000000000E+00  0.11948836936E+04  0.11948836936E+04  0.25500000920E-02 0.  1.
        2   -1    0    0  501    0  0.00000000000E+00  0.00000000000E+00 -0.10177689586E+04  0.10177689586E+04  0.25500000920E-02 0. -1.
    10030    2    1    2    0    0  0.00000000000E+00  0.00000000000E+00  0.17711473498E+03  0.22126526522E+04  0.22055525679E+04 0.  0.
        2    1    3    3  502    0 -0.19281414964E+03 -0.38428993041E+03  0.11073359524E+04  0.11878758178E+04  0.25500000920E-02 0.  1.
       -2    1    3    3    0  502  0.19281414964E+03  0.38428993041E+03 -0.93022121745E+03  0.10247768344E+04  0.25500000920E-02 0. -1.
</event>
<event>
 5   0  0.2908031E-05  0.2161065E+04  0.7818609E-02  0.8534811E-01
       -1   -1    0    0    0  501  0.00000000000E+00  0.00000000000E+00  0.63377185747E+03  0.63377185749E+03  0.50400001928E-02 0.  1.
        1   -1    0    0  501    0  0.00000000000E+00  0.00000000000E+00 -0.18422253268E+04  0.18422253268E+04  0.50400001928E-02 0. -1.
    10030    2    1    2    0    0  0.00000000000E+00  0.00000000000E+00 -0.12084534694E+04  0.24759971843E+04  0.21610650775E+04 0.  0.
        1    1    3    3  502    0 -0.71587496912E+03  0.74958852354E+03 -0.95398537446E+03  0.14087043766E+04  0.50400001928E-02 0.  1.
       -1    1    3    3    0  502  0.71587496912E+03 -0.74958852354E+03 -0.25446809491E+03  0.10672928077E+04  0.50400001928E-02 0. -1.
</event>
<event>
 5   0  0.6306919E-05  0.2207228E+04  0.7818609E-02  0.8515426E-01
        2   -1    0    0  501    0  0.00000000000E+00  0.00000000000E+00  0.18143946333E+04  0.18143946333E+04  0.25500000920E-02 0.  1.
       -2   -1    0    0    0  501  0.00000000000E+00  0.00000000000E+00 -0.67127849138E+03  0.67127849138E+03  0.25500000920E-02 0. -1.
    10030    2    1    2    0    0  0.00000000000E+00  0.00000000000E+00  0.11431161419E+04  0.24856731247E+04  0.22072282095E+04 0.  0.
        3    1    3    3  502    0 -0.41252175335E+03 -0.50103231916E+03 -0.43365837738E+03  0.78055568687E+03  0.10100000352E+00 0. -1.
       -3    1    3    3    0  502  0.41252175335E+03  0.50103231916E+03  0.15767745193E+04  0.17051174378E+04  0.10100000352E+00 0.  1.
</event>
<event>
 5   0  0.6445740E-05  0.2187893E+04  0.7818609E-02  0.8523484E-01
        2   -1    0    0  501    0  0.00000000000E+00  0.00000000000E+00  0.28405027316E+04  0.28405027316E+04  0.25500000920E-02 0. -1.
       -2   -1    0    0    0  501  0.00000000000E+00  0.00000000000E+00 -0.42130526629E+03  0.42130526630E+03  0.25500000920E-02 0.  1.
    10030    2    1    2    0    0  0.00000000000E+00  0.00000000000E+00  0.24191974653E+04  0.32618079979E+04  0.21878928308E+04 0.  0.
        5    1    3    3  502    0  0.15917854003E+03 -0.16460930161E+02  0.28229431660E+04  0.28274792622E+04  0.46999998093E+01 0. -1.
       -5    1    3    3    0  502 -0.15917854003E+03  0.16460930161E+02 -0.40374570068E+03  0.43432873569E+03  0.46999998093E+01 0.  1.
</event>
<event>
 5   0  0.2908031E-05  0.2180894E+04  0.7818609E-02  0.8526423E-01
       -1   -1    0    0    0  501  0.00000000000E+00  0.00000000000E+00  0.67049073556E+03  0.67049073558E+03  0.50400001928E-02 0. -1.
        1   -1    0    0  501    0  0.00000000000E+00  0.00000000000E+00 -0.17734401674E+04  0.17734401674E+04  0.50400001928E-02 0.  1.
    10030    2    1    2    0    0  0.00000000000E+00  0.00000000000E+00 -0.11029494318E+04  0.24439309029E+04  0.21808944975E+04 0.  0.
        1    1    3    3  502    0  0.48850062132E+03 -0.93894498171E+03 -0.25748893583E+03  0.10892892581E+04  0.50400001928E-02 0.  1.
       -1    1    3    3    0  502 -0.48850062132E+03  0.93894498171E+03 -0.84546049597E+03  0.13546416449E+04  0.50400001928E-02 0. -1.
</event>
<event>
 5   0  0.2753631E-05  0.2201134E+04  0.7818609E-02  0.8517956E-01
        1   -1    0    0  501    0  0.00000000000E+00  0.00000000000E+00  0.12984745003E+04  0.12984745003E+04  0.50400001928E-02 0.  1.
       -1   -1    0    0    0  501  0.00000000000E+00  0.00000000000E+00 -0.93282392285E+03  0.93282392286E+03  0.50400001928E-02 0. -1.
    10030    2    1    2    0    0  0.00000000000E+00  0.00000000000E+00  0.36565057745E+03  0.22312984232E+04  0.22011343231E+04 0.  0.
        4    1    3    3  502    0  0.10925078933E+04  0.12543586310E+03  0.13818994222E+03  0.11083346632E+04  0.12699999809E+01 0.  1.
       -4    1    3    3    0  502 -0.10925078933E+04 -0.12543586310E+03  0.22746063523E+03  0.11229637599E+04  0.12699999809E+01 0. -1.
</event>
<event>
 5   0  0.2910318E-05  0.2197468E+04  0.7818609E-02  0.8519483E-01
        1   -1    0    0  501    0  0.00000000000E+00  0.00000000000E+00  0.25481997877E+04  0.25481997878E+04  0.50400001928E-02 0.  1.
       -1   -1    0    0    0  501  0.00000000000E+00  0.00000000000E+00 -0.47375245910E+03  0.47375245912E+03  0.50400001928E-02 0. -1.
    10030    2    1    2    0    0  0.00000000000E+00  0.00000000000E+00  0.20744473286E+04  0.30219522469E+04  0.21974675568E+04 0.  0.
        5    1    3    3  502    0 -0.83783201184E+03 -0.24446331081E+02  0.60316577742E+02  0.84036913479E+03  0.46999998093E+01 0. -1.
       -5    1    3    3    0  502  0.83783201184E+03  0.24446331081E+02  0.20141307509E+04  0.21815831121E+04  0.46999998093E+01 0.  1.
</event>
<event>
 5   0  0.2910318E-05  0.2190517E+04  0.7818609E-02  0.8522386E-01
       -1   -1    0    0    0  501  0.00000000000E+00  0.00000000000E+00  0.12974690228E+04  0.12974690228E+04  0.50400001928E-02 0. -1.
        1   -1    0    0  501    0  0.00000000000E+00  0.00000000000E+00 -0.92456207567E+03  0.92456207568E+03  0.50400001928E-02 0.  1.
    10030    2    1    2    0    0  0.00000000000E+00  0.00000000000E+00  0.37290694714E+03  0.22220310985E+04  0.21905165171E+04 0.  0.
        5    1    3    3  502    0  0.18797661643E+03 -0.50257267874E+02  0.12797853460E+04  0.12945013029E+04  0.46999998093E+01 0. -1.
       -5    1    3    3    0  502 -0.18797661643E+03  0.50257267874E+02 -0.90687839891E+03  0.92752979559E+03  0.46999998093E+01 0.  1.
</event>
<event>
 5   0  0.6445740E-05  0.2202432E+04  0.7818609E-02  0.8517417E-01
       -2   -1    0    0    0  501  0.00000000000E+00  0.00000000000E+00  0.13062345929E+04  0.13062345929E+04  0.25500000920E-02 0. -1.
        2   -1    0    0  501    0  0.00000000000E+00  0.00000000000E+00 -0.92837583182E+03  0.92837583182E+03  0.25500000920E-02 0.  1.
    10030    2    1    2    0    0  0.00000000000E+00  0.00000000000E+00  0.37785876112E+03  0.22346104248E+04  0.22024319529E+04 0.  0.
        5    1    3    3  502    0  0.31415651055E+03  0.10506703971E+04  0.87205183704E+02  0.11001042817E+04  0.46999998093E+01 0. -1.
       -5    1    3    3    0  502 -0.31415651055E+03 -0.10506703971E+04  0.29065357742E+03  0.11345061431E+04  0.46999998093E+01 0.  1.
</event>
<event>
 5   0  0.6445740E-05  0.2196928E+04  0.7818609E-02  0.8519708E-01
        2   -1    0    0  501    0  0.00000000000E+00  0.00000000000E+00  0.10943617782E+04  0.10943617782E+04  0.25500000920E-02 0.  1.
       -2   -1    0    0    0  501  0.00000000000E+00  0.00000000000E+00 -0.11025817888E+04  0.11025817888E+04  0.25500000920E-02 0. -1.
    10030    2    1    2    0    0  0.00000000000E+00  0.00000000000E+00 -0.82200106319E+01  0.21969435670E+04  0.21969281891E+04 0.  0.
        5    1    3    3  502    0 -0.58155836270E+03 -0.93187456055E+03 -0.31347017813E+01  0.10984681344E+04  0.46999998093E+01 0. -1.
       -5    1    3    3    0  502  0.58155836270E+03  0.93187456055E+03 -0.50853088506E+01  0.10984754327E+04  0.46999998093E+01 0.  1.
</event>
<event>
 5   0  0.6306919E-05  0.2239157E+04  0.7818609E-02  0.8502304E-01
        2   -1    0    0  501    0  0.00000000000E+00  0.00000000000E+00  0.10664799969E+04  0.10664799969E+04  0.25500000920E-02 0. -1.
       -2   -1    0    0    0  501  0.00000000000E+00  0.00000000000E+00 -0.11753211723E+04  0.11753211723E+04  0.25500000920E-02 0.  1.
    10030    2    1    2    0    0  0.00000000000E+00  0.00000000000E+00 -0.10884117540E+03  0.22418011693E+04  0.22391574489E+04 0.  0.
        3    1    3    3  502    0 -0.78922757268E+03  0.79315074312E+03 -0.93043943777E+02  0.11227757784E+04  0.10100000352E+00 0. -1.
       -3    1    3    3    0  502  0.78922757268E+03 -0.79315074312E+03 -0.15797231624E+02  0.11190253909E+04  0.10100000352E+00 0.  1.
</event>
<event>
 5   0  0.6445740E-05  0.2092060E+04  0.7818609E-02  0.8564749E-01
       -2   -1    0    0    0  501  0.00000000000E+00  0.00000000000E+00  0.64480458776E+03  0.64480458776E+03  0.25500000920E-02 0. -1.
        2   -1    0    0  501    0  0.00000000000E+00  0.00000000000E+00 -0.16969156936E+04  0.16969156936E+04  0.25500000920E-02 0.  1.
    10030    2    1    2    0    0  0.00000000000E+00  0.00000000000E+00 -0.10521111058E+04  0.23417202813E+04  0.20920602518E+04 0.  0.
        5    1    3    3  502    0 -0.37396734285E+03 -0.46224778793E+02 -0.16182947649E+04  0.16615921100E+04  0.46999998093E+01 0.  1.
       -5    1    3    3    0  502  0.37396734285E+03  0.46224778793E+02  0.56618365910E+03  0.68012817139E+03  0.46999998093E+01 0. -1.
</event>
<event>
 5   0  0.2929471E-05  0.2207418E+04  0.7818609E-02  0.8515347E-01
       -1   -1    0    0    0  501  0.00000000000E+00  0.00000000000E+00  0.12384716948E+04  0.12384716948E+04  0.50400001928E-02 0.  1.
        1   -1    0    0  501    0  0.00000000000E+00  0.00000000000E+00 -0.98361071920E+03  0.98361071921E+03  0.50400001928E-02 0. -1.
    10030    2    1    2    0    0  0.00000000000E+00  0.00000000000E+00  0.25486097556E+03  0.22220824140E+04  0.22074184328E+04 0.  0.
        2    1    3    3  502    0  0.45171398728E+03  0.59635318879E+03 -0.68943499566E+03  0.10173511023E+04  0.25500000920E-02 0. -1.
       -2    1    3    3    0  502 -0.45171398728E+03 -0.59635318879E+03  0.94429597122E+03  0.12047313117E+04  0.25500000920E-02 0.  1.
</event>
<event>
 5   0  0.6306919E-05  0.2191935E+04  0.7818609E-02  0.8521792E-01
       -2   -1    0    0    0  501  0.00000000000E+00  0.00000000000E+00  0.75829446045E+03  0.75829446045E+03  0.25500000920E-02 0. -1.
        2   -1    0    0  501    0  0.00000000000E+00  0.00000000000E+00 -0.15840089244E+04  0.15840089244E+04  0.25500000920E-02 0.  1.
    10030    2    1    2    0    0  0.00000000000E+00  0.00000000000E+00 -0.82571446394E+03  0.23423033848E+04  0.21919353938E+04 0.  0.
        3    1    3    3  502    0 -0.26427510769E+03  0.35021024991E+03  0.66035859957E+03  0.79281904740E+03  0.10100000352E+00 0. -1.
       -3    1    3    3    0  502  0.26427510769E+03 -0.35021024991E+03 -0.14860730635E+04  0.15494843374E+04  0.10100000352E+00 0.  1.
</event>
<event>
 5   0  0.6628798E-05  0.2202871E+04  0.7818609E-02  0.8517234E-01
       -2   -1    0    0    0  501  0.00000000000E+00  0.00000000000E+00  0.78486598720E+03  0.78486598721E+03  0.25500000920E-02 0.  1.
        2   -1    0    0  501    0  0.00000000000E+00  0.00000000000E+00 -0.15456907485E+04  0.15456907485E+04  0.25500000920E-02 0. -1.
    10030    2    1    2    0    0  0.00000000000E+00  0.00000000000E+00 -0.76082476133E+03  0.23305567357E+04  0.22028709406E+04 0.  0.
        4    1    3    3  502    0  0.12946885920E+03  0.70669369036E+03 -0.12636567659E+04  0.14536189984E+04  0.12699999809E+01 0. -1.
       -4    1    3    3    0  502 -0.12946885920E+03 -0.70669369036E+03  0.50283200458E+03  0.87693773737E+03  0.12699999809E+01 0.  1.
</event>
<event>
 5   0  0.6306919E-05  0.2192201E+04  0.7818609E-02  0.8521681E-01
       -2   -1    0    0    0  501  0.00000000000E+00  0.00000000000E+00  0.77412412202E+03  0.77412412202E+03  0.25500000920E-02 0.  1.
        2   -1    0    0  501    0  0.00000000000E+00  0.00000000000E+00 -0.15519949103E+04  0.15519949103E+04  0.25500000920E-02 0. -1.
    10030    2    1    2    0    0  0.00000000000E+00  0.00000000000E+00 -0.77787078832E+03  0.23261190324E+04  0.21922013569E+04 0.  0.
        3    1    3    3  502    0  0.63254685998E+03  0.54494732116E+03  0.36462669926E+03  0.91106297967E+03  0.10100000352E+00 0.  1.
       -3    1    3    3    0  502 -0.63254685998E+03 -0.54494732116E+03 -0.11424974876E+04  0.14150560527E+04  0.10100000352E+00 0. -1.
</event>
<event>
 5   0  0.2929471E-05  0.2226485E+04  0.7818609E-02  0.8507485E-01
       -1   -1    0    0    0  501  0.00000000000E+00  0.00000000000E+00  0.55214983833E+03  0.55214983835E+03  0.50400001928E-02 0.  1.
        1   -1    0    0  501    0  0.00000000000E+00  0.00000000000E+00 -0.22445155544E+04  0.22445155544E+04  0.50400001928E-02 0. -1.
    10030    2    1    2    0    0  0.00000000000E+00  0.00000000000E+00 -0.16923657161E+04  0.27966653928E+04  0.22264850330E+04 0.  0.
        2    1    3    3  502    0  0.28605922659E+03  0.15109385562E+02  0.50506325966E+03  0.58064366949E+03  0.25500000920E-02 0.  1.
       -2    1    3    3    0  502 -0.28605922659E+03 -0.15109385562E+02 -0.21974289758E+04  0.22160217233E+04  0.25500000920E-02 0. -1.
</event>
<event>
 5   0  0.6414768E-05  0.2204966E+04  0.7818609E-02  0.8516364E-01
        2   -1    0    0  501    0  0.00000000000E+00  0.00000000000E+00  0.11840580027E+04  0.11840580027E+04  0.25500000920E-02 0.  1.
       -2   -1    0    0    0  501  0.00000000000E+00  0.00000000000E+00 -0.10265284814E+04  0.10265284814E+04  0.25500000920E-02 0. -1.
    10030    2    1    2    0    0  0.00000000000E+00  0.00000000000E+00  0.15752952127E+03  0.22105864841E+04  0.22049664518E+04 0.  0.
        2    1    3    3  502    0 -0.57313094807E+03 -0.80749221266E+03  0.56471300765E+03  0.11399226018E+04  0.25500000920E-02 0.  1.
       -2    1    3    3    0  502  0.57313094807E+03  0.80749221266E+03 -0.40718348637E+03  0.10706638822E+04  0.25500000920E-02 0. -1.
</event>
<event>
 5   0  0.2753631E-05  0.2201572E+04  0.7818609E-02  0.8517774E-01
        1   -1    0    0  501    0  0.00000000000E+00  0.00000000000E+00  0.12811314983E+04  0.12811314983E+04  0.50400001928E-02 0.  1.
       -1   -1    0    0    0  501  0.00000000000E+00  0.00000000000E+00 -0.94582750079E+03  0.94582750080E+03  0.50400001928E-02 0. -1.
    10030    2    1    2    0    0  0.00000000000E+00  0.00000000000E+00  0.33530399750E+03  0.22269589991E+04  0.22015716234E+04 0.  0.
        4    1    3    3  502    0  0.10281416178E+04 -0.36793716777E+03  0.30808683260E+03  0.11346241911E+04  0.12699999809E+01 0. -1.
       -4    1    3    3    0  502 -0.10281416178E+04  0.36793716777E+03  0.27217164896E+02  0.10923348080E+04  0.12699999809E+01 0.  1.
</event>
<event>
 5   0  0.2753631E-05  0.2179748E+04  0.7818609E-02  0.8526905E-01
       -1   -1    0    0    0  501  0.00000000000E+00  0.00000000000E+00  0.80896087275E+03  0.80896087277E+03  0.50400001928E-02 0.  1.
        1   -1    0    0  501    0  0.00000000000E+00  0.00000000000E+00 -0.14683343309E+04  0.14683343309E+04  0.50400001928E-02 0. -1.
    10030    2    1    2    0    0  0.00000000000E+00  0.00000000000E+00 -0.65937345815E+03  0.22772952037E+04  0.21797477119E+04 0.  0.
        4    1    3    3  502    0  0.10748198866E+04  0.16407074541E+03 -0.25104245080E+03  0.11158767509E+04  0.12699999809E+01 0.  1.
       -4    1    3    3    0  502 -0.10748198866E+04 -0.16407074541E+03 -0.40833100735E+03  0.11614184528E+04  0.12699999809E+01 0. -1.
</event>
<event>
 5   0  0.6628798E-05  0.2211573E+04  0.7818609E-02  0.8513627E-01
       -2   -1    0    0    0  501  0.00000000000E+00  0.00000000000E+00  0.65759449537E+03  0.65759449537E+03  0.25500000920E-02 0. -1.
        2   -1    0    0  501    0  0.00000000000E+00  0.00000000000E+00 -0.18594489674E+04  0.18594489674E+04  0.25500000920E-02 0.  1.
    10030    2    1    2    0    0  0.00000000000E+00  0.00000000000E+00 -0.12018544720E+04  0.25170434627E+04  0.22115726580E+04 0.  0.
        4    1    3    3  502    0 -0.22508500446E+03  0.65108242709E+03 -0.15853814271E+04  0.17285853952E+04  0.12699999809E+01 0.  1.
       -4    1    3    3    0  502  0.22508500446E+03 -0.65108242709E+03  0.38352695512E+03  0.78845806756E+03  0.12699999809E+01 0. -1.
</event>
<event>
 5   0  0.2820239E-05  0.2197634E+04  0.7818609E-02  0.8519414E-01
       -1   -1    0    0    0  501  0.00000000000E+00  0.00000000000E+00  0.56917545258E+03  0.56917545260E+03  0.50400001928E-02 0. -1.
        1   -1    0    0  501    0  0.00000000000E+00  0.00000000000E+00 -0.21213114012E+04  0.21213114012E+04  0.50400001928E-02 0.  1.
    10030    2    1    2    0    0  0.00000000000E+00  0.00000000000E+00 -0.15521359487E+04  0.26904868538E+04  0.21976336154E+04 0.  0.
        3    1    3    3  502    0  0.10575329709E+04 -0.29672741677E+03 -0.73783593985E+03  0.13231874503E+04  0.10100000352E+00 0.  1.
       -3    1    3    3    0  502 -0.10575329709E+04  0.29672741677E+03 -0.81430000881E+03  0.13672994035E+04  0.10100000352E+00 0. -1.
</event>
<event>
 5   0  0.2929471E-05  0.2194283E+04  0.7818609E-02  0.8520811E-01
       -1   -1    0    0    0  501  0.00000000000E+00  0.00000000000E+00  0.40382516739E+03  0.40382516742E+03  0.50400001928E-02 0. -1.
        1   -1    0    0  501    0  0.00000000000E+00  0.00000000000E+00 -0.29807944199E+04  0.29807944199E+04  0.50400001928E-02 0.  1.
    10030    2    1    2    0    0  0.00000000000E+00  0.00000000000E+00 -0.25769692525E+04  0.33846195873E+04  0.21942833050E+04 0.  0.
        2    1    3    3  502    0  0.18063890573E+03 -0.96602734958E+03 -0.53617497611E+03  0.11195190304E+04  0.25500000920E-02 0. -1.
       -2    1    3    3    0  502 -0.18063890573E+03  0.96602734958E+03 -0.20407942764E+04  0.22651005569E+04  0.25500000920E-02 0.  1.
</event>
<event>
 5   0  0.6306919E-05  0.2198767E+04  0.7818609E-02  0.8518941E-01
        2   -1    0    0  501    0  0.00000000000E+00  0.00000000000E+00  0.10932214008E+04  0.10932214008E+04  0.25500000920E-02 0. -1.
       -2   -1    0    0    0  501  0.00000000000E+00  0.00000000000E+00 -0.11055808239E+04  0.11055808239E+04  0.25500000920E-02 0.  1.
    10030    2    1    2    0    0  0.00000000000E+00  0.00000000000E+00 -0.12359423160E+02  0.21988022247E+04  0.21987674884E+04 0.  0.
        3    1    3    3  502    0  0.27494516916E+03 -0.10636212722E+04  0.35767942314E+02  0.10991653254E+04  0.10100000352E+00 0.  1.
       -3    1    3    3    0  502 -0.27494516916E+03  0.10636212722E+04 -0.48127365474E+02  0.10996368993E+04  0.10100000352E+00 0. -1.
</event>
<event>
 5   0  0.6306919E-05  0.2205045E+04  0.7818609E-02  0.8516331E-01
       -2   -1    0    0    0  501  0.00000000000E+00  0.00000000000E+00  0.98291760974E+03  0.98291760975E+03  0.25500000920E-02 0.  1.
        2   -1    0    0  501    0  0.00000000000E+00  0.00000000000E+00 -0.12366816607E+04  0.12366816607E+04  0.25500000920E-02 0. -1.
    10030    2    1    2    0    0  0.00000000000E+00  0.00000000000E+00 -0.25376405094E+03  0.22195992704E+04  0.22050452893E+04 0.  0.
        3    1    3    3  502    0  0.79910746107E+03 -0.75327904186E+03 -0.22527236564E+03  0.11210484816E+04  0.10100000352E+00 0. -1.
       -3    1    3    3    0  502 -0.79910746107E+03  0.75327904186E+03 -0.28491685299E+02  0.10985507888E+04  0.10100000352E+00 0.  1.
</event>
<event>
 5   0  0.6628798E-05  0.2114680E+04  0.7818609E-02  0.8554804E-01
       -2   -1    0    0    0  501  0.00000000000E+00  0.00000000000E+00  0.52297941695E+03  0.52297941695E+03  0.25500000920E-02 0.  1.
        2   -1    0    0  501    0  0.00000000000E+00  0.00000000000E+00 -0.21376904475E+04  0.21376904475E+04  0.25500000920E-02 0. -1.
    10030    2    1    2    0    0  0.00000000000E+00  0.00000000000E+00 -0.16147110305E+04  0.26606698644E+04  0.21146802159E+04 0.  0.
        4    1    3    3  502    0  0.38298096116E+03 -0.35112573387E+03 -0.19659859436E+04  0.20334861792E+04  0.12699999809E+01 0. -1.
       -4    1    3    3    0  502 -0.38298096116E+03  0.35112573387E+03  0.35127491307E+03  0.62718368525E+03  0.12699999809E+01 0.  1.
</event>
<event>
 5   0  0.2908031E-05  0.2212222E+04  0.7818609E-02  0.8513358E-01
        1   -1    0    0  501    0  0.00000000000E+00  0.00000000000E+00  0.20671784567E+04  0.20671784567E+04  0.50400001928E-02 0.  1.
       -1   -1    0    0    0  501  0.00000000000E+00  0.00000000000E+00 -0.59186053045E+03  0.59186053048E+03  0.50400001928E-02 0. -1.
    10030    2    1    2    0    0  0.00000000000E+00  0.00000000000E+00  0.14753179263E+04  0.26590389872E+04  0.22122218134E+04 0.  0.
        1    1    3    3  502    0  0.41637177136E+03  0.98678666335E+03  0.40549566095E+03  0.11452249133E+04  0.50400001928E-02 0. -1.
       -1    1    3    3    0  502 -0.41637177136E+03 -0.98678666335E+03  0.10698222653E+04  0.15138140739E+04  0.50400001928E-02 0.  1.
</event>
<event>
 5   0  0.6628798E-05  0.2213402E+04  0.7818609E-02  0.8512871E-01
       -2   -1    0    0    0  501  0.00000000000E+00  0.00000000000E+00  0.65087084978E+03  0.65087084979E+03  0.25500000920E-02 0.  1.
        2   -1    0    0  501    0  0.00000000000E+00  0.00000000000E+00 -0.18817665781E+04  0.18817665781E+04  0.25500000920E-02 0. -1.
    10030    2    1    2    0    0  0.00000000000E+00  0.00000000000E+00 -0.12308957283E+04  0.25326374279E+04  0.22134019172E+04 0.  0.
        4    1    3    3  502    0 -0.56717551312E+03  0.72711985499E+03 -0.13155754820E+04  0.16065901182E+04  0.12699999809E+01 0. -1.
       -4    1    3    3    0  502  0.56717551312E+03 -0.72711985499E+03  0.84679753660E+02  0.92604730969E+03  0.12699999809E+01 0.  1.
</event>
<event>
 5   0  0.2820239E-05  0.2181334E+04  0.7818609E-02  0.8526238E-01
       -1   -1    0    0    0  501  0.00000000000E+00  0.00000000000E+00  0.13850551343E+04  0.13850551343E+04  0.50400001928E-02 0. -1.
        1   -1    0    0  501    0  0.00000000000E+00  0.00000000000E+00 -0.85885010566E+03  0.85885010567E+03  0.50400001928E-02 0.  1.
    10030    2    1    2    0    0  0.00000000000E+00  0.00000000000E+00  0.52620502867E+03  0.22439052400E+04  0.21813342233E+04 0.  0.
        3    1    3    3  502    0 -0.83614202433E+03  0.69072187348E+03  0.38184565321E+03  0.11497983756E+04  0.10100000352E+00 0.  1.
       -3    1    3    3    0  502  0.83614202433E+03 -0.69072187348E+03  0.14435937545E+03  0.10941068644E+04  0.10100000352E+00 0. -1.
</event>
<event>
 5   0  0.6306919E-05  0.2212612E+04  0.7818609E-02  0.8513197E-01
       -2   -1    0    0    0  501  0.00000000000E+00  0.00000000000E+00  0.10187972620E+04  0.10187972620E+04  0.25500000920E-02 0. -1.
        2   -1    0    0  501    0  0.00000000000E+00  0.00000000000E+00 -0.12013315184E+04  0.12013315184E+04  0.25500000920E-02 0.  1.
    10030    2    1    2    0    0  0.00000000000E+00  0.00000000000E+00 -0.18253425637E+03  0.22201287804E+04  0.22126122676E+04 0.  0.
        3    1    3    3  502    0 -0.10145593656E+04  0.13986814506E+03  0.32850732516E+03  0.10755514293E+04  0.10100000352E+00 0. -1.
       -3    1    3    3    0  502  0.10145593656E+04 -0.13986814506E+03 -0.51104158152E+03  0.11445773510E+04  0.10100000352E+00 0.  1.
</event>
<event>
 5   0  0.6306919E-05  0.2197874E+04  0.7818609E-02  0.8519313E-01
       -2   -1    0    0    0  501  0.00000000000E+00  0.00000000000E+00  0.94644221507E+03  0.94644221507E+03  0.25500000920E-02 0. -1.
        2   -1    0    0  501    0  0.00000000000E+00  0.00000000000E+00 -0.12760028085E+04  0.12760028085E+04  0.25500000920E-02 0.  1.
    10030    2    1    2    0    0  0.00000000000E+00  0.00000000000E+00 -0.32956059347E+03  0.22224450236E+04  0.21978743591E+04 0.  0.
        3    1    3    3  502    0  0.83633437983E+03 -0.69604315260E+03 -0.32055327523E+03  0.11343216817E+04  0.10100000352E+00 0.  1.
       -3    1    3    3    0  502 -0.83633437983E+03  0.69604315260E+03 -0.90073182396E+01  0.10881233419E+04  0.10100000352E+00 0. -1.
</event>
<event>
 5   0  0.2753631E-05  0.2201700E+04  0.7818609E-02  0.8517721E-01
        1   -1    0    0  501    0  0.00000000000E+00  0.00000000000E+00  0.90761456581E+03  0.90761456583E+03  0.50400001928E-02 0. -1.
       -1   -1    0    0    0  501  0.00000000000E+00  0.00000000000E+00 -0.13352257209E+04  0.13352257209E+04  0.50400001928E-02 0.  1.
    10030    2    1    2    0    0  0.00000000000E+00  0.00000000000E+00 -0.42761115507E+03  0.22428402867E+04  0.22016996280E+04 0.  0.
        4    1    3    3  502    0 -0.14896694590E+03  0.58414077912E+03  0.72452360506E+03  0.94252197215E+03  0.12699999809E+01 0. -1.
       -4    1    3    3    0  502  0.14896694590E+03 -0.58414077912E+03 -0.11521347601E+04  0.13003183146E+04  0.12699999809E+01 0.  1.
</event>
<event>
 5   0  0.2908031E-05  0.2190796E+04  0.7818609E-02  0.8522269E-01
        1   -1    0    0  501    0  0.00000000000E+00  0.00000000000E+00  0.13911429854E+04  0.13911429854E+04  0.50400001928E-02 0. -1.
       -1   -1    0    0    0  501  0.00000000000E+00  0.00000000000E+00 -0.86252617990E+03  0.86252617991E+03  0.50400001928E-02 0.  1.
    10030    2    1    2    0    0  0.00000000000E+00  0.00000000000E+00  0.52861680550E+03  0.22536691653E+04  0.21907964259E+04 0.  0.
        1    1    3    3  502    0  0.80358203200E+03 -0.69963229422E+03  0.27117186791E+01  0.10654749095E+04  0.50400001928E-02 0. -1.
       -1    1    3    3    0  502 -0.80358203200E+03  0.69963229422E+03  0.52590508682E+03  0.11881942559E+04  0.50400001928E-02 0.  1.
</event>
<event>
 5   0  0.6293013E-05  0.2303425E+04  0.7818609E-02  0.8476572E-01
       -2   -1    0    0    0  501  0.00000000000E+00  0.00000000000E+00  0.11111102616E+04  0.11111102616E+04  0.25500000920E-02 0.  1.
        2   -1    0    0  501    0  0.00000000000E+00  0.00000000000E+00 -0.11937984892E+04  0.11937984892E+04  0.25500000920E-02 0. -1.
    10030    2    1    2    0    0  0.00000000000E+00  0.00000000000E+00 -0.82688227561E+02  0.23049087508E+04  0.23034250599E+04 0.  0.
        1    1    3    3  502    0 -0.10199687443E+04 -0.98339356828E+02 -0.56745352678E+03  0.11713284653E+04  0.50400001928E-02 0. -1.
       -1    1    3    3    0  502  0.10199687443E+04  0.98339356828E+02  0.48476529922E+03  0.11335802856E+04  0.50400001928E-02 0.  1.
</event>
<event>
 5   0  0.2753631E-05  0.2157649E+04  0.7818609E-02  0.8536265E-01
       -1   -1    0    0    0  501  0.00000000000E+00  0.00000000000E+00  0.14195451943E+04  0.14195451943E+04  0.50400001928E-02 0. -1.
        1   -1    0    0  501    0  0.00000000000E+00  0.00000000000E+00 -0.81988363052E+03  0.81988363054E+03  0.50400001928E-02 0.  1.
    10030    2    1    2    0    0  0.00000000000E+00  0.00000000000E+00  0.59966156377E+03  0.22394288248E+04  0.21576485975E+04 0.  0.
        4    1    3    3  502    0  0.65088299172E+00  0.74452107743E+03 -0.51049671083E+03  0.90272950714E+03  0.12699999809E+01 0.  1.
       -4    1    3    3    0  502 -0.65088299172E+00 -0.74452107743E+03  0.11101582746E+04  0.13366993177E+04  0.12699999809E+01 0. -1.
</event>
<event>
 5   0  0.6445740E-05  0.2192094E+04  0.7818609E-02  0.8521726E-01
        2   -1    0    0  501    0  0.00000000000E+00  0.00000000000E+00  0.98346251370E+03  0.98346251371E+03  0.25500000920E-02 0. -1.
       -2   -1    0    0    0  501  0.00000000000E+00  0.00000000000E+00 -0.12215196889E+04  0.12215196889E+04  0.25500000920E-02 0.  1.
    10030    2    1    2    0    0  0.00000000000E+00  0.00000000000E+00 -0.23805717524E+03  0.22049822027E+04  0.21920938154E+04 0.  0.
        5    1    3    3  502    0  0.98062088631E+03  0.17764300561E+03 -0.57791514636E+03  0.11520340127E+04  0.46999998093E+01 0.  1.
       -5    1    3    3    0  502 -0.98062088631E+03 -0.17764300561E+03  0.33985797112E+03  0.10529481899E+04  0.46999998093E+01 0. -1.
</event>
<event>
 5   0  0.2929471E-05  0.2223702E+04  0.7818609E-02  0.8508627E-01
       -1   -1    0    0    0  501  0.00000000000E+00  0.00000000000E+00  0.54754021804E+03  0.54754021806E+03  0.50400001928E-02 0.  1.
        1   -1    0    0  501    0  0.00000000000E+00  0.00000000000E+00 -0.22577572383E+04  0.22577572383E+04  0.50400001928E-02 0. -1.
    10030    2    1    2    0    0  0.00000000000E+00  0.00000000000E+00 -0.17102170203E+04  0.28052974564E+04  0.22237022198E+04 0.  0.
        2    1    3    3  502    0 -0.16263142708E+03 -0.10917106544E+04 -0.68617581728E+03  0.12996608736E+04  0.25500000920E-02 0. -1.
       -2    1    3    3    0  502  0.16263142708E+03  0.10917106544E+04 -0.10240412030E+04  0.15056365828E+04  0.25500000920E-02 0.  1.
</event>
<event>
 5   0  0.2910318E-05  0.2202201E+04  0.7818609E-02  0.8517513E-01
       -1   -1    0    0    0  501  0.00000000000E+00  0.00000000000E+00  0.94477201310E+03  0.94477201311E+03  0.50400001928E-02 0.  1.
        1   -1    0    0  501    0  0.00000000000E+00  0.00000000000E+00 -0.12832960186E+04  0.12832960186E+04  0.50400001928E-02 0. -1.
    10030    2    1    2    0    0  0.00000000000E+00  0.00000000000E+00 -0.33852400548E+03  0.22280680317E+04  0.22022008654E+04 0.  0.
        5    1    3    3  502    0 -0.86980614473E+03 -0.55113855386E+03 -0.56382173913E+03  0.11739818902E+04  0.46999998093E+01 0. -1.
       -5    1    3    3    0  502  0.86980614473E+03  0.55113855386E+03  0.22529773365E+03  0.10540861415E+04  0.46999998093E+01 0.  1.
</event>
<event>
 5   0  0.2908031E-05  0.2294473E+04  0.7818609E-02  0.8480103E-01
       -1   -1    0    0    0  501  0.00000000000E+00  0.00000000000E+00  0.13962159866E+04  0.13962159866E+04  0.50400001928E-02 0. -1.
        1   -1    0    0  501    0  0.00000000000E+00  0.00000000000E+00 -0.94265651386E+03  0.94265651387E+03  0.50400001928E-02 0.  1.
    10030    2    1    2    0    0  0.00000000000E+00  0.00000000000E+00  0.45355947274E+03  0.23388725005E+04  0.22944734425E+04 0.  0.
        1    1    3    3  502    0 -0.23151482367E+03  0.10569498781E+04  0.61548511877E+03  0.12448148817E+04  0.50400001928E-02 0. -1.
       -1    1    3    3    0  502  0.23151482367E+03 -0.10569498781E+04 -0.16192564603E+03  0.10940576188E+04  0.50400001928E-02 0.  1.
</event>
<event>
 5   0  0.6445740E-05  0.2174926E+04  0.7818609E-02  0.8528938E-01
        2   -1    0    0  501    0  0.00000000000E+00  0.00000000000E+00  0.12269648974E+04  0.12269648974E+04  0.25500000920E-02 0. -1.
       -2   -1    0    0    0  501  0.00000000000E+00  0.00000000000E+00 -0.96382178769E+03  0.96382178769E+03  0.25500000920E-02 0.  1.
    10030    2    1    2    0    0  0.00000000000E+00  0.00000000000E+00  0.26314310974E+03  0.21907866851E+04  0.21749257467E+04 0.  0.
        5    1    3    3  502    0 -0.89300195585E+03 -0.49605522071E+03  0.50715819153E+03  0.11405063772E+04  0.46999998093E+01 0. -1.
       -5    1    3    3    0  502  0.89300195585E+03  0.49605522071E+03 -0.24401508178E+03  0.10502803080E+04  0.46999998093E+01 0.  1.
</event>
<event>
 5   0  0.2929471E-05  0.2235393E+04  0.7818609E-02  0.8503839E-01
       -1   -1    0    0    0  501  0.00000000000E+00  0.00000000000E+00  0.15266941599E+04  0.15266941599E+04  0.50400001928E-02 0.  1.
        1   -1    0    0  501    0  0.00000000000E+00  0.00000000000E+00 -0.81826859556E+03  0.81826859558E+03  0.50400001928E-02 0. -1.
    10030    2    1    2    0    0  0.00000000000E+00  0.00000000000E+00  0.70842556431E+03  0.23449627555E+04  0.22353933757E+04 0.  0.
        2    1    3    3  502    0  0.28538558523E+03 -0.49005462432E+03  0.13645665374E+04  0.14777145536E+04  0.25500000920E-02 0.  1.
       -2    1    3    3    0  502 -0.28538558523E+03  0.49005462432E+03 -0.65614097305E+03  0.86724820184E+03  0.25500000920E-02 0. -1.
</event>
<event>
 5   0  0.2820239E-05  0.2269163E+04  0.7818609E-02  0.8490180E-01
        1   -1    0    0  501    0  0.00000000000E+00  0.00000000000E+00  0.68096583146E+03  0.68096583148E+03  0.50400001928E-02 0. -1.
       -1   -1    0    0    0  501  0.00000000000E+00  0.00000000000E+00 -0.18903660957E+04  0.18903660957E+04  0.50400001928E-02 0.  1.
    10030    2    1    2    0    0  0.00000000000E+00  0.00000000000E+00 -0.12094002643E+04  0.25713319272E+04  0.22691625946E+04 0.  0.
        3    1    3    3  502    0 -0.83668095137E+03 -0.66048080380E+03 -0.10450398984E+04  0.14927753702E+04  0.10100000352E+00 0.  1.
       -3    1    3    3    0  502  0.83668095137E+03  0.66048080380E+03 -0.16436036593E+03  0.10785565570E+04  0.10100000352E+00 0. -1.
</event>
<event>
 5   0  0.6306919E-05  0.2201367E+04  0.7818609E-02  0.8517859E-01
        2   -1    0    0  501    0  0.00000000000E+00  0.00000000000E+00  0.15515681438E+04  0.15515681438E+04  0.25500000920E-02 0.  1.
       -2   -1    0    0    0  501  0.00000000000E+00  0.00000000000E+00 -0.78082556972E+03  0.78082556973E+03  0.25500000920E-02 0. -1.
    10030    2    1    2    0    0  0.00000000000E+00  0.00000000000E+00  0.77074257408E+03  0.23323937135E+04  0.22013669207E+04 0.  0.
        3    1    3    3  502    0  0.97848569796E+03 -0.11625461752E+03 -0.13428516576E+03  0.99447569762E+03  0.10100000352E+00 0. -1.
       -3    1    3    3    0  502 -0.97848569796E+03  0.11625461752E+03  0.90502773985E+03  0.13379180159E+04  0.10100000352E+00 0.  1.
</event>
<event>
 5   0  0.6445740E-05  0.2064644E+04  0.7818609E-02  0.8576980E-01
       -2   -1    0    0    0  501  0.00000000000E+00  0.00000000000E+00  0.93103351472E+03  0.93103351473E+03  0.25500000920E-02 0.  1.
        2   -1    0    0  501    0  0.00000000000E+00  0.00000000000E+00 -0.11446294673E+04  0.11446294673E+04  0.25500000920E-02 0. -1.
    10030    2    1    2    0    0  0.00000000000E+00  0.00000000000E+00 -0.21359595260E+03  0.20756629821E+04  0.20646436942E+04 0.  0.
        5    1    3    3  502    0 -0.50425803207E+02 -0.71773804126E+02  0.92726937506E+03  0.93142086325E+03  0.46999998093E+01 0.  1.
       -5    1    3    3    0  502  0.50425803207E+02  0.71773804126E+02 -0.11408653277E+04  0.11442421188E+04  0.46999998093E+01 0. -1.
</event>
<event>
 5   0  0.6293013E-05  0.2226967E+04  0.7818609E-02  0.8507287E-01
        2   -1    0    0  501    0  0.00000000000E+00  0.00000000000E+00  0.13214840180E+04  0.13214840180E+04  0.25500000920E-02 0.  1.
       -2   -1    0    0    0  501  0.00000000000E+00  0.00000000000E+00 -0.93822227449E+03  0.93822227450E+03  0.25500000920E-02 0. -1.
    10030    2    1    2    0    0  0.00000000000E+00  0.00000000000E+00  0.38326174352E+03  0.22597062925E+04  0.22269672122E+04 0.  0.
        1    1    3    3  502    0  0.65279474264E+03  0.89760582908E+03  0.28243693835E+03  0.11452544803E+04  0.50400001928E-02 0.  1.
       -1    1    3    3    0  502 -0.65279474264E+03 -0.89760582908E+03  0.10082480517E+03  0.11144518122E+04  0.50400001928E-02 0. -1.
</event>
<event>
 5   0  0.2753631E-05  0.2173720E+04  0.7818609E-02  0.8529447E-01
       -1   -1    0    0    0  501  0.00000000000E+00  0.00000000000E+00  0.72701993188E+03  0.72701993190E+03  0.50400001928E-02 0. -1.
        1   -1    0    0  501    0  0.00000000000E+00  0.00000000000E+00 -0.16248043161E+04  0.16248043161E+04  0.50400001928E-02 0.  1.
    10030    2    1    2    0    0  0.00000000000E+00  0.00000000000E+00 -0.89778438425E+03  0.23518242480E+04  0.21737204266E+04 0.  0.
        4    1    3    3  502    0  0.55443506916E+01 -0.44232730049E+03  0.62521338248E+03  0.76588352060E+03  0.12699999809E+01 0. -1.
       -4    1    3    3    0  502 -0.55443506916E+01  0.44232730049E+03 -0.15229977667E+04  0.15859407274E+04  0.12699999809E+01 0.  1.
</event>
<event>
 5   0  0.2820239E-05  0.2243145E+04  0.7818609E-02  0.8500682E-01
       -1   -1    0    0    0  501  0.00000000000E+00  0.00000000000E+00  0.21047807623E+04  0.21047807623E+04  0.50400001928E-02 0. -1.
        1   -1    0    0  501    0  0.00000000000E+00  0.00000000000E+00 -0.59765131632E+03  0.59765131634E+03  0.50400001928E-02 0.  1.
    10030    2    1    2    0    0  0.00000000000E+00  0.00000000000E+00  0.15071294460E+04  0.27024320787E+04  0.22431451074E+04 0.  0.
        3    1    3    3  502    0  0.37617744194E+03  0.81306465973E+02  0.20227373974E+04  0.20590256915E+04  0.10100000352E+00 0. -1.
       -3    1    3    3    0  502 -0.37617744194E+03 -0.81306465973E+02 -0.51560795142E+03  0.64340638714E+03  0.10100000352E+00 0.  1.
</event>
<event>
 5   0  0.2908031E-05  0.2204214E+04  0.7818609E-02  0.8516676E-01
        1   -1    0    0  501    0  0.00000000000E+00  0.00000000000E+00  0.11099826730E+04  0.11099826730E+04  0.50400001928E-02 0. -1.
       -1   -1    0    0    0  501  0.00000000000E+00  0.00000000000E+00 -0.10942873921E+04  0.10942873921E+04  0.50400001928E-02 0.  1.
    10030    2    1    2    0    0  0.00000000000E+00  0.00000000000E+00  0.15695280925E+02  0.22042700651E+04  0.22042141861E+04 0.  0.
        1    1    3    3  502    0  0.16064122666E+03  0.53546852868E+03 -0.94197004458E+03  0.10953719523E+04  0.50400001928E-02 0.  1.
       -1    1    3    3    0  502 -0.16064122666E+03 -0.53546852868E+03  0.95766532551E+03  0.11088981128E+04  0.50400001928E-02 0. -1.
</event>
<event>
 5   0  0.6414768E-05  0.2246627E+04  0.7818609E-02  0.8499268E-01
       -2   -1    0    0    0  501  0.00000000000E+00  0.00000000000E+00  0.81533059854E+03  0.81533059854E+03  0.25500000920E-02 0. -1.
        2   -1    0    0  501    0  0.00000000000E+00  0.00000000000E+00 -0.15476331789E+04  0.15476331789E+04  0.25500000920E-02 0.  1.
    10030    2    1    2    0    0  0.00000000000E+00  0.00000000000E+00 -0.73230258036E+03  0.23629637774E+04  0.22466265253E+04 0.  0.
        2    1    3    3  502    0  0.42534229234E+02  0.24287770359E+03 -0.15188181936E+04  0.15387031698E+04  0.25500000920E-02 0.  1.
       -2    1    3    3    0  502 -0.42534229234E+02 -0.24287770359E+03  0.78651561320E+03  0.82426060768E+03  0.25500000920E-02 0. -1.
</event>
<event>
 5   0  0.2908031E-05  0.2189159E+04  0.7818609E-02  0.8522954E-01
       -1   -1    0    0    0  501  0.00000000000E+00  0.00000000000E+00  0.10825994594E+04  0.10825994594E+04  0.50400001928E-02 0.  1.
        1   -1    0    0  501    0  0.00000000000E+00  0.00000000000E+00 -0.11066922387E+04  0.11066922388E+04  0.50400001928E-02 0. -1.
    10030    2    1    2    0    0  0.00000000000E+00  0.00000000000E+00 -0.24092779322E+02  0.21892916982E+04  0.21891591257E+04 0.  0.
        1    1    3    3  502    0  0.91022474847E+03  0.58923039136E+03  0.13763856626E+03  0.10929985919E+04  0.50400001928E-02 0.  1.
       -1    1    3    3    0  502 -0.91022474847E+03 -0.58923039136E+03 -0.16173134558E+03  0.10962931063E+04  0.50400001928E-02 0. -1.
</event>
<event>
 5   0  0.2929471E-05  0.2246935E+04  0.7818609E-02  0.8499143E-01
       -1   -1    0    0    0  501  0.00000000000E+00  0.00000000000E+00  0.70867088414E+03  0.70867088416E+03  0.50400001928E-02 0.  1.
        1   -1    0    0  501    0  0.00000000000E+00  0.00000000000E+00 -0.17810507120E+04  0.17810507120E+04  0.50400001928E-02 0. -1.
    10030    2    1    2    0    0  0.00000000000E+00  0.00000000000E+00 -0.10723798278E+04  0.24897215961E+04  0.22469346077E+04 0.  0.
        2    1    3    3  502    0 -0.80424345948E+03  0.78099423625E+03 -0.45462005903E+03  0.12097268027E+04  0.25500000920E-02 0. -1.
       -2    1    3    3    0  502  0.80424345948E+03 -0.78099423625E+03 -0.61775976878E+03  0.12799947934E+04  0.25500000920E-02 0.  1.
</event>
<event>
 5   0  0.2753631E-05  0.2158975E+04  0.7818609E-02  0.8535700E-01
       -1   -1    0    0    0  501  0.00000000000E+00  0.00000000000E+00  0.75978093785E+03  0.75978093787E+03  0.50400001928E-02 0.  1.
        1   -1    0    0  501    0  0.00000000000E+00  0.00000000000E+00 -0.15337230203E+04  0.15337230203E+04  0.50400001928E-02 0. -1.
    10030    2    1    2    0    0  0.00000000000E+00  0.00000000000E+00 -0.77394208246E+03  0.22935039582E+04  0.21589752336E+04 0.  0.
        4    1    3    3  502    0 -0.32887642074E+03 -0.42693765663E+03  0.60664874218E+03  0.81145534200E+03  0.12699999809E+01 0.  1.
       -4    1    3    3    0  502  0.32887642074E+03  0.42693765663E+03 -0.13805908246E+04  0.14820486162E+04  0.12699999809E+01 0. -1.
</event>
<event>
 5   0  0.6306919E-05  0.2182823E+04  0.7818609E-02  0.8525612E-01
       -2   -1    0    0    0  501  0.00000000000E+00  0.00000000000E+00  0.69198397065E+03  0.69198397065E+03  0.25500000920E-02 0.  1.
        2   -1    0    0  501    0  0.00000000000E+00  0.00000000000E+00 -0.17213961253E+04  0.17213961253E+04  0.25500000920E-02 0. -1.
    10030    2    1    2    0    0  0.00000000000E+00  0.00000000000E+00 -0.10294121546E+04  0.24133800959E+04  0.21828225084E+04 0.  0.
        3    1    3    3  502    0  0.37660032269E+03  0.57687459305E+03 -0.14506191818E+04  0.16058979171E+04  0.10100000352E+00 0. -1.
       -3    1    3    3    0  502 -0.37660032269E+03 -0.57687459305E+03  0.42120702722E+03  0.80748217884E+03  0.10100000352E+00 0.  1.
</event>
<event>
 5   0  0.6306919E-05  0.2201372E+04  0.7818609E-02  0.8517857E-01
       -2   -1    0    0    0  501  0.00000000000E+00  0.00000000000E+00  0.77082629187E+03  0.77082629187E+03  0.25500000920E-02 0.  1.
        2   -1    0    0  501    0  0.00000000000E+00  0.00000000000E+00 -0.15717021593E+04  0.15717021593E+04  0.25500000920E-02 0. -1.
    10030    2    1    2    0    0  0.00000000000E+00  0.00000000000E+00 -0.80087586740E+03  0.23425284511E+04  0.22013717063E+04 0.  0.
        3    1    3    3  502    0 -0.29426314848E+03  0.87141214075E+03  0.24294640098E+03  0.95130062732E+03  0.10100000352E+00 0.  1.
       -3    1    3    3    0  502  0.29426314848E+03 -0.87141214075E+03 -0.10438222684E+04  0.13912278238E+04  0.10100000352E+00 0. -1.
</event>
<event>
 5   0  0.2929471E-05  0.2231125E+04  0.7818609E-02  0.8505584E-01
       -1   -1    0    0    0  501  0.00000000000E+00  0.00000000000E+00  0.73511182892E+03  0.73511182894E+03  0.50400001928E-02 0. -1.
        1   -1    0    0  501    0  0.00000000000E+00  0.00000000000E+00 -0.16929115427E+04  0.16929115428E+04  0.50400001928E-02 0.  1.
    10030    2    1    2    0    0  0.00000000000E+00  0.00000000000E+00 -0.95779971382E+03  0.24280233717E+04  0.22311246495E+04 0.  0.
        2    1    3    3  502    0 -0.10748100057E+04 -0.36610625140E+02 -0.15621481735E+03  0.10867198145E+04  0.25500000920E-02 0. -1.
       -2    1    3    3    0  502  0.10748100057E+04  0.36610625140E+02 -0.80158489647E+03  0.13413035571E+04  0.25500000920E-02 0.  1.
</event>
<event>
 5   0  0.2245375E-05  0.2203830E+04  0.7818609E-02  0.8516836E-01
        3   -1    0    0  501    0  0.00000000000E+00  0.00000000000E+00  0.13168889436E+04  0.13168889474E+04  0.10100000352E+00 0. -1.
       -3   -1    0    0    0  501  0.00000000000E+00  0.00000000000E+00 -0.92203450065E+03  0.92203450619E+03  0.10100000352E+00 0.  1.
    10030    2    1    2    0    0  0.00000000000E+00  0.00000000000E+00  0.39485444291E+03  0.22389234536E+04  0.22038303474E+04 0.  0.
        5    1    3    3  502    0  0.36047641675E+03 -0.50100848858E+03 -0.72992927141E+03  0.95591400446E+03  0.46999998093E+01 0.  1.
       -5    1    3    3    0  502 -0.36047641675E+03  0.50100848858E+03  0.11247837143E+04  0.12830094492E+04  0.46999998093E+01 0. -1.
</event>
<event>
 5   0  0.2910318E-05  0.2208177E+04  0.7818609E-02  0.8515032E-01
       -1   -1    0    0    0  501  0.00000000000E+00  0.00000000000E+00  0.82774549439E+03  0.82774549440E+03  0.50400001928E-02 0. -1.
        1   -1    0    0  501    0  0.00000000000E+00  0.00000000000E+00 -0.14726887007E+04  0.14726887008E+04  0.50400001928E-02 0.  1.
    10030    2    1    2    0    0  0.00000000000E+00  0.00000000000E+00 -0.64494320636E+03  0.23004341952E+04  0.22081770189E+04 0.  0.
        5    1    3    3  502    0 -0.59836330064E+03  0.31639428273E+03 -0.12311791367E+04  0.14049797643E+04  0.46999998093E+01 0.  1.
       -5    1    3    3    0  502  0.59836330064E+03 -0.31639428273E+03  0.58623593029E+03  0.89545443081E+03  0.46999998093E+01 0. -1.
</event>
<event>
 5   0  0.6445740E-05  0.2192253E+04  0.7818609E-02  0.8521660E-01
        2   -1    0    0  501    0  0.00000000000E+00  0.00000000000E+00  0.15675373182E+04  0.15675373182E+04  0.25500000920E-02 0. -1.
       -2   -1    0    0    0  501  0.00000000000E+00  0.00000000000E+00 -0.76648465019E+03  0.76648465019E+03  0.25500000920E-02 0.  1.
    10030    2    1    2    0    0  0.00000000000E+00  0.00000000000E+00  0.80105266805E+03  0.23340219684E+04  0.21922529900E+04 0.  0.
        5    1    3    3  502    0 -0.72836632221E+03  0.39783469237E+03 -0.36179485333E+03  0.90537701963E+03  0.46999998093E+01 0.  1.
       -5    1    3    3    0  502  0.72836632221E+03 -0.39783469237E+03  0.11628475214E+04  0.14286449488E+04  0.46999998093E+01 0. -1.
</event>
<event>
 5   0  0.6293013E-05  0.2228103E+04  0.7818609E-02  0.8506821E-01
       -2   -1    0    0    0  501  0.00000000000E+00  0.00000000000E+00  0.24164139972E+04  0.24164139972E+04  0.25500000920E-02 0. -1.
        2   -1    0    0  501    0  0.00000000000E+00  0.00000000000E+00 -0.51361671388E+03  0.51361671388E+03  0.25500000920E-02 0.  1.
    10030    2    1    2    0    0  0.00000000000E+00  0.00000000000E+00  0.19027972833E+04  0.29300307110E+04  0.22281028851E+04 0.  0.
        1    1    3    3  502    0  0.17322733994E+03 -0.16655061031E+03  0.23819256814E+04  0.23940168689E+04  0.50400001928E-02 0. -1.
       -1    1    3    3    0  502 -0.17322733994E+03  0.16655061031E+03 -0.47912839807E+03  0.53601384214E+03  0.50400001928E-02 0.  1.
</event>
<event>
 5   0  0.2910318E-05  0.2238054E+04  0.7818609E-02  0.8502754E-01
       -1   -1    0    0    0  501  0.00000000000E+00  0.00000000000E+00  0.79036963596E+03  0.79036963597E+03  0.50400001928E-02 0.  1.
        1   -1    0    0  501    0  0.00000000000E+00  0.00000000000E+00 -0.15843497172E+04  0.15843497172E+04  0.50400001928E-02 0. -1.
    10030    2    1    2    0    0  0.00000000000E+00  0.00000000000E+00 -0.79398008119E+03  0.23747193531E+04  0.22380544312E+04 0.  0.
        5    1    3    3  502    0 -0.94821329691E+02 -0.86494341589E+03  0.34959631645E+03  0.93774083399E+03  0.46999998093E+01 0.  1.
       -5    1    3    3    0  502  0.94821329691E+02  0.86494341589E+03 -0.11435763976E+04  0.14369785191E+04  0.46999998093E+01 0. -1.
</event>
<event>
 5   0  0.2753631E-05  0.1822581E+04  0.7818609E-02  0.8694382E-01
        1   -1    0    0  501    0  0.00000000000E+00  0.00000000000E+00  0.10262292765E+04  0.10262292765E+04  0.50400001928E-02 0. -1.
       -1   -1    0    0    0  501  0.00000000000E+00  0.00000000000E+00 -0.80922518057E+03  0.80922518059E+03  0.50400001928E-02 0.  1.
    10030    2    1    2    0    0  0.00000000000E+00  0.00000000000E+00  0.21700409592E+03  0.18354544571E+04  0.18225812153E+04 0.  0.
        4    1    3    3  502    0 -0.24269875462E+03  0.22871240804E+03  0.96257055031E+03  0.10187029637E+04  0.12699999809E+01 0. -1.
       -4    1    3    3    0  502  0.24269875462E+03 -0.22871240804E+03 -0.74556645439E+03  0.81675149336E+03  0.12699999809E+01 0.  1.
</event>
<event>
 5   0  0.6628798E-05  0.2185820E+04  0.7818609E-02  0.8524353E-01
       -2   -1    0    0    0  501  0.00000000000E+00  0.00000000000E+00  0.90146774412E+03  0.90146774412E+03  0.25500000920E-02 0. -1.
        2   -1    0    0  501    0  0.00000000000E+00  0.00000000000E+00 -0.13250082906E+04  0.13250082906E+04  0.25500000920E-02 0.  1.
    10030    2    1    2    0    0  0.00000000000E+00  0.00000000000E+00 -0.42354054652E+03  0.22264760348E+04  0.21858199694E+04 0.  0.
        4    1    3    3  502    0  0.10930649500E+02  0.70523475048E+03  0.63860821151E+03  0.95147127812E+03  0.12699999809E+01 0. -1.
       -4    1    3    3    0  502 -0.10930649500E+02 -0.70523475048E+03 -0.10621487580E+04  0.12750047566E+04  0.12699999809E+01 0.  1.
</event>
<event>
 5   0  0.6306919E-05  0.2176891E+04  0.7818609E-02  0.8528108E-01
        2   -1    0    0  501    0  0.00000000000E+00  0.00000000000E+00  0.15239730382E+04  0.15239730382E+04  0.25500000920E-02 0.  1.
       -2   -1    0    0    0  501  0.00000000000E+00  0.00000000000E+00 -0.77738512305E+03  0.77738512306E+03  0.25500000920E-02 0. -1.
    10030    2    1    2    0    0  0.00000000000E+00  0.00000000000E+00  0.74658791515E+03  0.23013581613E+04  0.21768913320E+04 0.  0.
        3    1    3    3  502    0 -0.88660246046E+03  0.42107769914E+03 -0.12407760853E+03  0.98932583851E+03  0.10100000352E+00 0. -1.
       -3    1    3    3    0  502  0.88660246046E+03 -0.42107769914E+03  0.87066552368E+03  0.13120323228E+04  0.10100000352E+00 0.  1.
</event>
<event>
 5   0  0.6445740E-05  0.2204742E+04  0.7818609E-02  0.8516457E-01
        2   -1    0    0  501    0  0.00000000000E+00  0.00000000000E+00  0.12632973127E+04  0.12632973127E+04  0.25500000920E-02 0.  1.
       -2   -1    0    0    0  501  0.00000000000E+00  0.00000000000E+00 -0.96194413354E+03  0.96194413354E+03  0.25500000920E-02 0. -1.
    10030    2    1    2    0    0  0.00000000000E+00  0.00000000000E+00  0.30135317916E+03  0.22252414462E+04  0.22047416528E+04 0.  0.
        5    1    3    3  502    0  0.53307301188E+02  0.40634440328E+03 -0.88218693246E+03  0.97274524735E+03  0.46999998093E+01 0. -1.
       -5    1    3    3    0  502 -0.53307301188E+02 -0.40634440328E+03  0.11835401116E+04  0.12524961989E+04  0.46999998093E+01 0.  1.
</event>
<event>
 5   0  0.6445740E-05  0.2205835E+04  0.7818609E-02  0.8516003E-01
       -2   -1    0    0    0  501  0.00000000000E+00  0.00000000000E+00  0.67339095820E+03  0.67339095821E+03  0.25500000920E-02 0.  1.
        2   -1    0    0  501    0  0.00000000000E+00  0.00000000000E+00 -0.18064208311E+04  0.18064208311E+04  0.25500000920E-02 0. -1.
    10030    2    1    2    0    0  0.00000000000E+00  0.00000000000E+00 -0.11330298729E+04  0.24798117893E+04  0.22058354013E+04 0.  0.
        5    1    3    3  502    0 -0.39282954222E+03 -0.61947023949E+03  0.35940098561E+03  0.81685346624E+03  0.46999998093E+01 0.  1.
       -5    1    3    3    0  502  0.39282954222E+03  0.61947023949E+03 -0.14924308585E+04  0.16629583231E+04  0.46999998093E+01 0. -1.
</event>
<event>
 5   0  0.6445740E-05  0.2200349E+04  0.7818609E-02  0.8518283E-01
       -2   -1    0    0    0  501  0.00000000000E+00  0.00000000000E+00  0.12986380396E+04  0.12986380396E+04  0.25500000920E-02 0.  1.
        2   -1    0    0  501    0  0.00000000000E+00  0.00000000000E+00 -0.93204085655E+03  0.93204085656E+03  0.25500000920E-02 0. -1.
    10030    2    1    2    0    0  0.00000000000E+00  0.00000000000E+00  0.36659718307E+03  0.22306788962E+04  0.22003488004E+04 0.  0.
        5    1    3    3  502    0  0.19031786552E+03  0.47512919348E+03 -0.80397993952E+03  0.95308681325E+03  0.46999998093E+01 0.  1.
       -5    1    3    3    0  502 -0.19031786552E+03 -0.47512919348E+03  0.11705771226E+04  0.12775920829E+04  0.46999998093E+01 0. -1.
</event>
<event>
 5   0  0.2910318E-05  0.2227826E+04  0.7818609E-02  0.8506935E-01
       -1   -1    0    0    0  501  0.00000000000E+00  0.00000000000E+00  0.87977145921E+03  0.87977145923E+03  0.50400001928E-02 0. -1.
        1   -1    0    0  501    0  0.00000000000E+00  0.00000000000E+00 -0.14103692112E+04  0.14103692113E+04  0.50400001928E-02 0.  1.
    10030    2    1    2    0    0  0.00000000000E+00  0.00000000000E+00 -0.53059775203E+03  0.22901406705E+04  0.22278263658E+04 0.  0.
        5    1    3    3  502    0 -0.78624772165E+02 -0.77236785652E+03 -0.10864195655E+04  0.13353140166E+04  0.46999998093E+01 0.  1.
       -5    1    3    3    0  502  0.78624772165E+02  0.77236785652E+03  0.55582181350E+03  0.95482665387E+03  0.46999998093E+01 0. -1.
</event>
<event>
 5   0  0.6293013E-05  0.2141499E+04  0.7818609E-02  0.8543180E-01
        2   -1    0    0  501    0  0.00000000000E+00  0.00000000000E+00  0.59934704367E+03  0.59934704368E+03  0.25500000920E-02 0.  1.
       -2   -1    0    0    0  501  0.00000000000E+00  0.00000000000E+00 -0.19129228831E+04  0.19129228831E+04  0.25500000920E-02 0. -1.
    10030    2    1    2    0    0  0.00000000000E+00  0.00000000000E+00 -0.13135758394E+04  0.25122699268E+04  0.21414991709E+04 0.  0.
        1    1    3    3  502    0  0.95431165141E+03  0.46355905181E+03 -0.82641443968E+03  0.13448265868E+04  0.50400001928E-02 0. -1.
       -1    1    3    3    0  502 -0.95431165141E+03 -0.46355905181E+03 -0.48716139973E+03  0.11674433399E+04  0.50400001928E-02 0.  1.
</event>
<event>
 5   0  0.2929471E-05  0.2086949E+04  0.7818609E-02  0.8567014E-01
       -1   -1    0    0    0  501  0.00000000000E+00  0.00000000000E+00  0.10225011377E+04  0.10225011377E+04  0.50400001928E-02 0.  1.
        1   -1    0    0  501    0  0.00000000000E+00  0.00000000000E+00 -0.10648779007E+04  0.10648779007E+04  0.50400001928E-02 0. -1.
    10030    2    1    2    0    0  0.00000000000E+00  0.00000000000E+00 -0.42376762997E+02  0.20873790384E+04  0.20869488398E+04 0.  0.
        2    1    3    3  502    0  0.16317203920E+03  0.61104057563E+03 -0.85132523028E+03  0.10605424778E+04  0.25500000920E-02 0. -1.
       -2    1    3    3    0  502 -0.16317203920E+03 -0.61104057563E+03  0.80894846729E+03  0.10268365606E+04  0.25500000920E-02 0.  1.
</event>
<event>
 5   0  0.2929471E-05  0.2177088E+04  0.7818609E-02  0.8528026E-01
       -1   -1    0    0    0  501  0.00000000000E+00  0.00000000000E+00  0.51685437145E+03  0.51685437147E+03  0.50400001928E-02 0.  1.
        1   -1    0    0  501    0  0.00000000000E+00  0.00000000000E+00 -0.22925762793E+04  0.22925762793E+04  0.50400001928E-02 0. -1.
    10030    2    1    2    0    0  0.00000000000E+00  0.00000000000E+00 -0.17757219078E+04  0.28094306508E+04  0.21770880293E+04 0.  0.
        2    1    3    3  502    0  0.31928659492E+03 -0.79556612781E+03 -0.22142058424E+02  0.85753114472E+03  0.25500000920E-02 0.  1.
       -2    1    3    3    0  502 -0.31928659492E+03  0.79556612781E+03 -0.17535798494E+04  0.19518995060E+04  0.25500000920E-02 0. -1.
</event>
<event>
 5   0  0.2820239E-05  0.2161009E+04  0.7818609E-02  0.8534834E-01
        1   -1    0    0  501    0  0.00000000000E+00  0.00000000000E+00  0.16961345840E+04  0.16961345840E+04  0.50400001928E-02 0.  1.
       -1   -1    0    0    0  501  0.00000000000E+00  0.00000000000E+00 -0.68832395461E+03  0.68832395463E+03  0.50400001928E-02 0. -1.
    10030    2    1    2    0    0  0.00000000000E+00  0.00000000000E+00  0.10078106294E+04  0.23844585386E+04  0.21610090832E+04 0.  0.
        3    1    3    3  502    0 -0.67649700964E+03 -0.80744750212E+03  0.23846837860E+03  0.10800402078E+04  0.10100000352E+00 0. -1.
       -3    1    3    3    0  502  0.67649700964E+03  0.80744750212E+03  0.76934225080E+03  0.13044183308E+04  0.10100000352E+00 0.  1.
</event>
<event>
 5   0  0.6293013E-05  0.2096265E+04  0.7818609E-02  0.8562890E-01
       -2   -1    0    0    0  501  0.00000000000E+00  0.00000000000E+00  0.84500755914E+03  0.84500755915E+03  0.25500000920E-02 0. -1.
        2   -1    0    0  501    0  0.00000000000E+00  0.00000000000E+00 -0.13000853910E+04  0.13000853910E+04  0.25500000920E-02 0.  1.
    10030    2    1    2    0    0  0.00000000000E+00  0.00000000000E+00 -0.45507783189E+03  0.21450929502E+04  0.20962652341E+04 0.  0.
        1    1    3    3  502    0  0.37034628536E+03 -0.82332935360E+03  0.31736266697E+03  0.95694652828E+03  0.50400001928E-02 0. -1.
       -1    1    3    3    0  502 -0.37034628536E+03  0.82332935360E+03 -0.77244049886E+03  0.11881464219E+04  0.50400001928E-02 0.  1.
</event>
<event>
 5   0  0.2753631E-05  0.2202688E+04  0.7818609E-02  0.8517310E-01
        1   -1    0    0  501    0  0.00000000000E+00  0.00000000000E+00  0.78750250251E+03  0.78750250252E+03  0.50400001928E-02 0. -1.
       -1   -1    0    0    0  501  0.00000000000E+00  0.00000000000E+00 -0.15402597505E+04  0.15402597506E+04  0.50400001928E-02 0.  1.
    10030    2    1    2    0    0  0.00000000000E+00  0.00000000000E+00 -0.75275724804E+03  0.23277622531E+04  0.22026878200E+04 0.  0.
        4    1    3    3  502    0  0.57205721755E+03 -0.90390014022E+03 -0.99445367353E+02  0.10743257968E+04  0.12699999809E+01 0. -1.
       -4    1    3    3    0  502 -0.57205721755E+03  0.90390014022E+03 -0.65331188069E+03  0.12534364563E+04  0.12699999809E+01 0.  1.
</event>
<event>
 5   0  0.2753631E-05  0.2208197E+04  0.7818609E-02  0.8515024E-01
       -1   -1    0    0    0  501  0.00000000000E+00  0.00000000000E+00  0.85739367545E+03  0.85739367547E+03  0.50400001928E-02 0.  1.
        1   -1    0    0  501    0  0.00000000000E+00  0.00000000000E+00 -0.14217898606E+04  0.14217898606E+04  0.50400001928E-02 0. -1.
    10030    2    1    2    0    0  0.00000000000E+00  0.00000000000E+00 -0.56439618514E+03  0.22791835361E+04  0.22081971237E+04 0.  0.
        4    1    3    3  502    0  0.23508775657E+03 -0.66528740396E+03 -0.11587079487E+04  0.13566426598E+04  0.12699999809E+01 0. -1.
       -4    1    3    3    0  502 -0.23508775657E+03  0.66528740396E+03  0.59431176356E+03  0.92254087625E+03  0.12699999809E+01 0.  1.
</event>
<event>
 5   0  0.2910318E-05  0.2206563E+04  0.7818609E-02  0.8515702E-01
       -1   -1    0    0    0  501  0.00000000000E+00  0.00000000000E+00  0.14853698235E+04  0.14853698235E+04  0.50400001928E-02 0.  1.
        1   -1    0    0  501    0  0.00000000000E+00  0.00000000000E+00 -0.81947911226E+03  0.81947911227E+03  0.50400001928E-02 0. -1.
    10030    2    1    2    0    0  0.00000000000E+00  0.00000000000E+00  0.66589071127E+03  0.23048489358E+04  0.22065625252E+04 0.  0.
        5    1    3    3  502    0  0.36479227883E+03 -0.52793909874E+03 -0.60447830543E+03  0.88159469736E+03  0.46999998093E+01 0. -1.
       -5    1    3    3    0  502 -0.36479227883E+03  0.52793909874E+03  0.12703690167E+04  0.14232542384E+04  0.46999998093E+01 0.  1.
</event>
<event>
 5   0  0.6414768E-05  0.2270182E+04  0.7818609E-02  0.8489772E-01
       -2   -1    0    0    0  501  0.00000000000E+00  0.00000000000E+00  0.96126996425E+03  0.96126996425E+03  0.25500000920E-02 0.  1.
        2   -1    0    0  501    0  0.00000000000E+00  0.00000000000E+00 -0.13403429130E+04  0.13403429131E+04  0.25500000920E-02 0. -1.
    10030    2    1    2    0    0  0.00000000000E+00  0.00000000000E+00 -0.37907294880E+03  0.23016128773E+04  0.22701818289E+04 0.  0.
        2    1    3    3  502    0  0.35247076760E+03  0.65881970827E+03  0.67678359301E+03  0.10081245368E+04  0.25500000920E-02 0.  1.
       -2    1    3    3    0  502 -0.35247076760E+03 -0.65881970827E+03 -0.10558565418E+04  0.12934883405E+04  0.25500000920E-02 0. -1.
</event>
<event>
 5   0  0.6628798E-05  0.2192352E+04  0.7818609E-02  0.8521618E-01
        2   -1    0    0  501    0  0.00000000000E+00  0.00000000000E+00  0.22650686776E+04  0.22650686776E+04  0.25500000920E-02 0.  1.
       -2   -1    0    0    0  501  0.00000000000E+00  0.00000000000E+00 -0.53049249589E+03  0.53049249590E+03  0.25500000920E-02 0. -1.
    10030    2    1    2    0    0  0.00000000000E+00  0.00000000000E+00  0.17345761817E+04  0.27955611735E+04  0.21923521033E+04 0.  0.
        4    1    3    3  502    0  0.64756039428E+03 -0.35810151664E+02  0.19941731525E+04  0.20969847415E+04  0.12699999809E+01 0.  1.
       -4    1    3    3    0  502 -0.64756039428E+03  0.35810151664E+02 -0.25959697076E+03  0.69857643199E+03  0.12699999809E+01 0. -1.
</event>
<event>
 5   0  0.6445740E-05  0.2188964E+04  0.7818609E-02  0.8523035E-01
        2   -1    0    0  501    0  0.00000000000E+00  0.00000000000E+00  0.86998475972E+03  0.86998475972E+03  0.25500000920E-02 0. -1.
       -2   -1    0    0    0  501  0.00000000000E+00  0.00000000000E+00 -0.13769107616E+04  0.13769107616E+04  0.25500000920E-02 0.  1.
    10030    2    1    2    0    0  0.00000000000E+00  0.00000000000E+00 -0.50692600186E+03  0.22468955213E+04  0.21889644840E+04 0.  0.
        5    1    3    3  502    0 -0.26619840245E+03 -0.73582944863E+03 -0.10389353000E+04  0.13006595306E+04  0.46999998093E+01 0. -1.
       -5    1    3    3    0  502  0.26619840245E+03  0.73582944863E+03  0.53200929809E+03  0.94623599075E+03  0.46999998093E+01 0.  1.
</event>
<event>
 5   0  0.6306919E-05  0.2125938E+04  0.7818609E-02  0.8549903E-01
       -2   -1    0    0    0  501  0.00000000000E+00  0.00000000000E+00  0.96272610988E+03  0.96272610988E+03  0.25500000920E-02 0. -1.
        2   -1    0    0  501    0  0.00000000000E+00  0.00000000000E+00 -0.11736494271E+04  0.11736494271E+04  0.25500000920E-02 0.  1.
    10030    2    1    2    0    0  0.00000000000E+00  0.00000000000E+00 -0.21092331718E+03  0.21363755369E+04  0.21259378611E+04 0.  0.
        3    1    3    3  502    0  0.67924348276E+03  0.17964016190E+03  0.69611407116E+03  0.98904858673E+03  0.10100000352E+00 0. -1.
       -3    1    3    3    0  502 -0.67924348276E+03 -0.17964016190E+03 -0.90703738833E+03  0.11473269502E+04  0.10100000352E+00 0.  1.
</event>
<event>
 5   0  0.6445740E-05  0.2226097E+04  0.7818609E-02  0.8507644E-01
        2   -1    0    0  501    0  0.00000000000E+00  0.00000000000E+00  0.78340906528E+03  0.78340906528E+03  0.25500000920E-02 0.  1.
       -2   -1    0    0    0  501  0.00000000000E+00  0.00000000000E+00 -0.15813923174E+04  0.15813923174E+04  0.25500000920E-02 0. -1.
    10030    2    1    2    0    0  0.00000000000E+00  0.00000000000E+00 -0.79798325208E+03  0.23648013826E+04  0.22260971023E+04 0.  0.
        5    1    3    3  502    0 -0.47690587588E+03  0.22643490894E+03 -0.14399144407E+04  0.15336517431E+04  0.46999998093E+01 0. -1.
       -5    1    3    3    0  502  0.47690587588E+03 -0.22643490894E+03  0.64193118863E+03  0.83114963958E+03  0.46999998093E+01 0.  1.
</event>
<event>
 5   0  0.6414768E-05  0.2218843E+04  0.7818609E-02  0.8510626E-01
        2   -1    0    0  501    0  0.00000000000E+00  0.00000000000E+00  0.28635116146E+04  0.28635116146E+04  0.25500000920E-02 0.  1.
       -2   -1    0    0    0  501  0.00000000000E+00  0.00000000000E+00 -0.42982735101E+03  0.42982735101E+03  0.25500000920E-02 0. -1.
    10030    2    1    2    0    0  0.00000000000E+00  0.00000000000E+00  0.24336842636E+04  0.32933389656E+04  0.22188425919E+04 0.  0.
        2    1    3    3  502    0  0.71887572586E+02  0.87746591964E+03  0.21488279703E+03  0.90624989914E+03  0.25500000920E-02 0. -1.
       -2    1    3    3    0  502 -0.71887572586E+02 -0.87746591964E+03  0.22188014665E+04  0.23870890665E+04  0.25500000920E-02 0.  1.
</event>
<event>
 5   0  0.2908031E-05  0.2189826E+04  0.7818609E-02  0.8522675E-01
        1   -1    0    0  501    0  0.00000000000E+00  0.00000000000E+00  0.13304975323E+04  0.13304975323E+04  0.50400001928E-02 0.  1.
       -1   -1    0    0    0  501  0.00000000000E+00  0.00000000000E+00 -0.90104236460E+03  0.90104236461E+03  0.50400001928E-02 0. -1.
    10030    2    1    2    0    0  0.00000000000E+00  0.00000000000E+00  0.42945516767E+03  0.22315398969E+04  0.21898261507E+04 0.  0.
        1    1    3    3  502    0 -0.76201414488E+03 -0.68739183206E+03  0.60365404207E+03  0.11906180287E+04  0.50400001928E-02 0. -1.
       -1    1    3    3    0  502  0.76201414488E+03  0.68739183206E+03 -0.17419887440E+03  0.10409218682E+04  0.50400001928E-02 0.  1.
</event>
<event>
 5   0  0.2753631E-05  0.2173302E+04  0.7818609E-02  0.8529623E-01
        1   -1    0    0  501    0  0.00000000000E+00  0.00000000000E+00  0.16857397701E+04  0.16857397701E+04  0.50400001928E-02 0.  1.
       -1   -1    0    0    0  501  0.00000000000E+00  0.00000000000E+00 -0.70046995682E+03  0.70046995684E+03  0.50400001928E-02 0. -1.
    10030    2    1    2    0    0  0.00000000000E+00  0.00000000000E+00  0.98526981331E+03  0.23862097270E+04  0.21733016947E+04 0.  0.
        4    1    3    3  502    0 -0.65016131230E+03 -0.34753447289E+03 -0.38389524284E+03  0.83118416264E+03  0.12699999809E+01 0. -1.
       -4    1    3    3    0  502  0.65016131230E+03  0.34753447289E+03  0.13691650561E+04  0.15550255643E+04  0.12699999809E+01 0.  1.
</event>
<event>
 5   0  0.6628798E-05  0.2273096E+04  0.7818609E-02  0.8488605E-01
        2   -1    0    0  501    0  0.00000000000E+00  0.00000000000E+00  0.10487121060E+04  0.10487121060E+04  0.25500000920E-02 0. -1.
       -2   -1    0    0    0  501  0.00000000000E+00  0.00000000000E+00 -0.12317411029E+04  0.12317411029E+04  0.25500000920E-02 0.  1.
    10030    2    1    2    0    0  0.00000000000E+00  0.00000000000E+00 -0.18302899688E+03  0.22804532088E+04  0.22730963957E+04 0.  0.
        4    1    3    3  502    0 -0.79829818048E+03  0.58334630190E+03  0.47080585371E+03  0.10950948168E+04  0.12699999809E+01 0. -1.
       -4    1    3    3    0  502  0.79829818048E+03 -0.58334630190E+03 -0.65383485060E+03  0.11853583921E+04  0.12699999809E+01 0.  1.
</event>
<event>
 5   0  0.6628798E-05  0.2203323E+04  0.7818609E-02  0.8517046E-01
       -2   -1    0    0    0  501  0.00000000000E+00  0.00000000000E+00  0.62542060543E+03  0.62542060544E+03  0.25500000920E-02 0.  1.
        2   -1    0    0  501    0  0.00000000000E+00  0.00000000000E+00 -0.19405474030E+04  0.19405474030E+04  0.25500000920E-02 0. -1.
    10030    2    1    2    0    0  0.00000000000E+00  0.00000000000E+00 -0.13151267975E+04  0.25659680084E+04  0.22033232461E+04 0.  0.
        4    1    3    3  502    0  0.47119773396E+03 -0.51901259430E+03  0.33217040154E+03  0.77571912836E+03  0.12699999809E+01 0.  1.
       -4    1    3    3    0  502 -0.47119773396E+03  0.51901259430E+03 -0.16472971991E+04  0.17902488801E+04  0.12699999809E+01 0. -1.
</event>
<event>
 5   0  0.2929471E-05  0.2212818E+04  0.7818609E-02  0.8513112E-01
        1   -1    0    0  501    0  0.00000000000E+00  0.00000000000E+00  0.74529811397E+03  0.74529811399E+03  0.50400001928E-02 0. -1.
       -1   -1    0    0    0  501  0.00000000000E+00  0.00000000000E+00 -0.16424849013E+04  0.16424849013E+04  0.50400001928E-02 0.  1.
    10030    2    1    2    0    0  0.00000000000E+00  0.00000000000E+00 -0.89718678733E+03  0.23877830153E+04  0.22128180216E+04 0.  0.
        2    1    3    3  502    0 -0.10821653085E+04 -0.21928279956E+03 -0.52469795713E+03  0.12224870745E+04  0.25500000920E-02 0.  1.
       -2    1    3    3    0  502  0.10821653085E+04  0.21928279956E+03 -0.37248883020E+03  0.11652959408E+04  0.25500000920E-02 0. -1.
</event>
<event>
 5   0  0.2929471E-05  0.2224616E+04  0.7818609E-02  0.8508252E-01
       -1   -1    0    0    0  501  0.00000000000E+00  0.00000000000E+00  0.68131942073E+03  0.68131942075E+03  0.50400001928E-02 0. -1.
        1   -1    0    0  501    0  0.00000000000E+00  0.00000000000E+00 -0.18159310942E+04  0.18159310942E+04  0.50400001928E-02 0.  1.
    10030    2    1    2    0    0  0.00000000000E+00  0.00000000000E+00 -0.11346116735E+04  0.24972505150E+04  0.22246160309E+04 0.  0.
        2    1    3    3  502    0 -0.67286295443E+03 -0.35683265388E+03  0.34269326734E+03  0.83517230186E+03  0.25500000920E-02 0. -1.
       -2    1    3    3    0  502  0.67286295443E+03  0.35683265388E+03 -0.14773049408E+04  0.16620782131E+04  0.25500000920E-02 0.  1.
</event>
<event>
 5   0  0.6414768E-05  0.2246687E+04  0.7818609E-02  0.8499243E-01
        2   -1    0    0  501    0  0.00000000000E+00  0.00000000000E+00  0.11475865577E+04  0.11475865578E+04  0.25500000920E-02 0. -1.
       -2   -1    0    0    0  501  0.00000000000E+00  0.00000000000E+00 -0.10996125419E+04  0.10996125419E+04  0.25500000920E-02 0.  1.
    10030    2    1    2    0    0  0.00000000000E+00  0.00000000000E+00  0.47974015810E+02  0.22471990997E+04  0.22466869580E+04 0.  0.
        2    1    3    3  502    0 -0.22017073405E+03 -0.10985285314E+04  0.10561740879E+03  0.11253422250E+04  0.25500000920E-02 0. -1.
       -2    1    3    3    0  502  0.22017073405E+03  0.10985285314E+04 -0.57643392975E+02  0.11218568746E+04  0.25500000920E-02 0.  1.
</event>
<event>
 5   0  0.6306919E-05  0.2203796E+04  0.7818609E-02  0.8516850E-01
       -2   -1    0    0    0  501  0.00000000000E+00  0.00000000000E+00  0.13759005954E+04  0.13759005954E+04  0.25500000920E-02 0.  1.
        2   -1    0    0  501    0  0.00000000000E+00  0.00000000000E+00 -0.88246164398E+03  0.88246164399E+03  0.25500000920E-02 0. -1.
    10030    2    1    2    0    0  0.00000000000E+00  0.00000000000E+00  0.49343895138E+03  0.22583622393E+04  0.22037962713E+04 0.  0.
        3    1    3    3  502    0  0.83861642539E+03 -0.54477686897E+03 -0.22746892287E+03  0.10255737258E+04  0.10100000352E+00 0. -1.
       -3    1    3    3    0  502 -0.83861642539E+03  0.54477686897E+03  0.72090787424E+03  0.12327885136E+04  0.10100000352E+00 0.  1.
</event>
<event>
 5   0  0.6414768E-05  0.2305532E+04  0.7818609E-02  0.8475743E-01
        2   -1    0    0  501    0  0.00000000000E+00  0.00000000000E+00  0.23852228306E+04  0.23852228306E+04  0.25500000920E-02 0.  1.
       -2   -1    0    0    0  501  0.00000000000E+00  0.00000000000E+00 -0.55712571213E+03  0.55712571214E+03  0.25500000920E-02 0. -1.
    10030    2    1    2    0    0  0.00000000000E+00  0.00000000000E+00  0.18280971185E+04  0.29423485428E+04  0.23055315813E+04 0.  0.
        2    1    3    3  502    0 -0.53452042576E+03  0.53923413951E+03 -0.19293877294E+03  0.78339703400E+03  0.25500000920E-02 0. -1.
       -2    1    3    3    0  502  0.53452042576E+03 -0.53923413951E+03  0.20210358914E+04  0.21589515088E+04  0.25500000920E-02 0.  1.
</event>
<event>
 5   0  0.6293013E-05  0.2202791E+04  0.7818609E-02  0.8517267E-01
       -2   -1    0    0    0  501  0.00000000000E+00  0.00000000000E+00  0.85367041248E+03  0.85367041248E+03  0.25500000920E-02 0.  1.
        2   -1    0    0  501    0  0.00000000000E+00  0.00000000000E+00 -0.14210079019E+04  0.14210079019E+04  0.25500000920E-02 0. -1.
    10030    2    1    2    0    0  0.00000000000E+00  0.00000000000E+00 -0.56733748947E+03  0.22746783144E+04  0.22027913217E+04 0.  0.
        1    1    3    3  502    0  0.21817208017E+02  0.26351616811E+03  0.82040812665E+03  0.86196650499E+03  0.50400001928E-02 0.  1.
       -1    1    3    3    0  502 -0.21817208017E+02 -0.26351616811E+03 -0.13877456161E+04  0.14127118094E+04  0.50400001928E-02 0. -1.
</event>
<event>
 5   0  0.2910318E-05  0.2182601E+04  0.7818609E-02  0.8525705E-01
       -1   -1    0    0    0  501  0.00000000000E+00  0.00000000000E+00  0.12499881760E+04  0.12499881760E+04  0.50400001928E-02 0.  1.
        1   -1    0    0  501    0  0.00000000000E+00  0.00000000000E+00 -0.95275850581E+03  0.95275850583E+03  0.50400001928E-02 0. -1.
    10030    2    1    2    0    0  0.00000000000E+00  0.00000000000E+00  0.29722967016E+03  0.22027466818E+04  0.21826010784E+04 0.  0.
        5    1    3    3  502    0 -0.78454700412E+03 -0.72033174451E+03  0.38855481155E+03  0.11337498646E+04  0.46999998093E+01 0. -1.
       -5    1    3    3    0  502  0.78454700412E+03  0.72033174451E+03 -0.91325141393E+02  0.10689968172E+04  0.46999998093E+01 0.  1.
</event>
<event>
 5   0  0.6445740E-05  0.2222888E+04  0.7818609E-02  0.8508961E-01
        2   -1    0    0  501    0  0.00000000000E+00  0.00000000000E+00  0.11357339172E+04  0.11357339172E+04  0.25500000920E-02 0.  1.
       -2   -1    0    0    0  501  0.00000000000E+00  0.00000000000E+00 -0.10876739683E+04  0.10876739683E+04  0.25500000920E-02 0. -1.
    10030    2    1    2    0    0  0.00000000000E+00  0.00000000000E+00  0.48059948896E+02  0.22234078855E+04  0.22228884063E+04 0.  0.
        5    1    3    3  502    0 -0.26530741286E+03  0.26505566626E+03  0.10705266461E+04  0.11343244331E+04  0.46999998093E+01 0.  1.
       -5    1    3    3    0  502  0.26530741286E+03 -0.26505566626E+03 -0.10224666972E+04  0.10890834524E+04  0.46999998093E+01 0. -1.
</event>
<event>
 5   0  0.6628798E-05  0.2202746E+04  0.7818609E-02  0.8517286E-01
       -2   -1    0    0    0  501  0.00000000000E+00  0.00000000000E+00  0.67422895345E+03  0.67422895346E+03  0.25500000920E-02 0. -1.
        2   -1    0    0  501    0  0.00000000000E+00  0.00000000000E+00 -0.17991261555E+04  0.17991261555E+04  0.25500000920E-02 0.  1.
    10030    2    1    2    0    0  0.00000000000E+00  0.00000000000E+00 -0.11248972021E+04  0.24733551090E+04  0.22027464175E+04 0.  0.
        4    1    3    3  502    0  0.47620880385E+03  0.96766093825E+03 -0.81322117494E+03  0.13507304722E+04  0.12699999809E+01 0. -1.
       -4    1    3    3    0  502 -0.47620880385E+03 -0.96766093825E+03 -0.31167602711E+03  0.11226246368E+04  0.12699999809E+01 0.  1.
</event>
<event>
 5   0  0.6414768E-05  0.2263551E+04  0.7818609E-02  0.8492432E-01
       -2   -1    0    0    0  501  0.00000000000E+00  0.00000000000E+00  0.11274404563E+04  0.11274404563E+04  0.25500000920E-02 0. -1.
        2   -1    0    0  501    0  0.00000000000E+00  0.00000000000E+00 -0.11361276950E+04  0.11361276950E+04  0.25500000920E-02 0.  1.
    10030    2    1    2    0    0  0.00000000000E+00  0.00000000000E+00 -0.86872386610E+01  0.22635681513E+04  0.22635514811E+04 0.  0.
        2    1    3    3  502    0 -0.67661434064E+03 -0.88845825597E+03  0.17937297064E+03  0.11310789986E+04  0.25500000920E-02 0. -1.
       -2    1    3    3    0  502  0.67661434064E+03  0.88845825597E+03 -0.18806020930E+03  0.11324891527E+04  0.25500000920E-02 0.  1.
</event>
<event>
 5   0  0.2820239E-05  0.2214304E+04  0.7818609E-02  0.8512498E-01
        1   -1    0    0  501    0  0.00000000000E+00  0.00000000000E+00  0.97743996980E+03  0.97743996982E+03  0.50400001928E-02 0. -1.
       -1   -1    0    0    0  501  0.00000000000E+00  0.00000000000E+00 -0.12540772273E+04  0.12540772273E+04  0.50400001928E-02 0.  1.
    10030    2    1    2    0    0  0.00000000000E+00  0.00000000000E+00 -0.27663725752E+03  0.22315171972E+04  0.22143036894E+04 0.  0.
        3    1    3    3  502    0 -0.11303068957E+03  0.10387341875E+04  0.23064295666E+03  0.10700190805E+04  0.10100000352E+00 0. -1.
       -3    1    3    3    0  502  0.11303068957E+03 -0.10387341875E+04 -0.50728021418E+03  0.11614981166E+04  0.10100000352E+00 0.  1.
</event>
<event>
 5   0  0.2910318E-05  0.2190796E+04  0.7818609E-02  0.8522269E-01
        1   -1    0    0  501    0  0.00000000000E+00  0.00000000000E+00  0.15589177006E+04  0.15589177006E+04  0.50400001928E-02 0.  1.
       -1   -1    0    0    0  501  0.00000000000E+00  0.00000000000E+00 -0.76969888697E+03  0.76969888698E+03  0.50400001928E-02 0. -1.
    10030    2    1    2    0    0  0.00000000000E+00  0.00000000000E+00  0.78921881366E+03  0.23286165876E+04  0.21907964023E+04 0.  0.
        5    1    3    3  502    0 -0.50728748015E+03 -0.84523636926E+03 -0.11304498835E+03  0.99225317677E+03  0.46999998093E+01 0. -1.
       -5    1    3    3    0  502  0.50728748015E+03  0.84523636926E+03  0.90226380201E+03  0.13363634108E+04  0.46999998093E+01 0.  1.
</event>
<event>
 5   0  0.6293013E-05  0.2291477E+04  0.7818609E-02  0.8481289E-01
        2   -1    0    0  501    0  0.00000000000E+00  0.00000000000E+00  0.91057831115E+03  0.91057831115E+03  0.25500000920E-02 0. -1.
       -2   -1    0    0    0  501  0.00000000000E+00  0.00000000000E+00 -0.14416294229E+04  0.14416294230E+04  0.25500000920E-02 0.  1.
    10030    2    1    2    0    0  0.00000000000E+00  0.00000000000E+00 -0.53105111180E+03  0.23522077341E+04  0.22914768035E+04 0.  0.
        1    1    3    3  502    0 -0.66641262825E+03 -0.40714162644E+03  0.59505279714E+03  0.98181359050E+03  0.50400001928E-02 0. -1.
       -1    1    3    3    0  502  0.66641262825E+03  0.40714162644E+03 -0.11261039089E+04  0.13703941436E+04  0.50400001928E-02 0.  1.
</event>
<event>
 5   0  0.6445740E-05  0.2218450E+04  0.7818609E-02  0.8510788E-01
       -2   -1    0    0    0  501  0.00000000000E+00  0.00000000000E+00  0.69564952183E+03  0.69564952183E+03  0.25500000920E-02 0.  1.
        2   -1    0    0  501    0  0.00000000000E+00  0.00000000000E+00 -0.17686784163E+04  0.17686784163E+04  0.25500000920E-02 0. -1.
    10030    2    1    2    0    0  0.00000000000E+00  0.00000000000E+00 -0.10730288944E+04  0.24643279381E+04  0.22184501748E+04 0.  0.
        5    1    3    3  502    0 -0.23689662110E+03 -0.72358568366E+02 -0.17375518406E+04  0.17551251409E+04  0.46999998093E+01 0. -1.
       -5    1    3    3    0  502  0.23689662110E+03  0.72358568366E+02  0.66452294618E+03  0.70920279717E+03  0.46999998093E+01 0.  1.
</event>
<event>
 5   0  0.6445740E-05  0.1763656E+04  0.7818609E-02  0.8725869E-01
        2   -1    0    0  501    0  0.00000000000E+00  0.00000000000E+00  0.76393240667E+03  0.76393240668E+03  0.25500000920E-02 0. -1.
       -2   -1    0    0    0  501  0.00000000000E+00  0.00000000000E+00 -0.10179185037E+04  0.10179185037E+04  0.25500000920E-02 0.  1.
    10030    2    1    2    0    0  0.00000000000E+00  0.00000000000E+00 -0.25398609705E+03  0.17818509104E+04  0.17636563524E+04 0.  0.
        5    1    3    3  502    0  0.72423206427E+03 -0.75198834363E+02 -0.62954994457E+03  0.96256021646E+03  0.46999998093E+01 0.  1.
       -5    1    3    3    0  502 -0.72423206427E+03  0.75198834363E+02  0.37556384753E+03  0.81929069394E+03  0.46999998093E+01 0. -1.
</event>
<event>
 5   0  0.2753631E-05  0.2565010E+04  0.7818609E-02  0.8380185E-01
        1   -1    0    0  501    0  0.00000000000E+00  0.00000000000E+00  0.16831715252E+04  0.16831715252E+04  0.50400001928E-02 0.  1.
       -1   -1    0    0    0  501  0.00000000000E+00  0.00000000000E+00 -0.97721380641E+03  0.97721380642E+03  0.50400001928E-02 0. -1.
    10030    2    1    2    0    0  0.00000000000E+00  0.00000000000E+00  0.70595771878E+03  0.26603853316E+04  0.25650095150E+04 0.  0.
        4    1    3    3  502    0  0.69170418591E+03  0.23724625537E+03  0.14457569870E+04  0.16201713937E+04  0.12699999809E+01 0.  1.
       -4    1    3    3    0  502 -0.69170418591E+03 -0.23724625537E+03 -0.73979926824E+03  0.10402139379E+04  0.12699999809E+01 0. -1.
</event>
<event>
 5   0  0.2753631E-05  0.2193023E+04  0.7818609E-02  0.8521338E-01
        1   -1    0    0  501    0  0.00000000000E+00  0.00000000000E+00  0.97449818007E+03  0.97449818008E+03  0.50400001928E-02 0.  1.
       -1   -1    0    0    0  501  0.00000000000E+00  0.00000000000E+00 -0.12338015105E+04  0.12338015105E+04  0.50400001928E-02 0. -1.
    10030    2    1    2    0    0  0.00000000000E+00  0.00000000000E+00 -0.25930333040E+03  0.22082996906E+04  0.21930228695E+04 0.  0.
        4    1    3    3  502    0  0.17817307544E+03 -0.37365080144E+03  0.89279096558E+03  0.98409241810E+03  0.12699999809E+01 0.  1.
       -4    1    3    3    0  502 -0.17817307544E+03  0.37365080144E+03 -0.11520942960E+04  0.12242072725E+04  0.12699999809E+01 0. -1.
</event>
<event>
 5   0  0.2929471E-05  0.2194494E+04  0.7818609E-02  0.8520723E-01
       -1   -1    0    0    0  501  0.00000000000E+00  0.00000000000E+00  0.57978529094E+03  0.57978529097E+03  0.50400001928E-02 0. -1.
        1   -1    0    0  501    0  0.00000000000E+00  0.00000000000E+00 -0.20765470369E+04  0.20765470369E+04  0.50400001928E-02 0.  1.
    10030    2    1    2    0    0  0.00000000000E+00  0.00000000000E+00 -0.14967617459E+04  0.26563323278E+04  0.21944944092E+04 0.  0.
        2    1    3    3  502    0  0.27106270578E+03 -0.94134663594E+03 -0.15004115268E+03  0.99102009413E+03  0.25500000920E-02 0. -1.
       -2    1    3    3    0  502 -0.27106270578E+03  0.94134663594E+03 -0.13467205932E+04  0.16653122337E+04  0.25500000920E-02 0.  1.
</event>
<event>
 5   0  0.6293013E-05  0.2219008E+04  0.7818609E-02  0.8510558E-01
        2   -1    0    0  501    0  0.00000000000E+00  0.00000000000E+00  0.11484943399E+04  0.11484943399E+04  0.25500000920E-02 0. -1.
       -2   -1    0    0    0  501  0.00000000000E+00  0.00000000000E+00 -0.10718369540E+04  0.10718369540E+04  0.25500000920E-02 0.  1.
    10030    2    1    2    0    0  0.00000000000E+00  0.00000000000E+00  0.76657385838E+02  0.22203312939E+04  0.22190075935E+04 0.  0.
        1    1    3    3  502    0 -0.26330019905E+01 -0.34846351438E+03 -0.10156585411E+04  0.10737765251E+04  0.50400001928E-02 0.  1.
       -1    1    3    3    0  502  0.26330019905E+01  0.34846351438E+03  0.10923159270E+04  0.11465547688E+04  0.50400001928E-02 0. -1.
</event>
<event>
 5   0  0.6445740E-05  0.2236061E+04  0.7818609E-02  0.8503567E-01
       -2   -1    0    0    0  501  0.00000000000E+00  0.00000000000E+00  0.10504009151E+04  0.10504009151E+04  0.25500000920E-02 0. -1.
        2   -1    0    0  501    0  0.00000000000E+00  0.00000000000E+00 -0.11900142099E+04  0.11900142099E+04  0.25500000920E-02 0.  1.
    10030    2    1    2    0    0  0.00000000000E+00  0.00000000000E+00 -0.13961329472E+03  0.22404151250E+04  0.22360608355E+04 0.  0.
        5    1    3    3  502    0  0.93519309298E+03  0.13560561739E+03  0.52884736722E+03  0.10829019496E+04  0.46999998093E+01 0. -1.
       -5    1    3    3    0  502 -0.93519309298E+03 -0.13560561739E+03 -0.66846066194E+03  0.11575131754E+04  0.46999998093E+01 0.  1.
</event>
<event>
 5   0  0.6306919E-05  0.2229163E+04  0.7818609E-02  0.8506387E-01
       -2   -1    0    0    0  501  0.00000000000E+00  0.00000000000E+00  0.92323947318E+03  0.92323947318E+03  0.25500000920E-02 0.  1.
        2   -1    0    0  501    0  0.00000000000E+00  0.00000000000E+00 -0.13455794639E+04  0.13455794639E+04  0.25500000920E-02 0. -1.
    10030    2    1    2    0    0  0.00000000000E+00  0.00000000000E+00 -0.42233999075E+03  0.22688189371E+04  0.22291631393E+04 0.  0.
        3    1    3    3  502    0  0.31915743271E+03 -0.97747102722E+03 -0.64891533808E+03  0.12158956378E+04  0.10100000352E+00 0. -1.
       -3    1    3    3    0  502 -0.31915743271E+03  0.97747102722E+03  0.22657534734E+03  0.10529232993E+04  0.10100000352E+00 0.  1.
</event>
<event>
 5   0  0.2753631E-05  0.2190073E+04  0.7818609E-02  0.8522571E-01
       -1   -1    0    0    0  501  0.00000000000E+00  0.00000000000E+00  0.65481477857E+03  0.65481477859E+03  0.50400001928E-02 0. -1.
        1   -1    0    0  501    0  0.00000000000E+00  0.00000000000E+00 -0.18312119778E+04  0.18312119778E+04  0.50400001928E-02 0.  1.
    10030    2    1    2    0    0  0.00000000000E+00  0.00000000000E+00 -0.11763971992E+04  0.24860267563E+04  0.21900727529E+04 0.  0.
        4    1    3    3  502    0  0.16267835848E+03  0.37451553258E+03  0.56516542241E+03  0.69723719067E+03  0.12699999809E+01 0. -1.
       -4    1    3    3    0  502 -0.16267835848E+03 -0.37451553258E+03 -0.17415626216E+04  0.17887895657E+04  0.12699999809E+01 0.  1.
</event>
<event>
 5   0  0.6293013E-05  0.2106843E+04  0.7818609E-02  0.8558235E-01
       -2   -1    0    0    0  501  0.00000000000E+00  0.00000000000E+00  0.65481320847E+03  0.65481320848E+03  0.25500000920E-02 0.  1.
        2   -1    0    0  501    0  0.00000000000E+00  0.00000000000E+00 -0.16946771361E+04  0.16946771361E+04  0.25500000920E-02 0. -1.
    10030    2    1    2    0    0  0.00000000000E+00  0.00000000000E+00 -0.10398639276E+04  0.23494903445E+04  0.21068431102E+04 0.  0.
        1    1    3    3  502    0  0.10956539515E+02  0.61253093693E+03  0.43572649938E+03  0.75177907442E+03  0.50400001928E-02 0.  1.
       -1    1    3    3    0  502 -0.10956539515E+02 -0.61253093693E+03 -0.14755904270E+04  0.15977112701E+04  0.50400001928E-02 0. -1.
</event>
<event>
 5   0  0.2753631E-05  0.2187294E+04  0.7818609E-02  0.8523735E-01
       -1   -1    0    0    0  501  0.00000000000E+00  0.00000000000E+00  0.60058614139E+03  0.60058614141E+03  0.50400001928E-02 0. -1.
        1   -1    0    0  501    0  0.00000000000E+00  0.00000000000E+00 -0.19914934645E+04  0.19914934645E+04  0.50400001928E-02 0.  1.
    10030    2    1    2    0    0  0.00000000000E+00  0.00000000000E+00 -0.13909073231E+04  0.25920796059E+04  0.21872936479E+04 0.  0.
        4    1    3    3  502    0 -0.38971600840E+03  0.61966960515E+03 -0.16583435526E+04  0.18127255551E+04  0.12699999809E+01 0.  1.
       -4    1    3    3    0  502  0.38971600840E+03 -0.61966960515E+03  0.26743622951E+03  0.77935405080E+03  0.12699999809E+01 0. -1.
</event>
<event>
 5   0  0.6306919E-05  0.2117034E+04  0.7818609E-02  0.8553777E-01
        2   -1    0    0  501    0  0.00000000000E+00  0.00000000000E+00  0.69557792797E+03  0.69557792797E+03  0.25500000920E-02 0.  1.
       -2   -1    0    0    0  501  0.00000000000E+00  0.00000000000E+00 -0.16108309755E+04  0.16108309755E+04  0.25500000920E-02 0. -1.
    10030    2    1    2    0    0  0.00000000000E+00  0.00000000000E+00 -0.91525304755E+03  0.23064089035E+04  0.21170342201E+04 0.  0.
        3    1    3    3  502    0  0.54503237780E+03 -0.78962566322E+03 -0.94471000152E+03  0.13464939577E+04  0.10100000352E+00 0.  1.
       -3    1    3    3    0  502 -0.54503237780E+03  0.78962566322E+03  0.29456953967E+02  0.95991494582E+03  0.10100000352E+00 0. -1.
</event>
<event>
 5   0  0.6628798E-05  0.2212765E+04  0.7818609E-02  0.8513134E-01
       -2   -1    0    0    0  501  0.00000000000E+00  0.00000000000E+00  0.75930614597E+03  0.75930614598E+03  0.25500000920E-02 0.  1.
        2   -1    0    0  501    0  0.00000000000E+00  0.00000000000E+00 -0.16121062294E+04  0.16121062294E+04  0.25500000920E-02 0. -1.
    10030    2    1    2    0    0  0.00000000000E+00  0.00000000000E+00 -0.85280008347E+03  0.23714123754E+04  0.22127649382E+04 0.  0.
        4    1    3    3  502    0 -0.10940768009E+04 -0.11358289311E+03 -0.55399690559E+03  0.12315921826E+04  0.12699999809E+01 0. -1.
       -4    1    3    3    0  502  0.10940768009E+04  0.11358289311E+03 -0.29880317787E+03  0.11398201928E+04  0.12699999809E+01 0.  1.
</event>
<event>
 5   0  0.2908031E-05  0.2220159E+04  0.7818609E-02  0.8510084E-01
       -1   -1    0    0    0  501  0.00000000000E+00  0.00000000000E+00  0.81638352902E+03  0.81638352904E+03  0.50400001928E-02 0.  1.
        1   -1    0    0  501    0  0.00000000000E+00  0.00000000000E+00 -0.15094329155E+04  0.15094329156E+04  0.50400001928E-02 0. -1.
    10030    2    1    2    0    0  0.00000000000E+00  0.00000000000E+00 -0.69304938652E+03  0.23258164446E+04  0.22201587064E+04 0.  0.
        1    1    3    3  502    0  0.68404584534E+03 -0.94378449922E+02 -0.12570548304E+04  0.14342290114E+04  0.50400001928E-02 0. -1.
       -1    1    3    3    0  502 -0.68404584534E+03  0.94378449922E+02  0.56400544388E+03  0.89158743323E+03  0.50400001928E-02 0.  1.
</event>
<event>
 5   0  0.6293013E-05  0.2198959E+04  0.7818609E-02  0.8518862E-01
       -2   -1    0    0    0  501  0.00000000000E+00  0.00000000000E+00  0.86171158627E+03  0.86171158627E+03  0.25500000920E-02 0. -1.
        2   -1    0    0  501    0  0.00000000000E+00  0.00000000000E+00 -0.14028531410E+04  0.14028531410E+04  0.25500000920E-02 0.  1.
    10030    2    1    2    0    0  0.00000000000E+00  0.00000000000E+00 -0.54114155478E+03  0.22645647273E+04  0.21989586676E+04 0.  0.
        1    1    3    3  502    0  0.89526724788E+03 -0.62871185232E+03 -0.15741647197E+03  0.11052429525E+04  0.50400001928E-02 0.  1.
       -1    1    3    3    0  502 -0.89526724788E+03  0.62871185232E+03 -0.38372508281E+03  0.11593217748E+04  0.50400001928E-02 0. -1.
</event>
<event>
 5   0  0.2910318E-05  0.2196356E+04  0.7818609E-02  0.8519946E-01
        1   -1    0    0  501    0  0.00000000000E+00  0.00000000000E+00  0.84207071462E+03  0.84207071463E+03  0.50400001928E-02 0.  1.
       -1   -1    0    0    0  501  0.00000000000E+00  0.00000000000E+00 -0.14321778695E+04  0.14321778695E+04  0.50400001928E-02 0. -1.
    10030    2    1    2    0    0  0.00000000000E+00  0.00000000000E+00 -0.59010715484E+03  0.22742485841E+04  0.21963561114E+04 0.  0.
        5    1    3    3  502    0 -0.25780598842E+03 -0.10581628802E+04 -0.44075759786E+03  0.11749306187E+04  0.46999998093E+01 0. -1.
       -5    1    3    3    0  502  0.25780598842E+03  0.10581628802E+04 -0.14934955698E+03  0.10993179654E+04  0.46999998093E+01 0.  1.
</event>
<event>
 5   0  0.2910318E-05  0.2204169E+04  0.7818609E-02  0.8516695E-01
        1   -1    0    0  501    0  0.00000000000E+00  0.00000000000E+00  0.11569460520E+04  0.11569460520E+04  0.50400001928E-02 0.  1.
       -1   -1    0    0    0  501  0.00000000000E+00  0.00000000000E+00 -0.10498247472E+04  0.10498247472E+04  0.50400001928E-02 0. -1.
    10030    2    1    2    0    0  0.00000000000E+00  0.00000000000E+00  0.10712130484E+03  0.22067707993E+04  0.22041693189E+04 0.  0.
        5    1    3    3  502    0  0.65247207118E+03  0.88803963301E+03  0.38235294375E+02  0.11026414745E+04  0.46999998093E+01 0. -1.
       -5    1    3    3    0  502 -0.65247207118E+03 -0.88803963301E+03  0.68886010463E+02  0.11041293248E+04  0.46999998093E+01 0.  1.
</event>
<event>
 5   0  0.2753631E-05  0.2207932E+04  0.7818609E-02  0.8515134E-01
        1   -1    0    0  501    0  0.00000000000E+00  0.00000000000E+00  0.10404983769E+04  0.10404983769E+04  0.50400001928E-02 0. -1.
       -1   -1    0    0    0  501  0.00000000000E+00  0.00000000000E+00 -0.11713054789E+04  0.11713054789E+04  0.50400001928E-02 0.  1.
    10030    2    1    2    0    0  0.00000000000E+00  0.00000000000E+00 -0.13080710204E+03  0.22118038558E+04  0.22079324715E+04 0.  0.
        4    1    3    3  502    0  0.58798959864E+03  0.92820003678E+03 -0.17260876569E+03  0.11122420938E+04  0.12699999809E+01 0.  1.
       -4    1    3    3    0  502 -0.58798959864E+03 -0.92820003678E+03  0.41801663655E+02  0.10995617620E+04  0.12699999809E+01 0. -1.
</event>
<event>
 5   0  0.2820239E-05  0.2211720E+04  0.7818609E-02  0.8513566E-01
       -1   -1    0    0    0  501  0.00000000000E+00  0.00000000000E+00  0.97028756959E+03  0.97028756960E+03  0.50400001928E-02 0. -1.
        1   -1    0    0  501    0  0.00000000000E+00  0.00000000000E+00 -0.12603748255E+04  0.12603748255E+04  0.50400001928E-02 0.  1.
    10030    2    1    2    0    0  0.00000000000E+00  0.00000000000E+00 -0.29008725594E+03  0.22306623951E+04  0.22117197167E+04 0.  0.
        3    1    3    3  502    0 -0.52344945020E+03 -0.50825491006E+03  0.69309949616E+03  0.10063345876E+04  0.10100000352E+00 0. -1.
       -3    1    3    3    0  502  0.52344945020E+03  0.50825491006E+03 -0.98318675210E+03  0.12243278075E+04  0.10100000352E+00 0.  1.
</event>
<event>
 5   0  0.2820239E-05  0.2194669E+04  0.7818609E-02  0.8520650E-01
       -1   -1    0    0    0  501  0.00000000000E+00  0.00000000000E+00  0.11181918670E+04  0.11181918671E+04  0.50400001928E-02 0. -1.
        1   -1    0    0  501    0  0.00000000000E+00  0.00000000000E+00 -0.10768662651E+04  0.10768662651E+04  0.50400001928E-02 0.  1.
    10030    2    1    2    0    0  0.00000000000E+00  0.00000000000E+00  0.41325601950E+02  0.21950581322E+04  0.21946690863E+04 0.  0.
        3    1    3    3  502    0 -0.10360992759E+04 -0.34891273365E+03  0.11502614247E+03  0.10993056121E+04  0.10100000352E+00 0. -1.
       -3    1    3    3    0  502  0.10360992759E+04  0.34891273365E+03 -0.73700540523E+02  0.10957525200E+04  0.10100000352E+00 0.  1.
</event>
<event>
 5   0  0.2753631E-05  0.2078629E+04  0.7818609E-02  0.8570716E-01
        1   -1    0    0  501    0  0.00000000000E+00  0.00000000000E+00  0.20745072674E+04  0.20745072674E+04  0.50400001928E-02 0.  1.
       -1   -1    0    0    0  501  0.00000000000E+00  0.00000000000E+00 -0.52068990692E+03  0.52068990694E+03  0.50400001928E-02 0. -1.
    10030    2    1    2    0    0  0.00000000000E+00  0.00000000000E+00  0.15538173605E+04  0.25951971743E+04  0.20786293522E+04 0.  0.
        4    1    3    3  502    0  0.91255632991E+03  0.24945275426E+03  0.23963036112E+03  0.97591498336E+03  0.12699999809E+01 0. -1.
       -4    1    3    3    0  502 -0.91255632991E+03 -0.24945275426E+03  0.13141869994E+04  0.16192821910E+04  0.12699999809E+01 0.  1.
</event>
<event>
 5   0  0.2820239E-05  0.2208017E+04  0.7818609E-02  0.8515099E-01
        1   -1    0    0  501    0  0.00000000000E+00  0.00000000000E+00  0.17106191260E+04  0.17106191260E+04  0.50400001928E-02 0.  1.
       -1   -1    0    0    0  501  0.00000000000E+00  0.00000000000E+00 -0.71251097400E+03  0.71251097402E+03  0.50400001928E-02 0. -1.
    10030    2    1    2    0    0  0.00000000000E+00  0.00000000000E+00  0.99810815203E+03  0.24231301001E+04  0.22080171192E+04 0.  0.
        3    1    3    3  502    0 -0.21440102042E+03 -0.10131703334E+04  0.79222535679E+02  0.10386328237E+04  0.10100000352E+00 0. -1.
       -3    1    3    3    0  502  0.21440102042E+03  0.10131703334E+04  0.91888561636E+03  0.13844972764E+04  0.10100000352E+00 0.  1.
</event>
<event>
 5   0  0.2908031E-05  0.2203134E+04  0.7818609E-02  0.8517125E-01
        1   -1    0    0  501    0  0.00000000000E+00  0.00000000000E+00  0.87870377441E+03  0.87870377442E+03  0.50400001928E-02 0.  1.
       -1   -1    0    0    0  501  0.00000000000E+00  0.00000000000E+00 -0.13809545125E+04  0.13809545125E+04  0.50400001928E-02 0. -1.
    10030    2    1    2    0    0  0.00000000000E+00  0.00000000000E+00 -0.50225073810E+03  0.22596582869E+04  0.22031340789E+04 0.  0.
        1    1    3    3  502    0 -0.22019401156E+03  0.81314712099E+03 -0.97909302746E+03  0.12916333843E+04  0.50400001928E-02 0. -1.
       -1    1    3    3    0  502  0.22019401156E+03 -0.81314712099E+03  0.47684228936E+03  0.96802490260E+03  0.50400001928E-02 0.  1.
</event>
<event>
 5   0  0.2910318E-05  0.2203540E+04  0.7818609E-02  0.8516956E-01
       -1   -1    0    0    0  501  0.00000000000E+00  0.00000000000E+00  0.13615227741E+04  0.13615227741E+04  0.50400001928E-02 0.  1.
        1   -1    0    0  501    0  0.00000000000E+00  0.00000000000E+00 -0.89157294245E+03  0.89157294246E+03  0.50400001928E-02 0. -1.
    10030    2    1    2    0    0  0.00000000000E+00  0.00000000000E+00  0.46994983167E+03  0.22530957166E+04  0.22035397577E+04 0.  0.
        5    1    3    3  502    0 -0.49067561552E+03  0.97279863145E+03  0.67664180954E+02  0.10916502500E+04  0.46999998093E+01 0. -1.
       -5    1    3    3    0  502  0.49067561552E+03 -0.97279863145E+03  0.40228565071E+03  0.11614454666E+04  0.46999998093E+01 0.  1.
</event>
<event>
 5   0  0.6306919E-05  0.2198163E+04  0.7818609E-02  0.8519193E-01
       -2   -1    0    0    0  501  0.00000000000E+00  0.00000000000E+00  0.11095835936E+04  0.11095835936E+04  0.25500000920E-02 0.  1.
        2   -1    0    0  501    0  0.00000000000E+00  0.00000000000E+00 -0.10886789064E+04  0.10886789064E+04  0.25500000920E-02 0. -1.
    10030    2    1    2    0    0  0.00000000000E+00  0.00000000000E+00  0.20904687218E+02  0.21982625000E+04  0.21981630998E+04 0.  0.
        3    1    3    3  502    0  0.34533457404E+03 -0.94403874415E+03 -0.43399449028E+03  0.10949047202E+04  0.10100000352E+00 0. -1.
       -3    1    3    3    0  502 -0.34533457404E+03  0.94403874415E+03  0.45489917750E+03  0.11033577799E+04  0.10100000352E+00 0.  1.
</event>
<event>
 5   0  0.6414768E-05  0.2229339E+04  0.7818609E-02  0.8506315E-01
        2   -1    0    0  501    0  0.00000000000E+00  0.00000000000E+00  0.14877024701E+04  0.14877024701E+04  0.25500000920E-02 0. -1.
       -2   -1    0    0    0  501  0.00000000000E+00  0.00000000000E+00 -0.83517238234E+03  0.83517238234E+03  0.25500000920E-02 0.  1.
    10030    2    1    2    0    0  0.00000000000E+00  0.00000000000E+00  0.65253008772E+03  0.23228748524E+04  0.22293389299E+04 0.  0.
        2    1    3    3  502    0  0.97506243932E+03 -0.42244683079E+03  0.67695731909E+03  0.12599521012E+04  0.25500000920E-02 0. -1.
       -2    1    3    3    0  502 -0.97506243932E+03  0.42244683079E+03 -0.24427231376E+02  0.10629227512E+04  0.25500000920E-02 0.  1.
</event>
<event>
 5   0  0.2910318E-05  0.2196327E+04  0.7818609E-02  0.8519959E-01
       -1   -1    0    0    0  501  0.00000000000E+00  0.00000000000E+00  0.14399538999E+04  0.14399538999E+04  0.50400001928E-02 0. -1.
        1   -1    0    0  501    0  0.00000000000E+00  0.00000000000E+00 -0.83750096032E+03  0.83750096033E+03  0.50400001928E-02 0.  1.
    10030    2    1    2    0    0  0.00000000000E+00  0.00000000000E+00  0.60245293962E+03  0.22774548603E+04  0.21963267280E+04 0.  0.
        5    1    3    3  502    0 -0.37417087140E+03  0.10200788844E+04  0.46640882989E+03  0.11824229607E+04  0.46999998093E+01 0.  1.
       -5    1    3    3    0  502  0.37417087140E+03 -0.10200788844E+04  0.13604410973E+03  0.10950318996E+04  0.46999998093E+01 0. -1.
</event>
<event>
 5   0  0.6306919E-05  0.2213113E+04  0.7818609E-02  0.8512990E-01
        2   -1    0    0  501    0  0.00000000000E+00  0.00000000000E+00  0.87038498063E+03  0.87038498063E+03  0.25500000920E-02 0.  1.
       -2   -1    0    0    0  501  0.00000000000E+00  0.00000000000E+00 -0.14068105415E+04  0.14068105415E+04  0.25500000920E-02 0. -1.
    10030    2    1    2    0    0  0.00000000000E+00  0.00000000000E+00 -0.53642556087E+03  0.22771955221E+04  0.22131125285E+04 0.  0.
        3    1    3    3  502    0 -0.70187301286E+03 -0.29571932168E+03  0.55777114458E+03  0.94402558405E+03  0.10100000352E+00 0.  1.
       -3    1    3    3    0  502  0.70187301286E+03  0.29571932168E+03 -0.10941967055E+04  0.13331699381E+04  0.10100000352E+00 0. -1.
</event>
<event>
 5   0  0.6293013E-05  0.2248394E+04  0.7818609E-02  0.8498551E-01
       -2   -1    0    0    0  501  0.00000000000E+00  0.00000000000E+00  0.70057683063E+03  0.70057683063E+03  0.25500000920E-02 0.  1.
        2   -1    0    0  501    0  0.00000000000E+00  0.00000000000E+00 -0.18039694002E+04  0.18039694002E+04  0.25500000920E-02 0. -1.
    10030    2    1    2    0    0  0.00000000000E+00  0.00000000000E+00 -0.11033925695E+04  0.25045462308E+04  0.22483942403E+04 0.  0.
        1    1    3    3  502    0 -0.67168477694E+03  0.89987696565E+03 -0.49191492318E+03  0.12259360850E+04  0.50400001928E-02 0. -1.
       -1    1    3    3    0  502  0.67168477694E+03 -0.89987696565E+03 -0.61147764637E+03  0.12786101458E+04  0.50400001928E-02 0.  1.
</event>
<event>
 5   0  0.6628798E-05  0.2332379E+04  0.7818609E-02  0.8465263E-01
        2   -1    0    0  501    0  0.00000000000E+00  0.00000000000E+00  0.10360398799E+04  0.10360398799E+04  0.25500000920E-02 0.  1.
       -2   -1    0    0    0  501  0.00000000000E+00  0.00000000000E+00 -0.13126883508E+04  0.13126883508E+04  0.25500000920E-02 0. -1.
    10030    2    1    2    0    0  0.00000000000E+00  0.00000000000E+00 -0.27664847085E+03  0.23487282307E+04  0.23323785982E+04 0.  0.
        4    1    3    3  502    0 -0.13918474510E+03 -0.51529617390E+03 -0.11824595954E+04  0.12973491619E+04  0.12699999809E+01 0. -1.
       -4    1    3    3    0  502  0.13918474510E+03  0.51529617390E+03  0.90581112459E+03  0.10513790689E+04  0.12699999809E+01 0.  1.
</event>
<event>
 5   0  0.6414768E-05  0.2220604E+04  0.7818609E-02  0.8509901E-01
        2   -1    0    0  501    0  0.00000000000E+00  0.00000000000E+00  0.23234994847E+04  0.23234994847E+04  0.25500000920E-02 0.  1.
       -2   -1    0    0    0  501  0.00000000000E+00  0.00000000000E+00 -0.53056618047E+03  0.53056618048E+03  0.25500000920E-02 0. -1.
    10030    2    1    2    0    0  0.00000000000E+00  0.00000000000E+00  0.17929333043E+04  0.28540656652E+04  0.22206037440E+04 0.  0.
        2    1    3    3  502    0  0.71005498301E+03 -0.13975100952E+03  0.19787349692E+04  0.21069172983E+04  0.25500000920E-02 0.  1.
       -2    1    3    3    0  502 -0.71005498301E+03  0.13975100952E+03 -0.18580166489E+03  0.74714836696E+03  0.25500000920E-02 0. -1.
</event>
<event>
 5   0  0.2910318E-05  0.2190578E+04  0.7818609E-02  0.8522360E-01
       -1   -1    0    0    0  501  0.00000000000E+00  0.00000000000E+00  0.71720149969E+03  0.71720149971E+03  0.50400001928E-02 0. -1.
        1   -1    0    0  501    0  0.00000000000E+00  0.00000000000E+00 -0.16726926539E+04  0.16726926539E+04  0.50400001928E-02 0.  1.
    10030    2    1    2    0    0  0.00000000000E+00  0.00000000000E+00 -0.95549115416E+03  0.23898941536E+04  0.21905777137E+04 0.  0.
        5    1    3    3  502    0 -0.53644967173E+03 -0.75704141012E+03  0.15722976515E+03  0.94108088706E+03  0.46999998093E+01 0.  1.
       -5    1    3    3    0  502  0.53644967173E+03  0.75704141012E+03 -0.11127209193E+04  0.14488132665E+04  0.46999998093E+01 0. -1.
</event>
<event>
 5   0  0.6414768E-05  0.2219211E+04  0.7818609E-02  0.8510475E-01
        2   -1    0    0  501    0  0.00000000000E+00  0.00000000000E+00  0.15617998942E+04  0.15617998942E+04  0.25500000920E-02 0. -1.
       -2   -1    0    0    0  501  0.00000000000E+00  0.00000000000E+00 -0.78833657410E+03  0.78833657410E+03  0.25500000920E-02 0.  1.
    10030    2    1    2    0    0  0.00000000000E+00  0.00000000000E+00  0.77346332005E+03  0.23501364683E+04  0.22192106506E+04 0.  0.
        2    1    3    3  502    0 -0.35398159755E+02  0.68985578757E+03 -0.53287131613E+03  0.87241382206E+03  0.25500000920E-02 0.  1.
       -2    1    3    3    0  502  0.35398159755E+02 -0.68985578757E+03  0.13063346362E+04  0.14777226462E+04  0.25500000920E-02 0. -1.
</event>
<event>
 5   0  0.2910318E-05  0.2158771E+04  0.7818609E-02  0.8535787E-01
        1   -1    0    0  501    0  0.00000000000E+00  0.00000000000E+00  0.20255128777E+04  0.20255128778E+04  0.50400001928E-02 0.  1.
       -1   -1    0    0    0  501  0.00000000000E+00  0.00000000000E+00 -0.57519907126E+03  0.57519907129E+03  0.50400001928E-02 0. -1.
    10030    2    1    2    0    0  0.00000000000E+00  0.00000000000E+00  0.14503138065E+04  0.26007119490E+04  0.21587710635E+04 0.  0.
        5    1    3    3  502    0 -0.22591265731E+03 -0.40686237194E+02  0.19957549352E+04  0.20089180546E+04  0.46999998093E+01 0.  1.
       -5    1    3    3    0  502  0.22591265731E+03  0.40686237194E+02 -0.54544112872E+03  0.59179389446E+03  0.46999998093E+01 0. -1.
</event>
<event>
 5   0  0.2753631E-05  0.2198563E+04  0.7818609E-02  0.8519027E-01
        1   -1    0    0  501    0  0.00000000000E+00  0.00000000000E+00  0.18436915822E+04  0.18436915822E+04  0.50400001928E-02 0.  1.
       -1   -1    0    0    0  501  0.00000000000E+00  0.00000000000E+00 -0.65543464823E+03  0.65543464825E+03  0.50400001928E-02 0. -1.
    10030    2    1    2    0    0  0.00000000000E+00  0.00000000000E+00  0.11882569339E+04  0.24991262304E+04  0.21985625701E+04 0.  0.
        4    1    3    3  502    0  0.59417642465E+03  0.91954086523E+03  0.48150413780E+03  0.11960137433E+04  0.12699999809E+01 0. -1.
       -4    1    3    3    0  502 -0.59417642465E+03 -0.91954086523E+03  0.70675279613E+03  0.13031124872E+04  0.12699999809E+01 0.  1.
</event>
<event>
 5   0  0.2929471E-05  0.2208341E+04  0.7818609E-02  0.8514965E-01
        1   -1    0    0  501    0  0.00000000000E+00  0.00000000000E+00  0.13339700765E+04  0.13339700765E+04  0.50400001928E-02 0.  1.
       -1   -1    0    0    0  501  0.00000000000E+00  0.00000000000E+00 -0.91395768290E+03  0.91395768291E+03  0.50400001928E-02 0. -1.
    10030    2    1    2    0    0  0.00000000000E+00  0.00000000000E+00  0.42001239358E+03  0.22479277594E+04  0.22083407347E+04 0.  0.
        2    1    3    3  502    0  0.17797023867E+03 -0.40503302150E+03  0.12398069348E+04  0.13163762342E+04  0.25500000920E-02 0.  1.
       -2    1    3    3    0  502 -0.17797023867E+03  0.40503302150E+03 -0.81979454120E+03  0.93155152523E+03  0.25500000920E-02 0. -1.
</event>
<event>
 5   0  0.2753631E-05  0.2208626E+04  0.7818609E-02  0.8514846E-01
        1   -1    0    0  501    0  0.00000000000E+00  0.00000000000E+00  0.16764941472E+04  0.16764941472E+04  0.50400001928E-02 0. -1.
       -1   -1    0    0    0  501  0.00000000000E+00  0.00000000000E+00 -0.72741520030E+03  0.72741520031E+03  0.50400001928E-02 0.  1.
    10030    2    1    2    0    0  0.00000000000E+00  0.00000000000E+00  0.94907894690E+03  0.24039093475E+04  0.22086261122E+04 0.  0.
        4    1    3    3  502    0 -0.23581800399E+03  0.68934127954E+03 -0.42871941504E+03  0.84534222681E+03  0.12699999809E+01 0.  1.
       -4    1    3    3    0  502  0.23581800399E+03 -0.68934127954E+03  0.13777983619E+04  0.15585671207E+04  0.12699999809E+01 0. -1.
</event>
<event>
 5   0  0.6293013E-05  0.2213016E+04  0.7818609E-02  0.8513030E-01
       -2   -1    0    0    0  501  0.00000000000E+00  0.00000000000E+00  0.11925019061E+04  0.11925019061E+04  0.25500000920E-02 0.  1.
        2   -1    0    0  501    0  0.00000000000E+00  0.00000000000E+00 -0.10267150528E+04  0.10267150528E+04  0.25500000920E-02 0. -1.
    10030    2    1    2    0    0  0.00000000000E+00  0.00000000000E+00  0.16578685325E+03  0.22192169589E+04  0.22130157320E+04 0.  0.
        1    1    3    3  502    0 -0.30080738153E+03  0.23195207722E+01  0.11507102033E+04  0.11893798522E+04  0.50400001928E-02 0.  1.
       -1    1    3    3    0  502  0.30080738153E+03 -0.23195207722E+01 -0.98492335001E+03  0.10298371067E+04  0.50400001928E-02 0. -1.
</event>
<event>
 5   0  0.6628798E-05  0.2185711E+04  0.7818609E-02  0.8524399E-01
        2   -1    0    0  501    0  0.00000000000E+00  0.00000000000E+00  0.12409145861E+04  0.12409145861E+04  0.25500000920E-02 0.  1.
       -2   -1    0    0    0  501  0.00000000000E+00  0.00000000000E+00 -0.96246193922E+03  0.96246193922E+03  0.25500000920E-02 0. -1.
    10030    2    1    2    0    0  0.00000000000E+00  0.00000000000E+00  0.27845264689E+03  0.22033765253E+04  0.21857109223E+04 0.  0.
        4    1    3    3  502    0  0.10506786497E+04 -0.28210206841E+03  0.24410683245E+03  0.11149425817E+04  0.12699999809E+01 0.  1.
       -4    1    3    3    0  502 -0.10506786497E+04  0.28210206841E+03  0.34345814438E+02  0.10884339437E+04  0.12699999809E+01 0. -1.
</event>
<event>
 5   0  0.2820239E-05  0.2211827E+04  0.7818609E-02  0.8513522E-01
       -1   -1    0    0    0  501  0.00000000000E+00  0.00000000000E+00  0.52987922025E+03  0.52987922028E+03  0.50400001928E-02 0. -1.
        1   -1    0    0  501    0  0.00000000000E+00  0.00000000000E+00 -0.23081568512E+04  0.23081568512E+04  0.50400001928E-02 0.  1.
    10030    2    1    2    0    0  0.00000000000E+00  0.00000000000E+00 -0.17782776309E+04  0.28380360714E+04  0.22118267134E+04 0.  0.
        3    1    3    3  502    0 -0.98800891942E+03 -0.46506571844E+03 -0.66469721272E+03  0.12783857564E+04  0.10100000352E+00 0.  1.
       -3    1    3    3    0  502  0.98800891942E+03  0.46506571844E+03 -0.11135804182E+04  0.15596503151E+04  0.10100000352E+00 0. -1.
</event>
<event>
 5   0  0.6306919E-05  0.2205601E+04  0.7818609E-02  0.8516100E-01
        2   -1    0    0  501    0  0.00000000000E+00  0.00000000000E+00  0.12674962109E+04  0.12674962109E+04  0.25500000920E-02 0.  1.
       -2   -1    0    0    0  501  0.00000000000E+00  0.00000000000E+00 -0.95950537559E+03  0.95950537560E+03  0.25500000920E-02 0. -1.
    10030    2    1    2    0    0  0.00000000000E+00  0.00000000000E+00  0.30799083530E+03  0.22270015865E+04  0.22056014399E+04 0.  0.
        3    1    3    3  502    0  0.44839665461E+03 -0.75103457536E+03 -0.52412866335E+03  0.10197172938E+04  0.10100000352E+00 0.  1.
       -3    1    3    3    0  502 -0.44839665461E+03  0.75103457536E+03  0.83211949864E+03  0.12072842927E+04  0.10100000352E+00 0. -1.
</event>
<event>
 5   0  0.2820239E-05  0.2200547E+04  0.7818609E-02  0.8518201E-01
        1   -1    0    0  501    0  0.00000000000E+00  0.00000000000E+00  0.16805238846E+04  0.16805238846E+04  0.50400001928E-02 0. -1.
       -1   -1    0    0    0  501  0.00000000000E+00  0.00000000000E+00 -0.72037149823E+03  0.72037149825E+03  0.50400001928E-02 0.  1.
    10030    2    1    2    0    0  0.00000000000E+00  0.00000000000E+00  0.96015238641E+03  0.24008953829E+04  0.22005467581E+04 0.  0.
        3    1    3    3  502    0  0.36175681211E+03 -0.96980758987E+03  0.73002744809E+02  0.10376532000E+04  0.10100000352E+00 0.  1.
       -3    1    3    3    0  502 -0.36175681211E+03  0.96980758987E+03  0.88714964160E+03  0.13632421829E+04  0.10100000352E+00 0. -1.
</event>
<event>
 5   0  0.2929471E-05  0.2135145E+04  0.7818609E-02  0.8545918E-01
        1   -1    0    0  501    0  0.00000000000E+00  0.00000000000E+00  0.11335543519E+04  0.11335543519E+04  0.50400001928E-02 0.  1.
       -1   -1    0    0    0  501  0.00000000000E+00  0.00000000000E+00 -0.10054317095E+04  0.10054317095E+04  0.50400001928E-02 0. -1.
    10030    2    1    2    0    0  0.00000000000E+00  0.00000000000E+00  0.12812264243E+03  0.21389860614E+04  0.21351454188E+04 0.  0.
        2    1    3    3  502    0 -0.26874150524E+03  0.55684791173E+03 -0.80779713317E+03  0.10172697783E+04  0.25500000920E-02 0. -1.
       -2    1    3    3    0  502  0.26874150524E+03 -0.55684791173E+03  0.93591977560E+03  0.11217162831E+04  0.25500000920E-02 0.  1.
</event>
<event>
 5   0  0.6414768E-05  0.2183385E+04  0.7818609E-02  0.8525375E-01
       -2   -1    0    0    0  501  0.00000000000E+00  0.00000000000E+00  0.77342812049E+03  0.77342812050E+03  0.25500000920E-02 0. -1.
        2   -1    0    0  501    0  0.00000000000E+00  0.00000000000E+00 -0.15409226803E+04  0.15409226803E+04  0.25500000920E-02 0.  1.
    10030    2    1    2    0    0  0.00000000000E+00  0.00000000000E+00 -0.76749455980E+03  0.23143508008E+04  0.21833853828E+04 0.  0.
        2    1    3    3  502    0 -0.20586512811E+03  0.20807952439E+03  0.73105797692E+03  0.78747908230E+03  0.25500000920E-02 0. -1.
       -2    1    3    3    0  502  0.20586512811E+03 -0.20807952439E+03 -0.14985525367E+04  0.15268717185E+04  0.25500000920E-02 0.  1.
</event>
<event>
 5   0  0.2910318E-05  0.2184267E+04  0.7818609E-02  0.8525005E-01
        1   -1    0    0  501    0  0.00000000000E+00  0.00000000000E+00  0.10267676179E+04  0.10267676179E+04  0.50400001928E-02 0.  1.
       -1   -1    0    0    0  501  0.00000000000E+00  0.00000000000E+00 -0.11616607836E+04  0.11616607836E+04  0.50400001928E-02 0. -1.
    10030    2    1    2    0    0  0.00000000000E+00  0.00000000000E+00 -0.13489316569E+03  0.21884284014E+04  0.21842670858E+04 0.  0.
        5    1    3    3  502    0 -0.20412718569E+03  0.10690001152E+04  0.23855681961E+02  0.10885863942E+04  0.46999998093E+01 0.  1.
       -5    1    3    3    0  502  0.20412718569E+03 -0.10690001152E+04 -0.15874884765E+03  0.10998420072E+04  0.46999998093E+01 0. -1.
</event>
<event>
 5   0  0.2908031E-05  0.2285636E+04  0.7818609E-02  0.8483606E-01
        1   -1    0    0  501    0  0.00000000000E+00  0.00000000000E+00  0.10097674114E+04  0.10097674114E+04  0.50400001928E-02 0. -1.
       -1   -1    0    0    0  501  0.00000000000E+00  0.00000000000E+00 -0.12933995938E+04  0.12933995938E+04  0.50400001928E-02 0.  1.
    10030    2    1    2    0    0  0.00000000000E+00  0.00000000000E+00 -0.28363218241E+03  0.23031670052E+04  0.22856358063E+04 0.  0.
        1    1    3    3  502    0 -0.39408730145E+03 -0.10899939518E+03  0.93353704881E+03  0.10191550867E+04  0.50400001928E-02 0. -1.
       -1    1    3    3    0  502  0.39408730145E+03  0.10899939518E+03 -0.12171692312E+04  0.12840119185E+04  0.50400001928E-02 0.  1.
</event>
<event>
 5   0  0.6628798E-05  0.2199764E+04  0.7818609E-02  0.8518526E-01
        2   -1    0    0  501    0  0.00000000000E+00  0.00000000000E+00  0.14722215131E+04  0.14722215131E+04  0.25500000920E-02 0. -1.
       -2   -1    0    0    0  501  0.00000000000E+00  0.00000000000E+00 -0.82171075883E+03  0.82171075883E+03  0.25500000920E-02 0.  1.
    10030    2    1    2    0    0  0.00000000000E+00  0.00000000000E+00  0.65051075423E+03  0.22939322719E+04  0.21997638570E+04 0.  0.
        4    1    3    3  502    0 -0.10985646236E+02  0.10855073651E+04  0.50972261493E+03  0.11992771494E+04  0.12699999809E+01 0.  1.
       -4    1    3    3    0  502  0.10985646236E+02 -0.10855073651E+04  0.14078813930E+03  0.10946551225E+04  0.12699999809E+01 0. -1.
</event>
<event>
 5   0  0.2908031E-05  0.2204829E+04  0.7818609E-02  0.8516421E-01
       -1   -1    0    0    0  501  0.00000000000E+00  0.00000000000E+00  0.12199136696E+04  0.12199136696E+04  0.50400001928E-02 0. -1.
        1   -1    0    0  501    0  0.00000000000E+00  0.00000000000E+00 -0.99623282433E+03  0.99623282435E+03  0.50400001928E-02 0.  1.
    10030    2    1    2    0    0  0.00000000000E+00  0.00000000000E+00  0.22368084530E+03  0.22161464940E+04  0.22048292819E+04 0.  0.
        1    1    3    3  502    0 -0.47719427725E+03 -0.20318677163E+03  0.10896228565E+04  0.12067631133E+04  0.50400001928E-02 0. -1.
       -1    1    3    3    0  502  0.47719427725E+03  0.20318677163E+03 -0.86594201116E+03  0.10093833806E+04  0.50400001928E-02 0.  1.
</event>
<event>
 5   0  0.6628798E-05  0.2189904E+04  0.7818609E-02  0.8522642E-01
        2   -1    0    0  501    0  0.00000000000E+00  0.00000000000E+00  0.17593925110E+04  0.17593925110E+04  0.25500000920E-02 0.  1.
       -2   -1    0    0    0  501  0.00000000000E+00  0.00000000000E+00 -0.68143978342E+03  0.68143978342E+03  0.25500000920E-02 0. -1.
    10030    2    1    2    0    0  0.00000000000E+00  0.00000000000E+00  0.10779527276E+04  0.24408322945E+04  0.21899041547E+04 0.  0.
        4    1    3    3  502    0 -0.59005821636E+03 -0.25080252499E+03 -0.45033729653E+03  0.78350232851E+03  0.12699999809E+01 0. -1.
       -4    1    3    3    0  502  0.59005821636E+03  0.25080252499E+03  0.15282900242E+04  0.16573299660E+04  0.12699999809E+01 0.  1.
</event>
<event>
 5   0  0.6445740E-05  0.2208351E+04  0.7818609E-02  0.8514960E-01
       -2   -1    0    0    0  501  0.00000000000E+00  0.00000000000E+00  0.13105397465E+04  0.13105397465E+04  0.25500000920E-02 0. -1.
        2   -1    0    0  501    0  0.00000000000E+00  0.00000000000E+00 -0.93030654773E+03  0.93030654773E+03  0.25500000920E-02 0.  1.
    10030    2    1    2    0    0  0.00000000000E+00  0.00000000000E+00  0.38023319878E+03  0.22408462942E+04  0.22083511562E+04 0.  0.
        5    1    3    3  502    0  0.64104828697E+03 -0.41144939907E+03 -0.62098774531E+03  0.98279264550E+03  0.46999998093E+01 0.  1.
       -5    1    3    3    0  502 -0.64104828697E+03  0.41144939907E+03  0.10012209441E+04  0.12580536487E+04  0.46999998093E+01 0. -1.
</event>
<event>
 5   0  0.2753631E-05  0.2203272E+04  0.7818609E-02  0.8517068E-01
        1   -1    0    0  501    0  0.00000000000E+00  0.00000000000E+00  0.82049070444E+03  0.82049070446E+03  0.50400001928E-02 0.  1.
       -1   -1    0    0    0  501  0.00000000000E+00  0.00000000000E+00 -0.14791168473E+04  0.14791168473E+04  0.50400001928E-02 0. -1.
    10030    2    1    2    0    0  0.00000000000E+00  0.00000000000E+00 -0.65862614289E+03  0.22996075518E+04  0.22032717708E+04 0.  0.
        4    1    3    3  502    0  0.26685609463E+03  0.10579824157E+04 -0.48781156472E+03  0.11951990222E+04  0.12699999809E+01 0.  1.
       -4    1    3    3    0  502 -0.26685609463E+03 -0.10579824157E+04 -0.17081457818E+03  0.11044085296E+04  0.12699999809E+01 0. -1.
</event>
<event>
 5   0  0.6445740E-05  0.2208779E+04  0.7818609E-02  0.8514783E-01
       -2   -1    0    0    0  501  0.00000000000E+00  0.00000000000E+00  0.87842121951E+03  0.87842121951E+03  0.25500000920E-02 0. -1.
        2   -1    0    0  501    0  0.00000000000E+00  0.00000000000E+00 -0.13884869650E+04  0.13884869651E+04  0.25500000920E-02 0.  1.
    10030    2    1    2    0    0  0.00000000000E+00  0.00000000000E+00 -0.51006574554E+03  0.22669081846E+04  0.22087792222E+04 0.  0.
        5    1    3    3  502    0  0.29080965571E+02 -0.47662779773E+03  0.76698255083E+03  0.90349548057E+03  0.46999998093E+01 0. -1.
       -5    1    3    3    0  502 -0.29080965571E+02  0.47662779773E+03 -0.12770482964E+04  0.13634127040E+04  0.46999998093E+01 0.  1.
</event>
<event>
 5   0  0.2929471E-05  0.2206425E+04  0.7818609E-02  0.8515759E-01
       -1   -1    0    0    0  501  0.00000000000E+00  0.00000000000E+00  0.11203991240E+04  0.11203991240E+04  0.50400001928E-02 0. -1.
        1   -1    0    0  501    0  0.00000000000E+00  0.00000000000E+00 -0.10862893901E+04  0.10862893901E+04  0.50400001928E-02 0.  1.
    10030    2    1    2    0    0  0.00000000000E+00  0.00000000000E+00  0.34109733871E+02  0.22066885141E+04  0.22064248740E+04 0.  0.
        2    1    3    3  502    0 -0.57519672374E+03  0.71432433326E+03 -0.59618000579E+03  0.10938652218E+04  0.25500000920E-02 0.  1.
       -2    1    3    3    0  502  0.57519672374E+03 -0.71432433326E+03  0.63028973966E+03  0.11128232924E+04  0.25500000920E-02 0. -1.
</event>
<event>
 5   0  0.6414768E-05  0.2188591E+04  0.7818609E-02  0.8523192E-01
        2   -1    0    0  501    0  0.00000000000E+00  0.00000000000E+00  0.21842145869E+04  0.21842145869E+04  0.25500000920E-02 0. -1.
       -2   -1    0    0    0  501  0.00000000000E+00  0.00000000000E+00 -0.54824417889E+03  0.54824417889E+03  0.25500000920E-02 0.  1.
    10030    2    1    2    0    0  0.00000000000E+00  0.00000000000E+00  0.16359704080E+04  0.27324587658E+04  0.21885912663E+04 0.  0.
        2    1    3    3  502    0  0.62618652446E+03 -0.54518196630E+03  0.17079747740E+04  0.18990815592E+04  0.25500000920E-02 0. -1.
       -2    1    3    3    0  502 -0.62618652446E+03  0.54518196630E+03 -0.72004365977E+02  0.83337720662E+03  0.25500000920E-02 0.  1.
</event>
<event>
 5   0  0.2910318E-05  0.2175038E+04  0.7818609E-02  0.8528890E-01
        1   -1    0    0  501    0  0.00000000000E+00  0.00000000000E+00  0.22255266657E+04  0.22255266657E+04  0.50400001928E-02 0.  1.
       -1   -1    0    0    0  501  0.00000000000E+00  0.00000000000E+00 -0.53142344687E+03  0.53142344690E+03  0.50400001928E-02 0. -1.
    10030    2    1    2    0    0  0.00000000000E+00  0.00000000000E+00  0.16941032188E+04  0.27569501126E+04  0.21750375186E+04 0.  0.
        5    1    3    3  502    0  0.72985931830E+03  0.42400504069E+03 -0.22115925428E+02  0.84438504439E+03  0.46999998093E+01 0. -1.
       -5    1    3    3    0  502 -0.72985931830E+03 -0.42400504069E+03  0.17162191442E+04  0.19125650682E+04  0.46999998093E+01 0.  1.
</event>
</LesHouchesEvents>
