<LesHouchesEvents version="3.0">
<header>
<!--
#*********************************************************************
#                                                                    *
#                        MadGraph5_aMC@NLO                           *
#                                                                    *
#                           Going Beyond                             *
#                                                                    *
#                   http://madgraph.hep.uiuc.edu                     *
#                   http://madgraph.phys.ucl.ac.be                   *
#                   http://amcatnlo.cern.ch                          *
#                                                                    *
#                     The MadGraph5_aMC@NLO team                     *
#                                                                    *
#....................................................................*
#                                                                    *
# This file contains all the information necessary to reproduce      *
# the events generated:                                              *
#                                                                    *
# 1. software version                                                *
# 2. proc_card          : code generation info including model       *
# 3. param_card         : model primary parameters in the LH format  *
# 4. run_card           : running parameters (collider and cuts)     *
# 5. pythia_card        : present only if pythia has been run        *
# 6. pgs_card           : present only if pgs has been run           *
# 7. delphes_cards      : present only if delphes has been run       *
#                                                                    *
#                                                                    *
#*********************************************************************
-->
<MGVersion>
#5.2.2.3
</MGVersion>
<MG5ProcCard>
#************************************************************
#*                     MadGraph5_aMC@NLO                    *
#*                                                          *
#*                *                       *                 *
#*                  *        * *        *                   *
#*                    * * * * 5 * * * *                     *
#*                  *        * *        *                   *
#*                *                       *                 *
#*                                                          *
#*                                                          *
#*         VERSION 2.2.3                 2015-02-10         *
#*                                                          *
#*    The MadGraph5_aMC@NLO Development Team - Find us at   *
#*    https://server06.fynu.ucl.ac.be/projects/madgraph     *
#*                                                          *
#************************************************************
#*                                                          *
#*               Command File for MadGraph5_aMC@NLO         *
#*                                                          *
#*     run as ./bin/mg5_aMC  filename                       *
#*                                                          *
#************************************************************
set group_subprocesses Auto
set ignore_six_quark_processes False
set loop_optimized_output True
set gauge unitary
set complex_mass_scheme False
import model sm
define p = g u c d s u~ c~ d~ s~
define j = g u c d s u~ c~ d~ s~
define l+ = e+ mu+
define l- = e- mu-
define vl = ve vm vt
define vl~ = ve~ vm~ vt~
import model Zprime_UFO
generate p p > zph, zph > j j
add process p p > zph, zph > b b~
output Dijet_signal
</MG5ProcCard>
<MGProcCard>
#*********************************************************************
#                        MadGraph/MadEvent                           *
#                   http://madgraph.hep.uiuc.edu                     *
#                                                                    *
#                          proc_card.dat                             *
#*********************************************************************
#                                                                    *
#            This Files is generated by MADGRAPH 5                   *
#                                                                    *
# WARNING: This Files is generated for MADEVENT (compatibility issue)*
#          This files is NOT a valid MG4 proc_card.dat               *
#          Running this in MG4 will NEVER reproduce the result of MG5*
#                                                                    *
#*********************************************************************
#*********************************************************************
# Process(es) requested : mg2 input                                  *
#*********************************************************************
# Begin PROCESS # This is TAG. Do not modify this line
p p > zph , zph > j j           #Process
# Be carefull the coupling are here in MG5 convention
          
end_coup           # End the couplings input

done               # this tells MG there are no more procs
# End PROCESS  # This is TAG. Do not modify this line
#*********************************************************************
# Model information                                                  *
#*********************************************************************
# Begin MODEL  # This is TAG. Do not modify this line
Zprime_UFO
# End   MODEL  # This is TAG. Do not modify this line
#*********************************************************************
# Start multiparticle definitions                                    *
#*********************************************************************
# Begin MULTIPARTICLES # This is TAG. Do not modify this line

# End  MULTIPARTICLES # This is TAG. Do not modify this line
</MGProcCard>
<MGRunCard>
#*********************************************************************
#                       MadGraph5_aMC@NLO                            *
#                                                                    *
#                     run_card.dat MadEvent                          *
#                                                                    *
#  This file is used to set the parameters of the run.               *
#                                                                    *
#  Some notation/conventions:                                        *
#                                                                    *
#   Lines starting with a '# ' are info or comments                  *
#                                                                    *
#   mind the format:   value    = variable     ! comment             *
#*********************************************************************
#
#*******************                                                 
# Running parameters
#*******************                                                 
#                                                                    
#*********************************************************************
# Tag name for the run (one word)                                    *
#*********************************************************************
  tag_1     = run_tag ! name of the run 
#*********************************************************************
# Run to generate the grid pack                                      *
#*********************************************************************
  .false.     = gridpack  !True = setting up the grid pack
#*********************************************************************
# Number of events and rnd seed                                      *
# Warning: Do not generate more than 1M events in a single run       *
# If you want to run Pythia, avoid more than 50k events in a run.    *
#*********************************************************************
  2000 = nevents ! Number of unweighted events requested 
 1578 = iseed   ! rnd seed (0=assigned automatically=default))
#*********************************************************************
# Collider type and energy                                           *
# lpp: 0=No PDF, 1=proton, -1=antiproton, 2=photon from proton,      *
#                                         3=photon from electron     *
#*********************************************************************
        1     = lpp1    ! beam 1 type 
        1     = lpp2    ! beam 2 type
     4000     = ebeam1  ! beam 1 total energy in GeV
     4000     = ebeam2  ! beam 2 total energy in GeV
#*********************************************************************
# Beam polarization from -100 (left-handed) to 100 (right-handed)    *
#*********************************************************************
        0     = polbeam1 ! beam polarization for beam 1
        0     = polbeam2 ! beam polarization for beam 2
#*********************************************************************
# PDF CHOICE: this automatically fixes also alpha_s and its evol.    *
#*********************************************************************
 'nn23lo1'    = pdlabel     ! PDF set                                     
 230000    = lhaid     ! if pdlabel=lhapdf, this is the lhapdf number
#*********************************************************************
# Renormalization and factorization scales                           *
#*********************************************************************
 F        = fixed_ren_scale  ! if .true. use fixed ren scale
 F        = fixed_fac_scale  ! if .true. use fixed fac scale
 91.1880  = scale            ! fixed ren scale
 91.1880  = dsqrt_q2fact1    ! fixed fact scale for pdf1
 91.1880  = dsqrt_q2fact2    ! fixed fact scale for pdf2
 1        = scalefact        ! scale factor for event-by-event scales
#*********************************************************************
# Matching - Warning! ickkw > 1 is still beta
#*********************************************************************
 0        = ickkw            ! 0 no matching, 1 MLM, 2 CKKW matching
 1        = highestmult      ! for ickkw=2, highest mult group
 1        = ktscheme         ! for ickkw=1, 1 Durham kT, 2 Pythia pTE
 1        = alpsfact         ! scale factor for QCD emission vx
 F        = chcluster        ! cluster only according to channel diag
 T        = pdfwgt           ! for ickkw=1, perform pdf reweighting
 5        = asrwgtflavor     ! highest quark flavor for a_s reweight
 T        = clusinfo         ! include clustering tag in output
 3.0      = lhe_version       ! Change the way clustering information pass to shower.        
#*********************************************************************
#**********************************************************
#
#**********************************************************
# Automatic ptj and mjj cuts if xqcut > 0
# (turn off for VBF and single top processes)
#**********************************************************
   T  = auto_ptj_mjj  ! Automatic setting of ptj and mjj
#**********************************************************
#                                                                    
#**********************************
# BW cutoff (M+/-bwcutoff*Gamma)
#**********************************
  15  = bwcutoff      ! (M+/-bwcutoff*Gamma)
#**********************************************************
# Apply pt/E/eta/dr/mij cuts on decay products or not
# (note that etmiss/ptll/ptheavy/ht/sorted cuts always apply)
#**********************************************************
   T  = cut_decays    ! Cut decay products 
#*************************************************************
# Number of helicities to sum per event (0 = all helicities)
# 0 gives more stable result, but longer run time (needed for
# long decay chains e.g.).
# Use >=2 if most helicities contribute, e.g. pure QCD.
#*************************************************************
   0  = nhel          ! Number of helicities used per event
#*******************                                                 
# Standard Cuts
#*******************                                                 
#                                                                    
#*********************************************************************
# Minimum and maximum pt's (for max, -1 means no cut)                *
#*********************************************************************
 20  = ptj       ! minimum pt for the jets 
  0  = ptb       ! minimum pt for the b 
 10  = pta       ! minimum pt for the photons 
 10  = ptl       ! minimum pt for the charged leptons 
  0  = misset    ! minimum missing Et (sum of neutrino's momenta)
  0  = ptheavy   ! minimum pt for one heavy final state
 1.0 = ptonium   ! minimum pt for the quarkonium states
 -1  = ptjmax    ! maximum pt for the jets
 -1  = ptbmax    ! maximum pt for the b
 -1  = ptamax    ! maximum pt for the photons
 -1  = ptlmax    ! maximum pt for the charged leptons
 -1  = missetmax ! maximum missing Et (sum of neutrino's momenta)
#*********************************************************************
# Minimum and maximum E's (in the center of mass frame)              *
#*********************************************************************
  0  = ej     ! minimum E for the jets 
  0  = eb     ! minimum E for the b 
  0  = ea     ! minimum E for the photons 
  0  = el     ! minimum E for the charged leptons 
 -1   = ejmax ! maximum E for the jets
 -1   = ebmax ! maximum E for the b
 -1   = eamax ! maximum E for the photons
 -1   = elmax ! maximum E for the charged leptons
#*********************************************************************
# Maximum and minimum absolute rapidity (for max, -1 means no cut)   *
#*********************************************************************
   5  = etaj    ! max rap for the jets 
  -1  = etab    ! max rap for the b
 2.5  = etaa    ! max rap for the photons 
 2.5  = etal    ! max rap for the charged leptons 
 0.6  = etaonium ! max rap for the quarkonium states
   0  = etajmin ! min rap for the jets
   0  = etabmin ! min rap for the b
   0  = etaamin ! min rap for the photons
   0  = etalmin ! main rap for the charged leptons
#*********************************************************************
# Minimum and maximum DeltaR distance                                *
#*********************************************************************
 0.4 = drjj    ! min distance between jets 
 0   = drbb    ! min distance between b's 
 0.4 = drll    ! min distance between leptons 
 0.4 = draa    ! min distance between gammas 
 0   = drbj    ! min distance between b and jet 
 0.4 = draj    ! min distance between gamma and jet 
 0.4 = drjl    ! min distance between jet and lepton 
 0   = drab    ! min distance between gamma and b 
 0   = drbl    ! min distance between b and lepton 
 0.4 = dral    ! min distance between gamma and lepton 
 -1  = drjjmax ! max distance between jets
 -1  = drbbmax ! max distance between b's
 -1  = drllmax ! max distance between leptons
 -1  = draamax ! max distance between gammas
 -1  = drbjmax ! max distance between b and jet
 -1  = drajmax ! max distance between gamma and jet
 -1  = drjlmax ! max distance between jet and lepton
 -1  = drabmax ! max distance between gamma and b
 -1  = drblmax ! max distance between b and lepton
 -1  = dralmax ! maxdistance between gamma and lepton
#*********************************************************************
# Minimum and maximum invariant mass for pairs                       *
# WARNING: for four lepton final state mmll cut require to have      *
#          different lepton masses for each flavor!                  *           
#*********************************************************************
 0   = mmjj    ! min invariant mass of a jet pair 
 0   = mmbb    ! min invariant mass of a b pair 
 0   = mmaa    ! min invariant mass of gamma gamma pair
 0   = mmll    ! min invariant mass of l+l- (same flavour) lepton pair
 -1  = mmjjmax ! max invariant mass of a jet pair
 -1  = mmbbmax ! max invariant mass of a b pair
 -1  = mmaamax ! max invariant mass of gamma gamma pair
 -1  = mmllmax ! max invariant mass of l+l- (same flavour) lepton pair
#*********************************************************************
# Minimum and maximum invariant mass for all letpons                 *
#*********************************************************************
 0   = mmnl    ! min invariant mass for all letpons (l+- and vl) 
 -1  = mmnlmax ! max invariant mass for all letpons (l+- and vl) 
#*********************************************************************
# Minimum and maximum pt for 4-momenta sum of leptons                *
#*********************************************************************
 0   = ptllmin  ! Minimum pt for 4-momenta sum of leptons(l and vl)
 -1  = ptllmax  ! Maximum pt for 4-momenta sum of leptons(l and vl)
#*********************************************************************
# Inclusive cuts                                                     *
#*********************************************************************
 0  = xptj ! minimum pt for at least one jet  
 0  = xptb ! minimum pt for at least one b 
 0  = xpta ! minimum pt for at least one photon 
 0  = xptl ! minimum pt for at least one charged lepton 
#*********************************************************************
# Control the pt's of the jets sorted by pt                          *
#*********************************************************************
 0   = ptj1min ! minimum pt for the leading jet in pt
 0   = ptj2min ! minimum pt for the second jet in pt
 0   = ptj3min ! minimum pt for the third jet in pt
 0   = ptj4min ! minimum pt for the fourth jet in pt
 -1  = ptj1max ! maximum pt for the leading jet in pt 
 -1  = ptj2max ! maximum pt for the second jet in pt
 -1  = ptj3max ! maximum pt for the third jet in pt
 -1  = ptj4max ! maximum pt for the fourth jet in pt
 0   = cutuse  ! reject event if fails any (0) / all (1) jet pt cuts
#*********************************************************************
# Control the pt's of leptons sorted by pt                           *
#*********************************************************************
 0   = ptl1min ! minimum pt for the leading lepton in pt
 0   = ptl2min ! minimum pt for the second lepton in pt
 0   = ptl3min ! minimum pt for the third lepton in pt
 0   = ptl4min ! minimum pt for the fourth lepton in pt
 -1  = ptl1max ! maximum pt for the leading lepton in pt 
 -1  = ptl2max ! maximum pt for the second lepton in pt
 -1  = ptl3max ! maximum pt for the third lepton in pt
 -1  = ptl4max ! maximum pt for the fourth lepton in pt
#*********************************************************************
# Control the Ht(k)=Sum of k leading jets                            *
#*********************************************************************
 0   = htjmin ! minimum jet HT=Sum(jet pt)
 -1  = htjmax ! maximum jet HT=Sum(jet pt)
 0   = ihtmin  !inclusive Ht for all partons (including b)
 -1  = ihtmax  !inclusive Ht for all partons (including b)
 0   = ht2min ! minimum Ht for the two leading jets
 0   = ht3min ! minimum Ht for the three leading jets
 0   = ht4min ! minimum Ht for the four leading jets
 -1  = ht2max ! maximum Ht for the two leading jets
 -1  = ht3max ! maximum Ht for the three leading jets
 -1  = ht4max ! maximum Ht for the four leading jets
#***********************************************************************
# Photon-isolation cuts, according to hep-ph/9801442                   *
# When ptgmin=0, all the other parameters are ignored                  *
# When ptgmin>0, pta and draj are not going to be used                 *
#***********************************************************************
   0 = ptgmin ! Min photon transverse momentum
 0.4 = R0gamma ! Radius of isolation code
 1.0 = xn ! n parameter of eq.(3.4) in hep-ph/9801442
 1.0 = epsgamma ! epsilon_gamma parameter of eq.(3.4) in hep-ph/9801442
 .true. = isoEM ! isolate photons from EM energy (photons and leptons)
#*********************************************************************
# WBF cuts                                                           *
#*********************************************************************
 0   = xetamin ! minimum rapidity for two jets in the WBF case  
 0   = deltaeta ! minimum rapidity for two jets in the WBF case 
#*********************************************************************
# KT DURHAM CUT                                                      *
#*********************************************************************
 -1    =  ktdurham        
 0.4  =  dparameter 
#*********************************************************************
# maximal pdg code for quark to be considered as a light jet         *
# (otherwise b cuts are applied)                                     *
#*********************************************************************
 4 = maxjetflavor    ! Maximum jet pdg code
#*********************************************************************
# Jet measure cuts                                                   *
#*********************************************************************
 0   = xqcut   ! minimum kt jet measure between partons
#*********************************************************************
#
#*********************************************************************
# Store info for systematics studies                                 *
# WARNING: If use_syst is T, matched Pythia output is                *
#          meaningful ONLY if plotted taking matchscale              *
#          reweighting into account!                                 *
#*********************************************************************
   F  = use_syst      ! Enable systematics studies
#
#**************************************
# Parameter of the systematics study
#  will be used by SysCalc (if installed)
#**************************************                                  
#
0.5 1 2 = sys_scalefact  # factorization/renormalization scale factor
0.5 1 2 = sys_alpsfact  # \alpha_s emission scale factors
30 50 = sys_matchscale # variation of merging scale
# PDF sets and number of members (0 or none for all members).
CT10nlo.LHgrid = sys_pdf # matching scales
# MSTW2008nlo68cl.LHgrid 1  = sys_pdf
</MGRunCard>
<slha>
######################################################################
## PARAM_CARD AUTOMATICALY GENERATED BY MG5 FOLLOWING UFO MODEL   ####
######################################################################
##                                                                  ##
##  Width set on Auto will be computed following the information    ##
##        present in the decay.py files of the model.               ##
##        See  arXiv:1402.1178 for more details.                    ##
##                                                                  ##
######################################################################

###################################
## INFORMATION FOR CKMBLOCK
###################################
Block ckmblock 
    1 2.277360e-01 # cabi 

###################################
## INFORMATION FOR FRBLOCK
###################################
Block frblock 
    1 8.000000e-01 # gz 

###################################
## INFORMATION FOR MASS
###################################
Block mass 
    1 5.040000e-03 # MD 
    2 2.550000e-03 # MU 
    3 1.010000e-01 # MS 
    4 1.270000e+00 # MC 
    5 4.700000e+00 # MB 
    6 1.720000e+02 # MT 
   11 5.110000e-04 # Me 
   13 1.056600e-01 # MM 
   15 1.777000e+00 # MTA 
   23 9.118760e+01 # MZ 
   25 1.200000e+02 # MH 
  10030 1.700000e+03 # MZph 
  10031 3.000000e+02 # MZpl 
## Dependent parameters, given by model restrictions.
## Those values should be edited following the 
## analytical expression. MG5 ignores those values 
## but they are important for interfacing the output of MG5
## to external program such as Pythia.
  12 0.000000 # ve : 0.0 
  14 0.000000 # vm : 0.0 
  16 0.000000 # vt : 0.0 
  21 0.000000 # g : 0.0 
  22 0.000000 # a : 0.0 
  24 79.824360 # w+ : cmath.sqrt(MZ__exp__2/2. + cmath.sqrt(MZ__exp__4/4. - (aEW*cmath.pi*MZ__exp__2)/(Gf*sqrt__2))) 

###################################
## INFORMATION FOR SMINPUTS
###################################
Block sminputs 
    1 1.279000e+02 # aEWM1 
    2 1.166370e-05 # Gf 
    3 1.184000e-01 # aS 

###################################
## INFORMATION FOR YUKAWA
###################################
Block yukawa 
    1 5.040000e-03 # ymdo 
    2 2.550000e-03 # ymup 
    3 1.010000e-01 # yms 
    4 1.270000e+00 # ymc 
    5 4.700000e+00 # ymb 
    6 1.720000e+02 # ymt 
   11 5.110000e-04 # yme 
   13 1.056600e-01 # ymm 
   15 1.777000e+00 # ymtau 

###################################
## INFORMATION FOR DECAY
###################################
DECAY   6 1.508336e+00 # WT 
DECAY  23 2.495200e+00 # WZ 
DECAY  24 2.085000e+00 # WW 
DECAY  25 5.753088e-03 # WH 
## Dependent parameters, given by model restrictions.
## Those values should be edited following the 
## analytical expression. MG5 ignores those values 
## but they are important for interfacing the output of MG5
## to external program such as Pythia.
DECAY  1 0.000000 # d : 0.0 
DECAY  2 0.000000 # u : 0.0 
DECAY  3 0.000000 # s : 0.0 
DECAY  4 0.000000 # c : 0.0 
DECAY  5 0.000000 # b : 0.0 
DECAY  11 0.000000 # e- : 0.0 
DECAY  12 0.000000 # ve : 0.0 
DECAY  13 0.000000 # mu- : 0.0 
DECAY  14 0.000000 # vm : 0.0 
DECAY  15 0.000000 # ta- : 0.0 
DECAY  16 0.000000 # vt : 0.0 
DECAY  21 0.000000 # g : 0.0 
DECAY  22 0.000000 # a : 0.0 
DECAY  10030 0.308725 # zph : (gz__exp__2*MZph*(5 + cmath.sqrt(1 - (4*MT__exp__2)/MZph__exp__2)))/(144.*cmath.pi) 
DECAY  10031 0.132629 # zpl : (5*gz__exp__2*MZpl)/(144.*cmath.pi) 
#===========================================================
# QUANTUM NUMBERS OF NEW STATE(S) (NON SM PDG CODE)
#===========================================================

Block QNUMBERS 10030  # zph 
        1 0  # 3 times electric charge
        2 3  # number of spin states (2S+1)
        3 1  # colour rep (1: singlet, 3: triplet, 8: octet)
        4 0  # Particle/Antiparticle distinction (0=own anti)
Block QNUMBERS 10031  # zpl 
        1 0  # 3 times electric charge
        2 3  # number of spin states (2S+1)
        3 1  # colour rep (1: singlet, 3: triplet, 8: octet)
        4 0  # Particle/Antiparticle distinction (0=own anti)
</slha>
## END BANNER##
<MGGenerationInfo>
#  Number of Events        :         3945
#  Integrated weight (pb)  :  0.66982E-01
#  Max wgt                 :  0.23568E-04
#  Average wgt             :  0.16979E-04
</MGGenerationInfo>
</header>
<init>
     2212     2212  0.40000000000E+04  0.40000000000E+04 0 0  247000  247000 2   1
  0.67033469910E-01  0.13860642535E-03  0.23568290000E-04   0
</init>
<event>
 5   0  0.2234723E-04  0.1701976E+04  0.7818609E-02  0.8760238E-01
       -2   -1    0    0    0  501  0.00000000000E+00  0.00000000000E+00  0.12295605739E+04  0.12295605739E+04  0.25500000920E-02 0.  1.
        2   -1    0    0  501    0  0.00000000000E+00  0.00000000000E+00 -0.58897534120E+03  0.58897534121E+03  0.25500000920E-02 0. -1.
    10030    2    1    2    0    0  0.00000000000E+00  0.00000000000E+00  0.64058523265E+03  0.18185359151E+04  0.17019763318E+04 0.  0.
        1    1    3    3  502    0 -0.36352033279E+03 -0.65624633231E+03  0.74951852161E+03  0.10604641886E+04  0.50400001928E-02 0.  1.
       -1    1    3    3    0  502  0.36352033279E+03  0.65624633231E+03 -0.10893328896E+03  0.75807172648E+03  0.50400001928E-02 0. -1.
</event>
<event>
 5   0  0.2234723E-04  0.1688135E+04  0.7818609E-02  0.8768161E-01
        2   -1    0    0  501    0  0.00000000000E+00  0.00000000000E+00  0.62922713270E+03  0.62922713271E+03  0.25500000920E-02 0. -1.
       -2   -1    0    0    0  501  0.00000000000E+00  0.00000000000E+00 -0.11322612980E+04  0.11322612980E+04  0.25500000920E-02 0.  1.
    10030    2    1    2    0    0  0.00000000000E+00  0.00000000000E+00 -0.50303416533E+03  0.17614884307E+04  0.16881345089E+04 0.  0.
        1    1    3    3  502    0 -0.14190509783E+03 -0.75202161143E+03  0.12001063268E+03  0.77464579830E+03  0.50400001928E-02 0. -1.
       -1    1    3    3    0  502  0.14190509783E+03  0.75202161143E+03 -0.62304479801E+03  0.98684263244E+03  0.50400001928E-02 0.  1.
</event>
<event>
 5   0  0.2288806E-04  0.1699661E+04  0.7818609E-02  0.8761558E-01
       -2   -1    0    0    0  501  0.00000000000E+00  0.00000000000E+00  0.67172772212E+03  0.67172772213E+03  0.25500000920E-02 0.  1.
        2   -1    0    0  501    0  0.00000000000E+00  0.00000000000E+00 -0.10751559839E+04  0.10751559839E+04  0.25500000920E-02 0. -1.
    10030    2    1    2    0    0  0.00000000000E+00  0.00000000000E+00 -0.40342826180E+03  0.17468837061E+04  0.16996612368E+04 0.  0.
        3    1    3    3  502    0 -0.69903116919E+02 -0.37915218970E+03 -0.98009929689E+03  0.10532034327E+04  0.10100000352E+00 0. -1.
       -3    1    3    3    0  502  0.69903116919E+02  0.37915218970E+03  0.57667103509E+03  0.69368027334E+03  0.10100000352E+00 0.  1.
</event>
<event>
 5   0  0.2234723E-04  0.1704855E+04  0.7818609E-02  0.8758600E-01
       -2   -1    0    0    0  501  0.00000000000E+00  0.00000000000E+00  0.46231051755E+03  0.46231051756E+03  0.25500000920E-02 0.  1.
        2   -1    0    0  501    0  0.00000000000E+00  0.00000000000E+00 -0.15717421268E+04  0.15717421268E+04  0.25500000920E-02 0. -1.
    10030    2    1    2    0    0  0.00000000000E+00  0.00000000000E+00 -0.11094316093E+04  0.20340526444E+04  0.17048553207E+04 0.  0.
        1    1    3    3  502    0  0.54105437252E+02 -0.15795090377E+03  0.44261160432E+03  0.47305487910E+03  0.50400001928E-02 0.  1.
       -1    1    3    3    0  502 -0.54105437252E+02  0.15795090377E+03 -0.15520432136E+04  0.15609977653E+04  0.50400001928E-02 0. -1.
</event>
<event>
 5   0  0.2288806E-04  0.1710501E+04  0.7818609E-02  0.8755398E-01
       -2   -1    0    0    0  501  0.00000000000E+00  0.00000000000E+00  0.83336316245E+03  0.83336316246E+03  0.25500000920E-02 0. -1.
        2   -1    0    0  501    0  0.00000000000E+00  0.00000000000E+00 -0.87771297040E+03  0.87771297040E+03  0.25500000920E-02 0.  1.
    10030    2    1    2    0    0  0.00000000000E+00  0.00000000000E+00 -0.44349807942E+02  0.17110761329E+04  0.17105012794E+04 0.  0.
        3    1    3    3  502    0 -0.11215007460E+03  0.72105044638E+02  0.82290298925E+03  0.83363428229E+03  0.10100000352E+00 0. -1.
       -3    1    3    3    0  502  0.11215007460E+03 -0.72105044638E+02 -0.86725279719E+03  0.87744185057E+03  0.10100000352E+00 0.  1.
</event>
<event>
 5   0  0.1204741E-04  0.1703949E+04  0.7818609E-02  0.8759115E-01
       -1   -1    0    0    0  501  0.00000000000E+00  0.00000000000E+00  0.46202393482E+03  0.46202393485E+03  0.50400001928E-02 0.  1.
        1   -1    0    0  501    0  0.00000000000E+00  0.00000000000E+00 -0.15710447960E+04  0.15710447960E+04  0.50400001928E-02 0. -1.
    10030    2    1    2    0    0  0.00000000000E+00  0.00000000000E+00 -0.11090208612E+04  0.20330687308E+04  0.17039487063E+04 0.  0.
        1    1    3    3  502    0  0.62825491992E+03  0.19393835110E+03  0.91935380280E+02  0.66390394079E+03  0.50400001928E-02 0.  1.
       -1    1    3    3    0  502 -0.62825491992E+03 -0.19393835110E+03 -0.12009562414E+04  0.13691647900E+04  0.50400001928E-02 0. -1.
</event>
<event>
 5   0  0.1186302E-04  0.1709174E+04  0.7818609E-02  0.8756149E-01
       -1   -1    0    0    0  501  0.00000000000E+00  0.00000000000E+00  0.51082593100E+03  0.51082593103E+03  0.50400001928E-02 0.  1.
        1   -1    0    0  501    0  0.00000000000E+00  0.00000000000E+00 -0.14296824808E+04  0.14296824808E+04  0.50400001928E-02 0. -1.
    10030    2    1    2    0    0  0.00000000000E+00  0.00000000000E+00 -0.91885654978E+03  0.19405084118E+04  0.17091739342E+04 0.  0.
        3    1    3    3  502    0 -0.26196530243E+03 -0.58647899153E+03 -0.10994019393E+04  0.12732902503E+04  0.10100000352E+00 0. -1.
       -3    1    3    3    0  502  0.26196530243E+03  0.58647899153E+03  0.18054538952E+03  0.66721816152E+03  0.10100000352E+00 0.  1.
</event>
<event>
 5   0  0.2234723E-04  0.1709474E+04  0.7818609E-02  0.8755979E-01
       -2   -1    0    0    0  501  0.00000000000E+00  0.00000000000E+00  0.76084460003E+03  0.76084460003E+03  0.25500000920E-02 0. -1.
        2   -1    0    0  501    0  0.00000000000E+00  0.00000000000E+00 -0.96021621860E+03  0.96021621860E+03  0.25500000920E-02 0.  1.
    10030    2    1    2    0    0  0.00000000000E+00  0.00000000000E+00 -0.19937161857E+03  0.17210608186E+04  0.17094739832E+04 0.  0.
        1    1    3    3  502    0  0.45892223512E+02 -0.83586815890E+03 -0.27346412128E+03  0.88066128613E+03  0.50400001928E-02 0. -1.
       -1    1    3    3    0  502 -0.45892223512E+02  0.83586815890E+03  0.74092502715E+02  0.84039953250E+03  0.50400001928E-02 0.  1.
</event>
<event>
 5   0  0.1215233E-04  0.1702660E+04  0.7818609E-02  0.8759849E-01
       -1   -1    0    0    0  501  0.00000000000E+00  0.00000000000E+00  0.55028627890E+03  0.55028627892E+03  0.50400001928E-02 0.  1.
        1   -1    0    0  501    0  0.00000000000E+00  0.00000000000E+00 -0.13170654533E+04  0.13170654533E+04  0.50400001928E-02 0. -1.
    10030    2    1    2    0    0  0.00000000000E+00  0.00000000000E+00 -0.76677917438E+03  0.18673517322E+04  0.17026603271E+04 0.  0.
        2    1    3    3  502    0  0.13575043481E+02 -0.83709298553E+03 -0.55277640997E+03  0.10032301369E+04  0.25500000920E-02 0.  1.
       -2    1    3    3    0  502 -0.13575043481E+02  0.83709298553E+03 -0.21400276440E+03  0.86412159527E+03  0.25500000920E-02 0. -1.
</event>
<event>
 5   0  0.2234723E-04  0.1702015E+04  0.7818609E-02  0.8760216E-01
       -2   -1    0    0    0  501  0.00000000000E+00  0.00000000000E+00  0.80541709184E+03  0.80541709185E+03  0.25500000920E-02 0.  1.
        2   -1    0    0  501    0  0.00000000000E+00  0.00000000000E+00 -0.89917832296E+03  0.89917832297E+03  0.25500000920E-02 0. -1.
    10030    2    1    2    0    0  0.00000000000E+00  0.00000000000E+00 -0.93761231121E+02  0.17045954148E+04  0.17020147942E+04 0.  0.
        1    1    3    3  502    0 -0.28607581292E+03 -0.15638549488E+03 -0.83414995279E+03  0.89560143898E+03  0.50400001928E-02 0. -1.
       -1    1    3    3    0  502  0.28607581292E+03  0.15638549488E+03  0.74038872166E+03  0.80899397584E+03  0.50400001928E-02 0.  1.
</event>
<event>
 5   0  0.8372750E-05  0.1679525E+04  0.7818609E-02  0.8773129E-01
        4   -1    0    0  501    0  0.00000000000E+00  0.00000000000E+00  0.78831043977E+03  0.78831146278E+03  0.12699999809E+01 0.  1.
       -4   -1    0    0    0  501  0.00000000000E+00  0.00000000000E+00 -0.89457047663E+03  0.89457137812E+03  0.12699999809E+01 0. -1.
    10030    2    1    2    0    0  0.00000000000E+00  0.00000000000E+00 -0.10626003685E+03  0.16828828409E+04  0.16795247723E+04 0.  0.
        4    1    3    3  502    0  0.37464674659E+02 -0.65707699841E+03  0.46949261814E+03  0.80844215320E+03  0.12699999809E+01 0.  1.
       -4    1    3    3    0  502 -0.37464674659E+02  0.65707699841E+03 -0.57575265499E+03  0.87444068770E+03  0.12699999809E+01 0. -1.
</event>
<event>
 5   0  0.2356829E-04  0.1698521E+04  0.7818609E-02  0.8762208E-01
       -2   -1    0    0    0  501  0.00000000000E+00  0.00000000000E+00  0.96085116013E+03  0.96085116014E+03  0.25500000920E-02 0. -1.
        2   -1    0    0  501    0  0.00000000000E+00  0.00000000000E+00 -0.75063004159E+03  0.75063004159E+03  0.25500000920E-02 0.  1.
    10030    2    1    2    0    0  0.00000000000E+00  0.00000000000E+00  0.21022111855E+03  0.17114812017E+04  0.16985214115E+04 0.  0.
        5    1    3    3  502    0 -0.27474947626E+03  0.67553369913E+03  0.54361907092E+03  0.90960257125E+03  0.46999998093E+01 0. -1.
       -5    1    3    3    0  502  0.27474947626E+03 -0.67553369913E+03 -0.33339795238E+03  0.80187863047E+03  0.46999998093E+01 0.  1.
</event>
<event>
 5   0  0.1234158E-04  0.1750950E+04  0.7818609E-02  0.8732828E-01
       -1   -1    0    0    0  501  0.00000000000E+00  0.00000000000E+00  0.84672202316E+03  0.84672202318E+03  0.50400001928E-02 0.  1.
        1   -1    0    0  501    0  0.00000000000E+00  0.00000000000E+00 -0.90520417743E+03  0.90520417744E+03  0.50400001928E-02 0. -1.
    10030    2    1    2    0    0  0.00000000000E+00  0.00000000000E+00 -0.58482154267E+02  0.17519262006E+04  0.17509498137E+04 0.  0.
        5    1    3    3  502    0 -0.77510400870E+02  0.16214110439E+03 -0.88653659680E+03  0.90458102315E+03  0.46999998093E+01 0. -1.
       -5    1    3    3    0  502  0.77510400870E+02 -0.16214110439E+03  0.82805444254E+03  0.84734517747E+03  0.46999998093E+01 0.  1.
</event>
<event>
 5   0  0.1204741E-04  0.1691341E+04  0.7818609E-02  0.8766318E-01
       -1   -1    0    0    0  501  0.00000000000E+00  0.00000000000E+00  0.12396548935E+04  0.12396548935E+04  0.50400001928E-02 0.  1.
        1   -1    0    0  501    0  0.00000000000E+00  0.00000000000E+00 -0.57690154085E+03  0.57690154087E+03  0.50400001928E-02 0. -1.
    10030    2    1    2    0    0  0.00000000000E+00  0.00000000000E+00  0.66275335268E+03  0.18165564344E+04  0.16913412645E+04 0.  0.
        1    1    3    3  502    0  0.25965283510E+03 -0.40943786504E+03 -0.41281265314E+03  0.63676781225E+03  0.50400001928E-02 0. -1.
       -1    1    3    3    0  502 -0.25965283510E+03  0.40943786504E+03  0.10755660058E+04  0.11797886222E+04  0.50400001928E-02 0.  1.
</event>
<event>
 5   0  0.1186302E-04  0.1709495E+04  0.7818609E-02  0.8755967E-01
        1   -1    0    0  501    0  0.00000000000E+00  0.00000000000E+00  0.17422413612E+04  0.17422413612E+04  0.50400001928E-02 0. -1.
       -1   -1    0    0    0  501  0.00000000000E+00  0.00000000000E+00 -0.41934127442E+03  0.41934127445E+03  0.50400001928E-02 0.  1.
    10030    2    1    2    0    0  0.00000000000E+00  0.00000000000E+00  0.13229000868E+04  0.21615826356E+04  0.17094954961E+04 0.  0.
        3    1    3    3  502    0 -0.69822974634E+03  0.34129730504E+03  0.11113284321E+04  0.13561192880E+04  0.10100000352E+00 0.  1.
       -3    1    3    3    0  502  0.69822974634E+03 -0.34129730504E+03  0.21157165462E+03  0.80546334760E+03  0.10100000352E+00 0. -1.
</event>
<event>
 5   0  0.1186302E-04  0.1702091E+04  0.7818609E-02  0.8760173E-01
       -1   -1    0    0    0  501  0.00000000000E+00  0.00000000000E+00  0.56818649054E+03  0.56818649057E+03  0.50400001928E-02 0.  1.
        1   -1    0    0  501    0  0.00000000000E+00  0.00000000000E+00 -0.12747197896E+04  0.12747197896E+04  0.50400001928E-02 0. -1.
    10030    2    1    2    0    0  0.00000000000E+00  0.00000000000E+00 -0.70653329901E+03  0.18429062801E+04  0.17020911417E+04 0.  0.
        3    1    3    3  502    0  0.52076961152E+03 -0.24606621702E+03 -0.10316205125E+04  0.11815204033E+04  0.10100000352E+00 0. -1.
       -3    1    3    3    0  502 -0.52076961152E+03  0.24606621702E+03  0.32508721350E+03  0.66138587680E+03  0.10100000352E+00 0.  1.
</event>
<event>
 5   0  0.2234723E-04  0.1698827E+04  0.7818609E-02  0.8762034E-01
        2   -1    0    0  501    0  0.00000000000E+00  0.00000000000E+00  0.11718942637E+04  0.11718942637E+04  0.25500000920E-02 0. -1.
       -2   -1    0    0    0  501  0.00000000000E+00  0.00000000000E+00 -0.61567252922E+03  0.61567252922E+03  0.25500000920E-02 0.  1.
    10030    2    1    2    0    0  0.00000000000E+00  0.00000000000E+00  0.55622173447E+03  0.17875667929E+04  0.16988267779E+04 0.  0.
        1    1    3    3  502    0 -0.37834200943E+03  0.48080715050E+02  0.10767356279E+04  0.11422845721E+04  0.50400001928E-02 0. -1.
       -1    1    3    3    0  502  0.37834200943E+03 -0.48080715050E+02 -0.52051389341E+03  0.64528222083E+03  0.50400001928E-02 0.  1.
</event>
<event>
 5   0  0.1126958E-04  0.1667176E+04  0.7818609E-02  0.8780310E-01
        1   -1    0    0  501    0  0.00000000000E+00  0.00000000000E+00  0.10843448939E+04  0.10843448939E+04  0.50400001928E-02 0. -1.
       -1   -1    0    0    0  501  0.00000000000E+00  0.00000000000E+00 -0.64081876984E+03  0.64081876986E+03  0.50400001928E-02 0.  1.
    10030    2    1    2    0    0  0.00000000000E+00  0.00000000000E+00  0.44352612402E+03  0.17251636637E+04  0.16671755288E+04 0.  0.
        4    1    3    3  502    0  0.14477848489E+03 -0.51885643024E+03 -0.43651962754E+03  0.69334248609E+03  0.12699999809E+01 0.  1.
       -4    1    3    3    0  502 -0.14477848489E+03  0.51885643024E+03  0.88004575157E+03  0.10318211776E+04  0.12699999809E+01 0. -1.
</event>
<event>
 5   0  0.1204741E-04  0.1721933E+04  0.7818609E-02  0.8748953E-01
       -1   -1    0    0    0  501  0.00000000000E+00  0.00000000000E+00  0.61698159817E+03  0.61698159819E+03  0.50400001928E-02 0. -1.
        1   -1    0    0  501    0  0.00000000000E+00  0.00000000000E+00 -0.12014354285E+04  0.12014354285E+04  0.50400001928E-02 0.  1.
    10030    2    1    2    0    0  0.00000000000E+00  0.00000000000E+00 -0.58445383037E+03  0.18184170267E+04  0.17219332749E+04 0.  0.
        1    1    3    3  502    0 -0.60379469767E+03  0.25149488868E+03 -0.88345958286E+03  0.10992354391E+04  0.50400001928E-02 0.  1.
       -1    1    3    3    0  502  0.60379469767E+03 -0.25149488868E+03  0.29900575249E+03  0.71918158765E+03  0.50400001928E-02 0. -1.
</event>
<event>
 5   0  0.2224454E-04  0.1698312E+04  0.7818609E-02  0.8762328E-01
        2   -1    0    0  501    0  0.00000000000E+00  0.00000000000E+00  0.24220959026E+03  0.24220959027E+03  0.25500000920E-02 0.  1.
       -2   -1    0    0    0  501  0.00000000000E+00  0.00000000000E+00 -0.29770323793E+04  0.29770323794E+04  0.25500000920E-02 0. -1.
    10030    2    1    2    0    0  0.00000000000E+00  0.00000000000E+00 -0.27348227891E+04  0.32192419696E+04  0.16983118592E+04 0.  0.
        2    1    3    3  502    0 -0.79771176574E+03  0.81959897514E+02 -0.18968254529E+04  0.20593708469E+04  0.25500000920E-02 0. -1.
       -2    1    3    3    0  502  0.79771176574E+03 -0.81959897514E+02 -0.83799733615E+03  0.11598711228E+04  0.25500000920E-02 0.  1.
</event>
<event>
 5   0  0.1186302E-04  0.1686966E+04  0.7818609E-02  0.8768833E-01
       -1   -1    0    0    0  501  0.00000000000E+00  0.00000000000E+00  0.68947664792E+03  0.68947664794E+03  0.50400001928E-02 0.  1.
        1   -1    0    0  501    0  0.00000000000E+00  0.00000000000E+00 -0.10318895267E+04  0.10318895267E+04  0.50400001928E-02 0. -1.
    10030    2    1    2    0    0  0.00000000000E+00  0.00000000000E+00 -0.34241287881E+03  0.17213661747E+04  0.16869661905E+04 0.  0.
        3    1    3    3  502    0 -0.51180799935E+03  0.15182083472E+03  0.49515439432E+03  0.72813108605E+03  0.10100000352E+00 0.  1.
       -3    1    3    3    0  502  0.51180799935E+03 -0.15182083472E+03 -0.83756727314E+03  0.99323508863E+03  0.10100000352E+00 0. -1.
</event>
<event>
 5   0  0.2288806E-04  0.1701453E+04  0.7818609E-02  0.8760536E-01
       -2   -1    0    0    0  501  0.00000000000E+00  0.00000000000E+00  0.45112066702E+03  0.45112066703E+03  0.25500000920E-02 0. -1.
        2   -1    0    0  501    0  0.00000000000E+00  0.00000000000E+00 -0.16043062061E+04  0.16043062061E+04  0.25500000920E-02 0.  1.
    10030    2    1    2    0    0  0.00000000000E+00  0.00000000000E+00 -0.11531855391E+04  0.20554268731E+04  0.17014531269E+04 0.  0.
        3    1    3    3  502    0 -0.48567253551E+03  0.56346799548E+03 -0.10752108248E+04  0.13074602562E+04  0.10100000352E+00 0.  1.
       -3    1    3    3    0  502  0.48567253551E+03 -0.56346799548E+03 -0.77974714257E+02  0.74796661687E+03  0.10100000352E+00 0. -1.
</event>
<event>
 5   0  0.1204741E-04  0.1690165E+04  0.7818609E-02  0.8766994E-01
       -1   -1    0    0    0  501  0.00000000000E+00  0.00000000000E+00  0.24951797034E+03  0.24951797039E+03  0.50400001928E-02 0.  1.
        1   -1    0    0  501    0  0.00000000000E+00  0.00000000000E+00 -0.28621748620E+04  0.28621748620E+04  0.50400001928E-02 0. -1.
    10030    2    1    2    0    0  0.00000000000E+00  0.00000000000E+00 -0.26126568916E+04  0.31116928324E+04  0.16901645629E+04 0.  0.
        1    1    3    3  502    0  0.42040795871E+03 -0.48186816210E+03 -0.23234603343E+04  0.24098563655E+04  0.50400001928E-02 0. -1.
       -1    1    3    3    0  502 -0.42040795871E+03  0.48186816210E+03 -0.28919655733E+03  0.70183646684E+03  0.50400001928E-02 0.  1.
</event>
<event>
 5   0  0.2224454E-04  0.1704196E+04  0.7818609E-02  0.8758975E-01
       -2   -1    0    0    0  501  0.00000000000E+00  0.00000000000E+00  0.48413853172E+03  0.48413853173E+03  0.25500000920E-02 0.  1.
        2   -1    0    0  501    0  0.00000000000E+00  0.00000000000E+00 -0.14997168910E+04  0.14997168910E+04  0.25500000920E-02 0. -1.
    10030    2    1    2    0    0  0.00000000000E+00  0.00000000000E+00 -0.10155783593E+04  0.19838554227E+04  0.17041956855E+04 0.  0.
        2    1    3    3  502    0 -0.46785300234E+03  0.34311499450E+03  0.21868466227E+03  0.62003009022E+03  0.25500000920E-02 0.  1.
       -2    1    3    3    0  502  0.46785300234E+03 -0.34311499450E+03 -0.12342630216E+04  0.13638253325E+04  0.25500000920E-02 0. -1.
</event>
<event>
 5   0  0.1215233E-04  0.1752294E+04  0.7818609E-02  0.8732088E-01
        1   -1    0    0  501    0  0.00000000000E+00  0.00000000000E+00  0.13970604534E+04  0.13970604534E+04  0.50400001928E-02 0.  1.
       -1   -1    0    0    0  501  0.00000000000E+00  0.00000000000E+00 -0.54946368311E+03  0.54946368313E+03  0.50400001928E-02 0. -1.
    10030    2    1    2    0    0  0.00000000000E+00  0.00000000000E+00  0.84759677027E+03  0.19465241365E+04  0.17522944756E+04 0.  0.
        2    1    3    3  502    0  0.63225886502E+03 -0.32791158931E+03 -0.14301106206E+03  0.72644989276E+03  0.25500000920E-02 0.  1.
       -2    1    3    3    0  502 -0.63225886502E+03  0.32791158931E+03  0.99060783233E+03  0.12200742438E+04  0.25500000920E-02 0. -1.
</event>
<event>
 5   0  0.2288806E-04  0.1695654E+04  0.7818609E-02  0.8763847E-01
        2   -1    0    0  501    0  0.00000000000E+00  0.00000000000E+00  0.58789588590E+03  0.58789588590E+03  0.25500000920E-02 0. -1.
       -2   -1    0    0    0  501  0.00000000000E+00  0.00000000000E+00 -0.12226830753E+04  0.12226830754E+04  0.25500000920E-02 0.  1.
    10030    2    1    2    0    0  0.00000000000E+00  0.00000000000E+00 -0.63478718945E+03  0.18105789613E+04  0.16956536790E+04 0.  0.
        3    1    3    3  502    0 -0.38589521823E+02  0.23888325816E+03  0.55024024850E+03  0.60109791506E+03  0.10100000352E+00 0. -1.
       -3    1    3    3    0  502  0.38589521823E+02 -0.23888325816E+03 -0.11850274379E+04  0.12094810462E+04  0.10100000352E+00 0.  1.
</event>
<event>
 5   0  0.2356829E-04  0.1696470E+04  0.7818609E-02  0.8763380E-01
        2   -1    0    0  501    0  0.00000000000E+00  0.00000000000E+00  0.10726444479E+04  0.10726444479E+04  0.25500000920E-02 0. -1.
       -2   -1    0    0    0  501  0.00000000000E+00  0.00000000000E+00 -0.67077445704E+03  0.67077445705E+03  0.25500000920E-02 0.  1.
    10030    2    1    2    0    0  0.00000000000E+00  0.00000000000E+00  0.40186999088E+03  0.17434189050E+04  0.16964698608E+04 0.  0.
        5    1    3    3  502    0  0.12124509467E+03  0.36414243489E+03  0.97829476535E+03  0.10508962003E+04  0.46999998093E+01 0. -1.
       -5    1    3    3    0  502 -0.12124509467E+03 -0.36414243489E+03 -0.57642477447E+03  0.69252270468E+03  0.46999998093E+01 0.  1.
</event>
<event>
 5   0  0.1215233E-04  0.1679805E+04  0.7818609E-02  0.8772967E-01
       -1   -1    0    0    0  501  0.00000000000E+00  0.00000000000E+00  0.90356557328E+03  0.90356557329E+03  0.50400001928E-02 0. -1.
        1   -1    0    0  501    0  0.00000000000E+00  0.00000000000E+00 -0.78072474748E+03  0.78072474750E+03  0.50400001928E-02 0.  1.
    10030    2    1    2    0    0  0.00000000000E+00  0.00000000000E+00  0.12284082579E+03  0.16842903208E+04  0.16798047554E+04 0.  0.
        2    1    3    3  502    0 -0.66342438279E+03 -0.29253692953E+03 -0.36365294667E+03  0.81114316396E+03  0.25500000920E-02 0.  1.
       -2    1    3    3    0  502  0.66342438279E+03  0.29253692953E+03  0.48649377247E+03  0.87314715682E+03  0.25500000920E-02 0. -1.
</event>
<event>
 5   0  0.2288806E-04  0.1700282E+04  0.7818609E-02  0.8761203E-01
       -2   -1    0    0    0  501  0.00000000000E+00  0.00000000000E+00  0.32002412946E+03  0.32002412947E+03  0.25500000920E-02 0. -1.
        2   -1    0    0  501    0  0.00000000000E+00  0.00000000000E+00 -0.22583926041E+04  0.22583926041E+04  0.25500000920E-02 0.  1.
    10030    2    1    2    0    0  0.00000000000E+00  0.00000000000E+00 -0.19383684746E+04  0.25784167335E+04  0.17002824790E+04 0.  0.
        3    1    3    3  502    0 -0.61408310678E+03 -0.25312069454E+03 -0.17738707835E+04  0.18941451145E+04  0.10100000352E+00 0.  1.
       -3    1    3    3    0  502  0.61408310678E+03  0.25312069454E+03 -0.16449769110E+03  0.68427161903E+03  0.10100000352E+00 0. -1.
</event>
<event>
 5   0  0.2234723E-04  0.1685714E+04  0.7818609E-02  0.8769555E-01
        2   -1    0    0  501    0  0.00000000000E+00  0.00000000000E+00  0.20447024199E+04  0.20447024199E+04  0.25500000920E-02 0. -1.
       -2   -1    0    0    0  501  0.00000000000E+00  0.00000000000E+00 -0.34743818643E+03  0.34743818644E+03  0.25500000920E-02 0.  1.
    10030    2    1    2    0    0  0.00000000000E+00  0.00000000000E+00  0.16972642335E+04  0.23921406063E+04  0.16857137368E+04 0.  0.
        1    1    3    3  502    0  0.49853201040E+03  0.67869450187E+03  0.79851457264E+03  0.11605110577E+04  0.50400001928E-02 0. -1.
       -1    1    3    3    0  502 -0.49853201040E+03 -0.67869450187E+03  0.89874966083E+03  0.12316295487E+04  0.50400001928E-02 0.  1.
</event>
<event>
 5   0  0.1234158E-04  0.1712262E+04  0.7818609E-02  0.8754401E-01
        1   -1    0    0  501    0  0.00000000000E+00  0.00000000000E+00  0.13168936684E+04  0.13168936684E+04  0.50400001928E-02 0. -1.
       -1   -1    0    0    0  501  0.00000000000E+00  0.00000000000E+00 -0.55658301555E+03  0.55658301557E+03  0.50400001928E-02 0.  1.
    10030    2    1    2    0    0  0.00000000000E+00  0.00000000000E+00  0.76031065281E+03  0.18734766839E+04  0.17122624204E+04 0.  0.
        5    1    3    3  502    0 -0.44315968932E+03  0.68239858118E+02 -0.41781995678E+03  0.61289705070E+03  0.46999998093E+01 0.  1.
       -5    1    3    3    0  502  0.44315968932E+03 -0.68239858118E+02  0.11781306096E+04  0.12605796332E+04  0.46999998093E+01 0. -1.
</event>
<event>
 5   0  0.2288806E-04  0.1702773E+04  0.7818609E-02  0.8759784E-01
        2   -1    0    0  501    0  0.00000000000E+00  0.00000000000E+00  0.11380189855E+04  0.11380189855E+04  0.25500000920E-02 0. -1.
       -2   -1    0    0    0  501  0.00000000000E+00  0.00000000000E+00 -0.63694819644E+03  0.63694819645E+03  0.25500000920E-02 0.  1.
    10030    2    1    2    0    0  0.00000000000E+00  0.00000000000E+00  0.50107078905E+03  0.17749671819E+04  0.17027731973E+04 0.  0.
        3    1    3    3  502    0  0.81030266275E+03 -0.16518298822E+03  0.39508886396E+02  0.82791109858E+03  0.10100000352E+00 0.  1.
       -3    1    3    3    0  502 -0.81030266275E+03  0.16518298822E+03  0.46156190265E+03  0.94705608336E+03  0.10100000352E+00 0. -1.
</event>
<event>
 5   0  0.1126958E-04  0.1672033E+04  0.7818609E-02  0.8777478E-01
       -1   -1    0    0    0  501  0.00000000000E+00  0.00000000000E+00  0.82871326725E+03  0.82871326726E+03  0.50400001928E-02 0. -1.
        1   -1    0    0  501    0  0.00000000000E+00  0.00000000000E+00 -0.84338360340E+03  0.84338360341E+03  0.50400001928E-02 0.  1.
    10030    2    1    2    0    0  0.00000000000E+00  0.00000000000E+00 -0.14670336153E+02  0.16720968707E+04  0.16720325135E+04 0.  0.
        4    1    3    3  502    0  0.28880349417E+03 -0.48499994513E+03  0.60936446638E+03  0.83063774945E+03  0.12699999809E+01 0. -1.
       -4    1    3    3    0  502 -0.28880349417E+03  0.48499994513E+03 -0.62403480254E+03  0.84145912123E+03  0.12699999809E+01 0.  1.
</event>
<event>
 5   0  0.1204741E-04  0.1720525E+04  0.7818609E-02  0.8749744E-01
        1   -1    0    0  501    0  0.00000000000E+00  0.00000000000E+00  0.81607973567E+03  0.81607973569E+03  0.50400001928E-02 0.  1.
       -1   -1    0    0    0  501  0.00000000000E+00  0.00000000000E+00 -0.90683710101E+03  0.90683710103E+03  0.50400001928E-02 0. -1.
    10030    2    1    2    0    0  0.00000000000E+00  0.00000000000E+00 -0.90757365343E+02  0.17229168367E+04  0.17205247824E+04 0.  0.
        1    1    3    3  502    0 -0.58022017866E+03  0.27720827580E+02  0.59003284539E+03  0.82798711262E+03  0.50400001928E-02 0.  1.
       -1    1    3    3    0  502  0.58022017866E+03 -0.27720827580E+02 -0.68079021074E+03  0.89492972409E+03  0.50400001928E-02 0. -1.
</event>
<event>
 5   0  0.1186302E-04  0.1697372E+04  0.7818609E-02  0.8762865E-01
       -1   -1    0    0    0  501  0.00000000000E+00  0.00000000000E+00  0.53549625787E+03  0.53549625789E+03  0.50400001928E-02 0. -1.
        1   -1    0    0  501    0  0.00000000000E+00  0.00000000000E+00 -0.13450478403E+04  0.13450478403E+04  0.50400001928E-02 0.  1.
    10030    2    1    2    0    0  0.00000000000E+00  0.00000000000E+00 -0.80955158244E+03  0.18805440982E+04  0.16973721869E+04 0.  0.
        3    1    3    3  502    0 -0.44093976371E+03 -0.70508164720E+03 -0.59246872489E+03  0.10210715962E+04  0.10100000352E+00 0.  1.
       -3    1    3    3    0  502  0.44093976371E+03  0.70508164720E+03 -0.21708285755E+03  0.85947250199E+03  0.10100000352E+00 0. -1.
</event>
<event>
 5   0  0.2242967E-04  0.1697874E+04  0.7818609E-02  0.8762578E-01
        2   -1    0    0  501    0  0.00000000000E+00  0.00000000000E+00  0.33953712975E+03  0.33953712976E+03  0.25500000920E-02 0. -1.
       -2   -1    0    0    0  501  0.00000000000E+00  0.00000000000E+00 -0.21225786011E+04  0.21225786011E+04  0.25500000920E-02 0.  1.
    10030    2    1    2    0    0  0.00000000000E+00  0.00000000000E+00 -0.17830414714E+04  0.24621157309E+04  0.16978742544E+04 0.  0.
        4    1    3    3  502    0  0.40047452047E+03 -0.44738320273E+03 -0.21256134178E+02  0.60082027909E+03  0.12699999809E+01 0. -1.
       -4    1    3    3    0  502 -0.40047452047E+03  0.44738320273E+03 -0.17617853372E+04  0.18612954518E+04  0.12699999809E+01 0.  1.
</event>
<event>
 5   0  0.2242967E-04  0.1695192E+04  0.7818609E-02  0.8764111E-01
        2   -1    0    0  501    0  0.00000000000E+00  0.00000000000E+00  0.79514086924E+03  0.79514086924E+03  0.25500000920E-02 0. -1.
       -2   -1    0    0    0  501  0.00000000000E+00  0.00000000000E+00 -0.90351133548E+03  0.90351133549E+03  0.25500000920E-02 0.  1.
    10030    2    1    2    0    0  0.00000000000E+00  0.00000000000E+00 -0.10837046625E+03  0.16986522047E+04  0.16951917752E+04 0.  0.
        4    1    3    3  502    0  0.22529400808E+03  0.45714176993E+03  0.62445733091E+03  0.80603012284E+03  0.12699999809E+01 0. -1.
       -4    1    3    3    0  502 -0.22529400808E+03 -0.45714176993E+03 -0.73282779716E+03  0.89262208189E+03  0.12699999809E+01 0.  1.
</event>
<event>
 5   0  0.8372750E-05  0.1704063E+04  0.7818609E-02  0.8759050E-01
       -4   -1    0    0    0  501  0.00000000000E+00  0.00000000000E+00  0.80156716029E+03  0.80156816638E+03  0.12699999809E+01 0. -1.
        4   -1    0    0  501    0  0.00000000000E+00  0.00000000000E+00 -0.90567135480E+03  0.90567224524E+03  0.12699999809E+01 0.  1.
    10030    2    1    2    0    0  0.00000000000E+00  0.00000000000E+00 -0.10410419451E+03  0.17072404116E+04  0.17040634201E+04 0.  0.
        5    1    3    3  502    0 -0.78953313241E+03  0.31982380840E+03 -0.35105794837E+02  0.85258685330E+03  0.46999998093E+01 0.  1.
       -5    1    3    3    0  502  0.78953313241E+03 -0.31982380840E+03 -0.68998399675E+02  0.85465355832E+03  0.46999998093E+01 0. -1.
</event>
<event>
 5   0  0.1186302E-04  0.1706540E+04  0.7818609E-02  0.8757643E-01
       -1   -1    0    0    0  501  0.00000000000E+00  0.00000000000E+00  0.71910485956E+03  0.71910485958E+03  0.50400001928E-02 0. -1.
        1   -1    0    0  501    0  0.00000000000E+00  0.00000000000E+00 -0.10124668542E+04  0.10124668542E+04  0.50400001928E-02 0.  1.
    10030    2    1    2    0    0  0.00000000000E+00  0.00000000000E+00 -0.29336199464E+03  0.17315717138E+04  0.17065401666E+04 0.  0.
        3    1    3    3  502    0  0.32879553576E+03  0.35701538494E+03 -0.85876061707E+03  0.98642602208E+03  0.10100000352E+00 0.  1.
       -3    1    3    3    0  502 -0.32879553576E+03 -0.35701538494E+03  0.56539862243E+03  0.74514569171E+03  0.10100000352E+00 0. -1.
</event>
<event>
 5   0  0.1234158E-04  0.1693385E+04  0.7818609E-02  0.8765146E-01
        1   -1    0    0  501    0  0.00000000000E+00  0.00000000000E+00  0.20911976395E+04  0.20911976396E+04  0.50400001928E-02 0. -1.
       -1   -1    0    0    0  501  0.00000000000E+00  0.00000000000E+00 -0.34281209891E+03  0.34281209894E+03  0.50400001928E-02 0.  1.
    10030    2    1    2    0    0  0.00000000000E+00  0.00000000000E+00  0.17483855406E+04  0.24340097385E+04  0.16933846014E+04 0.  0.
        5    1    3    3  502    0 -0.67151511062E+03  0.25061978744E+01  0.16154140366E+04  0.17494351730E+04  0.46999998093E+01 0.  1.
       -5    1    3    3    0  502  0.67151511062E+03 -0.25061978744E+01  0.13297150400E+03  0.68457456548E+03  0.46999998093E+01 0. -1.
</event>
<event>
 5   0  0.2224454E-04  0.1698294E+04  0.7818609E-02  0.8762338E-01
        2   -1    0    0  501    0  0.00000000000E+00  0.00000000000E+00  0.23546132936E+04  0.23546132936E+04  0.25500000920E-02 0.  1.
       -2   -1    0    0    0  501  0.00000000000E+00  0.00000000000E+00 -0.30622894714E+03  0.30622894715E+03  0.25500000920E-02 0. -1.
    10030    2    1    2    0    0  0.00000000000E+00  0.00000000000E+00  0.20483843464E+04  0.26608422407E+04  0.16982941439E+04 0.  0.
        2    1    3    3  502    0  0.26832293058E+03 -0.61024502924E+02 -0.23443468576E+03  0.36149800404E+03  0.25500000920E-02 0. -1.
       -2    1    3    3    0  502 -0.26832293058E+03  0.61024502924E+02  0.22828190322E+04  0.22993442367E+04  0.25500000920E-02 0.  1.
</event>
<event>
 5   0  0.2288806E-04  0.1710089E+04  0.7818609E-02  0.8755631E-01
        2   -1    0    0  501    0  0.00000000000E+00  0.00000000000E+00  0.10846178591E+04  0.10846178591E+04  0.25500000920E-02 0. -1.
       -2   -1    0    0    0  501  0.00000000000E+00  0.00000000000E+00 -0.67406363376E+03  0.67406363376E+03  0.25500000920E-02 0.  1.
    10030    2    1    2    0    0  0.00000000000E+00  0.00000000000E+00  0.41055422535E+03  0.17586814929E+04  0.17100894191E+04 0.  0.
        3    1    3    3  502    0 -0.14077683765E+03 -0.58214524634E+03 -0.42230060887E+03  0.73283628479E+03  0.10100000352E+00 0.  1.
       -3    1    3    3    0  502  0.14077683765E+03  0.58214524634E+03  0.83285483422E+03  0.10258452081E+04  0.10100000352E+00 0. -1.
</event>
<event>
 5   0  0.2234723E-04  0.1736041E+04  0.7818609E-02  0.8741072E-01
       -2   -1    0    0    0  501  0.00000000000E+00  0.00000000000E+00  0.32823432253E+03  0.32823432254E+03  0.25500000920E-02 0.  1.
        2   -1    0    0  501    0  0.00000000000E+00  0.00000000000E+00 -0.22954921564E+04  0.22954921565E+04  0.25500000920E-02 0. -1.
    10030    2    1    2    0    0  0.00000000000E+00  0.00000000000E+00 -0.19672578339E+04  0.26237264790E+04  0.17360406825E+04 0.  0.
        1    1    3    3  502    0  0.31695139891E+03 -0.96227000054E+02 -0.21962201104E+04  0.22210584409E+04  0.50400001928E-02 0. -1.
       -1    1    3    3    0  502 -0.31695139891E+03  0.96227000054E+02  0.22896227645E+03  0.40266803806E+03  0.50400001928E-02 0.  1.
</event>
<event>
 5   0  0.2224454E-04  0.1712784E+04  0.7818609E-02  0.8754107E-01
        2   -1    0    0  501    0  0.00000000000E+00  0.00000000000E+00  0.19367798274E+04  0.19367798274E+04  0.25500000920E-02 0. -1.
       -2   -1    0    0    0  501  0.00000000000E+00  0.00000000000E+00 -0.37867351818E+03  0.37867351819E+03  0.25500000920E-02 0.  1.
    10030    2    1    2    0    0  0.00000000000E+00  0.00000000000E+00  0.15581063092E+04  0.23154533456E+04  0.17127839691E+04 0.  0.
        2    1    3    3  502    0 -0.78188784495E+03  0.32292451319E+03  0.95930496436E+03  0.12790210545E+04  0.25500000920E-02 0.  1.
       -2    1    3    3    0  502  0.78188784495E+03 -0.32292451319E+03  0.59880134484E+03  0.10364322910E+04  0.25500000920E-02 0. -1.
</event>
<event>
 5   0  0.2288806E-04  0.1671885E+04  0.7818609E-02  0.8777564E-01
       -2   -1    0    0    0  501  0.00000000000E+00  0.00000000000E+00  0.38120370043E+03  0.38120370044E+03  0.25500000920E-02 0. -1.
        2   -1    0    0  501    0  0.00000000000E+00  0.00000000000E+00 -0.18331394722E+04  0.18331394722E+04  0.25500000920E-02 0.  1.
    10030    2    1    2    0    0  0.00000000000E+00  0.00000000000E+00 -0.14519357718E+04  0.22143431727E+04  0.16718846255E+04 0.  0.
        3    1    3    3  502    0 -0.69997320010E+03 -0.65495063705E+02 -0.12695569036E+03  0.71440173694E+03  0.10100000352E+00 0. -1.
       -3    1    3    3    0  502  0.69997320010E+03  0.65495063705E+02 -0.13249800814E+04  0.14999414357E+04  0.10100000352E+00 0.  1.
</event>
<event>
 5   0  0.1186302E-04  0.1716880E+04  0.7818609E-02  0.8751795E-01
       -1   -1    0    0    0  501  0.00000000000E+00  0.00000000000E+00  0.14026830048E+04  0.14026830048E+04  0.50400001928E-02 0.  1.
        1   -1    0    0  501    0  0.00000000000E+00  0.00000000000E+00 -0.52536390076E+03  0.52536390079E+03  0.50400001928E-02 0. -1.
    10030    2    1    2    0    0  0.00000000000E+00  0.00000000000E+00  0.87731910399E+03  0.19280469056E+04  0.17168797453E+04 0.  0.
        3    1    3    3  502    0 -0.48660239056E+03 -0.66474751988E+03  0.70968974811E+03  0.10873503117E+04  0.10100000352E+00 0. -1.
       -3    1    3    3    0  502  0.48660239056E+03  0.66474751988E+03  0.16762935589E+03  0.84069659381E+03  0.10100000352E+00 0.  1.
</event>
<event>
 5   0  0.2356829E-04  0.1690627E+04  0.7818609E-02  0.8766728E-01
        2   -1    0    0  501    0  0.00000000000E+00  0.00000000000E+00  0.12106274659E+04  0.12106274659E+04  0.25500000920E-02 0. -1.
       -2   -1    0    0    0  501  0.00000000000E+00  0.00000000000E+00 -0.59023542915E+03  0.59023542915E+03  0.25500000920E-02 0.  1.
    10030    2    1    2    0    0  0.00000000000E+00  0.00000000000E+00  0.62039203672E+03  0.18008628950E+04  0.16906273650E+04 0.  0.
        5    1    3    3  502    0  0.55764058116E+03 -0.56416619392E+03  0.62127681795E+03  0.10075978794E+04  0.46999998093E+01 0. -1.
       -5    1    3    3    0  502 -0.55764058116E+03  0.56416619392E+03 -0.88478123492E+00  0.79326501558E+03  0.46999998093E+01 0.  1.
</event>
<event>
 5   0  0.1234158E-04  0.1702914E+04  0.7818609E-02  0.8759704E-01
       -1   -1    0    0    0  501  0.00000000000E+00  0.00000000000E+00  0.69296099785E+03  0.69296099787E+03  0.50400001928E-02 0. -1.
        1   -1    0    0  501    0  0.00000000000E+00  0.00000000000E+00 -0.10462043282E+04  0.10462043282E+04  0.50400001928E-02 0.  1.
    10030    2    1    2    0    0  0.00000000000E+00  0.00000000000E+00 -0.35324333030E+03  0.17391653260E+04  0.17029137327E+04 0.  0.
        5    1    3    3  502    0 -0.34858468157E+03 -0.76247617642E+03 -0.32836287693E+03  0.90040294801E+03  0.46999998093E+01 0.  1.
       -5    1    3    3    0  502  0.34858468157E+03  0.76247617642E+03 -0.24880453371E+02  0.83876237803E+03  0.46999998093E+01 0. -1.
</event>
<event>
 5   0  0.1186302E-04  0.1682757E+04  0.7818609E-02  0.8771260E-01
        1   -1    0    0  501    0  0.00000000000E+00  0.00000000000E+00  0.59623526982E+03  0.59623526984E+03  0.50400001928E-02 0. -1.
       -1   -1    0    0    0  501  0.00000000000E+00  0.00000000000E+00 -0.11873128654E+04  0.11873128654E+04  0.50400001928E-02 0.  1.
    10030    2    1    2    0    0  0.00000000000E+00  0.00000000000E+00 -0.59107759558E+03  0.17835481353E+04  0.16827570314E+04 0.  0.
        3    1    3    3  502    0 -0.64903902178E+03  0.53429463337E+03 -0.33218408520E+03  0.90391851607E+03  0.10100000352E+00 0. -1.
       -3    1    3    3    0  502  0.64903902178E+03 -0.53429463337E+03 -0.25889351038E+03  0.87962961919E+03  0.10100000352E+00 0.  1.
</event>
<event>
 5   0  0.2288806E-04  0.1739929E+04  0.7818609E-02  0.8738913E-01
        2   -1    0    0  501    0  0.00000000000E+00  0.00000000000E+00  0.79042686608E+03  0.79042686608E+03  0.25500000920E-02 0. -1.
       -2   -1    0    0    0  501  0.00000000000E+00  0.00000000000E+00 -0.95750577940E+03  0.95750577940E+03  0.25500000920E-02 0.  1.
    10030    2    1    2    0    0  0.00000000000E+00  0.00000000000E+00 -0.16707891332E+03  0.17479326455E+04  0.17399290704E+04 0.  0.
        3    1    3    3  502    0 -0.41417569942E+03 -0.72653126221E+03 -0.32432740920E+03  0.89698242096E+03  0.10100000352E+00 0. -1.
       -3    1    3    3    0  502  0.41417569942E+03  0.72653126221E+03  0.15724849588E+03  0.85095022452E+03  0.10100000352E+00 0.  1.
</event>
<event>
 5   0  0.1204741E-04  0.1655982E+04  0.7818609E-02  0.8786875E-01
        1   -1    0    0  501    0  0.00000000000E+00  0.00000000000E+00  0.19233736527E+04  0.19233736527E+04  0.50400001928E-02 0. -1.
       -1   -1    0    0    0  501  0.00000000000E+00  0.00000000000E+00 -0.35644096533E+03  0.35644096537E+03  0.50400001928E-02 0.  1.
    10030    2    1    2    0    0  0.00000000000E+00  0.00000000000E+00  0.15669326873E+04  0.22798146181E+04  0.16559820790E+04 0.  0.
        1    1    3    3  502    0  0.72313988430E+03  0.23116475397E+03  0.32852368239E+03  0.82722200506E+03  0.50400001928E-02 0.  1.
       -1    1    3    3    0  502 -0.72313988430E+03 -0.23116475397E+03  0.12384090050E+04  0.14525926130E+04  0.50400001928E-02 0. -1.
</event>
<event>
 5   0  0.1186302E-04  0.1693247E+04  0.7818609E-02  0.8765225E-01
        1   -1    0    0  501    0  0.00000000000E+00  0.00000000000E+00  0.43797838966E+03  0.43797838969E+03  0.50400001928E-02 0. -1.
       -1   -1    0    0    0  501  0.00000000000E+00  0.00000000000E+00 -0.16365451994E+04  0.16365451994E+04  0.50400001928E-02 0.  1.
    10030    2    1    2    0    0  0.00000000000E+00  0.00000000000E+00 -0.11985668097E+04  0.20745235891E+04  0.16932470949E+04 0.  0.
        3    1    3    3  502    0  0.83850389040E+03  0.50610193329E+02 -0.47007970878E+03  0.96261368612E+03  0.10100000352E+00 0.  1.
       -3    1    3    3    0  502 -0.83850389040E+03 -0.50610193329E+02 -0.72848710096E+03  0.11119099030E+04  0.10100000352E+00 0. -1.
</event>
<event>
 5   0  0.1215233E-04  0.1711527E+04  0.7818609E-02  0.8754817E-01
        1   -1    0    0  501    0  0.00000000000E+00  0.00000000000E+00  0.98697610271E+03  0.98697610273E+03  0.50400001928E-02 0. -1.
       -1   -1    0    0    0  501  0.00000000000E+00  0.00000000000E+00 -0.74199502948E+03  0.74199502950E+03  0.50400001928E-02 0.  1.
    10030    2    1    2    0    0  0.00000000000E+00  0.00000000000E+00  0.24498107324E+03  0.17289711322E+04  0.17115272273E+04 0.  0.
        2    1    3    3  502    0  0.24305612368E+03 -0.80107000105E+03 -0.56920066854E+02  0.83906455047E+03  0.25500000920E-02 0.  1.
       -2    1    3    3    0  502 -0.24305612368E+03  0.80107000105E+03  0.30190114009E+03  0.88990658175E+03  0.25500000920E-02 0. -1.
</event>
<event>
 5   0  0.1234158E-04  0.1720525E+04  0.7818609E-02  0.8749744E-01
       -1   -1    0    0    0  501  0.00000000000E+00  0.00000000000E+00  0.12809749248E+04  0.12809749249E+04  0.50400001928E-02 0.  1.
        1   -1    0    0  501    0  0.00000000000E+00  0.00000000000E+00 -0.57772530006E+03  0.57772530008E+03  0.50400001928E-02 0. -1.
    10030    2    1    2    0    0  0.00000000000E+00  0.00000000000E+00  0.70324962479E+03  0.18587002249E+04  0.17205250627E+04 0.  0.
        5    1    3    3  502    0  0.78203696492E+03 -0.16474474797E+03  0.77757598504E+01  0.79925290048E+03  0.46999998093E+01 0. -1.
       -5    1    3    3    0  502 -0.78203696492E+03  0.16474474797E+03  0.69547386494E+03  0.10594473245E+04  0.46999998093E+01 0.  1.
</event>
<event>
 5   0  0.2242967E-04  0.1679767E+04  0.7818609E-02  0.8772989E-01
        2   -1    0    0  501    0  0.00000000000E+00  0.00000000000E+00  0.11262697952E+04  0.11262697952E+04  0.25500000920E-02 0. -1.
       -2   -1    0    0    0  501  0.00000000000E+00  0.00000000000E+00 -0.62631893648E+03  0.62631893649E+03  0.25500000920E-02 0.  1.
    10030    2    1    2    0    0  0.00000000000E+00  0.00000000000E+00  0.49995085874E+03  0.17525887317E+04  0.16797667699E+04 0.  0.
        4    1    3    3  502    0 -0.64124450158E+03 -0.97195629128E+02  0.80673959277E+03  0.10351192610E+04  0.12699999809E+01 0. -1.
       -4    1    3    3    0  502  0.64124450158E+03  0.97195629128E+02 -0.30678873403E+03  0.71746947068E+03  0.12699999809E+01 0.  1.
</event>
<event>
 5   0  0.2234723E-04  0.1700143E+04  0.7818609E-02  0.8761283E-01
        2   -1    0    0  501    0  0.00000000000E+00  0.00000000000E+00  0.16465026517E+04  0.16465026517E+04  0.25500000920E-02 0.  1.
       -2   -1    0    0    0  501  0.00000000000E+00  0.00000000000E+00 -0.43888286117E+03  0.43888286118E+03  0.25500000920E-02 0. -1.
    10030    2    1    2    0    0  0.00000000000E+00  0.00000000000E+00  0.12076197905E+04  0.20853855128E+04  0.17001432818E+04 0.  0.
        1    1    3    3  502    0  0.57099352654E+03  0.11333740616E+02 -0.16851559887E+03  0.59544904746E+03  0.50400001928E-02 0. -1.
       -1    1    3    3    0  502 -0.57099352654E+03 -0.11333740616E+02  0.13761353893E+04  0.14899364654E+04  0.50400001928E-02 0.  1.
</event>
<event>
 5   0  0.1126958E-04  0.1696138E+04  0.7818609E-02  0.8763570E-01
       -1   -1    0    0    0  501  0.00000000000E+00  0.00000000000E+00  0.96123439938E+03  0.96123439939E+03  0.50400001928E-02 0.  1.
        1   -1    0    0  501    0  0.00000000000E+00  0.00000000000E+00 -0.74822673525E+03  0.74822673527E+03  0.50400001928E-02 0. -1.
    10030    2    1    2    0    0  0.00000000000E+00  0.00000000000E+00  0.21300766413E+03  0.17094611347E+04  0.16961382921E+04 0.  0.
        4    1    3    3  502    0 -0.46031738127E+03  0.54612412709E+03 -0.35433606832E+03  0.79730754160E+03  0.12699999809E+01 0. -1.
       -4    1    3    3    0  502  0.46031738127E+03 -0.54612412709E+03  0.56734373245E+03  0.91215359306E+03  0.12699999809E+01 0.  1.
</event>
<event>
 5   0  0.2224454E-04  0.1665989E+04  0.7818609E-02  0.8781003E-01
       -2   -1    0    0    0  501  0.00000000000E+00  0.00000000000E+00  0.14942584425E+04  0.14942584425E+04  0.25500000920E-02 0. -1.
        2   -1    0    0  501    0  0.00000000000E+00  0.00000000000E+00 -0.46436412667E+03  0.46436412667E+03  0.25500000920E-02 0.  1.
    10030    2    1    2    0    0  0.00000000000E+00  0.00000000000E+00  0.10298943159E+04  0.19586225692E+04  0.16659892157E+04 0.  0.
        2    1    3    3  502    0  0.20168220991E+03 -0.76199911784E+03  0.83163554315E+03  0.11458342140E+04  0.25500000920E-02 0. -1.
       -2    1    3    3    0  502 -0.20168220991E+03  0.76199911784E+03  0.19825877273E+03  0.81278835520E+03  0.25500000920E-02 0.  1.
</event>
<event>
 5   0  0.1234158E-04  0.1700419E+04  0.7818609E-02  0.8761125E-01
       -1   -1    0    0    0  501  0.00000000000E+00  0.00000000000E+00  0.13293671111E+04  0.13293671111E+04  0.50400001928E-02 0. -1.
        1   -1    0    0  501    0  0.00000000000E+00  0.00000000000E+00 -0.54375980851E+03  0.54375980854E+03  0.50400001928E-02 0.  1.
    10030    2    1    2    0    0  0.00000000000E+00  0.00000000000E+00  0.78560730258E+03  0.18731269196E+04  0.17004192492E+04 0.  0.
        5    1    3    3  502    0  0.29340320928E+03 -0.64112842590E+03 -0.13053169060E+03  0.71707162401E+03  0.46999998093E+01 0.  1.
       -5    1    3    3    0  502 -0.29340320928E+03  0.64112842590E+03  0.91613899318E+03  0.11560552956E+04  0.46999998093E+01 0. -1.
</event>
<event>
 5   0  0.2224454E-04  0.1683943E+04  0.7818609E-02  0.8770576E-01
        2   -1    0    0  501    0  0.00000000000E+00  0.00000000000E+00  0.72820955392E+03  0.72820955393E+03  0.25500000920E-02 0. -1.
       -2   -1    0    0    0  501  0.00000000000E+00  0.00000000000E+00 -0.97350528015E+03  0.97350528015E+03  0.25500000920E-02 0.  1.
    10030    2    1    2    0    0  0.00000000000E+00  0.00000000000E+00 -0.24529572623E+03  0.17017148341E+04  0.16839428088E+04 0.  0.
        2    1    3    3  502    0 -0.60575179079E+03  0.14482674882E-02  0.46831500092E+03  0.76567236605E+03  0.25500000920E-02 0. -1.
       -2    1    3    3    0  502  0.60575179079E+03 -0.14482674882E-02 -0.71361072714E+03  0.93604246803E+03  0.25500000920E-02 0.  1.
</event>
<event>
 5   0  0.1126958E-04  0.1701478E+04  0.7818609E-02  0.8760522E-01
        1   -1    0    0  501    0  0.00000000000E+00  0.00000000000E+00  0.17210671712E+04  0.17210671712E+04  0.50400001928E-02 0. -1.
       -1   -1    0    0    0  501  0.00000000000E+00  0.00000000000E+00 -0.42052792837E+03  0.42052792840E+03  0.50400001928E-02 0.  1.
    10030    2    1    2    0    0  0.00000000000E+00  0.00000000000E+00  0.13005392428E+04  0.21415950996E+04  0.17014779600E+04 0.  0.
        4    1    3    3  502    0  0.18244384772E+03  0.14529890193E+03  0.16800394398E+04  0.16961520158E+04  0.12699999809E+01 0. -1.
       -4    1    3    3    0  502 -0.18244384772E+03 -0.14529890193E+03 -0.37950019701E+03  0.44544308379E+03  0.12699999809E+01 0.  1.
</event>
<event>
 5   0  0.1126958E-04  0.1689152E+04  0.7818609E-02  0.8767576E-01
        1   -1    0    0  501    0  0.00000000000E+00  0.00000000000E+00  0.81763973907E+03  0.81763973909E+03  0.50400001928E-02 0.  1.
       -1   -1    0    0    0  501  0.00000000000E+00  0.00000000000E+00 -0.87239968775E+03  0.87239968776E+03  0.50400001928E-02 0. -1.
    10030    2    1    2    0    0  0.00000000000E+00  0.00000000000E+00 -0.54759948674E+02  0.16900394269E+04  0.16891520394E+04 0.  0.
        4    1    3    3  502    0  0.51878178081E+03 -0.43492043478E+03  0.47787712194E+03  0.82864858491E+03  0.12699999809E+01 0.  1.
       -4    1    3    3    0  502 -0.51878178081E+03  0.43492043478E+03 -0.53263707061E+03  0.86139084194E+03  0.12699999809E+01 0. -1.
</event>
<event>
 5   0  0.1215233E-04  0.1689446E+04  0.7818609E-02  0.8767406E-01
       -1   -1    0    0    0  501  0.00000000000E+00  0.00000000000E+00  0.81729500816E+03  0.81729500818E+03  0.50400001928E-02 0.  1.
        1   -1    0    0  501    0  0.00000000000E+00  0.00000000000E+00 -0.87307184691E+03  0.87307184692E+03  0.50400001928E-02 0. -1.
    10030    2    1    2    0    0  0.00000000000E+00  0.00000000000E+00 -0.55776838748E+02  0.16903668551E+04  0.16894463735E+04 0.  0.
        2    1    3    3  502    0  0.34847439217E+02 -0.58960016539E+03 -0.63213348158E+03  0.86512163167E+03  0.25500000920E-02 0. -1.
       -2    1    3    3    0  502 -0.34847439217E+02  0.58960016539E+03  0.57635664283E+03  0.82524522343E+03  0.25500000920E-02 0.  1.
</event>
<event>
 5   0  0.2224454E-04  0.1750923E+04  0.7818609E-02  0.8732843E-01
        2   -1    0    0  501    0  0.00000000000E+00  0.00000000000E+00  0.94850598441E+03  0.94850598441E+03  0.25500000920E-02 0. -1.
       -2   -1    0    0    0  501  0.00000000000E+00  0.00000000000E+00 -0.80804196471E+03  0.80804196471E+03  0.25500000920E-02 0.  1.
    10030    2    1    2    0    0  0.00000000000E+00  0.00000000000E+00  0.14046401970E+03  0.17565479491E+04  0.17509227729E+04 0.  0.
        2    1    3    3  502    0 -0.81564861541E+03  0.29801136005E+03  0.18167085469E+03  0.88718528729E+03  0.25500000920E-02 0.  1.
       -2    1    3    3    0  502  0.81564861541E+03 -0.29801136005E+03 -0.41206834984E+02  0.86936266183E+03  0.25500000920E-02 0. -1.
</event>
<event>
 5   0  0.8372750E-05  0.1698510E+04  0.7818609E-02  0.8762215E-01
        3   -1    0    0  501    0  0.00000000000E+00  0.00000000000E+00  0.90538730492E+03  0.90538731055E+03  0.10100000352E+00 0.  1.
       -3   -1    0    0    0  501  0.00000000000E+00  0.00000000000E+00 -0.79660264554E+03  0.79660265195E+03  0.10100000352E+00 0. -1.
    10030    2    1    2    0    0  0.00000000000E+00  0.00000000000E+00  0.10878465937E+03  0.17019899625E+04  0.16985098558E+04 0.  0.
        2    1    3    3  502    0 -0.29041678920E+03 -0.58118678839E+03  0.60242600879E+03  0.88602318848E+03  0.25500000920E-02 0.  1.
       -2    1    3    3    0  502  0.29041678920E+03  0.58118678839E+03 -0.49364134942E+03  0.81596677402E+03  0.25500000920E-02 0. -1.
</event>
<event>
 5   0  0.2356829E-04  0.1751328E+04  0.7818609E-02  0.8732620E-01
        2   -1    0    0  501    0  0.00000000000E+00  0.00000000000E+00  0.16163329572E+04  0.16163329572E+04  0.25500000920E-02 0.  1.
       -2   -1    0    0    0  501  0.00000000000E+00  0.00000000000E+00 -0.47439950960E+03  0.47439950961E+03  0.25500000920E-02 0. -1.
    10030    2    1    2    0    0  0.00000000000E+00  0.00000000000E+00  0.11419334476E+04  0.20907324668E+04  0.17513281386E+04 0.  0.
        5    1    3    3  502    0 -0.59759523765E+03  0.61561429035E+03  0.36191751625E+03  0.93118601853E+03  0.46999998093E+01 0.  1.
       -5    1    3    3    0  502  0.59759523765E+03 -0.61561429035E+03  0.78001593131E+03  0.11595464482E+04  0.46999998093E+01 0. -1.
</event>
<event>
 5   0  0.2356829E-04  0.1732351E+04  0.7818609E-02  0.8743126E-01
       -2   -1    0    0    0  501  0.00000000000E+00  0.00000000000E+00  0.33855957192E+03  0.33855957193E+03  0.25500000920E-02 0. -1.
        2   -1    0    0  501    0  0.00000000000E+00  0.00000000000E+00 -0.22160349067E+04  0.22160349067E+04  0.25500000920E-02 0.  1.
    10030    2    1    2    0    0  0.00000000000E+00  0.00000000000E+00 -0.18774753347E+04  0.25545944786E+04  0.17323508067E+04 0.  0.
        5    1    3    3  502    0 -0.67280742911E+03 -0.64573051713E+02 -0.17374950158E+04  0.18643364867E+04  0.46999998093E+01 0.  1.
       -5    1    3    3    0  502  0.67280742911E+03  0.64573051713E+02 -0.13998031892E+03  0.69025799188E+03  0.46999998093E+01 0. -1.
</event>
<event>
 5   0  0.2242967E-04  0.1701211E+04  0.7818609E-02  0.8760674E-01
        2   -1    0    0  501    0  0.00000000000E+00  0.00000000000E+00  0.23008428906E+04  0.23008428906E+04  0.25500000920E-02 0.  1.
       -2   -1    0    0    0  501  0.00000000000E+00  0.00000000000E+00 -0.31446277348E+03  0.31446277349E+03  0.25500000920E-02 0. -1.
    10030    2    1    2    0    0  0.00000000000E+00  0.00000000000E+00  0.19863801171E+04  0.26153056640E+04  0.17012106709E+04 0.  0.
        4    1    3    3  502    0  0.53621263068E+03  0.39572059343E+03  0.18058046024E+04  0.19248508120E+04  0.12699999809E+01 0.  1.
       -4    1    3    3    0  502 -0.53621263068E+03 -0.39572059343E+03  0.18057551466E+03  0.69045485207E+03  0.12699999809E+01 0. -1.
</event>
<event>
 5   0  0.1126958E-04  0.1701735E+04  0.7818609E-02  0.8760376E-01
       -1   -1    0    0    0  501  0.00000000000E+00  0.00000000000E+00  0.46191907933E+03  0.46191907936E+03  0.50400001928E-02 0.  1.
        1   -1    0    0  501    0  0.00000000000E+00  0.00000000000E+00 -0.15673207624E+04  0.15673207624E+04  0.50400001928E-02 0. -1.
    10030    2    1    2    0    0  0.00000000000E+00  0.00000000000E+00 -0.11054016831E+04  0.20292398418E+04  0.17017348367E+04 0.  0.
        4    1    3    3  502    0 -0.46904061162E+03 -0.68360921500E+03 -0.32440561728E+03  0.89025910363E+03  0.12699999809E+01 0. -1.
       -4    1    3    3    0  502  0.46904061162E+03  0.68360921500E+03 -0.78099606582E+03  0.11389807382E+04  0.12699999809E+01 0.  1.
</event>
<event>
 5   0  0.1215233E-04  0.1691596E+04  0.7818609E-02  0.8766172E-01
       -1   -1    0    0    0  501  0.00000000000E+00  0.00000000000E+00  0.19536320847E+04  0.19536320847E+04  0.50400001928E-02 0.  1.
        1   -1    0    0  501    0  0.00000000000E+00  0.00000000000E+00 -0.36617665158E+03  0.36617665162E+03  0.50400001928E-02 0. -1.
    10030    2    1    2    0    0  0.00000000000E+00  0.00000000000E+00  0.15874554331E+04  0.23198087363E+04  0.16915962346E+04 0.  0.
        2    1    3    3  502    0 -0.77136557557E+03  0.33038816743E+03  0.64850937526E+03  0.10605308115E+04  0.25500000920E-02 0. -1.
       -2    1    3    3    0  502  0.77136557557E+03 -0.33038816743E+03  0.93894605785E+03  0.12592779248E+04  0.25500000920E-02 0.  1.
</event>
<event>
 5   0  0.2224454E-04  0.1695373E+04  0.7818609E-02  0.8764008E-01
        2   -1    0    0  501    0  0.00000000000E+00  0.00000000000E+00  0.12109622995E+04  0.12109622995E+04  0.25500000920E-02 0. -1.
       -2   -1    0    0    0  501  0.00000000000E+00  0.00000000000E+00 -0.59338966315E+03  0.59338966316E+03  0.25500000920E-02 0.  1.
    10030    2    1    2    0    0  0.00000000000E+00  0.00000000000E+00  0.61757263635E+03  0.18043519627E+04  0.16953731283E+04 0.  0.
        2    1    3    3  502    0 -0.79870918789E+03 -0.15280057680E+03  0.54051519892E+02  0.81498831274E+03  0.25500000920E-02 0.  1.
       -2    1    3    3    0  502  0.79870918789E+03  0.15280057680E+03  0.56352111646E+03  0.98936364993E+03  0.25500000920E-02 0. -1.
</event>
<event>
 5   0  0.1215233E-04  0.1691629E+04  0.7818609E-02  0.8766153E-01
        1   -1    0    0  501    0  0.00000000000E+00  0.00000000000E+00  0.10906473293E+04  0.10906473293E+04  0.50400001928E-02 0. -1.
       -1   -1    0    0    0  501  0.00000000000E+00  0.00000000000E+00 -0.65594290277E+03  0.65594290279E+03  0.50400001928E-02 0.  1.
    10030    2    1    2    0    0  0.00000000000E+00  0.00000000000E+00  0.43470442653E+03  0.17465902321E+04  0.16916292444E+04 0.  0.
        2    1    3    3  502    0  0.82494492821E+03 -0.12438852269E+03  0.36114562030E+03  0.90908349354E+03  0.25500000920E-02 0.  1.
       -2    1    3    3    0  502 -0.82494492821E+03  0.12438852269E+03  0.73558806222E+02  0.83750673856E+03  0.25500000920E-02 0. -1.
</event>
<event>
 5   0  0.2288806E-04  0.1633336E+04  0.7818609E-02  0.8800326E-01
        2   -1    0    0  501    0  0.00000000000E+00  0.00000000000E+00  0.15603519299E+04  0.15603519299E+04  0.25500000920E-02 0.  1.
       -2   -1    0    0    0  501  0.00000000000E+00  0.00000000000E+00 -0.42743352555E+03  0.42743352556E+03  0.25500000920E-02 0. -1.
    10030    2    1    2    0    0  0.00000000000E+00  0.00000000000E+00  0.11329184044E+04  0.19877854555E+04  0.16333361277E+04 0.  0.
        3    1    3    3  502    0 -0.69357238783E+03 -0.30625266980E+03  0.19709461456E+03  0.78337708175E+03  0.10100000352E+00 0. -1.
       -3    1    3    3    0  502  0.69357238783E+03  0.30625266980E+03  0.93582378980E+03  0.12044083737E+04  0.10100000352E+00 0.  1.
</event>
<event>
 5   0  0.2356829E-04  0.1696264E+04  0.7818609E-02  0.8763498E-01
        2   -1    0    0  501    0  0.00000000000E+00  0.00000000000E+00  0.12120973264E+04  0.12120973264E+04  0.25500000920E-02 0. -1.
       -2   -1    0    0    0  501  0.00000000000E+00  0.00000000000E+00 -0.59345698194E+03  0.59345698195E+03  0.25500000920E-02 0.  1.
    10030    2    1    2    0    0  0.00000000000E+00  0.00000000000E+00  0.61864034441E+03  0.18055543083E+04  0.16962636837E+04 0.  0.
        5    1    3    3  502    0 -0.74312426458E+03  0.31680043984E+03  0.58424281696E+03  0.99697439810E+03  0.46999998093E+01 0. -1.
       -5    1    3    3    0  502  0.74312426458E+03 -0.31680043984E+03  0.34397527450E+02  0.80857991021E+03  0.46999998093E+01 0.  1.
</event>
<event>
 5   0  0.1234158E-04  0.1696669E+04  0.7818609E-02  0.8763266E-01
       -1   -1    0    0    0  501  0.00000000000E+00  0.00000000000E+00  0.61245308467E+03  0.61245308469E+03  0.50400001928E-02 0.  1.
        1   -1    0    0  501    0  0.00000000000E+00  0.00000000000E+00 -0.11750638347E+04  0.11750638347E+04  0.50400001928E-02 0. -1.
    10030    2    1    2    0    0  0.00000000000E+00  0.00000000000E+00 -0.56261075000E+03  0.17875169194E+04  0.16966690547E+04 0.  0.
        5    1    3    3  502    0 -0.34090326117E+03 -0.26853672669E+03  0.48664308576E+03  0.65205106393E+03  0.46999998093E+01 0.  1.
       -5    1    3    3    0  502  0.34090326117E+03  0.26853672669E+03 -0.10492538358E+04  0.11354658555E+04  0.46999998093E+01 0. -1.
</event>
<event>
 5   0  0.1186302E-04  0.1725548E+04  0.7818609E-02  0.8746926E-01
       -1   -1    0    0    0  501  0.00000000000E+00  0.00000000000E+00  0.64844309463E+03  0.64844309465E+03  0.50400001928E-02 0.  1.
        1   -1    0    0  501    0  0.00000000000E+00  0.00000000000E+00 -0.11479474835E+04  0.11479474835E+04  0.50400001928E-02 0. -1.
    10030    2    1    2    0    0  0.00000000000E+00  0.00000000000E+00 -0.49950438888E+03  0.17963905782E+04  0.17255475870E+04 0.  0.
        3    1    3    3  502    0 -0.63301469937E+03 -0.58391680458E+03 -0.30396873718E+03  0.91327074171E+03  0.10100000352E+00 0. -1.
       -3    1    3    3    0  502  0.63301469937E+03  0.58391680458E+03 -0.19553565170E+03  0.88311983647E+03  0.10100000352E+00 0.  1.
</event>
<event>
 5   0  0.2288806E-04  0.1699154E+04  0.7818609E-02  0.8761847E-01
       -2   -1    0    0    0  501  0.00000000000E+00  0.00000000000E+00  0.47241433768E+03  0.47241433769E+03  0.25500000920E-02 0. -1.
        2   -1    0    0  501    0  0.00000000000E+00  0.00000000000E+00 -0.15278552572E+04  0.15278552572E+04  0.25500000920E-02 0.  1.
    10030    2    1    2    0    0  0.00000000000E+00  0.00000000000E+00 -0.10554409195E+04  0.20002695949E+04  0.16991535886E+04 0.  0.
        3    1    3    3  502    0 -0.84911075030E+03 -0.25409900515E+02 -0.51349660681E+03  0.99262959090E+03  0.10100000352E+00 0.  1.
       -3    1    3    3    0  502  0.84911075030E+03  0.25409900515E+02 -0.54194431267E+03  0.10076400040E+04  0.10100000352E+00 0. -1.
</event>
<event>
 5   0  0.2234723E-04  0.1697267E+04  0.7818609E-02  0.8762925E-01
        2   -1    0    0  501    0  0.00000000000E+00  0.00000000000E+00  0.94902953146E+03  0.94902953147E+03  0.25500000920E-02 0.  1.
       -2   -1    0    0    0  501  0.00000000000E+00  0.00000000000E+00 -0.75885816227E+03  0.75885816227E+03  0.25500000920E-02 0. -1.
    10030    2    1    2    0    0  0.00000000000E+00  0.00000000000E+00  0.19017136920E+03  0.17078876937E+04  0.16972669869E+04 0.  0.
        1    1    3    3  502    0  0.51173561475E+03 -0.29159231606E+03  0.70987477179E+03  0.92239991861E+03  0.50400001928E-02 0.  1.
       -1    1    3    3    0  502 -0.51173561475E+03  0.29159231606E+03 -0.51970340260E+03  0.78548777513E+03  0.50400001928E-02 0. -1.
</event>
<event>
 5   0  0.2234723E-04  0.1710571E+04  0.7818609E-02  0.8755358E-01
        2   -1    0    0  501    0  0.00000000000E+00  0.00000000000E+00  0.13387298746E+04  0.13387298746E+04  0.25500000920E-02 0. -1.
       -2   -1    0    0    0  501  0.00000000000E+00  0.00000000000E+00 -0.54642351659E+03  0.54642351660E+03  0.25500000920E-02 0.  1.
    10030    2    1    2    0    0  0.00000000000E+00  0.00000000000E+00  0.79230635803E+03  0.18851533912E+04  0.17105712331E+04 0.  0.
        1    1    3    3  502    0  0.56397656649E+02 -0.18794699168E+03  0.13135872797E+04  0.13281627569E+04  0.50400001928E-02 0. -1.
       -1    1    3    3    0  502 -0.56397656649E+02  0.18794699168E+03 -0.52128092170E+03  0.55699063431E+03  0.50400001928E-02 0.  1.
</event>
<event>
 5   0  0.2224454E-04  0.1700867E+04  0.7818609E-02  0.8760870E-01
        2   -1    0    0  501    0  0.00000000000E+00  0.00000000000E+00  0.28835086152E+04  0.28835086152E+04  0.25500000920E-02 0. -1.
       -2   -1    0    0    0  501  0.00000000000E+00  0.00000000000E+00 -0.25081854630E+03  0.25081854631E+03  0.25500000920E-02 0.  1.
    10030    2    1    2    0    0  0.00000000000E+00  0.00000000000E+00  0.26326900689E+04  0.31343271615E+04  0.17008673542E+04 0.  0.
        2    1    3    3  502    0  0.68263075424E+03 -0.22982848860E+03  0.21495423273E+04  0.22670108288E+04  0.25500000920E-02 0. -1.
       -2    1    3    3    0  502 -0.68263075424E+03  0.22982848860E+03  0.48314774155E+03  0.86731633271E+03  0.25500000920E-02 0.  1.
</event>
<event>
 5   0  0.1204741E-04  0.1710565E+04  0.7818609E-02  0.8755361E-01
        1   -1    0    0  501    0  0.00000000000E+00  0.00000000000E+00  0.44949733392E+03  0.44949733395E+03  0.50400001928E-02 0.  1.
       -1   -1    0    0    0  501  0.00000000000E+00  0.00000000000E+00 -0.16273918879E+04  0.16273918879E+04  0.50400001928E-02 0. -1.
    10030    2    1    2    0    0  0.00000000000E+00  0.00000000000E+00 -0.11778945540E+04  0.20768892219E+04  0.17105651872E+04 0.  0.
        1    1    3    3  502    0 -0.24693819746E+03 -0.51869004176E+03  0.18038035349E+03  0.60212532311E+03  0.50400001928E-02 0.  1.
       -1    1    3    3    0  502  0.24693819746E+03  0.51869004176E+03 -0.13582749075E+04  0.14747638987E+04  0.50400001928E-02 0. -1.
</event>
<event>
 5   0  0.2234723E-04  0.1699391E+04  0.7818609E-02  0.8761712E-01
        2   -1    0    0  501    0  0.00000000000E+00  0.00000000000E+00  0.20437782115E+04  0.20437782115E+04  0.25500000920E-02 0. -1.
       -2   -1    0    0    0  501  0.00000000000E+00  0.00000000000E+00 -0.35325861487E+03  0.35325861488E+03  0.25500000920E-02 0.  1.
    10030    2    1    2    0    0  0.00000000000E+00  0.00000000000E+00  0.16905195966E+04  0.23970368264E+04  0.16993907851E+04 0.  0.
        1    1    3    3  502    0  0.54624916500E+03  0.15454059604E+03 -0.46513917891E+02  0.56959151211E+03  0.50400001928E-02 0.  1.
       -1    1    3    3    0  502 -0.54624916500E+03 -0.15454059604E+03  0.17370335145E+04  0.18274453142E+04  0.50400001928E-02 0. -1.
</event>
<event>
 5   0  0.2242967E-04  0.1684835E+04  0.7818609E-02  0.8770061E-01
       -2   -1    0    0    0  501  0.00000000000E+00  0.00000000000E+00  0.82241265095E+03  0.82241265096E+03  0.25500000920E-02 0. -1.
        2   -1    0    0  501    0  0.00000000000E+00  0.00000000000E+00 -0.86290846407E+03  0.86290846407E+03  0.25500000920E-02 0.  1.
    10030    2    1    2    0    0  0.00000000000E+00  0.00000000000E+00 -0.40495813117E+02  0.16853211150E+04  0.16848345171E+04 0.  0.
        4    1    3    3  502    0 -0.17776351552E+02  0.65965709620E+03 -0.54404190128E+03  0.85524656474E+03  0.12699999809E+01 0.  1.
       -4    1    3    3    0  502  0.17776351552E+02 -0.65965709620E+03  0.50354608816E+03  0.83007455029E+03  0.12699999809E+01 0. -1.
</event>
<event>
 5   0  0.2288806E-04  0.1706440E+04  0.7818609E-02  0.8757700E-01
       -2   -1    0    0    0  501  0.00000000000E+00  0.00000000000E+00  0.33069973757E+03  0.33069973758E+03  0.25500000920E-02 0. -1.
        2   -1    0    0  501    0  0.00000000000E+00  0.00000000000E+00 -0.22013451221E+04  0.22013451221E+04  0.25500000920E-02 0.  1.
    10030    2    1    2    0    0  0.00000000000E+00  0.00000000000E+00 -0.18706453845E+04  0.25320448597E+04  0.17064398661E+04 0.  0.
        3    1    3    3  502    0 -0.52854310154E+03 -0.23758427841E+03 -0.18645526617E+04  0.19525267573E+04  0.10100000352E+00 0.  1.
       -3    1    3    3    0  502  0.52854310154E+03  0.23758427841E+03 -0.60927228462E+01  0.57951810240E+03  0.10100000352E+00 0. -1.
</event>
<event>
 5   0  0.1234158E-04  0.1689432E+04  0.7818609E-02  0.8767415E-01
        1   -1    0    0  501    0  0.00000000000E+00  0.00000000000E+00  0.68649696963E+03  0.68649696965E+03  0.50400001928E-02 0. -1.
       -1   -1    0    0    0  501  0.00000000000E+00  0.00000000000E+00 -0.10394000853E+04  0.10394000853E+04  0.50400001928E-02 0.  1.
    10030    2    1    2    0    0  0.00000000000E+00  0.00000000000E+00 -0.35290311565E+03  0.17258970549E+04  0.16894318676E+04 0.  0.
        5    1    3    3  502    0 -0.82763911736E+03  0.10842294858E+03 -0.30878862316E+03  0.89000817309E+03  0.46999998093E+01 0. -1.
       -5    1    3    3    0  502  0.82763911736E+03 -0.10842294858E+03 -0.44114492485E+02  0.83588888186E+03  0.46999998093E+01 0.  1.
</event>
<event>
 5   0  0.1215233E-04  0.1707405E+04  0.7818609E-02  0.8757152E-01
       -1   -1    0    0    0  501  0.00000000000E+00  0.00000000000E+00  0.81586651299E+03  0.81586651301E+03  0.50400001928E-02 0.  1.
        1   -1    0    0  501    0  0.00000000000E+00  0.00000000000E+00 -0.89329365313E+03  0.89329365314E+03  0.50400001928E-02 0. -1.
    10030    2    1    2    0    0  0.00000000000E+00  0.00000000000E+00 -0.77427140132E+02  0.17091601661E+04  0.17074054912E+04 0.  0.
        2    1    3    3  502    0  0.51416930850E+03  0.13694851913E+03  0.62956774654E+03  0.82430608525E+03  0.25500000920E-02 0.  1.
       -2    1    3    3    0  502 -0.51416930850E+03 -0.13694851913E+03 -0.70699488667E+03  0.88485408090E+03  0.25500000920E-02 0. -1.
</event>
<event>
 5   0  0.2234723E-04  0.1697614E+04  0.7818609E-02  0.8762726E-01
        2   -1    0    0  501    0  0.00000000000E+00  0.00000000000E+00  0.20626872240E+04  0.20626872240E+04  0.25500000920E-02 0.  1.
       -2   -1    0    0    0  501  0.00000000000E+00  0.00000000000E+00 -0.34928868919E+03  0.34928868920E+03  0.25500000920E-02 0. -1.
    10030    2    1    2    0    0  0.00000000000E+00  0.00000000000E+00  0.17133985348E+04  0.24119759132E+04  0.16976139923E+04 0.  0.
        1    1    3    3  502    0 -0.25251895937E+03 -0.18039899443E+03 -0.26579277834E+03  0.40860179035E+03  0.50400001928E-02 0. -1.
       -1    1    3    3    0  502  0.25251895937E+03  0.18039899443E+03  0.19791913132E+04  0.20033741229E+04  0.50400001928E-02 0.  1.
</event>
<event>
 5   0  0.2242967E-04  0.1701693E+04  0.7818609E-02  0.8760399E-01
       -2   -1    0    0    0  501  0.00000000000E+00  0.00000000000E+00  0.51000307157E+03  0.51000307157E+03  0.25500000920E-02 0. -1.
        2   -1    0    0  501    0  0.00000000000E+00  0.00000000000E+00 -0.14194819476E+04  0.14194819476E+04  0.25500000920E-02 0.  1.
    10030    2    1    2    0    0  0.00000000000E+00  0.00000000000E+00 -0.90947887607E+03  0.19294850192E+04  0.17016934546E+04 0.  0.
        4    1    3    3  502    0  0.30835892037E+03 -0.11650832418E+03  0.43465861356E+03  0.54551731102E+03  0.12699999809E+01 0. -1.
       -4    1    3    3    0  502 -0.30835892037E+03  0.11650832418E+03 -0.13441374896E+04  0.13839677082E+04  0.12699999809E+01 0.  1.
</event>
<event>
 5   0  0.2288806E-04  0.1733265E+04  0.7818609E-02  0.8742616E-01
       -2   -1    0    0    0  501  0.00000000000E+00  0.00000000000E+00  0.13054377683E+04  0.13054377683E+04  0.25500000920E-02 0.  1.
        2   -1    0    0  501    0  0.00000000000E+00  0.00000000000E+00 -0.57532571302E+03  0.57532571302E+03  0.25500000920E-02 0. -1.
    10030    2    1    2    0    0  0.00000000000E+00  0.00000000000E+00  0.73011205523E+03  0.18807634813E+04  0.17332650286E+04 0.  0.
        3    1    3    3  502    0  0.41945598145E+02 -0.26273602365E+03 -0.52991174253E+03  0.59295540844E+03  0.10100000352E+00 0. -1.
       -3    1    3    3    0  502 -0.41945598145E+02  0.26273602365E+03  0.12600237978E+04  0.12878080728E+04  0.10100000352E+00 0.  1.
</event>
<event>
 5   0  0.1204741E-04  0.1706596E+04  0.7818609E-02  0.8757611E-01
       -1   -1    0    0    0  501  0.00000000000E+00  0.00000000000E+00  0.46289322579E+03  0.46289322581E+03  0.50400001928E-02 0. -1.
        1   -1    0    0  501    0  0.00000000000E+00  0.00000000000E+00 -0.15729707232E+04  0.15729707232E+04  0.50400001928E-02 0.  1.
    10030    2    1    2    0    0  0.00000000000E+00  0.00000000000E+00 -0.11100774974E+04  0.20358639490E+04  0.17065960180E+04 0.  0.
        1    1    3    3  502    0 -0.81013436988E+03  0.19480242507E+03 -0.77452583414E+03  0.11376097529E+04  0.50400001928E-02 0. -1.
       -1    1    3    3    0  502  0.81013436988E+03 -0.19480242507E+03 -0.33555166323E+03  0.89825419610E+03  0.50400001928E-02 0.  1.
</event>
<event>
 5   0  0.2224454E-04  0.1704196E+04  0.7818609E-02  0.8758975E-01
       -2   -1    0    0    0  501  0.00000000000E+00  0.00000000000E+00  0.35715936403E+03  0.35715936404E+03  0.25500000920E-02 0.  1.
        2   -1    0    0  501    0  0.00000000000E+00  0.00000000000E+00 -0.20329039914E+04  0.20329039914E+04  0.25500000920E-02 0. -1.
    10030    2    1    2    0    0  0.00000000000E+00  0.00000000000E+00 -0.16757446273E+04  0.23900633554E+04  0.17041956422E+04 0.  0.
        2    1    3    3  502    0 -0.54495353345E+03 -0.49928281334E+03 -0.24316877201E+03  0.77806730622E+03  0.25500000920E-02 0.  1.
       -2    1    3    3    0  502  0.54495353345E+03  0.49928281334E+03 -0.14325758553E+04  0.16119960492E+04  0.25500000920E-02 0. -1.
</event>
<event>
 5   0  0.1204741E-04  0.1738861E+04  0.7818609E-02  0.8739506E-01
        1   -1    0    0  501    0  0.00000000000E+00  0.00000000000E+00  0.91562775140E+03  0.91562775141E+03  0.50400001928E-02 0.  1.
       -1   -1    0    0    0  501  0.00000000000E+00  0.00000000000E+00 -0.82556433712E+03  0.82556433714E+03  0.50400001928E-02 0. -1.
    10030    2    1    2    0    0  0.00000000000E+00  0.00000000000E+00  0.90063414275E+02  0.17411920885E+04  0.17388612569E+04 0.  0.
        1    1    3    3  502    0 -0.13921352386E+03 -0.35045927584E+03  0.82947665865E+03  0.91117157360E+03  0.50400001928E-02 0.  1.
       -1    1    3    3    0  502  0.13921352386E+03  0.35045927584E+03 -0.73941324438E+03  0.83002051495E+03  0.50400001928E-02 0. -1.
</event>
<event>
 5   0  0.1215233E-04  0.1685663E+04  0.7818609E-02  0.8769584E-01
        1   -1    0    0  501    0  0.00000000000E+00  0.00000000000E+00  0.59986934898E+03  0.59986934900E+03  0.50400001928E-02 0.  1.
       -1   -1    0    0    0  501  0.00000000000E+00  0.00000000000E+00 -0.11841998962E+04  0.11841998962E+04  0.50400001928E-02 0. -1.
    10030    2    1    2    0    0  0.00000000000E+00  0.00000000000E+00 -0.58433054718E+03  0.17840692452E+04  0.16856633363E+04 0.  0.
        2    1    3    3  502    0  0.57990430201E+03  0.15592543089E+03  0.33376808463E+03  0.68702465299E+03  0.25500000920E-02 0.  1.
       -2    1    3    3    0  502 -0.57990430201E+03 -0.15592543089E+03 -0.91809863181E+03  0.10970445922E+04  0.25500000920E-02 0. -1.
</event>
<event>
 5   0  0.2356829E-04  0.1695839E+04  0.7818609E-02  0.8763741E-01
        2   -1    0    0  501    0  0.00000000000E+00  0.00000000000E+00  0.86727657165E+03  0.86727657165E+03  0.25500000920E-02 0. -1.
       -2   -1    0    0    0  501  0.00000000000E+00  0.00000000000E+00 -0.82899458024E+03  0.82899458024E+03  0.25500000920E-02 0.  1.
    10030    2    1    2    0    0  0.00000000000E+00  0.00000000000E+00  0.38281991407E+02  0.16962711519E+04  0.16958391167E+04 0.  0.
        5    1    3    3  502    0  0.36618307976E+03  0.62425328075E+03  0.46102642659E+03  0.85810818808E+03  0.46999998093E+01 0. -1.
       -5    1    3    3    0  502 -0.36618307976E+03 -0.62425328075E+03 -0.42274443519E+03  0.83816296382E+03  0.46999998093E+01 0.  1.
</event>
<event>
 5   0  0.1204741E-04  0.1704322E+04  0.7818609E-02  0.8758903E-01
       -1   -1    0    0    0  501  0.00000000000E+00  0.00000000000E+00  0.15306613433E+04  0.15306613433E+04  0.50400001928E-02 0. -1.
        1   -1    0    0  501    0  0.00000000000E+00  0.00000000000E+00 -0.47442153177E+03  0.47442153179E+03  0.50400001928E-02 0.  1.
    10030    2    1    2    0    0  0.00000000000E+00  0.00000000000E+00  0.10562398116E+04  0.20050828751E+04  0.17043223864E+04 0.  0.
        1    1    3    3  502    0 -0.67512261861E+03  0.28636088387E+03  0.10387476675E+04  0.12715305041E+04  0.50400001928E-02 0. -1.
       -1    1    3    3    0  502  0.67512261861E+03 -0.28636088387E+03  0.17492144049E+02  0.73355237107E+03  0.50400001928E-02 0.  1.
</event>
<event>
 5   0  0.2242967E-04  0.1706406E+04  0.7818609E-02  0.8757719E-01
       -2   -1    0    0    0  501  0.00000000000E+00  0.00000000000E+00  0.61373125542E+03  0.61373125542E+03  0.25500000920E-02 0.  1.
        2   -1    0    0  501    0  0.00000000000E+00  0.00000000000E+00 -0.11861148433E+04  0.11861148433E+04  0.25500000920E-02 0. -1.
    10030    2    1    2    0    0  0.00000000000E+00  0.00000000000E+00 -0.57238358787E+03  0.17998460987E+04  0.17064064602E+04 0.  0.
        4    1    3    3  502    0  0.78164916749E+03  0.34013864740E+03 -0.24839054469E+03  0.88790156892E+03  0.12699999809E+01 0.  1.
       -4    1    3    3    0  502 -0.78164916749E+03 -0.34013864740E+03 -0.32399304318E+03  0.91194452980E+03  0.12699999809E+01 0. -1.
</event>
<event>
 5   0  0.8372750E-05  0.1696634E+04  0.7818609E-02  0.8763286E-01
       -3   -1    0    0    0  501  0.00000000000E+00  0.00000000000E+00  0.13948867319E+04  0.13948867355E+04  0.10100000352E+00 0. -1.
        3   -1    0    0  501    0  0.00000000000E+00  0.00000000000E+00 -0.51591424253E+03  0.51591425241E+03  0.10100000352E+00 0.  1.
    10030    2    1    2    0    0  0.00000000000E+00  0.00000000000E+00  0.87897248934E+03  0.19108009879E+04  0.16966342501E+04 0.  0.
        4    1    3    3  502    0  0.70061568327E+03 -0.44513569460E+03  0.24237273590E+03  0.86472786370E+03  0.12699999809E+01 0. -1.
       -4    1    3    3    0  502 -0.70061568327E+03  0.44513569460E+03  0.63659975344E+03  0.10460731242E+04  0.12699999809E+01 0.  1.
</event>
<event>
 5   0  0.2288806E-04  0.1696712E+04  0.7818609E-02  0.8763242E-01
       -2   -1    0    0    0  501  0.00000000000E+00  0.00000000000E+00  0.49965863341E+03  0.49965863342E+03  0.25500000920E-02 0. -1.
        2   -1    0    0  501    0  0.00000000000E+00  0.00000000000E+00 -0.14403987041E+04  0.14403987041E+04  0.25500000920E-02 0.  1.
    10030    2    1    2    0    0  0.00000000000E+00  0.00000000000E+00 -0.94074007066E+03  0.19400573375E+04  0.16967116998E+04 0.  0.
        3    1    3    3  502    0  0.73247576222E+03  0.39539913556E+02  0.16925598662E+02  0.73373744153E+03  0.10100000352E+00 0. -1.
       -3    1    3    3    0  502 -0.73247576222E+03 -0.39539913556E+02 -0.95766566932E+03  0.12063198960E+04  0.10100000352E+00 0.  1.
</event>
<event>
 5   0  0.2288806E-04  0.1676291E+04  0.7818609E-02  0.8775003E-01
        2   -1    0    0  501    0  0.00000000000E+00  0.00000000000E+00  0.13966247656E+04  0.13966247657E+04  0.25500000920E-02 0. -1.
       -2   -1    0    0    0  501  0.00000000000E+00  0.00000000000E+00 -0.50298990739E+03  0.50298990740E+03  0.25500000920E-02 0.  1.
    10030    2    1    2    0    0  0.00000000000E+00  0.00000000000E+00  0.89363485826E+03  0.18996146731E+04  0.16762913369E+04 0.  0.
        3    1    3    3  502    0  0.44876926671E+03  0.30323130303E+02 -0.35463346989E+03  0.57278115816E+03  0.10100000352E+00 0.  1.
       -3    1    3    3    0  502 -0.44876926671E+03 -0.30323130303E+02  0.12482683281E+04  0.13268335149E+04  0.10100000352E+00 0. -1.
</event>
<event>
 5   0  0.1186302E-04  0.1699735E+04  0.7818609E-02  0.8761516E-01
       -1   -1    0    0    0  501  0.00000000000E+00  0.00000000000E+00  0.10838892395E+04  0.10838892395E+04  0.50400001928E-02 0. -1.
        1   -1    0    0  501    0  0.00000000000E+00  0.00000000000E+00 -0.66637294715E+03  0.66637294717E+03  0.50400001928E-02 0.  1.
    10030    2    1    2    0    0  0.00000000000E+00  0.00000000000E+00  0.41751629233E+03  0.17502621867E+04  0.16997346463E+04 0.  0.
        3    1    3    3  502    0  0.28233831261E+03  0.64984386105E+03 -0.27451454626E+03  0.75984880919E+03  0.10100000352E+00 0.  1.
       -3    1    3    3    0  502 -0.28233831261E+03 -0.64984386105E+03  0.69203083859E+03  0.99041337747E+03  0.10100000352E+00 0. -1.
</event>
<event>
 5   0  0.2224454E-04  0.1696936E+04  0.7818609E-02  0.8763114E-01
        2   -1    0    0  501    0  0.00000000000E+00  0.00000000000E+00  0.11588765348E+04  0.11588765348E+04  0.25500000920E-02 0. -1.
       -2   -1    0    0    0  501  0.00000000000E+00  0.00000000000E+00 -0.62120353472E+03  0.62120353472E+03  0.25500000920E-02 0.  1.
    10030    2    1    2    0    0  0.00000000000E+00  0.00000000000E+00  0.53767300006E+03  0.17800800695E+04  0.16969362978E+04 0.  0.
        2    1    3    3  502    0 -0.31430360708E+03 -0.46920889299E+03  0.93307114092E+03  0.10906720390E+04  0.25500000920E-02 0. -1.
       -2    1    3    3    0  502  0.31430360708E+03  0.46920889299E+03 -0.39539814086E+03  0.68940803048E+03  0.25500000920E-02 0.  1.
</event>
<event>
 5   0  0.2242967E-04  0.1698875E+04  0.7818609E-02  0.8762006E-01
        2   -1    0    0  501    0  0.00000000000E+00  0.00000000000E+00  0.69010565283E+03  0.69010565284E+03  0.25500000920E-02 0. -1.
       -2   -1    0    0    0  501  0.00000000000E+00  0.00000000000E+00 -0.10455560834E+04  0.10455560834E+04  0.25500000920E-02 0.  1.
    10030    2    1    2    0    0  0.00000000000E+00  0.00000000000E+00 -0.35545043056E+03  0.17356617362E+04  0.16988751143E+04 0.  0.
        4    1    3    3  502    0  0.51215297196E+03  0.36924430600E+03 -0.75827305198E+03  0.98672268569E+03  0.12699999809E+01 0.  1.
       -4    1    3    3    0  502 -0.51215297196E+03 -0.36924430600E+03  0.40282262142E+03  0.74893905054E+03  0.12699999809E+01 0. -1.
</event>
<event>
 5   0  0.2242967E-04  0.1704473E+04  0.7818609E-02  0.8758817E-01
       -2   -1    0    0    0  501  0.00000000000E+00  0.00000000000E+00  0.17311138518E+04  0.17311138518E+04  0.25500000920E-02 0.  1.
        2   -1    0    0  501    0  0.00000000000E+00  0.00000000000E+00 -0.41956057133E+03  0.41956057134E+03  0.25500000920E-02 0. -1.
    10030    2    1    2    0    0  0.00000000000E+00  0.00000000000E+00  0.13115532804E+04  0.21506744231E+04  0.17044730760E+04 0.  0.
        4    1    3    3  502    0  0.75309544233E+03  0.88961416642E+02  0.11464764446E+04  0.13745823838E+04  0.12699999809E+01 0.  1.
       -4    1    3    3    0  502 -0.75309544233E+03 -0.88961416642E+02  0.16507683589E+03  0.77609203936E+03  0.12699999809E+01 0. -1.
</event>
<event>
 5   0  0.1126958E-04  0.1703844E+04  0.7818609E-02  0.8759175E-01
        1   -1    0    0  501    0  0.00000000000E+00  0.00000000000E+00  0.12291157740E+04  0.12291157741E+04  0.50400001928E-02 0. -1.
       -1   -1    0    0    0  501  0.00000000000E+00  0.00000000000E+00 -0.59048248063E+03  0.59048248065E+03  0.50400001928E-02 0.  1.
    10030    2    1    2    0    0  0.00000000000E+00  0.00000000000E+00  0.63863329342E+03  0.18195982547E+04  0.17038442784E+04 0.  0.
        4    1    3    3  502    0 -0.40634361548E+03 -0.47645119491E+03  0.93618206359E+03  0.11263033979E+04  0.12699999809E+01 0. -1.
       -4    1    3    3    0  502  0.40634361548E+03  0.47645119491E+03 -0.29754877017E+03  0.69329485683E+03  0.12699999809E+01 0.  1.
</event>
<event>
 5   0  0.1186302E-04  0.1702076E+04  0.7818609E-02  0.8760181E-01
       -1   -1    0    0    0  501  0.00000000000E+00  0.00000000000E+00  0.99745537275E+03  0.99745537276E+03  0.50400001928E-02 0.  1.
        1   -1    0    0  501    0  0.00000000000E+00  0.00000000000E+00 -0.72611338827E+03  0.72611338829E+03  0.50400001928E-02 0. -1.
    10030    2    1    2    0    0  0.00000000000E+00  0.00000000000E+00  0.27134198448E+03  0.17235687611E+04  0.17020760270E+04 0.  0.
        3    1    3    3  502    0  0.62373226289E+03 -0.33515597493E+03  0.61374933379E+03  0.93704840762E+03  0.10100000352E+00 0. -1.
       -3    1    3    3    0  502 -0.62373226289E+03  0.33515597493E+03 -0.34240734931E+03  0.78652035343E+03  0.10100000352E+00 0.  1.
</event>
<event>
 5   0  0.1204741E-04  0.1701524E+04  0.7818609E-02  0.8760496E-01
        1   -1    0    0  501    0  0.00000000000E+00  0.00000000000E+00  0.21712050908E+04  0.21712050908E+04  0.50400001928E-02 0.  1.
       -1   -1    0    0    0  501  0.00000000000E+00  0.00000000000E+00 -0.33336129198E+03  0.33336129202E+03  0.50400001928E-02 0. -1.
    10030    2    1    2    0    0  0.00000000000E+00  0.00000000000E+00  0.18378437988E+04  0.25045663828E+04  0.17015237104E+04 0.  0.
        1    1    3    3  502    0  0.30714206232E+03  0.47855005554E+03 -0.12546934958E+02  0.56877396891E+03  0.50400001928E-02 0. -1.
       -1    1    3    3    0  502 -0.30714206232E+03 -0.47855005554E+03  0.18503907338E+04  0.19357924139E+04  0.50400001928E-02 0.  1.
</event>
<event>
 5   0  0.1126958E-04  0.1711928E+04  0.7818609E-02  0.8754591E-01
       -1   -1    0    0    0  501  0.00000000000E+00  0.00000000000E+00  0.99089790386E+03  0.99089790387E+03  0.50400001928E-02 0.  1.
        1   -1    0    0  501    0  0.00000000000E+00  0.00000000000E+00 -0.73940444779E+03  0.73940444781E+03  0.50400001928E-02 0. -1.
    10030    2    1    2    0    0  0.00000000000E+00  0.00000000000E+00  0.25149345607E+03  0.17303023517E+04  0.17119279394E+04 0.  0.
        4    1    3    3  502    0 -0.66164728736E+02  0.30839964856E+03  0.93001638936E+03  0.98204898653E+03  0.12699999809E+01 0.  1.
       -4    1    3    3    0  502  0.66164728736E+02 -0.30839964856E+03 -0.67852293329E+03  0.74825336515E+03  0.12699999809E+01 0. -1.
</event>
<event>
 5   0  0.1204741E-04  0.1700755E+04  0.7818609E-02  0.8760934E-01
       -1   -1    0    0    0  501  0.00000000000E+00  0.00000000000E+00  0.44722719101E+03  0.44722719103E+03  0.50400001928E-02 0.  1.
        1   -1    0    0  501    0  0.00000000000E+00  0.00000000000E+00 -0.16169454113E+04  0.16169454113E+04  0.50400001928E-02 0. -1.
    10030    2    1    2    0    0  0.00000000000E+00  0.00000000000E+00 -0.11697182203E+04  0.20641726023E+04  0.17007550727E+04 0.  0.
        1    1    3    3  502    0 -0.71452479257E+03  0.39075622093E+03 -0.88191547008E+03  0.12004211760E+04  0.50400001928E-02 0. -1.
       -1    1    3    3    0  502  0.71452479257E+03 -0.39075622093E+03 -0.28780275017E+03  0.86375142630E+03  0.50400001928E-02 0.  1.
</event>
<event>
 5   0  0.2224454E-04  0.1699531E+04  0.7818609E-02  0.8761632E-01
       -2   -1    0    0    0  501  0.00000000000E+00  0.00000000000E+00  0.78815630853E+03  0.78815630854E+03  0.25500000920E-02 0. -1.
        2   -1    0    0  501    0  0.00000000000E+00  0.00000000000E+00 -0.91619093757E+03  0.91619093757E+03  0.25500000920E-02 0.  1.
    10030    2    1    2    0    0  0.00000000000E+00  0.00000000000E+00 -0.12803462903E+03  0.17043472461E+04  0.16995313087E+04 0.  0.
        2    1    3    3  502    0  0.13601756626E+03 -0.70942197697E+03 -0.51285832368E+03  0.88589162989E+03  0.25500000920E-02 0.  1.
       -2    1    3    3    0  502 -0.13601756626E+03  0.70942197697E+03  0.38482369465E+03  0.81845561621E+03  0.25500000920E-02 0. -1.
</event>
<event>
 5   0  0.1126958E-04  0.1768773E+04  0.7818609E-02  0.8723084E-01
       -1   -1    0    0    0  501  0.00000000000E+00  0.00000000000E+00  0.46052241146E+03  0.46052241148E+03  0.50400001928E-02 0.  1.
        1   -1    0    0  501    0  0.00000000000E+00  0.00000000000E+00 -0.16983738373E+04  0.16983738373E+04  0.50400001928E-02 0. -1.
    10030    2    1    2    0    0  0.00000000000E+00  0.00000000000E+00 -0.12378514259E+04  0.21588962488E+04  0.17687726990E+04 0.  0.
        4    1    3    3  502    0  0.19858482367E+03 -0.51736137005E+03  0.22232282976E+03  0.59709946654E+03  0.12699999809E+01 0.  1.
       -4    1    3    3    0  502 -0.19858482367E+03  0.51736137005E+03 -0.14601742556E+04  0.15617967823E+04  0.12699999809E+01 0. -1.
</event>
<event>
 5   0  0.2224454E-04  0.1700380E+04  0.7818609E-02  0.8761148E-01
       -2   -1    0    0    0  501  0.00000000000E+00  0.00000000000E+00  0.36959261706E+03  0.36959261707E+03  0.25500000920E-02 0. -1.
        2   -1    0    0  501    0  0.00000000000E+00  0.00000000000E+00 -0.19557290678E+04  0.19557290678E+04  0.25500000920E-02 0.  1.
    10030    2    1    2    0    0  0.00000000000E+00  0.00000000000E+00 -0.15861364508E+04  0.23253216849E+04  0.17003799863E+04 0.  0.
        2    1    3    3  502    0  0.48431046477E+03  0.19174694579E+03  0.12582637013E+03  0.53586919386E+03  0.25500000920E-02 0. -1.
       -2    1    3    3    0  502 -0.48431046477E+03 -0.19174694579E+03 -0.17119628209E+04  0.17894524910E+04  0.25500000920E-02 0.  1.
</event>
<event>
 5   0  0.1204741E-04  0.1695645E+04  0.7818609E-02  0.8763852E-01
        1   -1    0    0  501    0  0.00000000000E+00  0.00000000000E+00  0.12369656901E+04  0.12369656901E+04  0.50400001928E-02 0.  1.
       -1   -1    0    0    0  501  0.00000000000E+00  0.00000000000E+00 -0.58110150380E+03  0.58110150382E+03  0.50400001928E-02 0. -1.
    10030    2    1    2    0    0  0.00000000000E+00  0.00000000000E+00  0.65586418631E+03  0.18180671939E+04  0.16956445650E+04 0.  0.
        1    1    3    3  502    0 -0.66217302983E+03  0.73572420425E+02  0.89011235095E+03  0.11118390260E+04  0.50400001928E-02 0.  1.
       -1    1    3    3    0  502  0.66217302983E+03 -0.73572420425E+02 -0.23424816464E+03  0.70622816790E+03  0.50400001928E-02 0. -1.
</event>
<event>
 5   0  0.1186302E-04  0.1703043E+04  0.7818609E-02  0.8759631E-01
        1   -1    0    0  501    0  0.00000000000E+00  0.00000000000E+00  0.91360536646E+03  0.91360536647E+03  0.50400001928E-02 0. -1.
       -1   -1    0    0    0  501  0.00000000000E+00  0.00000000000E+00 -0.79365641406E+03  0.79365641407E+03  0.50400001928E-02 0.  1.
    10030    2    1    2    0    0  0.00000000000E+00  0.00000000000E+00  0.11994895240E+03  0.17072617805E+04  0.17030428756E+04 0.  0.
        3    1    3    3  502    0  0.43931821301E+03  0.55532475897E+03  0.53411832289E+03  0.88694333148E+03  0.10100000352E+00 0. -1.
       -3    1    3    3    0  502 -0.43931821301E+03 -0.55532475897E+03 -0.41416937049E+03  0.82031844906E+03  0.10100000352E+00 0.  1.
</event>
<event>
 5   0  0.2224454E-04  0.1722273E+04  0.7818609E-02  0.8748762E-01
       -2   -1    0    0    0  501  0.00000000000E+00  0.00000000000E+00  0.45181122180E+03  0.45181122181E+03  0.25500000920E-02 0.  1.
        2   -1    0    0  501    0  0.00000000000E+00  0.00000000000E+00 -0.16412954829E+04  0.16412954829E+04  0.25500000920E-02 0. -1.
    10030    2    1    2    0    0  0.00000000000E+00  0.00000000000E+00 -0.11894842611E+04  0.20931067047E+04  0.17222725887E+04 0.  0.
        2    1    3    3  502    0 -0.30752872819E+03  0.45536674825E+03  0.21106228764E+03  0.58862558842E+03  0.25500000920E-02 0.  1.
       -2    1    3    3    0  502  0.30752872819E+03 -0.45536674825E+03 -0.14005465487E+04  0.15044811163E+04  0.25500000920E-02 0. -1.
</event>
<event>
 5   0  0.2234723E-04  0.1691455E+04  0.7818609E-02  0.8766253E-01
       -2   -1    0    0    0  501  0.00000000000E+00  0.00000000000E+00  0.30388800829E+03  0.30388800830E+03  0.25500000920E-02 0. -1.
        2   -1    0    0  501    0  0.00000000000E+00  0.00000000000E+00 -0.23536800148E+04  0.23536800148E+04  0.25500000920E-02 0.  1.
    10030    2    1    2    0    0  0.00000000000E+00  0.00000000000E+00 -0.20497920065E+04  0.26575680231E+04  0.16914551509E+04 0.  0.
        1    1    3    3  502    0  0.70661586658E+03  0.41952976652E+03 -0.71088181919E+03  0.10865837146E+04  0.50400001928E-02 0. -1.
       -1    1    3    3    0  502 -0.70661586658E+03 -0.41952976652E+03 -0.13389101873E+04  0.15709843085E+04  0.50400001928E-02 0.  1.
</event>
<event>
 5   0  0.2356829E-04  0.1681880E+04  0.7818609E-02  0.8771767E-01
       -2   -1    0    0    0  501  0.00000000000E+00  0.00000000000E+00  0.11845618402E+04  0.11845618402E+04  0.25500000920E-02 0.  1.
        2   -1    0    0  501    0  0.00000000000E+00  0.00000000000E+00 -0.59699717373E+03  0.59699717374E+03  0.25500000920E-02 0. -1.
    10030    2    1    2    0    0  0.00000000000E+00  0.00000000000E+00  0.58756466645E+03  0.17815590139E+04  0.16818799847E+04 0.  0.
        5    1    3    3  502    0 -0.22383615114E+03 -0.56866715842E+03 -0.31809696141E+03  0.68897948190E+03  0.46999998093E+01 0. -1.
       -5    1    3    3    0  502  0.22383615114E+03  0.56866715842E+03  0.90566162786E+03  0.10925795320E+04  0.46999998093E+01 0.  1.
</event>
<event>
 5   0  0.1126958E-04  0.1693791E+04  0.7818609E-02  0.8764914E-01
        1   -1    0    0  501    0  0.00000000000E+00  0.00000000000E+00  0.91964147658E+03  0.91964147659E+03  0.50400001928E-02 0. -1.
       -1   -1    0    0    0  501  0.00000000000E+00  0.00000000000E+00 -0.77990374800E+03  0.77990374802E+03  0.50400001928E-02 0.  1.
    10030    2    1    2    0    0  0.00000000000E+00  0.00000000000E+00  0.13973772858E+03  0.16995452246E+04  0.16937908188E+04 0.  0.
        4    1    3    3  502    0  0.64251781954E+03  0.53610903273E+03  0.20065037634E+03  0.86052555443E+03  0.12699999809E+01 0. -1.
       -4    1    3    3    0  502 -0.64251781954E+03 -0.53610903273E+03 -0.60912647763E+02  0.83901967018E+03  0.12699999809E+01 0.  1.
</event>
<event>
 5   0  0.1204741E-04  0.1706933E+04  0.7818609E-02  0.8757420E-01
       -1   -1    0    0    0  501  0.00000000000E+00  0.00000000000E+00  0.22469542288E+03  0.22469542293E+03  0.50400001928E-02 0.  1.
        1   -1    0    0  501    0  0.00000000000E+00  0.00000000000E+00 -0.32417451496E+04  0.32417451496E+04  0.50400001928E-02 0. -1.
    10030    2    1    2    0    0  0.00000000000E+00  0.00000000000E+00 -0.30170497267E+04  0.34664405725E+04  0.17069332703E+04 0.  0.
        1    1    3    3  502    0 -0.12379008196E+03  0.44787148107E+03 -0.54703817928E+02  0.46787322607E+03  0.50400001928E-02 0.  1.
       -1    1    3    3    0  502  0.12379008196E+03 -0.44787148107E+03 -0.29623459088E+04  0.29985673465E+04  0.50400001928E-02 0. -1.
</event>
<event>
 5   0  0.1186302E-04  0.1702912E+04  0.7818609E-02  0.8759705E-01
       -1   -1    0    0    0  501  0.00000000000E+00  0.00000000000E+00  0.41153034370E+03  0.41153034373E+03  0.50400001928E-02 0.  1.
        1   -1    0    0  501    0  0.00000000000E+00  0.00000000000E+00 -0.17616617869E+04  0.17616617869E+04  0.50400001928E-02 0. -1.
    10030    2    1    2    0    0  0.00000000000E+00  0.00000000000E+00 -0.13501314432E+04  0.21731921306E+04  0.17029119539E+04 0.  0.
        3    1    3    3  502    0 -0.24356393621E+03  0.61569420335E+03  0.80978841707E+01  0.66216941109E+03  0.10100000352E+00 0.  1.
       -3    1    3    3    0  502  0.24356393621E+03 -0.61569420335E+03 -0.13582293273E+04  0.15110227195E+04  0.10100000352E+00 0. -1.
</event>
<event>
 5   0  0.2288806E-04  0.1701445E+04  0.7818609E-02  0.8760540E-01
        2   -1    0    0  501    0  0.00000000000E+00  0.00000000000E+00  0.67504833199E+03  0.67504833199E+03  0.25500000920E-02 0.  1.
       -2   -1    0    0    0  501  0.00000000000E+00  0.00000000000E+00 -0.10721145972E+04  0.10721145972E+04  0.25500000920E-02 0. -1.
    10030    2    1    2    0    0  0.00000000000E+00  0.00000000000E+00 -0.39706626523E+03  0.17471629292E+04  0.17014454685E+04 0.  0.
        3    1    3    3  502    0  0.66111871776E+03  0.52707167156E+03 -0.29511706942E+03  0.89553146276E+03  0.10100000352E+00 0. -1.
       -3    1    3    3    0  502 -0.66111871776E+03 -0.52707167156E+03 -0.10194919582E+03  0.85163146646E+03  0.10100000352E+00 0.  1.
</event>
<event>
 5   0  0.2224454E-04  0.1691211E+04  0.7818609E-02  0.8766393E-01
        2   -1    0    0  501    0  0.00000000000E+00  0.00000000000E+00  0.10167292469E+04  0.10167292469E+04  0.25500000920E-02 0.  1.
       -2   -1    0    0    0  501  0.00000000000E+00  0.00000000000E+00 -0.70328339313E+03  0.70328339314E+03  0.25500000920E-02 0. -1.
    10030    2    1    2    0    0  0.00000000000E+00  0.00000000000E+00  0.31344585380E+03  0.17200126401E+04  0.16912111573E+04 0.  0.
        2    1    3    3  502    0 -0.61606249637E+02  0.82099443253E+03  0.35293754516E+03  0.89576341688E+03  0.25500000920E-02 0.  1.
       -2    1    3    3    0  502  0.61606249637E+02 -0.82099443253E+03 -0.39491691358E+02  0.82424922319E+03  0.25500000920E-02 0. -1.
</event>
<event>
 5   0  0.8372750E-05  0.1714009E+04  0.7818609E-02  0.8753414E-01
        4   -1    0    0  501    0  0.00000000000E+00  0.00000000000E+00  0.16944635808E+04  0.16944640568E+04  0.12699999809E+01 0.  1.
       -4   -1    0    0    0  501  0.00000000000E+00  0.00000000000E+00 -0.43344360576E+03  0.43344546632E+03  0.12699999809E+01 0. -1.
    10030    2    1    2    0    0  0.00000000000E+00  0.00000000000E+00  0.12610199751E+04  0.21279095231E+04  0.17140092068E+04 0.  0.
        5    1    3    3  502    0 -0.76152307286E+03 -0.13852145710E+03  0.10872150126E+04  0.13346026219E+04  0.46999998093E+01 0.  1.
       -5    1    3    3    0  502  0.76152307286E+03  0.13852145710E+03  0.17380496246E+03  0.79330690124E+03  0.46999998093E+01 0. -1.
</event>
<event>
 5   0  0.1215233E-04  0.1702689E+04  0.7818609E-02  0.8759832E-01
       -1   -1    0    0    0  501  0.00000000000E+00  0.00000000000E+00  0.10036911532E+04  0.10036911532E+04  0.50400001928E-02 0. -1.
        1   -1    0    0  501    0  0.00000000000E+00  0.00000000000E+00 -0.72212216530E+03  0.72212216531E+03  0.50400001928E-02 0.  1.
    10030    2    1    2    0    0  0.00000000000E+00  0.00000000000E+00  0.28156898787E+03  0.17258133185E+04  0.17026892010E+04 0.  0.
        2    1    3    3  502    0 -0.83724243223E+03  0.44671542884E+02 -0.89279359077E+01  0.83848085555E+03  0.25500000920E-02 0.  1.
       -2    1    3    3    0  502  0.83724243223E+03 -0.44671542884E+02  0.29049692378E+03  0.88733246295E+03  0.25500000920E-02 0. -1.
</event>
<event>
 5   0  0.2242967E-04  0.1654461E+04  0.7818609E-02  0.8787772E-01
        2   -1    0    0  501    0  0.00000000000E+00  0.00000000000E+00  0.12194256944E+04  0.12194256944E+04  0.25500000920E-02 0. -1.
       -2   -1    0    0    0  501  0.00000000000E+00  0.00000000000E+00 -0.56117429090E+03  0.56117429091E+03  0.25500000920E-02 0.  1.
    10030    2    1    2    0    0  0.00000000000E+00  0.00000000000E+00  0.65825140352E+03  0.17805999853E+04  0.16544610595E+04 0.  0.
        4    1    3    3  502    0 -0.80554901350E+03  0.18497960651E+03  0.29212319572E+03  0.87662092284E+03  0.12699999809E+01 0.  1.
       -4    1    3    3    0  502  0.80554901350E+03 -0.18497960651E+03  0.36612820780E+03  0.90397906249E+03  0.12699999809E+01 0. -1.
</event>
<event>
 5   0  0.1186302E-04  0.1697757E+04  0.7818609E-02  0.8762645E-01
       -1   -1    0    0    0  501  0.00000000000E+00  0.00000000000E+00  0.56738973849E+03  0.56738973852E+03  0.50400001928E-02 0. -1.
        1   -1    0    0  501    0  0.00000000000E+00  0.00000000000E+00 -0.12700171947E+04  0.12700171947E+04  0.50400001928E-02 0.  1.
    10030    2    1    2    0    0  0.00000000000E+00  0.00000000000E+00 -0.70262745619E+03  0.18374069332E+04  0.16977570191E+04 0.  0.
        3    1    3    3  502    0 -0.25739700746E+03  0.69457832863E+02  0.52090440663E+03  0.58516580646E+03  0.10100000352E+00 0. -1.
       -3    1    3    3    0  502  0.25739700746E+03 -0.69457832863E+02 -0.12235318628E+04  0.12522411268E+04  0.10100000352E+00 0.  1.
</event>
<event>
 5   0  0.2234723E-04  0.1707843E+04  0.7818609E-02  0.8756904E-01
       -2   -1    0    0    0  501  0.00000000000E+00  0.00000000000E+00  0.51679089728E+03  0.51679089728E+03  0.25500000920E-02 0. -1.
        2   -1    0    0  501    0  0.00000000000E+00  0.00000000000E+00 -0.14109799700E+04  0.14109799700E+04  0.25500000920E-02 0.  1.
    10030    2    1    2    0    0  0.00000000000E+00  0.00000000000E+00 -0.89418907267E+03  0.19277708672E+04  0.17078426212E+04 0.  0.
        1    1    3    3  502    0  0.63289808739E+03  0.57303621001E+03 -0.46498189502E+03  0.97218241587E+03  0.50400001928E-02 0.  1.
       -1    1    3    3    0  502 -0.63289808739E+03 -0.57303621001E+03 -0.42920717765E+03  0.95558845136E+03  0.50400001928E-02 0. -1.
</event>
<event>
 5   0  0.1215233E-04  0.1701467E+04  0.7818609E-02  0.8760528E-01
        1   -1    0    0  501    0  0.00000000000E+00  0.00000000000E+00  0.61201936091E+03  0.61201936093E+03  0.50400001928E-02 0. -1.
       -1   -1    0    0    0  501  0.00000000000E+00  0.00000000000E+00 -0.11825560189E+04  0.11825560189E+04  0.50400001928E-02 0.  1.
    10030    2    1    2    0    0  0.00000000000E+00  0.00000000000E+00 -0.57053665801E+03  0.17945753799E+04  0.17014666367E+04 0.  0.
        2    1    3    3  502    0 -0.58907490007E+03  0.41224494138E+03  0.19436039723E+03  0.74480272127E+03  0.25500000920E-02 0.  1.
       -2    1    3    3    0  502  0.58907490007E+03 -0.41224494138E+03 -0.76489705524E+03  0.10497726586E+04  0.25500000920E-02 0. -1.
</event>
<event>
 5   0  0.1126958E-04  0.1732956E+04  0.7818609E-02  0.8742788E-01
       -1   -1    0    0    0  501  0.00000000000E+00  0.00000000000E+00  0.54879548828E+03  0.54879548831E+03  0.50400001928E-02 0. -1.
        1   -1    0    0  501    0  0.00000000000E+00  0.00000000000E+00 -0.13680581476E+04  0.13680581476E+04  0.50400001928E-02 0.  1.
    10030    2    1    2    0    0  0.00000000000E+00  0.00000000000E+00 -0.81926265928E+03  0.19168536359E+04  0.17329560169E+04 0.  0.
        4    1    3    3  502    0  0.52895232850E+03  0.46287896842E+03 -0.97009048748E+03  0.11979668910E+04  0.12699999809E+01 0.  1.
       -4    1    3    3    0  502 -0.52895232850E+03 -0.46287896842E+03  0.15082782820E+03  0.71888674483E+03  0.12699999809E+01 0. -1.
</event>
<event>
 5   0  0.2242967E-04  0.1690735E+04  0.7818609E-02  0.8766666E-01
        2   -1    0    0  501    0  0.00000000000E+00  0.00000000000E+00  0.96794522189E+03  0.96794522189E+03  0.25500000920E-02 0.  1.
       -2   -1    0    0    0  501  0.00000000000E+00  0.00000000000E+00 -0.73831277209E+03  0.73831277209E+03  0.25500000920E-02 0. -1.
    10030    2    1    2    0    0  0.00000000000E+00  0.00000000000E+00  0.22963244980E+03  0.17062579940E+04  0.16907351301E+04 0.  0.
        4    1    3    3  502    0  0.43402900928E+03 -0.45387918697E+02  0.84548250519E+03  0.95146388452E+03  0.12699999809E+01 0.  1.
       -4    1    3    3    0  502 -0.43402900928E+03  0.45387918697E+02 -0.61585005539E+03  0.75479410946E+03  0.12699999809E+01 0. -1.
</event>
<event>
 5   0  0.2224454E-04  0.1698237E+04  0.7818609E-02  0.8762370E-01
        2   -1    0    0  501    0  0.00000000000E+00  0.00000000000E+00  0.16512124227E+04  0.16512124227E+04  0.25500000920E-02 0. -1.
       -2   -1    0    0    0  501  0.00000000000E+00  0.00000000000E+00 -0.43665042725E+03  0.43665042726E+03  0.25500000920E-02 0.  1.
    10030    2    1    2    0    0  0.00000000000E+00  0.00000000000E+00  0.12145619954E+04  0.20878628499E+04  0.16982374508E+04 0.  0.
        2    1    3    3  502    0 -0.41204317413E+03 -0.73475873030E+03  0.47628681780E+03  0.96772883697E+03  0.25500000920E-02 0.  1.
       -2    1    3    3    0  502  0.41204317413E+03  0.73475873030E+03  0.73827517761E+03  0.11201340130E+04  0.25500000920E-02 0. -1.
</event>
<event>
 5   0  0.1234158E-04  0.1685328E+04  0.7818609E-02  0.8769777E-01
        1   -1    0    0  501    0  0.00000000000E+00  0.00000000000E+00  0.86792211719E+03  0.86792211721E+03  0.50400001928E-02 0. -1.
       -1   -1    0    0    0  501  0.00000000000E+00  0.00000000000E+00 -0.81814116411E+03  0.81814116413E+03  0.50400001928E-02 0.  1.
    10030    2    1    2    0    0  0.00000000000E+00  0.00000000000E+00  0.49780953080E+02  0.16860632813E+04  0.16853282308E+04 0.  0.
        5    1    3    3  502    0  0.28584344847E+03  0.25694234772E+03 -0.72532649367E+03  0.82088151368E+03  0.46999998093E+01 0.  1.
       -5    1    3    3    0  502 -0.28584344847E+03 -0.25694234772E+03  0.77510744675E+03  0.86518176766E+03  0.46999998093E+01 0. -1.
</event>
<event>
 5   0  0.2356829E-04  0.1704317E+04  0.7818609E-02  0.8758906E-01
       -2   -1    0    0    0  501  0.00000000000E+00  0.00000000000E+00  0.11546825394E+04  0.11546825394E+04  0.25500000920E-02 0. -1.
        2   -1    0    0  501    0  0.00000000000E+00  0.00000000000E+00 -0.62889482127E+03  0.62889482128E+03  0.25500000920E-02 0.  1.
    10030    2    1    2    0    0  0.00000000000E+00  0.00000000000E+00  0.52578771809E+03  0.17835773606E+04  0.17043167185E+04 0.  0.
        5    1    3    3  502    0  0.42426916078E+03  0.16630993653E+03 -0.49065461671E+03  0.66964718970E+03  0.46999998093E+01 0.  1.
       -5    1    3    3    0  502 -0.42426916078E+03 -0.16630993653E+03  0.10164423348E+04  0.11139301709E+04  0.46999998093E+01 0. -1.
</event>
<event>
 5   0  0.2224454E-04  0.1697499E+04  0.7818609E-02  0.8762792E-01
        2   -1    0    0  501    0  0.00000000000E+00  0.00000000000E+00  0.26357022255E+04  0.26357022255E+04  0.25500000920E-02 0.  1.
       -2   -1    0    0    0  501  0.00000000000E+00  0.00000000000E+00 -0.27331464172E+03  0.27331464173E+03  0.25500000920E-02 0. -1.
    10030    2    1    2    0    0  0.00000000000E+00  0.00000000000E+00  0.23623875838E+04  0.29090168673E+04  0.16974993484E+04 0.  0.
        2    1    3    3  502    0 -0.76534903449E+03 -0.36608124010E+03  0.12232194872E+04  0.14886371394E+04  0.25500000920E-02 0. -1.
       -2    1    3    3    0  502  0.76534903449E+03  0.36608124010E+03  0.11391680966E+04  0.14203797279E+04  0.25500000920E-02 0.  1.
</event>
<event>
 5   0  0.8372750E-05  0.1700843E+04  0.7818609E-02  0.8760884E-01
        4   -1    0    0  501    0  0.00000000000E+00  0.00000000000E+00  0.45156092523E+03  0.45156271114E+03  0.12699999809E+01 0. -1.
       -4   -1    0    0    0  501  0.00000000000E+00  0.00000000000E+00 -0.16015875820E+04  0.16015880855E+04  0.12699999809E+01 0.  1.
    10030    2    1    2    0    0  0.00000000000E+00  0.00000000000E+00 -0.11500266567E+04  0.20531507966E+04  0.17008429917E+04 0.  0.
        2    1    3    3  502    0  0.61698601700E+03  0.53227944168E+03 -0.86878094503E+03  0.11911227811E+04  0.25500000920E-02 0.  1.
       -2    1    3    3    0  502 -0.61698601700E+03 -0.53227944168E+03 -0.28124571169E+03  0.86202801553E+03  0.25500000920E-02 0. -1.
</event>
<event>
 5   0  0.1186302E-04  0.1678076E+04  0.7818609E-02  0.8773968E-01
       -1   -1    0    0    0  501  0.00000000000E+00  0.00000000000E+00  0.77415240306E+03  0.77415240308E+03  0.50400001928E-02 0. -1.
        1   -1    0    0  501    0  0.00000000000E+00  0.00000000000E+00 -0.90936201310E+03  0.90936201311E+03  0.50400001928E-02 0.  1.
    10030    2    1    2    0    0  0.00000000000E+00  0.00000000000E+00 -0.13520961004E+03  0.16835144162E+04  0.16780760266E+04 0.  0.
        3    1    3    3  502    0 -0.18996625977E+03 -0.81345819988E+03  0.11284346863E+02  0.83542131257E+03  0.10100000352E+00 0.  1.
       -3    1    3    3    0  502  0.18996625977E+03  0.81345819988E+03 -0.14649395690E+03  0.84809310363E+03  0.10100000352E+00 0. -1.
</event>
<event>
 5   0  0.2234723E-04  0.1736298E+04  0.7818609E-02  0.8740929E-01
       -2   -1    0    0    0  501  0.00000000000E+00  0.00000000000E+00  0.11486038688E+04  0.11486038688E+04  0.25500000920E-02 0.  1.
        2   -1    0    0  501    0  0.00000000000E+00  0.00000000000E+00 -0.65617256543E+03  0.65617256544E+03  0.25500000920E-02 0. -1.
    10030    2    1    2    0    0  0.00000000000E+00  0.00000000000E+00  0.49243130338E+03  0.18047764342E+04  0.17362976096E+04 0.  0.
        1    1    3    3  502    0  0.63474805174E+03 -0.15641454116E+03 -0.34755072349E+03  0.74037970212E+03  0.50400001928E-02 0. -1.
       -1    1    3    3    0  502 -0.63474805174E+03  0.15641454116E+03  0.83998202687E+03  0.10643967321E+04  0.50400001928E-02 0.  1.
</event>
<event>
 5   0  0.1186302E-04  0.1706822E+04  0.7818609E-02  0.8757483E-01
       -1   -1    0    0    0  501  0.00000000000E+00  0.00000000000E+00  0.27266231881E+03  0.27266231886E+03  0.50400001928E-02 0. -1.
        1   -1    0    0  501    0  0.00000000000E+00  0.00000000000E+00 -0.26711062984E+04  0.26711062984E+04  0.50400001928E-02 0.  1.
    10030    2    1    2    0    0  0.00000000000E+00  0.00000000000E+00 -0.23984439796E+04  0.29437686173E+04  0.17068216511E+04 0.  0.
        3    1    3    3  502    0  0.80023604476E+03  0.28943092388E+03 -0.10879544075E+04  0.13812287247E+04  0.10100000352E+00 0. -1.
       -3    1    3    3    0  502 -0.80023604476E+03 -0.28943092388E+03 -0.13104895721E+04  0.15625398926E+04  0.10100000352E+00 0.  1.
</event>
<event>
 5   0  0.2224454E-04  0.1718558E+04  0.7818609E-02  0.8750850E-01
       -2   -1    0    0    0  501  0.00000000000E+00  0.00000000000E+00  0.49148010675E+03  0.49148010676E+03  0.25500000920E-02 0.  1.
        2   -1    0    0  501    0  0.00000000000E+00  0.00000000000E+00 -0.15023194120E+04  0.15023194120E+04  0.25500000920E-02 0. -1.
    10030    2    1    2    0    0  0.00000000000E+00  0.00000000000E+00 -0.10108393053E+04  0.19937995188E+04  0.17185576569E+04 0.  0.
        2    1    3    3  502    0  0.55056528621E+03 -0.48398642816E+03 -0.10255475205E+04  0.12606001403E+04  0.25500000920E-02 0. -1.
       -2    1    3    3    0  502 -0.55056528621E+03  0.48398642816E+03  0.14708215178E+02  0.73319937849E+03  0.25500000920E-02 0.  1.
</event>
<event>
 5   0  0.2288806E-04  0.1681022E+04  0.7818609E-02  0.8772263E-01
        2   -1    0    0  501    0  0.00000000000E+00  0.00000000000E+00  0.17234870594E+04  0.17234870594E+04  0.25500000920E-02 0. -1.
       -2   -1    0    0    0  501  0.00000000000E+00  0.00000000000E+00 -0.40990057793E+03  0.40990057793E+03  0.25500000920E-02 0.  1.
    10030    2    1    2    0    0  0.00000000000E+00  0.00000000000E+00  0.13135864815E+04  0.21333876373E+04  0.16810215248E+04 0.  0.
        3    1    3    3  502    0  0.33205592977E+03  0.55497412424E+03  0.13381023183E+04  0.14861948874E+04  0.10100000352E+00 0. -1.
       -3    1    3    3    0  502 -0.33205592977E+03 -0.55497412424E+03 -0.24515836804E+02  0.64719274990E+03  0.10100000352E+00 0.  1.
</event>
<event>
 5   0  0.2234723E-04  0.1736636E+04  0.7818609E-02  0.8740741E-01
        2   -1    0    0  501    0  0.00000000000E+00  0.00000000000E+00  0.45883782593E+03  0.45883782594E+03  0.25500000920E-02 0.  1.
       -2   -1    0    0    0  501  0.00000000000E+00  0.00000000000E+00 -0.16432309023E+04  0.16432309023E+04  0.25500000920E-02 0. -1.
    10030    2    1    2    0    0  0.00000000000E+00  0.00000000000E+00 -0.11843930764E+04  0.21020687282E+04  0.17366363980E+04 0.  0.
        1    1    3    3  502    0  0.82435526441E+03  0.12444055092E+01 -0.92238616357E+03  0.12370769520E+04  0.50400001928E-02 0. -1.
       -1    1    3    3    0  502 -0.82435526441E+03 -0.12444055092E+01 -0.26200691278E+03  0.86499177619E+03  0.50400001928E-02 0.  1.
</event>
<event>
 5   0  0.2356829E-04  0.1703541E+04  0.7818609E-02  0.8759347E-01
       -2   -1    0    0    0  501  0.00000000000E+00  0.00000000000E+00  0.57606476175E+03  0.57606476175E+03  0.25500000920E-02 0.  1.
        2   -1    0    0  501    0  0.00000000000E+00  0.00000000000E+00 -0.12594292539E+04  0.12594292539E+04  0.25500000920E-02 0. -1.
    10030    2    1    2    0    0  0.00000000000E+00  0.00000000000E+00 -0.68336449213E+03  0.18354940156E+04  0.17035407986E+04 0.  0.
        5    1    3    3  502    0 -0.27182993507E+03  0.40279281518E+03 -0.10954080892E+04  0.11983632744E+04  0.46999998093E+01 0. -1.
       -5    1    3    3    0  502  0.27182993507E+03 -0.40279281518E+03  0.41204359706E+03  0.63713074124E+03  0.46999998093E+01 0.  1.
</event>
<event>
 5   0  0.1126958E-04  0.1698582E+04  0.7818609E-02  0.8762173E-01
       -1   -1    0    0    0  501  0.00000000000E+00  0.00000000000E+00  0.18027874438E+04  0.18027874438E+04  0.50400001928E-02 0. -1.
        1   -1    0    0  501    0  0.00000000000E+00  0.00000000000E+00 -0.40009997921E+03  0.40009997924E+03  0.50400001928E-02 0.  1.
    10030    2    1    2    0    0  0.00000000000E+00  0.00000000000E+00  0.14026874646E+04  0.22028874230E+04  0.16985820190E+04 0.  0.
        4    1    3    3  502    0 -0.36722285589E+03 -0.58025881995E+03  0.53231187582E+02  0.68875837290E+03  0.12699999809E+01 0.  1.
       -4    1    3    3    0  502  0.36722285589E+03  0.58025881995E+03  0.13494562770E+04  0.15141290501E+04  0.12699999809E+01 0. -1.
</event>
<event>
 5   0  0.1234158E-04  0.1710570E+04  0.7818609E-02  0.8755359E-01
       -1   -1    0    0    0  501  0.00000000000E+00  0.00000000000E+00  0.82025392683E+03  0.82025392685E+03  0.50400001928E-02 0.  1.
        1   -1    0    0  501    0  0.00000000000E+00  0.00000000000E+00 -0.89181183694E+03  0.89181183695E+03  0.50400001928E-02 0. -1.
    10030    2    1    2    0    0  0.00000000000E+00  0.00000000000E+00 -0.71557910102E+02  0.17120657638E+04  0.17105696844E+04 0.  0.
        5    1    3    3  502    0 -0.57378686582E+03 -0.12872787176E+03  0.58580192139E+03  0.83005313894E+03  0.46999998093E+01 0.  1.
       -5    1    3    3    0  502  0.57378686582E+03  0.12872787176E+03 -0.65735983149E+03  0.88201262486E+03  0.46999998093E+01 0. -1.
</event>
<event>
 5   0  0.2242967E-04  0.1627089E+04  0.7818609E-02  0.8804077E-01
       -2   -1    0    0    0  501  0.00000000000E+00  0.00000000000E+00  0.61725790889E+03  0.61725790889E+03  0.25500000920E-02 0. -1.
        2   -1    0    0  501    0  0.00000000000E+00  0.00000000000E+00 -0.10722497708E+04  0.10722497708E+04  0.25500000920E-02 0.  1.
    10030    2    1    2    0    0  0.00000000000E+00  0.00000000000E+00 -0.45499186194E+03  0.16895076797E+04  0.16270889974E+04 0.  0.
        4    1    3    3  502    0  0.99100153026E+02 -0.52666359783E+03  0.40807813208E+03  0.67359094441E+03  0.12699999809E+01 0. -1.
       -4    1    3    3    0  502 -0.99100153026E+02  0.52666359783E+03 -0.86306999402E+03  0.10159167353E+04  0.12699999809E+01 0.  1.
</event>
<event>
 5   0  0.1126958E-04  0.1696409E+04  0.7818609E-02  0.8763415E-01
       -1   -1    0    0    0  501  0.00000000000E+00  0.00000000000E+00  0.14280173694E+04  0.14280173694E+04  0.50400001928E-02 0. -1.
        1   -1    0    0  501    0  0.00000000000E+00  0.00000000000E+00 -0.50381073918E+03  0.50381073921E+03  0.50400001928E-02 0.  1.
    10030    2    1    2    0    0  0.00000000000E+00  0.00000000000E+00  0.92420663022E+03  0.19318281086E+04  0.16964085433E+04 0.  0.
        4    1    3    3  502    0 -0.78794836330E+03  0.12203219837E+03  0.13265581860E+03  0.80830295049E+03  0.12699999809E+01 0.  1.
       -4    1    3    3    0  502  0.78794836330E+03 -0.12203219837E+03  0.79155081162E+03  0.11235251581E+04  0.12699999809E+01 0. -1.
</event>
<event>
 5   0  0.1204741E-04  0.1686280E+04  0.7818609E-02  0.8769229E-01
        1   -1    0    0  501    0  0.00000000000E+00  0.00000000000E+00  0.10330883865E+04  0.10330883865E+04  0.50400001928E-02 0. -1.
       -1   -1    0    0    0  501  0.00000000000E+00  0.00000000000E+00 -0.68811601795E+03  0.68811601796E+03  0.50400001928E-02 0.  1.
    10030    2    1    2    0    0  0.00000000000E+00  0.00000000000E+00  0.34497236857E+03  0.17212044045E+04  0.16862795341E+04 0.  0.
        1    1    3    3  502    0 -0.12097702112E+03 -0.65567858637E+03 -0.35427874474E+03  0.75502534875E+03  0.50400001928E-02 0.  1.
       -1    1    3    3    0  502  0.12097702112E+03  0.65567858637E+03  0.69925111331E+03  0.96617905574E+03  0.50400001928E-02 0. -1.
</event>
<event>
 5   0  0.2234723E-04  0.1694778E+04  0.7818609E-02  0.8764348E-01
       -2   -1    0    0    0  501  0.00000000000E+00  0.00000000000E+00  0.72659832831E+03  0.72659832831E+03  0.25500000920E-02 0.  1.
        2   -1    0    0  501    0  0.00000000000E+00  0.00000000000E+00 -0.98825966192E+03  0.98825966193E+03  0.25500000920E-02 0. -1.
    10030    2    1    2    0    0  0.00000000000E+00  0.00000000000E+00 -0.26166133362E+03  0.17148579902E+04  0.16947776471E+04 0.  0.
        1    1    3    3  502    0  0.15744091403E+03  0.30088220154E+03  0.65473785284E+03  0.73756314753E+03  0.50400001928E-02 0.  1.
       -1    1    3    3    0  502 -0.15744091403E+03 -0.30088220154E+03 -0.91639918646E+03  0.97729484271E+03  0.50400001928E-02 0. -1.
</event>
<event>
 5   0  0.1234158E-04  0.1643499E+04  0.7818609E-02  0.8794262E-01
       -1   -1    0    0    0  501  0.00000000000E+00  0.00000000000E+00  0.83885772928E+03  0.83885772929E+03  0.50400001928E-02 0. -1.
        1   -1    0    0  501    0  0.00000000000E+00  0.00000000000E+00 -0.80498984336E+03  0.80498984338E+03  0.50400001928E-02 0.  1.
    10030    2    1    2    0    0  0.00000000000E+00  0.00000000000E+00  0.33867885919E+02  0.16438475727E+04  0.16434986488E+04 0.  0.
        5    1    3    3  502    0 -0.28030815246E+03 -0.38813891874E+03 -0.65105916254E+03  0.80816124857E+03  0.46999998093E+01 0.  1.
       -5    1    3    3    0  502  0.28030815246E+03  0.38813891874E+03  0.68492704846E+03  0.83568632410E+03  0.46999998093E+01 0. -1.
</event>
<event>
 5   0  0.2242967E-04  0.1715887E+04  0.7818609E-02  0.8752355E-01
        2   -1    0    0  501    0  0.00000000000E+00  0.00000000000E+00  0.24948765583E+04  0.24948765583E+04  0.25500000920E-02 0. -1.
       -2   -1    0    0    0  501  0.00000000000E+00  0.00000000000E+00 -0.29503149271E+03  0.29503149272E+03  0.25500000920E-02 0.  1.
    10030    2    1    2    0    0  0.00000000000E+00  0.00000000000E+00  0.21998450656E+04  0.27899080511E+04  0.17158871235E+04 0.  0.
        4    1    3    3  502    0 -0.73617974748E+03  0.87030033541E+02  0.18021476012E+04  0.19486591381E+04  0.12699999809E+01 0. -1.
       -4    1    3    3    0  502  0.73617974748E+03 -0.87030033541E+02  0.39769746445E+03  0.84124891291E+03  0.12699999809E+01 0.  1.
</event>
<event>
 5   0  0.2234723E-04  0.1624559E+04  0.7818609E-02  0.8805601E-01
       -2   -1    0    0    0  501  0.00000000000E+00  0.00000000000E+00  0.50486146914E+03  0.50486146915E+03  0.25500000920E-02 0. -1.
        2   -1    0    0  501    0  0.00000000000E+00  0.00000000000E+00 -0.13068899084E+04  0.13068899084E+04  0.25500000920E-02 0.  1.
    10030    2    1    2    0    0  0.00000000000E+00  0.00000000000E+00 -0.80202843929E+03  0.18117513776E+04  0.16245594593E+04 0.  0.
        1    1    3    3  502    0 -0.24095298051E+03  0.40842751475E+03  0.33446628662E+03  0.58029222857E+03  0.50400001928E-02 0. -1.
       -1    1    3    3    0  502  0.24095298051E+03 -0.40842751475E+03 -0.11364947259E+04  0.12314591490E+04  0.50400001928E-02 0.  1.
</event>
<event>
 5   0  0.2288806E-04  0.1684857E+04  0.7818609E-02  0.8770049E-01
       -2   -1    0    0    0  501  0.00000000000E+00  0.00000000000E+00  0.27938955107E+03  0.27938955108E+03  0.25500000920E-02 0.  1.
        2   -1    0    0  501    0  0.00000000000E+00  0.00000000000E+00 -0.25401293409E+04  0.25401293409E+04  0.25500000920E-02 0. -1.
    10030    2    1    2    0    0  0.00000000000E+00  0.00000000000E+00 -0.22607397899E+04  0.28195188920E+04  0.16848567847E+04 0.  0.
        3    1    3    3  502    0  0.69742143552E+03  0.43762834830E+03 -0.14286491563E+04  0.16489249989E+04  0.10100000352E+00 0. -1.
       -3    1    3    3    0  502 -0.69742143552E+03 -0.43762834830E+03 -0.83209063353E+03  0.11705938931E+04  0.10100000352E+00 0.  1.
</event>
<event>
 5   0  0.2224454E-04  0.1708185E+04  0.7818609E-02  0.8756710E-01
       -2   -1    0    0    0  501  0.00000000000E+00  0.00000000000E+00  0.30540615747E+03  0.30540615748E+03  0.25500000920E-02 0. -1.
        2   -1    0    0  501    0  0.00000000000E+00  0.00000000000E+00 -0.23885367726E+04  0.23885367726E+04  0.25500000920E-02 0.  1.
    10030    2    1    2    0    0  0.00000000000E+00  0.00000000000E+00 -0.20831306151E+04  0.26939429301E+04  0.17081848117E+04 0.  0.
        2    1    3    3  502    0 -0.54070104979E+03  0.39876114493E+02 -0.20823493677E+04  0.21517729013E+04  0.25500000920E-02 0.  1.
       -2    1    3    3    0  502  0.54070104979E+03 -0.39876114493E+02 -0.78124745629E+00  0.54217002878E+03  0.25500000920E-02 0. -1.
</event>
<event>
 5   0  0.2234723E-04  0.1700146E+04  0.7818609E-02  0.8761281E-01
        2   -1    0    0  501    0  0.00000000000E+00  0.00000000000E+00  0.93750743808E+03  0.93750743808E+03  0.25500000920E-02 0. -1.
       -2   -1    0    0    0  501  0.00000000000E+00  0.00000000000E+00 -0.77079271045E+03  0.77079271046E+03  0.25500000920E-02 0.  1.
    10030    2    1    2    0    0  0.00000000000E+00  0.00000000000E+00  0.16671472763E+03  0.17083001485E+04  0.17001457576E+04 0.  0.
        1    1    3    3  502    0 -0.17959032454E+03  0.32485062905E+03  0.85177579965E+03  0.92914080137E+03  0.50400001928E-02 0. -1.
       -1    1    3    3    0  502  0.17959032454E+03 -0.32485062905E+03 -0.68506107202E+03  0.77915934717E+03  0.50400001928E-02 0.  1.
</event>
<event>
 5   0  0.2288806E-04  0.1699385E+04  0.7818609E-02  0.8761715E-01
       -2   -1    0    0    0  501  0.00000000000E+00  0.00000000000E+00  0.34383210312E+03  0.34383210313E+03  0.25500000920E-02 0. -1.
        2   -1    0    0  501    0  0.00000000000E+00  0.00000000000E+00 -0.20997954868E+04  0.20997954868E+04  0.25500000920E-02 0.  1.
    10030    2    1    2    0    0  0.00000000000E+00  0.00000000000E+00 -0.17559633836E+04  0.24436275899E+04  0.16993847103E+04 0.  0.
        3    1    3    3  502    0  0.43559228180E+02 -0.53875530676E+03  0.64749412692E+02  0.54437779489E+03  0.10100000352E+00 0. -1.
       -3    1    3    3    0  502 -0.43559228180E+02  0.53875530676E+03 -0.18207127963E+04  0.18992497950E+04  0.10100000352E+00 0.  1.
</event>
<event>
 5   0  0.2224454E-04  0.1764111E+04  0.7818609E-02  0.8725621E-01
       -2   -1    0    0    0  501  0.00000000000E+00  0.00000000000E+00  0.57568066218E+03  0.57568066219E+03  0.25500000920E-02 0.  1.
        2   -1    0    0  501    0  0.00000000000E+00  0.00000000000E+00 -0.13514811027E+04  0.13514811027E+04  0.25500000920E-02 0. -1.
    10030    2    1    2    0    0  0.00000000000E+00  0.00000000000E+00 -0.77580044052E+03  0.19271617649E+04  0.17641105817E+04 0.  0.
        2    1    3    3  502    0 -0.99586525940E+02 -0.84302028621E+03 -0.12612580348E+03  0.85820067433E+03  0.25500000920E-02 0.  1.
       -2    1    3    3    0  502  0.99586525940E+02  0.84302028621E+03 -0.64967463704E+03  0.10689610906E+04  0.25500000920E-02 0. -1.
</event>
<event>
 5   0  0.1186302E-04  0.1774338E+04  0.7818609E-02  0.8720067E-01
       -1   -1    0    0    0  501  0.00000000000E+00  0.00000000000E+00  0.73524006509E+03  0.73524006511E+03  0.50400001928E-02 0. -1.
        1   -1    0    0  501    0  0.00000000000E+00  0.00000000000E+00 -0.10704918961E+04  0.10704918961E+04  0.50400001928E-02 0.  1.
    10030    2    1    2    0    0  0.00000000000E+00  0.00000000000E+00 -0.33525183100E+03  0.18057319612E+04  0.17743376583E+04 0.  0.
        3    1    3    3  502    0 -0.56381807492E+03 -0.68426974089E+03 -0.19903658211E+03  0.90869767862E+03  0.10100000352E+00 0. -1.
       -3    1    3    3    0  502  0.56381807492E+03  0.68426974089E+03 -0.13621524889E+03  0.89703428259E+03  0.10100000352E+00 0.  1.
</event>
<event>
 5   0  0.1204741E-04  0.1701979E+04  0.7818609E-02  0.8760237E-01
        1   -1    0    0  501    0  0.00000000000E+00  0.00000000000E+00  0.18549298843E+04  0.18549298843E+04  0.50400001928E-02 0. -1.
       -1   -1    0    0    0  501  0.00000000000E+00  0.00000000000E+00 -0.39040978049E+03  0.39040978052E+03  0.50400001928E-02 0.  1.
    10030    2    1    2    0    0  0.00000000000E+00  0.00000000000E+00  0.14645201038E+04  0.22453396648E+04  0.17019785768E+04 0.  0.
        1    1    3    3  502    0 -0.74513305130E+03  0.41101957770E+03  0.73850550811E+03  0.11267434237E+04  0.50400001928E-02 0.  1.
       -1    1    3    3    0  502  0.74513305130E+03 -0.41101957770E+03  0.72601459571E+03  0.11185962411E+04  0.50400001928E-02 0. -1.
</event>
<event>
 5   0  0.2224454E-04  0.1654426E+04  0.7818609E-02  0.8787792E-01
       -2   -1    0    0    0  501  0.00000000000E+00  0.00000000000E+00  0.28169494751E+03  0.28169494752E+03  0.25500000920E-02 0.  1.
        2   -1    0    0  501    0  0.00000000000E+00  0.00000000000E+00 -0.24291575774E+04  0.24291575774E+04  0.25500000920E-02 0. -1.
    10030    2    1    2    0    0  0.00000000000E+00  0.00000000000E+00 -0.21474626299E+04  0.27108525249E+04  0.16544260833E+04 0.  0.
        2    1    3    3  502    0 -0.83941451884E+02 -0.16543604631E+03 -0.23946329750E+04  0.24018081393E+04  0.25500000920E-02 0. -1.
       -2    1    3    3    0  502  0.83941451884E+02  0.16543604631E+03  0.24717034515E+03  0.30904438563E+03  0.25500000920E-02 0.  1.
</event>
<event>
 5   0  0.2356829E-04  0.1666561E+04  0.7818609E-02  0.8780669E-01
       -2   -1    0    0    0  501  0.00000000000E+00  0.00000000000E+00  0.40100131686E+03  0.40100131687E+03  0.25500000920E-02 0.  1.
        2   -1    0    0  501    0  0.00000000000E+00  0.00000000000E+00 -0.17315565176E+04  0.17315565176E+04  0.25500000920E-02 0. -1.
    10030    2    1    2    0    0  0.00000000000E+00  0.00000000000E+00 -0.13305552007E+04  0.21325578344E+04  0.16665610625E+04 0.  0.
        5    1    3    3  502    0 -0.46942962954E+03 -0.47528706126E+02 -0.15441335165E+04  0.16146187048E+04  0.46999998093E+01 0. -1.
       -5    1    3    3    0  502  0.46942962954E+03  0.47528706126E+02  0.21357831585E+03  0.51793912962E+03  0.46999998093E+01 0.  1.
</event>
<event>
 5   0  0.2356829E-04  0.1695924E+04  0.7818609E-02  0.8763692E-01
        2   -1    0    0  501    0  0.00000000000E+00  0.00000000000E+00  0.19531595577E+04  0.19531595577E+04  0.25500000920E-02 0.  1.
       -2   -1    0    0    0  501  0.00000000000E+00  0.00000000000E+00 -0.36814171634E+03  0.36814171635E+03  0.25500000920E-02 0. -1.
    10030    2    1    2    0    0  0.00000000000E+00  0.00000000000E+00  0.15850178414E+04  0.23213012740E+04  0.16959239510E+04 0.  0.
        5    1    3    3  502    0 -0.78840801960E+03 -0.31164463651E+03  0.76849375637E+03  0.11442527380E+04  0.46999998093E+01 0.  1.
       -5    1    3    3    0  502  0.78840801960E+03  0.31164463651E+03  0.81652408499E+03  0.11770485360E+04  0.46999998093E+01 0. -1.
</event>
<event>
 5   0  0.1126958E-04  0.1707872E+04  0.7818609E-02  0.8756887E-01
        1   -1    0    0  501    0  0.00000000000E+00  0.00000000000E+00  0.19103011348E+04  0.19103011348E+04  0.50400001928E-02 0.  1.
       -1   -1    0    0    0  501  0.00000000000E+00  0.00000000000E+00 -0.38172362309E+03  0.38172362312E+03  0.50400001928E-02 0. -1.
    10030    2    1    2    0    0  0.00000000000E+00  0.00000000000E+00  0.15285775117E+04  0.22920247579E+04  0.17078724430E+04 0.  0.
        4    1    3    3  502    0  0.26581204809E+01 -0.14901234502E+03 -0.36413351579E+03  0.39345466676E+03  0.12699999809E+01 0. -1.
       -4    1    3    3    0  502 -0.26581204809E+01  0.14901234502E+03  0.18927110275E+04  0.18985700912E+04  0.12699999809E+01 0.  1.
</event>
<event>
 5   0  0.1234158E-04  0.1708673E+04  0.7818609E-02  0.8756433E-01
       -1   -1    0    0    0  501  0.00000000000E+00  0.00000000000E+00  0.10211964629E+04  0.10211964629E+04  0.50400001928E-02 0. -1.
        1   -1    0    0  501    0  0.00000000000E+00  0.00000000000E+00 -0.71474079230E+03  0.71474079232E+03  0.50400001928E-02 0.  1.
    10030    2    1    2    0    0  0.00000000000E+00  0.00000000000E+00  0.30645567056E+03  0.17359372552E+04  0.17086728990E+04 0.  0.
        5    1    3    3  502    0 -0.84472595122E+03 -0.12075290710E+03  0.19542956756E+03  0.87541875872E+03  0.46999998093E+01 0.  1.
       -5    1    3    3    0  502  0.84472595122E+03  0.12075290710E+03  0.11102610300E+03  0.86051849648E+03  0.46999998093E+01 0. -1.
</event>
<event>
 5   0  0.2234723E-04  0.1684299E+04  0.7818609E-02  0.8770370E-01
        2   -1    0    0  501    0  0.00000000000E+00  0.00000000000E+00  0.18739418842E+04  0.18739418842E+04  0.25500000920E-02 0. -1.
       -2   -1    0    0    0  501  0.00000000000E+00  0.00000000000E+00 -0.37846190713E+03  0.37846190714E+03  0.25500000920E-02 0.  1.
    10030    2    1    2    0    0  0.00000000000E+00  0.00000000000E+00  0.14954799771E+04  0.22524037913E+04  0.16842988088E+04 0.  0.
        1    1    3    3  502    0 -0.39558736537E+03 -0.31841504666E+03  0.16461573026E+04  0.17227046673E+04  0.50400001928E-02 0. -1.
       -1    1    3    3    0  502  0.39558736537E+03  0.31841504666E+03 -0.15067732557E+03  0.52969912408E+03  0.50400001928E-02 0.  1.
</event>
<event>
 5   0  0.2242967E-04  0.1692276E+04  0.7818609E-02  0.8765782E-01
       -2   -1    0    0    0  501  0.00000000000E+00  0.00000000000E+00  0.14683082899E+04  0.14683082899E+04  0.25500000920E-02 0.  1.
        2   -1    0    0  501    0  0.00000000000E+00  0.00000000000E+00 -0.48760163480E+03  0.48760163481E+03  0.25500000920E-02 0. -1.
    10030    2    1    2    0    0  0.00000000000E+00  0.00000000000E+00  0.98070665505E+03  0.19559099247E+04  0.16922760089E+04 0.  0.
        4    1    3    3  502    0 -0.35796210277E+03 -0.65463996236E+03  0.95159409356E+03  0.12092242468E+04  0.12699999809E+01 0.  1.
       -4    1    3    3    0  502  0.35796210277E+03  0.65463996236E+03  0.29112561485E+02  0.74668567783E+03  0.12699999809E+01 0. -1.
</event>
<event>
 5   0  0.2224454E-04  0.1713134E+04  0.7818609E-02  0.8753909E-01
       -2   -1    0    0    0  501  0.00000000000E+00  0.00000000000E+00  0.66820206235E+03  0.66820206236E+03  0.25500000920E-02 0.  1.
        2   -1    0    0  501    0  0.00000000000E+00  0.00000000000E+00 -0.10980313853E+04  0.10980313853E+04  0.25500000920E-02 0. -1.
    10030    2    1    2    0    0  0.00000000000E+00  0.00000000000E+00 -0.42982932290E+03  0.17662334476E+04  0.17131337790E+04 0.  0.
        2    1    3    3  502    0 -0.67355800394E+03  0.23198415184E+03  0.27544251866E+03  0.76378374719E+03  0.25500000920E-02 0.  1.
       -2    1    3    3    0  502  0.67355800394E+03 -0.23198415184E+03 -0.70527184156E+03  0.10024497004E+04  0.25500000920E-02 0. -1.
</event>
<event>
 5   0  0.2224454E-04  0.1709686E+04  0.7818609E-02  0.8755859E-01
        2   -1    0    0  501    0  0.00000000000E+00  0.00000000000E+00  0.10469075761E+04  0.10469075761E+04  0.25500000920E-02 0.  1.
       -2   -1    0    0    0  501  0.00000000000E+00  0.00000000000E+00 -0.69801416731E+03  0.69801416731E+03  0.25500000920E-02 0. -1.
    10030    2    1    2    0    0  0.00000000000E+00  0.00000000000E+00  0.34889340878E+03  0.17449217434E+04  0.17096857255E+04 0.  0.
        2    1    3    3  502    0  0.55788321408E+03 -0.50934035225E+03  0.58281179967E+03  0.95411260804E+03  0.25500000920E-02 0.  1.
       -2    1    3    3    0  502 -0.55788321408E+03  0.50934035225E+03 -0.23391839089E+03  0.79080913537E+03  0.25500000920E-02 0. -1.
</event>
<event>
 5   0  0.8372750E-05  0.1697667E+04  0.7818609E-02  0.8762696E-01
       -4   -1    0    0    0  501  0.00000000000E+00  0.00000000000E+00  0.29644048423E+03  0.29644320466E+03  0.12699999809E+01 0. -1.
        4   -1    0    0  501    0  0.00000000000E+00  0.00000000000E+00 -0.24305516145E+04  0.24305519463E+04  0.12699999809E+01 0.  1.
    10030    2    1    2    0    0  0.00000000000E+00  0.00000000000E+00 -0.21341111303E+04  0.27269951510E+04  0.16976667037E+04 0.  0.
        5    1    3    3  502    0  0.40122167857E+02  0.47974102770E+03  0.55915417450E+02  0.48467501062E+03  0.46999998093E+01 0. -1.
       -5    1    3    3    0  502 -0.40122167857E+02 -0.47974102770E+03 -0.21900265477E+04  0.22423201403E+04  0.46999998093E+01 0.  1.
</event>
<event>
 5   0  0.1186302E-04  0.1702521E+04  0.7818609E-02  0.8759928E-01
        1   -1    0    0  501    0  0.00000000000E+00  0.00000000000E+00  0.16198671537E+04  0.16198671537E+04  0.50400001928E-02 0. -1.
       -1   -1    0    0    0  501  0.00000000000E+00  0.00000000000E+00 -0.44734783327E+03  0.44734783330E+03  0.50400001928E-02 0.  1.
    10030    2    1    2    0    0  0.00000000000E+00  0.00000000000E+00  0.11725193204E+04  0.20672149870E+04  0.17025205566E+04 0.  0.
        3    1    3    3  502    0 -0.25937060629E+03  0.97022935257E+02 -0.39112729340E+03  0.47923598698E+03  0.10100000352E+00 0.  1.
       -3    1    3    3    0  502  0.25937060629E+03 -0.97022935257E+02  0.15636466138E+04  0.15879790000E+04  0.10100000352E+00 0. -1.
</event>
<event>
 5   0  0.2356829E-04  0.1699127E+04  0.7818609E-02  0.8761863E-01
        2   -1    0    0  501    0  0.00000000000E+00  0.00000000000E+00  0.10363967297E+04  0.10363967297E+04  0.25500000920E-02 0.  1.
       -2   -1    0    0    0  501  0.00000000000E+00  0.00000000000E+00 -0.69641078144E+03  0.69641078145E+03  0.25500000920E-02 0. -1.
    10030    2    1    2    0    0  0.00000000000E+00  0.00000000000E+00  0.33998594823E+03  0.17328075111E+04  0.16991266656E+04 0.  0.
        5    1    3    3  502    0  0.61522621772E+03 -0.34417422581E+03  0.65349699022E+03  0.96126978675E+03  0.46999998093E+01 0.  1.
       -5    1    3    3    0  502 -0.61522621772E+03  0.34417422581E+03 -0.31351104200E+03  0.77153772438E+03  0.46999998093E+01 0. -1.
</event>
<event>
 5   0  0.2234723E-04  0.1706845E+04  0.7818609E-02  0.8757470E-01
       -2   -1    0    0    0  501  0.00000000000E+00  0.00000000000E+00  0.29249413089E+03  0.29249413090E+03  0.25500000920E-02 0.  1.
        2   -1    0    0  501    0  0.00000000000E+00  0.00000000000E+00 -0.24900676880E+04  0.24900676880E+04  0.25500000920E-02 0. -1.
    10030    2    1    2    0    0  0.00000000000E+00  0.00000000000E+00 -0.21975735571E+04  0.27825618189E+04  0.17068452587E+04 0.  0.
        1    1    3    3  502    0 -0.80388378408E+03  0.93699461890E+02 -0.15402212195E+04  0.17399109554E+04  0.50400001928E-02 0. -1.
       -1    1    3    3    0  502  0.80388378408E+03 -0.93699461890E+02 -0.65735233757E+03  0.10426508635E+04  0.50400001928E-02 0.  1.
</event>
<event>
 5   0  0.1126958E-04  0.1705991E+04  0.7818609E-02  0.8757955E-01
        1   -1    0    0  501    0  0.00000000000E+00  0.00000000000E+00  0.19713211662E+04  0.19713211663E+04  0.50400001928E-02 0.  1.
       -1   -1    0    0    0  501  0.00000000000E+00  0.00000000000E+00 -0.36909306937E+03  0.36909306940E+03  0.50400001928E-02 0. -1.
    10030    2    1    2    0    0  0.00000000000E+00  0.00000000000E+00  0.16022280969E+04  0.23404142357E+04  0.17059905979E+04 0.  0.
        4    1    3    3  502    0 -0.71649499776E+03  0.41518786821E+03  0.52045370549E+03  0.97806938413E+03  0.12699999809E+01 0. -1.
       -4    1    3    3    0  502  0.71649499776E+03 -0.41518786821E+03  0.10817743914E+04  0.13623448515E+04  0.12699999809E+01 0.  1.
</event>
<event>
 5   0  0.1186302E-04  0.1691343E+04  0.7818609E-02  0.8766317E-01
       -1   -1    0    0    0  501  0.00000000000E+00  0.00000000000E+00  0.41014725216E+03  0.41014725219E+03  0.50400001928E-02 0.  1.
        1   -1    0    0  501    0  0.00000000000E+00  0.00000000000E+00 -0.17436679465E+04  0.17436679465E+04  0.50400001928E-02 0. -1.
    10030    2    1    2    0    0  0.00000000000E+00  0.00000000000E+00 -0.13335206944E+04  0.21538151987E+04  0.16913433915E+04 0.  0.
        3    1    3    3  502    0  0.29885999948E+03 -0.46802065098E+03 -0.14789680552E+04  0.15797807276E+04  0.10100000352E+00 0. -1.
       -3    1    3    3    0  502 -0.29885999948E+03  0.46802065098E+03  0.14544736079E+03  0.57403447109E+03  0.10100000352E+00 0.  1.
</event>
<event>
 5   0  0.2356829E-04  0.1703013E+04  0.7818609E-02  0.8759648E-01
        2   -1    0    0  501    0  0.00000000000E+00  0.00000000000E+00  0.59059649074E+03  0.59059649075E+03  0.25500000920E-02 0. -1.
       -2   -1    0    0    0  501  0.00000000000E+00  0.00000000000E+00 -0.12276794541E+04  0.12276794541E+04  0.25500000920E-02 0.  1.
    10030    2    1    2    0    0  0.00000000000E+00  0.00000000000E+00 -0.63708296331E+03  0.18182759448E+04  0.17030128330E+04 0.  0.
        5    1    3    3  502    0 -0.64829947184E+03  0.53361868887E+03 -0.16754854875E+03  0.85623344743E+03  0.46999998093E+01 0. -1.
       -5    1    3    3    0  502  0.64829947184E+03 -0.53361868887E+03 -0.46953441456E+03  0.96204249738E+03  0.46999998093E+01 0.  1.
</event>
<event>
 5   0  0.2356829E-04  0.1817163E+04  0.7818609E-02  0.8697225E-01
       -2   -1    0    0    0  501  0.00000000000E+00  0.00000000000E+00  0.60525713639E+03  0.60525713640E+03  0.25500000920E-02 0. -1.
        2   -1    0    0  501    0  0.00000000000E+00  0.00000000000E+00 -0.13639166084E+04  0.13639166084E+04  0.25500000920E-02 0.  1.
    10030    2    1    2    0    0  0.00000000000E+00  0.00000000000E+00 -0.75865947201E+03  0.19691737448E+04  0.18171629104E+04 0.  0.
        5    1    3    3  502    0  0.69193374791E+03  0.58253794344E+03 -0.47239402625E+03  0.10204415579E+04  0.46999998093E+01 0. -1.
       -5    1    3    3    0  502 -0.69193374791E+03 -0.58253794344E+03 -0.28626544576E+03  0.94873218691E+03  0.46999998093E+01 0.  1.
</event>
<event>
 5   0  0.2224454E-04  0.1718754E+04  0.7818609E-02  0.8750740E-01
        2   -1    0    0  501    0  0.00000000000E+00  0.00000000000E+00  0.21049091783E+04  0.21049091783E+04  0.25500000920E-02 0.  1.
       -2   -1    0    0    0  501  0.00000000000E+00  0.00000000000E+00 -0.35086008921E+03  0.35086008922E+03  0.25500000920E-02 0. -1.
    10030    2    1    2    0    0  0.00000000000E+00  0.00000000000E+00  0.17540490891E+04  0.24557692675E+04  0.17187537602E+04 0.  0.
        2    1    3    3  502    0 -0.32172126164E+03  0.73789421133E+03  0.13069419156E+04  0.15349558978E+04  0.25500000920E-02 0.  1.
       -2    1    3    3    0  502  0.32172126164E+03 -0.73789421133E+03  0.44710717343E+03  0.92081336971E+03  0.25500000920E-02 0. -1.
</event>
<event>
 5   0  0.2242967E-04  0.1696275E+04  0.7818609E-02  0.8763492E-01
       -2   -1    0    0    0  501  0.00000000000E+00  0.00000000000E+00  0.58452526352E+03  0.58452526352E+03  0.25500000920E-02 0. -1.
        2   -1    0    0  501    0  0.00000000000E+00  0.00000000000E+00 -0.12306351676E+04  0.12306351676E+04  0.25500000920E-02 0.  1.
    10030    2    1    2    0    0  0.00000000000E+00  0.00000000000E+00 -0.64610990406E+03  0.18151604311E+04  0.16962751494E+04 0.  0.
        4    1    3    3  502    0  0.41544633341E+03 -0.43773194934E+03  0.31463987864E+03  0.68059149389E+03  0.12699999809E+01 0. -1.
       -4    1    3    3    0  502 -0.41544633341E+03  0.43773194934E+03 -0.96074978271E+03  0.11345689372E+04  0.12699999809E+01 0.  1.
</event>
<event>
 5   0  0.1204741E-04  0.1692930E+04  0.7818609E-02  0.8765407E-01
        1   -1    0    0  501    0  0.00000000000E+00  0.00000000000E+00  0.13241725675E+04  0.13241725675E+04  0.50400001928E-02 0.  1.
       -1   -1    0    0    0  501  0.00000000000E+00  0.00000000000E+00 -0.54109488158E+03  0.54109488160E+03  0.50400001928E-02 0. -1.
    10030    2    1    2    0    0  0.00000000000E+00  0.00000000000E+00  0.78307768589E+03  0.18652674491E+04  0.16929300028E+04 0.  0.
        1    1    3    3  502    0 -0.95883722686E+02 -0.39889916230E+03  0.12073078027E+04  0.12751103327E+04  0.50400001928E-02 0.  1.
       -1    1    3    3    0  502  0.95883722686E+02  0.39889916230E+03 -0.42423011685E+03  0.59015711639E+03  0.50400001928E-02 0. -1.
</event>
<event>
 5   0  0.1204741E-04  0.1702389E+04  0.7818609E-02  0.8760003E-01
       -1   -1    0    0    0  501  0.00000000000E+00  0.00000000000E+00  0.59312449621E+03  0.59312449623E+03  0.50400001928E-02 0.  1.
        1   -1    0    0  501    0  0.00000000000E+00  0.00000000000E+00 -0.12215508771E+04  0.12215508771E+04  0.50400001928E-02 0. -1.
    10030    2    1    2    0    0  0.00000000000E+00  0.00000000000E+00 -0.62842638084E+03  0.18146753733E+04  0.17023886144E+04 0.  0.
        1    1    3    3  502    0 -0.33564893617E+03  0.34563177693E+03 -0.10622169253E+04  0.11663731521E+04  0.50400001928E-02 0. -1.
       -1    1    3    3    0  502  0.33564893617E+03 -0.34563177693E+03  0.43379054442E+03  0.64830222121E+03  0.50400001928E-02 0.  1.
</event>
<event>
 5   0  0.1186302E-04  0.1700212E+04  0.7818609E-02  0.8761243E-01
        1   -1    0    0  501    0  0.00000000000E+00  0.00000000000E+00  0.24972792397E+04  0.24972792397E+04  0.50400001928E-02 0. -1.
       -1   -1    0    0    0  501  0.00000000000E+00  0.00000000000E+00 -0.28938714320E+03  0.28938714324E+03  0.50400001928E-02 0.  1.
    10030    2    1    2    0    0  0.00000000000E+00  0.00000000000E+00  0.22078920965E+04  0.27866663829E+04  0.17002123456E+04 0.  0.
        3    1    3    3  502    0  0.40371979552E+03  0.49701588603E+03  0.18746779716E+03  0.66720210539E+03  0.10100000352E+00 0.  1.
       -3    1    3    3    0  502 -0.40371979552E+03 -0.49701588603E+03  0.20204242993E+04  0.21194642776E+04  0.10100000352E+00 0. -1.
</event>
<event>
 5   0  0.2234723E-04  0.1698780E+04  0.7818609E-02  0.8762061E-01
        2   -1    0    0  501    0  0.00000000000E+00  0.00000000000E+00  0.84172281599E+03  0.84172281599E+03  0.25500000920E-02 0. -1.
       -2   -1    0    0    0  501  0.00000000000E+00  0.00000000000E+00 -0.85712664314E+03  0.85712664314E+03  0.25500000920E-02 0.  1.
    10030    2    1    2    0    0  0.00000000000E+00  0.00000000000E+00 -0.15403827152E+02  0.16988494591E+04  0.16987796228E+04 0.  0.
        1    1    3    3  502    0 -0.22203589276E+03  0.32546586406E+03  0.74481495788E+03  0.84260150002E+03  0.50400001928E-02 0. -1.
       -1    1    3    3    0  502  0.22203589276E+03 -0.32546586406E+03 -0.76021878503E+03  0.85624795911E+03  0.50400001928E-02 0.  1.
</event>
<event>
 5   0  0.8372750E-05  0.1695246E+04  0.7818609E-02  0.8764080E-01
       -3   -1    0    0    0  501  0.00000000000E+00  0.00000000000E+00  0.86715586069E+03  0.86715586657E+03  0.10100000352E+00 0.  1.
        3   -1    0    0  501    0  0.00000000000E+00  0.00000000000E+00 -0.82852996623E+03  0.82852997238E+03  0.10100000352E+00 0. -1.
    10030    2    1    2    0    0  0.00000000000E+00  0.00000000000E+00  0.38625894460E+02  0.16956858390E+04  0.16952458538E+04 0.  0.
        5    1    3    3  502    0 -0.69430102893E+03 -0.19053581828E+03  0.46673734650E+03  0.85803476470E+03  0.46999998093E+01 0.  1.
       -5    1    3    3    0  502  0.69430102893E+03  0.19053581828E+03 -0.42811145204E+03  0.83765107425E+03  0.46999998093E+01 0. -1.
</event>
<event>
 5   0  0.2224454E-04  0.1642320E+04  0.7818609E-02  0.8794963E-01
        2   -1    0    0  501    0  0.00000000000E+00  0.00000000000E+00  0.10846547144E+04  0.10846547144E+04  0.25500000920E-02 0. -1.
       -2   -1    0    0    0  501  0.00000000000E+00  0.00000000000E+00 -0.62167615899E+03  0.62167615899E+03  0.25500000920E-02 0.  1.
    10030    2    1    2    0    0  0.00000000000E+00  0.00000000000E+00  0.46297855545E+03  0.17063308734E+04  0.16423202814E+04 0.  0.
        2    1    3    3  502    0  0.25881225083E+03 -0.67971894635E+02  0.10380851487E+04  0.10720189996E+04  0.25500000920E-02 0. -1.
       -2    1    3    3    0  502 -0.25881225083E+03  0.67971894635E+02 -0.57510659324E+03  0.63431187380E+03  0.25500000920E-02 0.  1.
</event>
<event>
 5   0  0.1126958E-04  0.1707481E+04  0.7818609E-02  0.8757109E-01
        1   -1    0    0  501    0  0.00000000000E+00  0.00000000000E+00  0.95105655080E+03  0.95105655081E+03  0.50400001928E-02 0. -1.
       -1   -1    0    0    0  501  0.00000000000E+00  0.00000000000E+00 -0.76638222290E+03  0.76638222291E+03  0.50400001928E-02 0.  1.
    10030    2    1    2    0    0  0.00000000000E+00  0.00000000000E+00  0.18467432790E+03  0.17174387737E+04  0.17074809908E+04 0.  0.
        4    1    3    3  502    0 -0.48887644984E+03  0.46850236569E+03 -0.43067274107E+03  0.80248069925E+03  0.12699999809E+01 0.  1.
       -4    1    3    3    0  502  0.48887644984E+03 -0.46850236569E+03  0.61534706897E+03  0.91495807448E+03  0.12699999809E+01 0. -1.
</event>
<event>
 5   0  0.1234158E-04  0.1688553E+04  0.7818609E-02  0.8767920E-01
        1   -1    0    0  501    0  0.00000000000E+00  0.00000000000E+00  0.62195170711E+03  0.62195170713E+03  0.50400001928E-02 0. -1.
       -1   -1    0    0    0  501  0.00000000000E+00  0.00000000000E+00 -0.11460745986E+04  0.11460745987E+04  0.50400001928E-02 0.  1.
    10030    2    1    2    0    0  0.00000000000E+00  0.00000000000E+00 -0.52412289153E+03  0.17680263058E+04  0.16885532898E+04 0.  0.
        5    1    3    3  502    0 -0.63139907097E+03  0.46259971962E+03  0.69244576653E+02  0.78579907662E+03  0.46999998093E+01 0. -1.
       -5    1    3    3    0  502  0.63139907097E+03 -0.46259971962E+03 -0.59336746819E+03  0.98222722917E+03  0.46999998093E+01 0.  1.
</event>
<event>
 5   0  0.2234723E-04  0.1717749E+04  0.7818609E-02  0.8751306E-01
       -2   -1    0    0    0  501  0.00000000000E+00  0.00000000000E+00  0.10526736337E+04  0.10526736337E+04  0.25500000920E-02 0. -1.
        2   -1    0    0  501    0  0.00000000000E+00  0.00000000000E+00 -0.70075436521E+03  0.70075436522E+03  0.25500000920E-02 0.  1.
    10030    2    1    2    0    0  0.00000000000E+00  0.00000000000E+00  0.35191926851E+03  0.17534279989E+04  0.17177492762E+04 0.  0.
        1    1    3    3  502    0 -0.20389209212E+03  0.43549888749E+03 -0.55046364329E+03  0.73091825045E+03  0.50400001928E-02 0.  1.
       -1    1    3    3    0  502  0.20389209212E+03 -0.43549888749E+03  0.90238291179E+03  0.10225097485E+04  0.50400001928E-02 0. -1.
</event>
<event>
 5   0  0.1186302E-04  0.1713799E+04  0.7818609E-02  0.8753533E-01
        1   -1    0    0  501    0  0.00000000000E+00  0.00000000000E+00  0.87698657667E+03  0.87698657669E+03  0.50400001928E-02 0. -1.
       -1   -1    0    0    0  501  0.00000000000E+00  0.00000000000E+00 -0.83727262723E+03  0.83727262724E+03  0.50400001928E-02 0.  1.
    10030    2    1    2    0    0  0.00000000000E+00  0.00000000000E+00  0.39713949445E+02  0.17142592039E+04  0.17137991191E+04 0.  0.
        3    1    3    3  502    0 -0.29140076143E+03 -0.54771294192E+03 -0.57137951287E+03  0.84343252749E+03  0.10100000352E+00 0.  1.
       -3    1    3    3    0  502  0.29140076143E+03  0.54771294192E+03  0.61109346231E+03  0.87082667643E+03  0.10100000352E+00 0. -1.
</event>
<event>
 5   0  0.2224454E-04  0.1690362E+04  0.7818609E-02  0.8766880E-01
        2   -1    0    0  501    0  0.00000000000E+00  0.00000000000E+00  0.41074755932E+03  0.41074755932E+03  0.25500000920E-02 0.  1.
       -2   -1    0    0    0  501  0.00000000000E+00  0.00000000000E+00 -0.17391004419E+04  0.17391004419E+04  0.25500000920E-02 0. -1.
    10030    2    1    2    0    0  0.00000000000E+00  0.00000000000E+00 -0.13283528826E+04  0.21498480012E+04  0.16903624013E+04 0.  0.
        2    1    3    3  502    0  0.82401840811E+03 -0.11924565003E+03 -0.84894357634E+03  0.11890883305E+04  0.25500000920E-02 0.  1.
       -2    1    3    3    0  502 -0.82401840811E+03  0.11924565003E+03 -0.47940930625E+03  0.96075967072E+03  0.25500000920E-02 0. -1.
</event>
<event>
 5   0  0.2224454E-04  0.1700092E+04  0.7818609E-02  0.8761312E-01
       -2   -1    0    0    0  501  0.00000000000E+00  0.00000000000E+00  0.50827249790E+03  0.50827249790E+03  0.25500000920E-02 0.  1.
        2   -1    0    0  501    0  0.00000000000E+00  0.00000000000E+00 -0.14216352951E+04  0.14216352951E+04  0.25500000920E-02 0. -1.
    10030    2    1    2    0    0  0.00000000000E+00  0.00000000000E+00 -0.91336279717E+03  0.19299077930E+04  0.17000919064E+04 0.  0.
        2    1    3    3  502    0  0.72146863901E+03 -0.42694369143E+02  0.51288236701E+02  0.72454833480E+03  0.25500000920E-02 0.  1.
       -2    1    3    3    0  502 -0.72146863901E+03  0.42694369143E+02 -0.96465103387E+03  0.12053594582E+04  0.25500000920E-02 0. -1.
</event>
<event>
 5   0  0.2242967E-04  0.1681386E+04  0.7818609E-02  0.8772052E-01
        2   -1    0    0  501    0  0.00000000000E+00  0.00000000000E+00  0.23655488071E+04  0.23655488071E+04  0.25500000920E-02 0. -1.
       -2   -1    0    0    0  501  0.00000000000E+00  0.00000000000E+00 -0.29877403688E+03  0.29877403689E+03  0.25500000920E-02 0.  1.
    10030    2    1    2    0    0  0.00000000000E+00  0.00000000000E+00  0.20667747702E+04  0.26643228440E+04  0.16813858172E+04 0.  0.
        4    1    3    3  502    0 -0.67500670873E+03 -0.22418530210E+03  0.32319363962E+03  0.78124826278E+03  0.12699999809E+01 0.  1.
       -4    1    3    3    0  502  0.67500670873E+03  0.22418530210E+03  0.17435811306E+04  0.18830745812E+04  0.12699999809E+01 0. -1.
</event>
<event>
 5   0  0.2288806E-04  0.1686092E+04  0.7818609E-02  0.8769336E-01
       -2   -1    0    0    0  501  0.00000000000E+00  0.00000000000E+00  0.32900740796E+03  0.32900740797E+03  0.25500000920E-02 0. -1.
        2   -1    0    0  501    0  0.00000000000E+00  0.00000000000E+00 -0.21602152876E+04  0.21602152876E+04  0.25500000920E-02 0.  1.
    10030    2    1    2    0    0  0.00000000000E+00  0.00000000000E+00 -0.18312078797E+04  0.24892226956E+04  0.16860923254E+04 0.  0.
        3    1    3    3  502    0 -0.37628879506E+03 -0.70162838475E+03 -0.13248718138E+04  0.15456911013E+04  0.10100000352E+00 0.  1.
       -3    1    3    3    0  502  0.37628879506E+03  0.70162838475E+03 -0.50633606589E+03  0.94353159427E+03  0.10100000352E+00 0. -1.
</event>
<event>
 5   0  0.2234723E-04  0.1494272E+04  0.7818609E-02  0.8888271E-01
       -2   -1    0    0    0  501  0.00000000000E+00  0.00000000000E+00  0.66632680299E+03  0.66632680300E+03  0.25500000920E-02 0. -1.
        2   -1    0    0  501    0  0.00000000000E+00  0.00000000000E+00 -0.83774548476E+03  0.83774548476E+03  0.25500000920E-02 0.  1.
    10030    2    1    2    0    0  0.00000000000E+00  0.00000000000E+00 -0.17141868176E+03  0.15040722878E+04  0.14942720911E+04 0.  0.
        1    1    3    3  502    0  0.98558809940E+02  0.73238416224E+03  0.25066392224E+02  0.73941106575E+03  0.50400001928E-02 0. -1.
       -1    1    3    3    0  502 -0.98558809940E+02 -0.73238416224E+03 -0.19648507399E+03  0.76466122201E+03  0.50400001928E-02 0.  1.
</event>
<event>
 5   0  0.2356829E-04  0.1691258E+04  0.7818609E-02  0.8766366E-01
        2   -1    0    0  501    0  0.00000000000E+00  0.00000000000E+00  0.13247232417E+04  0.13247232417E+04  0.25500000920E-02 0. -1.
       -2   -1    0    0    0  501  0.00000000000E+00  0.00000000000E+00 -0.53980219172E+03  0.53980219173E+03  0.25500000920E-02 0.  1.
    10030    2    1    2    0    0  0.00000000000E+00  0.00000000000E+00  0.78492105000E+03  0.18645254335E+04  0.16912581226E+04 0.  0.
        5    1    3    3  502    0 -0.42079630052E+02  0.82054902031E+03  0.17198447166E+03  0.83944751980E+03  0.46999998093E+01 0.  1.
       -5    1    3    3    0  502  0.42079630052E+02 -0.82054902031E+03  0.61293657834E+03  0.10250779137E+04  0.46999998093E+01 0. -1.
</event>
<event>
 5   0  0.1126958E-04  0.1711162E+04  0.7818609E-02  0.8755024E-01
        1   -1    0    0  501    0  0.00000000000E+00  0.00000000000E+00  0.96208933321E+03  0.96208933322E+03  0.50400001928E-02 0. -1.
       -1   -1    0    0    0  501  0.00000000000E+00  0.00000000000E+00 -0.76086374138E+03  0.76086374139E+03  0.50400001928E-02 0.  1.
    10030    2    1    2    0    0  0.00000000000E+00  0.00000000000E+00  0.20122559183E+03  0.17229530746E+04  0.17111620492E+04 0.  0.
        4    1    3    3  502    0  0.62784583629E+02 -0.61760091693E+03 -0.49220939795E+03  0.79224017877E+03  0.12699999809E+01 0.  1.
       -4    1    3    3    0  502 -0.62784583629E+02  0.61760091693E+03  0.69343498978E+03  0.93071289584E+03  0.12699999809E+01 0. -1.
</event>
<event>
 5   0  0.1234158E-04  0.1678409E+04  0.7818609E-02  0.8773775E-01
        1   -1    0    0  501    0  0.00000000000E+00  0.00000000000E+00  0.12793675234E+04  0.12793675234E+04  0.50400001928E-02 0. -1.
       -1   -1    0    0    0  501  0.00000000000E+00  0.00000000000E+00 -0.55047807674E+03  0.55047807676E+03  0.50400001928E-02 0.  1.
    10030    2    1    2    0    0  0.00000000000E+00  0.00000000000E+00  0.72888944662E+03  0.18298456001E+04  0.16784085006E+04 0.  0.
        5    1    3    3  502    0 -0.56894168607E+03 -0.59249337162E+03  0.17719645157E+03  0.84033547468E+03  0.46999998093E+01 0.  1.
       -5    1    3    3    0  502  0.56894168607E+03  0.59249337162E+03  0.55169299506E+03  0.98951012545E+03  0.46999998093E+01 0. -1.
</event>
<event>
 5   0  0.2242967E-04  0.1712179E+04  0.7818609E-02  0.8754448E-01
        2   -1    0    0  501    0  0.00000000000E+00  0.00000000000E+00  0.16725713806E+04  0.16725713806E+04  0.25500000920E-02 0.  1.
       -2   -1    0    0    0  501  0.00000000000E+00  0.00000000000E+00 -0.43818134198E+03  0.43818134198E+03  0.25500000920E-02 0. -1.
    10030    2    1    2    0    0  0.00000000000E+00  0.00000000000E+00  0.12343900387E+04  0.21107527226E+04  0.17121793973E+04 0.  0.
        4    1    3    3  502    0 -0.34366789917E+03 -0.64862224388E+02  0.15804848366E+04  0.16187182166E+04  0.12699999809E+01 0.  1.
       -4    1    3    3    0  502  0.34366789917E+03  0.64862224388E+02 -0.34609479794E+03  0.49203450604E+03  0.12699999809E+01 0. -1.
</event>
<event>
 5   0  0.2224454E-04  0.1693479E+04  0.7818609E-02  0.8765092E-01
       -2   -1    0    0    0  501  0.00000000000E+00  0.00000000000E+00  0.10886963647E+04  0.10886963647E+04  0.25500000920E-02 0. -1.
        2   -1    0    0  501    0  0.00000000000E+00  0.00000000000E+00 -0.65855657210E+03  0.65855657211E+03  0.25500000920E-02 0.  1.
    10030    2    1    2    0    0  0.00000000000E+00  0.00000000000E+00  0.43013979262E+03  0.17472529368E+04  0.16934794313E+04 0.  0.
        2    1    3    3  502    0  0.81339246222E+03 -0.20197180018E+03  0.90538343950E+02  0.84296921498E+03  0.25500000920E-02 0.  1.
       -2    1    3    3    0  502 -0.81339246222E+03  0.20197180018E+03  0.33960144867E+03  0.90428372186E+03  0.25500000920E-02 0. -1.
</event>
<event>
 5   0  0.1234158E-04  0.1714735E+04  0.7818609E-02  0.8753005E-01
       -1   -1    0    0    0  501  0.00000000000E+00  0.00000000000E+00  0.54517077670E+03  0.54517077672E+03  0.50400001928E-02 0.  1.
        1   -1    0    0  501    0  0.00000000000E+00  0.00000000000E+00 -0.13483465263E+04  0.13483465263E+04  0.50400001928E-02 0. -1.
    10030    2    1    2    0    0  0.00000000000E+00  0.00000000000E+00 -0.80317574960E+03  0.18935173030E+04  0.17147351084E+04 0.  0.
        5    1    3    3  502    0 -0.28458549057E+03  0.79548754133E+03 -0.56262741929E+03  0.10150670090E+04  0.46999998093E+01 0.  1.
       -5    1    3    3    0  502  0.28458549057E+03 -0.79548754133E+03 -0.24054833031E+03  0.87845029402E+03  0.46999998093E+01 0. -1.
</event>
<event>
 5   0  0.1215233E-04  0.1708602E+04  0.7818609E-02  0.8756473E-01
       -1   -1    0    0    0  501  0.00000000000E+00  0.00000000000E+00  0.64948297758E+03  0.64948297760E+03  0.50400001928E-02 0.  1.
        1   -1    0    0  501    0  0.00000000000E+00  0.00000000000E+00 -0.11237098039E+04  0.11237098039E+04  0.50400001928E-02 0. -1.
    10030    2    1    2    0    0  0.00000000000E+00  0.00000000000E+00 -0.47422682631E+03  0.17731927815E+04  0.17086022233E+04 0.  0.
        2    1    3    3  502    0 -0.57130400736E+03  0.49172900679E+03  0.18013599396E+03  0.77500623305E+03  0.25500000920E-02 0.  1.
       -2    1    3    3    0  502  0.57130400736E+03 -0.49172900679E+03 -0.65436282027E+03  0.99818654845E+03  0.25500000920E-02 0. -1.
</event>
<event>
 5   0  0.2356829E-04  0.1706179E+04  0.7818609E-02  0.8757848E-01
        2   -1    0    0  501    0  0.00000000000E+00  0.00000000000E+00  0.17243606944E+04  0.17243606944E+04  0.25500000920E-02 0. -1.
       -2   -1    0    0    0  501  0.00000000000E+00  0.00000000000E+00 -0.42204717030E+03  0.42204717031E+03  0.25500000920E-02 0.  1.
    10030    2    1    2    0    0  0.00000000000E+00  0.00000000000E+00  0.13023135241E+04  0.21464078647E+04  0.17061788319E+04 0.  0.
        5    1    3    3  502    0 -0.51367940687E+03  0.37468517989E+03  0.13666640580E+04  0.15073315012E+04  0.46999998093E+01 0. -1.
       -5    1    3    3    0  502  0.51367940687E+03 -0.37468517989E+03 -0.64350533977E+02  0.63907636343E+03  0.46999998093E+01 0.  1.
</event>
<event>
 5   0  0.1215233E-04  0.1695295E+04  0.7818609E-02  0.8764052E-01
       -1   -1    0    0    0  501  0.00000000000E+00  0.00000000000E+00  0.48134988616E+03  0.48134988619E+03  0.50400001928E-02 0. -1.
        1   -1    0    0  501    0  0.00000000000E+00  0.00000000000E+00 -0.14926911084E+04  0.14926911084E+04  0.50400001928E-02 0.  1.
    10030    2    1    2    0    0  0.00000000000E+00  0.00000000000E+00 -0.10113412222E+04  0.19740409946E+04  0.16952954847E+04 0.  0.
        2    1    3    3  502    0  0.71225299377E+03 -0.33873569613E+03 -0.14402307740E+03  0.80174113391E+03  0.25500000920E-02 0.  1.
       -2    1    3    3    0  502 -0.71225299377E+03  0.33873569613E+03 -0.86731814481E+03  0.11722998607E+04  0.25500000920E-02 0. -1.
</event>
<event>
 5   0  0.1186302E-04  0.1731302E+04  0.7818609E-02  0.8743710E-01
        1   -1    0    0  501    0  0.00000000000E+00  0.00000000000E+00  0.15670235414E+04  0.15670235414E+04  0.50400001928E-02 0.  1.
       -1   -1    0    0    0  501  0.00000000000E+00  0.00000000000E+00 -0.47820091062E+03  0.47820091065E+03  0.50400001928E-02 0. -1.
    10030    2    1    2    0    0  0.00000000000E+00  0.00000000000E+00  0.10888226307E+04  0.20452244520E+04  0.17313024975E+04 0.  0.
        3    1    3    3  502    0  0.50990182018E+03  0.49549475016E+03 -0.38923593684E+02  0.71206036963E+03  0.10100000352E+00 0. -1.
       -3    1    3    3    0  502 -0.50990182018E+03 -0.49549475016E+03  0.11277462244E+04  0.13331640824E+04  0.10100000352E+00 0.  1.
</event>
<event>
 5   0  0.1204741E-04  0.1744642E+04  0.7818609E-02  0.8736305E-01
        1   -1    0    0  501    0  0.00000000000E+00  0.00000000000E+00  0.19630590545E+04  0.19630590545E+04  0.50400001928E-02 0. -1.
       -1   -1    0    0    0  501  0.00000000000E+00  0.00000000000E+00 -0.38763166502E+03  0.38763166505E+03  0.50400001928E-02 0.  1.
    10030    2    1    2    0    0  0.00000000000E+00  0.00000000000E+00  0.15754273895E+04  0.23506907195E+04  0.17446419115E+04 0.  0.
        1    1    3    3  502    0 -0.60664929860E+03  0.36732490785E+03  0.10334039035E+03  0.71667998139E+03  0.50400001928E-02 0. -1.
       -1    1    3    3    0  502  0.60664929860E+03 -0.36732490785E+03  0.14720869991E+04  0.16340107382E+04  0.50400001928E-02 0.  1.
</event>
<event>
 5   0  0.2234723E-04  0.1691317E+04  0.7818609E-02  0.8766332E-01
       -2   -1    0    0    0  501  0.00000000000E+00  0.00000000000E+00  0.39911093997E+03  0.39911093998E+03  0.25500000920E-02 0.  1.
        2   -1    0    0  501    0  0.00000000000E+00  0.00000000000E+00 -0.17918279057E+04  0.17918279057E+04  0.25500000920E-02 0. -1.
    10030    2    1    2    0    0  0.00000000000E+00  0.00000000000E+00 -0.13927169657E+04  0.21909388457E+04  0.16913167884E+04 0.  0.
        1    1    3    3  502    0  0.29391886301E+03  0.78276455834E+03 -0.53235055247E+03  0.99121428690E+03  0.50400001928E-02 0. -1.
       -1    1    3    3    0  502 -0.29391886301E+03 -0.78276455834E+03 -0.86036641325E+03  0.11997245588E+04  0.50400001928E-02 0.  1.
</event>
<event>
 5   0  0.2288806E-04  0.1695086E+04  0.7818609E-02  0.8764172E-01
       -2   -1    0    0    0  501  0.00000000000E+00  0.00000000000E+00  0.10546134963E+04  0.10546134963E+04  0.25500000920E-02 0. -1.
        2   -1    0    0  501    0  0.00000000000E+00  0.00000000000E+00 -0.68112987248E+03  0.68112987248E+03  0.25500000920E-02 0.  1.
    10030    2    1    2    0    0  0.00000000000E+00  0.00000000000E+00  0.37348362381E+03  0.17357433688E+04  0.16950855509E+04 0.  0.
        3    1    3    3  502    0  0.14848467050E+02 -0.87551170663E+02 -0.67635305038E+03  0.68215771154E+03  0.10100000352E+00 0.  1.
       -3    1    3    3    0  502 -0.14848467050E+02  0.87551170663E+02  0.10498366742E+04  0.10535856572E+04  0.10100000352E+00 0. -1.
</event>
<event>
 5   0  0.2356829E-04  0.1703253E+04  0.7818609E-02  0.8759511E-01
        2   -1    0    0  501    0  0.00000000000E+00  0.00000000000E+00  0.48741932692E+03  0.48741932692E+03  0.25500000920E-02 0. -1.
       -2   -1    0    0    0  501  0.00000000000E+00  0.00000000000E+00 -0.14879750856E+04  0.14879750856E+04  0.25500000920E-02 0.  1.
    10030    2    1    2    0    0  0.00000000000E+00  0.00000000000E+00 -0.10005557587E+04  0.19753944125E+04  0.17032531400E+04 0.  0.
        5    1    3    3  502    0  0.21901101058E+03  0.56820991430E+03 -0.11907277260E+04  0.13374165159E+04  0.46999998093E+01 0.  1.
       -5    1    3    3    0  502 -0.21901101058E+03 -0.56820991430E+03  0.19017196732E+03  0.63797789665E+03  0.46999998093E+01 0. -1.
</event>
<event>
 5   0  0.2242967E-04  0.1797702E+04  0.7818609E-02  0.8707523E-01
        2   -1    0    0  501    0  0.00000000000E+00  0.00000000000E+00  0.19549704309E+04  0.19549704309E+04  0.25500000920E-02 0. -1.
       -2   -1    0    0    0  501  0.00000000000E+00  0.00000000000E+00 -0.41327106243E+03  0.41327106244E+03  0.25500000920E-02 0.  1.
    10030    2    1    2    0    0  0.00000000000E+00  0.00000000000E+00  0.15416993685E+04  0.23682414933E+04  0.17977015403E+04 0.  0.
        4    1    3    3  502    0  0.28888427587E+03  0.50003930563E+03 -0.13654864241E+03  0.59341433810E+03  0.12699999809E+01 0.  1.
       -4    1    3    3    0  502 -0.28888427587E+03 -0.50003930563E+03  0.16782480109E+04  0.17748271552E+04  0.12699999809E+01 0. -1.
</event>
<event>
 5   0  0.2234723E-04  0.1699642E+04  0.7818609E-02  0.8761569E-01
       -2   -1    0    0    0  501  0.00000000000E+00  0.00000000000E+00  0.11414281938E+04  0.11414281938E+04  0.25500000920E-02 0.  1.
        2   -1    0    0  501    0  0.00000000000E+00  0.00000000000E+00 -0.63271230193E+03  0.63271230194E+03  0.25500000920E-02 0. -1.
    10030    2    1    2    0    0  0.00000000000E+00  0.00000000000E+00  0.50871589185E+03  0.17741404957E+04  0.16996419152E+04 0.  0.
        1    1    3    3  502    0 -0.72238407863E+03  0.36613579129E+03 -0.14419117628E+02  0.81000128747E+03  0.50400001928E-02 0.  1.
       -1    1    3    3    0  502  0.72238407863E+03 -0.36613579129E+03  0.52313500948E+03  0.96413920826E+03  0.50400001928E-02 0. -1.
</event>
<event>
 5   0  0.1215233E-04  0.1728295E+04  0.7818609E-02  0.8745389E-01
       -1   -1    0    0    0  501  0.00000000000E+00  0.00000000000E+00  0.57541508863E+03  0.57541508865E+03  0.50400001928E-02 0.  1.
        1   -1    0    0  501    0  0.00000000000E+00  0.00000000000E+00 -0.12977603893E+04  0.12977603893E+04  0.50400001928E-02 0. -1.
    10030    2    1    2    0    0  0.00000000000E+00  0.00000000000E+00 -0.72234530067E+03  0.18731754780E+04  0.17282950089E+04 0.  0.
        2    1    3    3  502    0 -0.37785983952E+03 -0.23830083989E+03  0.44055692046E+03  0.62741991424E+03  0.25500000920E-02 0.  1.
       -2    1    3    3    0  502  0.37785983952E+03  0.23830083989E+03 -0.11629022211E+04  0.12457555637E+04  0.25500000920E-02 0. -1.
</event>
<event>
 5   0  0.1186302E-04  0.1687894E+04  0.7818609E-02  0.8768299E-01
       -1   -1    0    0    0  501  0.00000000000E+00  0.00000000000E+00  0.10504875559E+04  0.10504875559E+04  0.50400001928E-02 0. -1.
        1   -1    0    0  501    0  0.00000000000E+00  0.00000000000E+00 -0.67801537210E+03  0.67801537212E+03  0.50400001928E-02 0.  1.
    10030    2    1    2    0    0  0.00000000000E+00  0.00000000000E+00  0.37247218379E+03  0.17285029280E+04  0.16878942042E+04 0.  0.
        3    1    3    3  502    0  0.77099076718E+02 -0.66106171211E+03 -0.34519009385E+03  0.74973533059E+03  0.10100000352E+00 0.  1.
       -3    1    3    3    0  502 -0.77099076718E+02  0.66106171211E+03  0.71766227764E+03  0.97876759744E+03  0.10100000352E+00 0. -1.
</event>
<event>
 5   0  0.2288806E-04  0.1694011E+04  0.7818609E-02  0.8764787E-01
       -2   -1    0    0    0  501  0.00000000000E+00  0.00000000000E+00  0.64041702434E+03  0.64041702435E+03  0.25500000920E-02 0.  1.
        2   -1    0    0  501    0  0.00000000000E+00  0.00000000000E+00 -0.11202367361E+04  0.11202367361E+04  0.25500000920E-02 0. -1.
    10030    2    1    2    0    0  0.00000000000E+00  0.00000000000E+00 -0.47981971175E+03  0.17606537604E+04  0.16940114251E+04 0.  0.
        3    1    3    3  502    0 -0.33111060108E+03 -0.21537476805E+03  0.53883126983E+03  0.66810154049E+03  0.10100000352E+00 0.  1.
       -3    1    3    3    0  502  0.33111060108E+03  0.21537476805E+03 -0.10186509816E+04  0.10925522200E+04  0.10100000352E+00 0. -1.
</event>
<event>
 5   0  0.2288806E-04  0.1701516E+04  0.7818609E-02  0.8760500E-01
        2   -1    0    0  501    0  0.00000000000E+00  0.00000000000E+00  0.10002899945E+04  0.10002899945E+04  0.25500000920E-02 0. -1.
       -2   -1    0    0    0  501  0.00000000000E+00  0.00000000000E+00 -0.72357911540E+03  0.72357911540E+03  0.25500000920E-02 0.  1.
    10030    2    1    2    0    0  0.00000000000E+00  0.00000000000E+00  0.27671087914E+03  0.17238691099E+04  0.17015157353E+04 0.  0.
        3    1    3    3  502    0  0.19029399441E+03  0.23421766618E+03 -0.66753096896E+03  0.73257581462E+03  0.10100000352E+00 0.  1.
       -3    1    3    3    0  502 -0.19029399441E+03 -0.23421766618E+03  0.94424184810E+03  0.99129329533E+03  0.10100000352E+00 0. -1.
</event>
<event>
 5   0  0.1215233E-04  0.1711206E+04  0.7818609E-02  0.8754999E-01
       -1   -1    0    0    0  501  0.00000000000E+00  0.00000000000E+00  0.18593289760E+04  0.18593289760E+04  0.50400001928E-02 0.  1.
        1   -1    0    0  501    0  0.00000000000E+00  0.00000000000E+00 -0.39372072913E+03  0.39372072916E+03  0.50400001928E-02 0. -1.
    10030    2    1    2    0    0  0.00000000000E+00  0.00000000000E+00  0.14656082469E+04  0.22530497052E+04  0.17112058440E+04 0.  0.
        2    1    3    3  502    0  0.68810005590E+03 -0.50842108391E+03  0.72083245283E+03  0.11187372840E+04  0.25500000920E-02 0. -1.
       -2    1    3    3    0  502 -0.68810005590E+03  0.50842108391E+03  0.74477579407E+03  0.11343124212E+04  0.25500000920E-02 0.  1.
</event>
<event>
 5   0  0.1204741E-04  0.1726695E+04  0.7818609E-02  0.8746284E-01
        1   -1    0    0  501    0  0.00000000000E+00  0.00000000000E+00  0.14143813731E+04  0.14143813731E+04  0.50400001928E-02 0. -1.
       -1   -1    0    0    0  501  0.00000000000E+00  0.00000000000E+00 -0.52699276537E+03  0.52699276540E+03  0.50400001928E-02 0.  1.
    10030    2    1    2    0    0  0.00000000000E+00  0.00000000000E+00  0.88738860772E+03  0.19413741385E+04  0.17266948209E+04 0.  0.
        1    1    3    3  502    0  0.52992005997E+03 -0.75400472180E+02 -0.31792450027E+03  0.62255641436E+03  0.50400001928E-02 0.  1.
       -1    1    3    3    0  502 -0.52992005997E+03  0.75400472180E+02  0.12053131080E+04  0.13188177241E+04  0.50400001928E-02 0. -1.
</event>
<event>
 5   0  0.2356829E-04  0.1686598E+04  0.7818609E-02  0.8769045E-01
        2   -1    0    0  501    0  0.00000000000E+00  0.00000000000E+00  0.46762653950E+03  0.46762653951E+03  0.25500000920E-02 0.  1.
       -2   -1    0    0    0  501  0.00000000000E+00  0.00000000000E+00 -0.15207725724E+04  0.15207725724E+04  0.25500000920E-02 0. -1.
    10030    2    1    2    0    0  0.00000000000E+00  0.00000000000E+00 -0.10531460329E+04  0.19883991119E+04  0.16865984886E+04 0.  0.
        5    1    3    3  502    0 -0.55853216334E+03 -0.29605884727E+03 -0.11845891897E+04  0.13427146595E+04  0.46999998093E+01 0. -1.
       -5    1    3    3    0  502  0.55853216334E+03  0.29605884727E+03  0.13144315684E+03  0.64568445235E+03  0.46999998093E+01 0.  1.
</event>
<event>
 5   0  0.1126958E-04  0.1722135E+04  0.7818609E-02  0.8748840E-01
       -1   -1    0    0    0  501  0.00000000000E+00  0.00000000000E+00  0.49999315288E+03  0.49999315291E+03  0.50400001928E-02 0. -1.
        1   -1    0    0  501    0  0.00000000000E+00  0.00000000000E+00 -0.14828951456E+04  0.14828951456E+04  0.50400001928E-02 0.  1.
    10030    2    1    2    0    0  0.00000000000E+00  0.00000000000E+00 -0.98290199272E+03  0.19828882985E+04  0.17221352087E+04 0.  0.
        4    1    3    3  502    0  0.42803105937E+03 -0.31342341174E+03  0.28946741752E+03  0.60434908912E+03  0.12699999809E+01 0. -1.
       -4    1    3    3    0  502 -0.42803105937E+03  0.31342341174E+03 -0.12723694102E+04  0.13785392094E+04  0.12699999809E+01 0.  1.
</event>
<event>
 5   0  0.1204741E-04  0.1708952E+04  0.7818609E-02  0.8756275E-01
       -1   -1    0    0    0  501  0.00000000000E+00  0.00000000000E+00  0.75324673579E+03  0.75324673581E+03  0.50400001928E-02 0. -1.
        1   -1    0    0  501    0  0.00000000000E+00  0.00000000000E+00 -0.96930974276E+03  0.96930974278E+03  0.50400001928E-02 0.  1.
    10030    2    1    2    0    0  0.00000000000E+00  0.00000000000E+00 -0.21606300697E+03  0.17225564786E+04  0.17089521933E+04 0.  0.
        1    1    3    3  502    0  0.50938880827E+03  0.73848730002E+02  0.57945290396E+03  0.77504597337E+03  0.50400001928E-02 0.  1.
       -1    1    3    3    0  502 -0.50938880827E+03 -0.73848730002E+02 -0.79551591093E+03  0.94751050521E+03  0.50400001928E-02 0. -1.
</event>
<event>
 5   0  0.2242967E-04  0.1706256E+04  0.7818609E-02  0.8757804E-01
        2   -1    0    0  501    0  0.00000000000E+00  0.00000000000E+00  0.17676353930E+04  0.17676353930E+04  0.25500000920E-02 0.  1.
       -2   -1    0    0    0  501  0.00000000000E+00  0.00000000000E+00 -0.41175215598E+03  0.41175215599E+03  0.25500000920E-02 0. -1.
    10030    2    1    2    0    0  0.00000000000E+00  0.00000000000E+00  0.13558832371E+04  0.21793875490E+04  0.17062563513E+04 0.  0.
        4    1    3    3  502    0  0.20523554628E+03 -0.32827654211E+03  0.16489683104E+04  0.16938079050E+04  0.12699999809E+01 0.  1.
       -4    1    3    3    0  502 -0.20523554628E+03  0.32827654211E+03 -0.29308507333E+03  0.48557964400E+03  0.12699999809E+01 0. -1.
</event>
<event>
 5   0  0.1186302E-04  0.1698567E+04  0.7818609E-02  0.8762182E-01
        1   -1    0    0  501    0  0.00000000000E+00  0.00000000000E+00  0.20237573887E+04  0.20237573887E+04  0.50400001928E-02 0.  1.
       -1   -1    0    0    0  501  0.00000000000E+00  0.00000000000E+00 -0.35640765324E+03  0.35640765328E+03  0.50400001928E-02 0. -1.
    10030    2    1    2    0    0  0.00000000000E+00  0.00000000000E+00  0.16673497354E+04  0.23801650420E+04  0.16985671864E+04 0.  0.
        3    1    3    3  502    0 -0.64494290315E+03  0.50880740145E+03  0.53167979052E+03  0.97852937102E+03  0.10100000352E+00 0. -1.
       -3    1    3    3    0  502  0.64494290315E+03 -0.50880740145E+03  0.11356699449E+04  0.14016356709E+04  0.10100000352E+00 0.  1.
</event>
<event>
 5   0  0.1204741E-04  0.1685063E+04  0.7818609E-02  0.8769929E-01
        1   -1    0    0  501    0  0.00000000000E+00  0.00000000000E+00  0.82260638196E+03  0.82260638198E+03  0.50400001928E-02 0.  1.
       -1   -1    0    0    0  501  0.00000000000E+00  0.00000000000E+00 -0.86293954910E+03  0.86293954912E+03  0.50400001928E-02 0. -1.
    10030    2    1    2    0    0  0.00000000000E+00  0.00000000000E+00 -0.40333167141E+02  0.16855459311E+04  0.16850632989E+04 0.  0.
        1    1    3    3  502    0 -0.23772115855E+03 -0.30334947736E+03 -0.76959898215E+03  0.86070601717E+03  0.50400001928E-02 0. -1.
       -1    1    3    3    0  502  0.23772115855E+03  0.30334947736E+03  0.72926581501E+03  0.82483991393E+03  0.50400001928E-02 0.  1.
</event>
<event>
 5   0  0.1204741E-04  0.1674378E+04  0.7818609E-02  0.8776114E-01
        1   -1    0    0  501    0  0.00000000000E+00  0.00000000000E+00  0.10110164267E+04  0.10110164267E+04  0.50400001928E-02 0. -1.
       -1   -1    0    0    0  501  0.00000000000E+00  0.00000000000E+00 -0.69324868877E+03  0.69324868879E+03  0.50400001928E-02 0.  1.
    10030    2    1    2    0    0  0.00000000000E+00  0.00000000000E+00  0.31776773790E+03  0.17042651155E+04  0.16743784663E+04 0.  0.
        1    1    3    3  502    0 -0.14525479113E+03  0.41320848173E+03  0.88509327889E+03  0.98753750110E+03  0.50400001928E-02 0. -1.
       -1    1    3    3    0  502  0.14525479113E+03 -0.41320848173E+03 -0.56732554098E+03  0.71672761437E+03  0.50400001928E-02 0.  1.
</event>
<event>
 5   0  0.1234158E-04  0.1686749E+04  0.7818609E-02  0.8768958E-01
       -1   -1    0    0    0  501  0.00000000000E+00  0.00000000000E+00  0.54350781412E+03  0.54350781414E+03  0.50400001928E-02 0.  1.
        1   -1    0    0  501    0  0.00000000000E+00  0.00000000000E+00 -0.13086853496E+04  0.13086853496E+04  0.50400001928E-02 0. -1.
    10030    2    1    2    0    0  0.00000000000E+00  0.00000000000E+00 -0.76517753548E+03  0.18521931638E+04  0.16867491974E+04 0.  0.
        5    1    3    3  502    0 -0.40302628239E+03  0.85866804739E+02 -0.11905994118E+04  0.12599017192E+04  0.46999998093E+01 0. -1.
       -5    1    3    3    0  502  0.40302628239E+03 -0.85866804739E+02  0.42542187636E+03  0.59229144460E+03  0.46999998093E+01 0.  1.
</event>
<event>
 5   0  0.1234158E-04  0.1697800E+04  0.7818609E-02  0.8762620E-01
        1   -1    0    0  501    0  0.00000000000E+00  0.00000000000E+00  0.59102251762E+03  0.59102251764E+03  0.50400001928E-02 0.  1.
       -1   -1    0    0    0  501  0.00000000000E+00  0.00000000000E+00 -0.12192954639E+04  0.12192954639E+04  0.50400001928E-02 0. -1.
    10030    2    1    2    0    0  0.00000000000E+00  0.00000000000E+00 -0.62827294626E+03  0.18103179815E+04  0.16977998408E+04 0.  0.
        5    1    3    3  502    0  0.68623910964E+03  0.21966709805E+03  0.16441844593E+03  0.73907595342E+03  0.46999998093E+01 0.  1.
       -5    1    3    3    0  502 -0.68623910964E+03 -0.21966709805E+03 -0.79269139219E+03  0.10712420281E+04  0.46999998093E+01 0. -1.
</event>
<event>
 5   0  0.1215233E-04  0.1706492E+04  0.7818609E-02  0.8757671E-01
       -1   -1    0    0    0  501  0.00000000000E+00  0.00000000000E+00  0.76866361342E+03  0.76866361343E+03  0.50400001928E-02 0.  1.
        1   -1    0    0  501    0  0.00000000000E+00  0.00000000000E+00 -0.94713516488E+03  0.94713516489E+03  0.50400001928E-02 0. -1.
    10030    2    1    2    0    0  0.00000000000E+00  0.00000000000E+00 -0.17847155146E+03  0.17157987783E+04  0.17064915332E+04 0.  0.
        2    1    3    3  502    0  0.66315512729E+02 -0.65433779287E+03  0.45730284378E+03  0.80105030138E+03  0.25500000920E-02 0. -1.
       -2    1    3    3    0  502 -0.66315512729E+02  0.65433779287E+03 -0.63577439524E+03  0.91474847694E+03  0.25500000920E-02 0.  1.
</event>
<event>
 5   0  0.1215233E-04  0.1690603E+04  0.7818609E-02  0.8766742E-01
       -1   -1    0    0    0  501  0.00000000000E+00  0.00000000000E+00  0.35307836848E+03  0.35307836852E+03  0.50400001928E-02 0.  1.
        1   -1    0    0  501    0  0.00000000000E+00  0.00000000000E+00 -0.20237270905E+04  0.20237270905E+04  0.50400001928E-02 0. -1.
    10030    2    1    2    0    0  0.00000000000E+00  0.00000000000E+00 -0.16706487220E+04  0.23768054591E+04  0.16906025665E+04 0.  0.
        2    1    3    3  502    0  0.78854152327E+02  0.76441213878E+03 -0.34027776325E+03  0.84043610788E+03  0.25500000920E-02 0.  1.
       -2    1    3    3    0  502 -0.78854152327E+02 -0.76441213878E+03 -0.13303709588E+04  0.15363693512E+04  0.25500000920E-02 0. -1.
</event>
<event>
 5   0  0.1215233E-04  0.1695938E+04  0.7818609E-02  0.8763685E-01
       -1   -1    0    0    0  501  0.00000000000E+00  0.00000000000E+00  0.65548834470E+03  0.65548834472E+03  0.50400001928E-02 0. -1.
        1   -1    0    0  501    0  0.00000000000E+00  0.00000000000E+00 -0.10969699460E+04  0.10969699460E+04  0.50400001928E-02 0.  1.
    10030    2    1    2    0    0  0.00000000000E+00  0.00000000000E+00 -0.44148160132E+03  0.17524582908E+04  0.16959375155E+04 0.  0.
        2    1    3    3  502    0 -0.67478556256E+02 -0.37427542551E+03 -0.10039016031E+04  0.10735240465E+04  0.25500000920E-02 0.  1.
       -2    1    3    3    0  502  0.67478556256E+02  0.37427542551E+03  0.56242000174E+03  0.67893424429E+03  0.25500000920E-02 0. -1.
</event>
<event>
 5   0  0.2356829E-04  0.1668220E+04  0.7818609E-02  0.8779700E-01
        2   -1    0    0  501    0  0.00000000000E+00  0.00000000000E+00  0.48656395471E+03  0.48656395472E+03  0.25500000920E-02 0.  1.
       -2   -1    0    0    0  501  0.00000000000E+00  0.00000000000E+00 -0.14299026670E+04  0.14299026670E+04  0.25500000920E-02 0. -1.
    10030    2    1    2    0    0  0.00000000000E+00  0.00000000000E+00 -0.94333871225E+03  0.19164666217E+04  0.16682195257E+04 0.  0.
        5    1    3    3  502    0  0.67090398107E+02 -0.23009726037E+03  0.44613615700E+03  0.50646365252E+03  0.46999998093E+01 0.  1.
       -5    1    3    3    0  502 -0.67090398107E+02  0.23009726037E+03 -0.13894748693E+04  0.14100029692E+04  0.46999998093E+01 0. -1.
</event>
<event>
 5   0  0.1204741E-04  0.1701013E+04  0.7818609E-02  0.8760787E-01
        1   -1    0    0  501    0  0.00000000000E+00  0.00000000000E+00  0.74950261616E+03  0.74950261618E+03  0.50400001928E-02 0. -1.
       -1   -1    0    0    0  501  0.00000000000E+00  0.00000000000E+00 -0.96512158196E+03  0.96512158197E+03  0.50400001928E-02 0.  1.
    10030    2    1    2    0    0  0.00000000000E+00  0.00000000000E+00 -0.21561896580E+03  0.17146241982E+04  0.17010128167E+04 0.  0.
        1    1    3    3  502    0  0.74602420835E+03  0.37778643358E+03  0.48630473509E+02  0.83763932084E+03  0.50400001928E-02 0. -1.
       -1    1    3    3    0  502 -0.74602420835E+03 -0.37778643358E+03 -0.26424943931E+03  0.87698487731E+03  0.50400001928E-02 0.  1.
</event>
<event>
 5   0  0.8372750E-05  0.1700120E+04  0.7818609E-02  0.8761296E-01
        3   -1    0    0  501    0  0.00000000000E+00  0.00000000000E+00  0.65550115524E+03  0.65550116302E+03  0.10100000352E+00 0. -1.
       -3   -1    0    0    0  501  0.00000000000E+00  0.00000000000E+00 -0.11023650697E+04  0.11023650743E+04  0.10100000352E+00 0.  1.
    10030    2    1    2    0    0  0.00000000000E+00  0.00000000000E+00 -0.44686391448E+03  0.17578662374E+04  0.17001195106E+04 0.  0.
        1    1    3    3  502    0 -0.75913252530E+03  0.12844447658E+03  0.14911372943E+03  0.78422897094E+03  0.50400001928E-02 0. -1.
       -1    1    3    3    0  502  0.75913252530E+03 -0.12844447658E+03 -0.59597764390E+03  0.97363726643E+03  0.50400001928E-02 0.  1.
</event>
<event>
 5   0  0.2288806E-04  0.1699951E+04  0.7818609E-02  0.8761393E-01
       -2   -1    0    0    0  501  0.00000000000E+00  0.00000000000E+00  0.37027768964E+03  0.37027768965E+03  0.25500000920E-02 0. -1.
        2   -1    0    0  501    0  0.00000000000E+00  0.00000000000E+00 -0.19511246935E+04  0.19511246935E+04  0.25500000920E-02 0.  1.
    10030    2    1    2    0    0  0.00000000000E+00  0.00000000000E+00 -0.15808470039E+04  0.23214023832E+04  0.16999505213E+04 0.  0.
        3    1    3    3  502    0 -0.73737232630E+03  0.72610212670E+02 -0.22167075287E+03  0.77338743425E+03  0.10100000352E+00 0. -1.
       -3    1    3    3    0  502  0.73737232630E+03 -0.72610212670E+02 -0.13591762510E+04  0.15480149489E+04  0.10100000352E+00 0.  1.
</event>
<event>
 5   0  0.1126958E-04  0.1703444E+04  0.7818609E-02  0.8759403E-01
        1   -1    0    0  501    0  0.00000000000E+00  0.00000000000E+00  0.15446097417E+04  0.15446097418E+04  0.50400001928E-02 0.  1.
       -1   -1    0    0    0  501  0.00000000000E+00  0.00000000000E+00 -0.46965278715E+03  0.46965278718E+03  0.50400001928E-02 0. -1.
    10030    2    1    2    0    0  0.00000000000E+00  0.00000000000E+00  0.10749569546E+04  0.20142625289E+04  0.17034438885E+04 0.  0.
        4    1    3    3  502    0  0.49515261487E+03 -0.49880881405E+03  0.11063440104E+04  0.13107192785E+04  0.12699999809E+01 0.  1.
       -4    1    3    3    0  502 -0.49515261487E+03  0.49880881405E+03 -0.31387055770E+02  0.70354325038E+03  0.12699999809E+01 0. -1.
</event>
<event>
 5   0  0.2242967E-04  0.1698770E+04  0.7818609E-02  0.8762066E-01
        2   -1    0    0  501    0  0.00000000000E+00  0.00000000000E+00  0.69802295447E+03  0.69802295448E+03  0.25500000920E-02 0. -1.
       -2   -1    0    0    0  501  0.00000000000E+00  0.00000000000E+00 -0.10335690514E+04  0.10335690514E+04  0.25500000920E-02 0.  1.
    10030    2    1    2    0    0  0.00000000000E+00  0.00000000000E+00 -0.33554609694E+03  0.17315920059E+04  0.16987700526E+04 0.  0.
        4    1    3    3  502    0  0.78832200280E+03 -0.19342147255E+03 -0.42278643549E+03  0.91521223171E+03  0.12699999809E+01 0.  1.
       -4    1    3    3    0  502 -0.78832200280E+03  0.19342147255E+03  0.87240338542E+02  0.81637977419E+03  0.12699999809E+01 0. -1.
</event>
<event>
 5   0  0.2234723E-04  0.1696260E+04  0.7818609E-02  0.8763500E-01
       -2   -1    0    0    0  501  0.00000000000E+00  0.00000000000E+00  0.55409415985E+03  0.55409415986E+03  0.25500000920E-02 0. -1.
        2   -1    0    0  501    0  0.00000000000E+00  0.00000000000E+00 -0.12981984748E+04  0.12981984748E+04  0.25500000920E-02 0.  1.
    10030    2    1    2    0    0  0.00000000000E+00  0.00000000000E+00 -0.74410431492E+03  0.18522926346E+04  0.16962596419E+04 0.  0.
        1    1    3    3  502    0  0.49225917583E+03  0.39254395704E+03 -0.99257951825E+03  0.11754250101E+04  0.50400001928E-02 0.  1.
       -1    1    3    3    0  502 -0.49225917583E+03 -0.39254395704E+03  0.24847520332E+03  0.67686762449E+03  0.50400001928E-02 0. -1.
</event>
<event>
 5   0  0.1186302E-04  0.1696814E+04  0.7818609E-02  0.8763184E-01
       -1   -1    0    0    0  501  0.00000000000E+00  0.00000000000E+00  0.11703698559E+04  0.11703698559E+04  0.50400001928E-02 0.  1.
        1   -1    0    0  501    0  0.00000000000E+00  0.00000000000E+00 -0.61501424144E+03  0.61501424146E+03  0.50400001928E-02 0. -1.
    10030    2    1    2    0    0  0.00000000000E+00  0.00000000000E+00  0.55535561446E+03  0.17853840974E+04  0.16968136364E+04 0.  0.
        3    1    3    3  502    0 -0.18907617181E+03 -0.71934072143E+03  0.70714126110E+03  0.10262795163E+04  0.10100000352E+00 0.  1.
       -3    1    3    3    0  502  0.18907617181E+03  0.71934072143E+03 -0.15178564663E+03  0.75910458106E+03  0.10100000352E+00 0. -1.
</event>
<event>
 5   0  0.2288806E-04  0.1699244E+04  0.7818609E-02  0.8761795E-01
        2   -1    0    0  501    0  0.00000000000E+00  0.00000000000E+00  0.16590779667E+04  0.16590779667E+04  0.25500000920E-02 0.  1.
       -2   -1    0    0    0  501  0.00000000000E+00  0.00000000000E+00 -0.43509575599E+03  0.43509575600E+03  0.25500000920E-02 0. -1.
    10030    2    1    2    0    0  0.00000000000E+00  0.00000000000E+00  0.12239822107E+04  0.20941737227E+04  0.16992442816E+04 0.  0.
        3    1    3    3  502    0 -0.29310460698E+03  0.41707184682E+03 -0.22568704645E+03  0.55748891396E+03  0.10100000352E+00 0. -1.
       -3    1    3    3    0  502  0.29310460698E+03 -0.41707184682E+03  0.14496692571E+04  0.15366848087E+04  0.10100000352E+00 0.  1.
</event>
<event>
 5   0  0.1126958E-04  0.1691120E+04  0.7818609E-02  0.8766445E-01
       -1   -1    0    0    0  501  0.00000000000E+00  0.00000000000E+00  0.38948272736E+03  0.38948272739E+03  0.50400001928E-02 0.  1.
        1   -1    0    0  501    0  0.00000000000E+00  0.00000000000E+00 -0.18356955127E+04  0.18356955127E+04  0.50400001928E-02 0. -1.
    10030    2    1    2    0    0  0.00000000000E+00  0.00000000000E+00 -0.14462127853E+04  0.22251782401E+04  0.16911199779E+04 0.  0.
        4    1    3    3  502    0  0.13915218095E+03 -0.40808173127E+02  0.37299769536E+03  0.40019686418E+03  0.12699999809E+01 0.  1.
       -4    1    3    3    0  502 -0.13915218095E+03  0.40808173127E+02 -0.18192104807E+04  0.18249813759E+04  0.12699999809E+01 0. -1.
</event>
<event>
 5   0  0.2224454E-04  0.1701127E+04  0.7818609E-02  0.8760722E-01
       -2   -1    0    0    0  501  0.00000000000E+00  0.00000000000E+00  0.34963411180E+03  0.34963411181E+03  0.25500000920E-02 0. -1.
        2   -1    0    0  501    0  0.00000000000E+00  0.00000000000E+00 -0.20691868749E+04  0.20691868749E+04  0.25500000920E-02 0.  1.
    10030    2    1    2    0    0  0.00000000000E+00  0.00000000000E+00 -0.17195527631E+04  0.24188209867E+04  0.17011270560E+04 0.  0.
        2    1    3    3  502    0 -0.63371575349E+03 -0.21180350140E+03 -0.16081326108E+04  0.17414209352E+04  0.25500000920E-02 0.  1.
       -2    1    3    3    0  502  0.63371575349E+03  0.21180350140E+03 -0.11142015223E+03  0.67740005149E+03  0.25500000920E-02 0. -1.
</event>
<event>
 5   0  0.1126958E-04  0.1692772E+04  0.7818609E-02  0.8765497E-01
       -1   -1    0    0    0  501  0.00000000000E+00  0.00000000000E+00  0.85019337787E+03  0.85019337789E+03  0.50400001928E-02 0.  1.
        1   -1    0    0  501    0  0.00000000000E+00  0.00000000000E+00 -0.84259576977E+03  0.84259576979E+03  0.50400001928E-02 0. -1.
    10030    2    1    2    0    0  0.00000000000E+00  0.00000000000E+00  0.75976081011E+01  0.16927891477E+04  0.16927720977E+04 0.  0.
        4    1    3    3  502    0  0.29298726299E+03 -0.78938858293E+03  0.89775594951E+02  0.84678045649E+03  0.12699999809E+01 0. -1.
       -4    1    3    3    0  502 -0.29298726299E+03  0.78938858293E+03 -0.82177986850E+02  0.84600869119E+03  0.12699999809E+01 0.  1.
</event>
<event>
 5   0  0.1126958E-04  0.1701899E+04  0.7818609E-02  0.8760282E-01
       -1   -1    0    0    0  501  0.00000000000E+00  0.00000000000E+00  0.54087517268E+03  0.54087517270E+03  0.50400001928E-02 0. -1.
        1   -1    0    0  501    0  0.00000000000E+00  0.00000000000E+00 -0.13387835766E+04  0.13387835766E+04  0.50400001928E-02 0.  1.
    10030    2    1    2    0    0  0.00000000000E+00  0.00000000000E+00 -0.79790840393E+03  0.18796587493E+04  0.17018987023E+04 0.  0.
        4    1    3    3  502    0  0.73945415690E+03  0.40869964189E+03 -0.28694477252E+03  0.89228177321E+03  0.12699999809E+01 0.  1.
       -4    1    3    3    0  502 -0.73945415690E+03 -0.40869964189E+03 -0.51096363141E+03  0.98737697611E+03  0.12699999809E+01 0. -1.
</event>
<event>
 5   0  0.1215233E-04  0.1702289E+04  0.7818609E-02  0.8760060E-01
       -1   -1    0    0    0  501  0.00000000000E+00  0.00000000000E+00  0.56858372653E+03  0.56858372656E+03  0.50400001928E-02 0. -1.
        1   -1    0    0  501    0  0.00000000000E+00  0.00000000000E+00 -0.12741259999E+04  0.12741259999E+04  0.50400001928E-02 0.  1.
    10030    2    1    2    0    0  0.00000000000E+00  0.00000000000E+00 -0.70554227335E+03  0.18427097264E+04  0.17022894103E+04 0.  0.
        2    1    3    3  502    0  0.20082701357E+03  0.66982818816E+03  0.17248266655E+03  0.72024409842E+03  0.25500000920E-02 0. -1.
       -2    1    3    3    0  502 -0.20082701357E+03 -0.66982818816E+03 -0.87802493989E+03  0.11224656280E+04  0.25500000920E-02 0.  1.
</event>
<event>
 5   0  0.2224454E-04  0.1687451E+04  0.7818609E-02  0.8768554E-01
       -2   -1    0    0    0  501  0.00000000000E+00  0.00000000000E+00  0.41174145263E+03  0.41174145264E+03  0.25500000920E-02 0. -1.
        2   -1    0    0  501    0  0.00000000000E+00  0.00000000000E+00 -0.17289319925E+04  0.17289319925E+04  0.25500000920E-02 0.  1.
    10030    2    1    2    0    0  0.00000000000E+00  0.00000000000E+00 -0.13171905399E+04  0.21406734451E+04  0.16874512972E+04 0.  0.
        2    1    3    3  502    0  0.26819131443E+03 -0.12121290904E+03  0.34451193842E+03  0.45310884584E+03  0.25500000920E-02 0. -1.
       -2    1    3    3    0  502 -0.26819131443E+03  0.12121290904E+03 -0.16617024783E+04  0.16875645993E+04  0.25500000920E-02 0.  1.
</event>
<event>
 5   0  0.2234723E-04  0.1650463E+04  0.7818609E-02  0.8790133E-01
        2   -1    0    0  501    0  0.00000000000E+00  0.00000000000E+00  0.89163069699E+03  0.89163069699E+03  0.25500000920E-02 0. -1.
       -2   -1    0    0    0  501  0.00000000000E+00  0.00000000000E+00 -0.76377683658E+03  0.76377683658E+03  0.25500000920E-02 0.  1.
    10030    2    1    2    0    0  0.00000000000E+00  0.00000000000E+00  0.12785386041E+03  0.16554075336E+04  0.16504628116E+04 0.  0.
        1    1    3    3  502    0  0.71419442428E+03 -0.29528676784E+03 -0.22631681369E+03  0.80528706131E+03  0.50400001928E-02 0.  1.
       -1    1    3    3    0  502 -0.71419442428E+03  0.29528676784E+03  0.35417067410E+03  0.85012047226E+03  0.50400001928E-02 0. -1.
</event>
<event>
 5   0  0.2356829E-04  0.1698905E+04  0.7818609E-02  0.8761989E-01
       -2   -1    0    0    0  501  0.00000000000E+00  0.00000000000E+00  0.64340331199E+03  0.64340331199E+03  0.25500000920E-02 0. -1.
        2   -1    0    0  501    0  0.00000000000E+00  0.00000000000E+00 -0.11214889207E+04  0.11214889207E+04  0.25500000920E-02 0.  1.
    10030    2    1    2    0    0  0.00000000000E+00  0.00000000000E+00 -0.47808560869E+03  0.17648922327E+04  0.16989051603E+04 0.  0.
        5    1    3    3  502    0  0.73341311389E+03  0.38037709451E+03 -0.33977428323E+02  0.82689665938E+03  0.46999998093E+01 0.  1.
       -5    1    3    3    0  502 -0.73341311389E+03 -0.38037709451E+03 -0.44410818037E+03  0.93799557330E+03  0.46999998093E+01 0. -1.
</event>
<event>
 5   0  0.2234723E-04  0.1698772E+04  0.7818609E-02  0.8762065E-01
        2   -1    0    0  501    0  0.00000000000E+00  0.00000000000E+00  0.23504700648E+04  0.23504700648E+04  0.25500000920E-02 0. -1.
       -2   -1    0    0    0  501  0.00000000000E+00  0.00000000000E+00 -0.30694138215E+03  0.30694138216E+03  0.25500000920E-02 0.  1.
    10030    2    1    2    0    0  0.00000000000E+00  0.00000000000E+00  0.20435286826E+04  0.26574114469E+04  0.16987719451E+04 0.  0.
        1    1    3    3  502    0  0.40782710738E+01 -0.69909142989E+03  0.17763911739E+04  0.19090078738E+04  0.50400001928E-02 0. -1.
       -1    1    3    3    0  502 -0.40782710738E+01  0.69909142989E+03  0.26713750875E+03  0.74840357312E+03  0.50400001928E-02 0.  1.
</event>
<event>
 5   0  0.1204741E-04  0.1700703E+04  0.7818609E-02  0.8760963E-01
       -1   -1    0    0    0  501  0.00000000000E+00  0.00000000000E+00  0.44423971932E+03  0.44423971935E+03  0.50400001928E-02 0. -1.
        1   -1    0    0  501    0  0.00000000000E+00  0.00000000000E+00 -0.16277197173E+04  0.16277197173E+04  0.50400001928E-02 0.  1.
    10030    2    1    2    0    0  0.00000000000E+00  0.00000000000E+00 -0.11834799980E+04  0.20719594366E+04  0.17007030903E+04 0.  0.
        1    1    3    3  502    0 -0.39922889781E+03 -0.21678418941E+03 -0.14674893367E+04  0.15361979205E+04  0.50400001928E-02 0.  1.
       -1    1    3    3    0  502  0.39922889781E+03  0.21678418941E+03  0.28400933875E+03  0.53576151611E+03  0.50400001928E-02 0. -1.
</event>
<event>
 5   0  0.2356829E-04  0.1701608E+04  0.7818609E-02  0.8760448E-01
        2   -1    0    0  501    0  0.00000000000E+00  0.00000000000E+00  0.62242026528E+03  0.62242026529E+03  0.25500000920E-02 0. -1.
       -2   -1    0    0    0  501  0.00000000000E+00  0.00000000000E+00 -0.11629886942E+04  0.11629886942E+04  0.25500000920E-02 0.  1.
    10030    2    1    2    0    0  0.00000000000E+00  0.00000000000E+00 -0.54056842893E+03  0.17854089595E+04  0.17016083352E+04 0.  0.
        5    1    3    3  502    0 -0.40223356404E+03 -0.73596348357E+03 -0.42018921616E+03  0.93809123040E+03  0.46999998093E+01 0. -1.
       -5    1    3    3    0  502  0.40223356404E+03  0.73596348357E+03 -0.12037921278E+03  0.84731772910E+03  0.46999998093E+01 0.  1.
</event>
<event>
 5   0  0.8372750E-05  0.1695036E+04  0.7818609E-02  0.8764201E-01
        3   -1    0    0  501    0  0.00000000000E+00  0.00000000000E+00  0.16092153096E+04  0.16092153128E+04  0.10100000352E+00 0.  1.
       -3   -1    0    0    0  501  0.00000000000E+00  0.00000000000E+00 -0.44635827219E+03  0.44635828362E+03  0.10100000352E+00 0. -1.
    10030    2    1    2    0    0  0.00000000000E+00  0.00000000000E+00  0.11628570374E+04  0.20555735964E+04  0.16950357875E+04 0.  0.
        5    1    3    3  502    0 -0.36571770868E+02 -0.31395402731E+03 -0.37219028348E+03  0.48831580233E+03  0.46999998093E+01 0. -1.
       -5    1    3    3    0  502  0.36571770868E+02  0.31395402731E+03  0.15350473209E+04  0.15672577941E+04  0.46999998093E+01 0.  1.
</event>
<event>
 5   0  0.2242967E-04  0.1699560E+04  0.7818609E-02  0.8761616E-01
       -2   -1    0    0    0  501  0.00000000000E+00  0.00000000000E+00  0.11080368529E+04  0.11080368529E+04  0.25500000920E-02 0.  1.
        2   -1    0    0  501    0  0.00000000000E+00  0.00000000000E+00 -0.65171626433E+03  0.65171626434E+03  0.25500000920E-02 0. -1.
    10030    2    1    2    0    0  0.00000000000E+00  0.00000000000E+00  0.45632058859E+03  0.17597531173E+04  0.16995595177E+04 0.  0.
        4    1    3    3  502    0  0.38162890796E+03 -0.74787689950E+03  0.92510585017E+02  0.84470130901E+03  0.12699999809E+01 0.  1.
       -4    1    3    3    0  502 -0.38162890796E+03  0.74787689950E+03  0.36381000358E+03  0.91505180826E+03  0.12699999809E+01 0. -1.
</event>
<event>
 5   0  0.2242967E-04  0.1703990E+04  0.7818609E-02  0.8759092E-01
       -2   -1    0    0    0  501  0.00000000000E+00  0.00000000000E+00  0.52033409370E+03  0.52033409370E+03  0.25500000920E-02 0.  1.
        2   -1    0    0  501    0  0.00000000000E+00  0.00000000000E+00 -0.13950572289E+04  0.13950572289E+04  0.25500000920E-02 0. -1.
    10030    2    1    2    0    0  0.00000000000E+00  0.00000000000E+00 -0.87472313516E+03  0.19153913226E+04  0.17039904211E+04 0.  0.
        4    1    3    3  502    0  0.30902492715E+03  0.46479091504E+03 -0.11609357545E+04  0.12881383619E+04  0.12699999809E+01 0. -1.
       -4    1    3    3    0  502 -0.30902492715E+03 -0.46479091504E+03  0.28621261936E+03  0.62725296069E+03  0.12699999809E+01 0.  1.
</event>
<event>
 5   0  0.1215233E-04  0.1703585E+04  0.7818609E-02  0.8759322E-01
       -1   -1    0    0    0  501  0.00000000000E+00  0.00000000000E+00  0.49111465786E+03  0.49111465788E+03  0.50400001928E-02 0. -1.
        1   -1    0    0  501    0  0.00000000000E+00  0.00000000000E+00 -0.14773550262E+04  0.14773550262E+04  0.50400001928E-02 0.  1.
    10030    2    1    2    0    0  0.00000000000E+00  0.00000000000E+00 -0.98624036829E+03  0.19684696840E+04  0.17035852878E+04 0.  0.
        2    1    3    3  502    0  0.29301893679E+03  0.14785924764E+02 -0.14171279305E+04  0.14471801175E+04  0.25500000920E-02 0.  1.
       -2    1    3    3    0  502 -0.29301893679E+03 -0.14785924764E+02  0.43088756226E+03  0.52128956656E+03  0.25500000920E-02 0. -1.
</event>
<event>
 5   0  0.1186302E-04  0.1695334E+04  0.7818609E-02  0.8764030E-01
        1   -1    0    0  501    0  0.00000000000E+00  0.00000000000E+00  0.99833806189E+03  0.99833806190E+03  0.50400001928E-02 0. -1.
       -1   -1    0    0    0  501  0.00000000000E+00  0.00000000000E+00 -0.71973564000E+03  0.71973564002E+03  0.50400001928E-02 0.  1.
    10030    2    1    2    0    0  0.00000000000E+00  0.00000000000E+00  0.27860242188E+03  0.17180737019E+04  0.16953341664E+04 0.  0.
        3    1    3    3  502    0 -0.14006916039E+03 -0.73032225468E+03 -0.27303400084E+03  0.79217267133E+03  0.10100000352E+00 0. -1.
       -3    1    3    3    0  502  0.14006916039E+03  0.73032225468E+03  0.55163642273E+03  0.92590103059E+03  0.10100000352E+00 0.  1.
</event>
<event>
 5   0  0.1234158E-04  0.1691211E+04  0.7818609E-02  0.8766393E-01
        1   -1    0    0  501    0  0.00000000000E+00  0.00000000000E+00  0.87457647139E+03  0.87457647141E+03  0.50400001928E-02 0.  1.
       -1   -1    0    0    0  501  0.00000000000E+00  0.00000000000E+00 -0.81759398700E+03  0.81759398702E+03  0.50400001928E-02 0. -1.
    10030    2    1    2    0    0  0.00000000000E+00  0.00000000000E+00  0.56982484389E+02  0.16921704584E+04  0.16912107665E+04 0.  0.
        5    1    3    3  502    0 -0.80423469552E+02 -0.20170237418E+03 -0.78920845162E+03  0.81854984718E+03  0.46999998093E+01 0. -1.
       -5    1    3    3    0  502  0.80423469552E+02  0.20170237418E+03  0.84619093601E+03  0.87362061124E+03  0.46999998093E+01 0.  1.
</event>
<event>
 5   0  0.2242967E-04  0.1724538E+04  0.7818609E-02  0.8747492E-01
        2   -1    0    0  501    0  0.00000000000E+00  0.00000000000E+00  0.52415052549E+03  0.52415052550E+03  0.25500000920E-02 0.  1.
       -2   -1    0    0    0  501  0.00000000000E+00  0.00000000000E+00 -0.14184998242E+04  0.14184998242E+04  0.25500000920E-02 0. -1.
    10030    2    1    2    0    0  0.00000000000E+00  0.00000000000E+00 -0.89434929867E+03  0.19426503497E+04  0.17245375360E+04 0.  0.
        4    1    3    3  502    0 -0.60546304280E+03 -0.49490951509E+03 -0.37928974597E+02  0.78291835100E+03  0.12699999809E+01 0.  1.
       -4    1    3    3    0  502  0.60546304280E+03  0.49490951509E+03 -0.85642032408E+03  0.11597319987E+04  0.12699999809E+01 0. -1.
</event>
<event>
 5   0  0.2356829E-04  0.1703537E+04  0.7818609E-02  0.8759350E-01
        2   -1    0    0  501    0  0.00000000000E+00  0.00000000000E+00  0.98222551949E+03  0.98222551950E+03  0.25500000920E-02 0. -1.
       -2   -1    0    0    0  501  0.00000000000E+00  0.00000000000E+00 -0.73863870465E+03  0.73863870465E+03  0.25500000920E-02 0.  1.
    10030    2    1    2    0    0  0.00000000000E+00  0.00000000000E+00  0.24358681485E+03  0.17208642241E+04  0.17035372440E+04 0.  0.
        5    1    3    3  502    0  0.84496026397E+03  0.10539618827E+03  0.10105433953E+03  0.85749651528E+03  0.46999998093E+01 0.  1.
       -5    1    3    3    0  502 -0.84496026397E+03 -0.10539618827E+03  0.14253247532E+03  0.86336770886E+03  0.46999998093E+01 0. -1.
</event>
<event>
 5   0  0.2234723E-04  0.1677803E+04  0.7818609E-02  0.8774126E-01
       -2   -1    0    0    0  501  0.00000000000E+00  0.00000000000E+00  0.55633058120E+03  0.55633058120E+03  0.25500000920E-02 0.  1.
        2   -1    0    0  501    0  0.00000000000E+00  0.00000000000E+00 -0.12649953422E+04  0.12649953422E+04  0.25500000920E-02 0. -1.
    10030    2    1    2    0    0  0.00000000000E+00  0.00000000000E+00 -0.70866476096E+03  0.18213259234E+04  0.16778028417E+04 0.  0.
        1    1    3    3  502    0  0.78965088497E+03  0.28305887990E+03 -0.34433924191E+03  0.90677470365E+03  0.50400001928E-02 0. -1.
       -1    1    3    3    0  502 -0.78965088497E+03 -0.28305887990E+03 -0.36432551905E+03  0.91455121972E+03  0.50400001928E-02 0.  1.
</event>
<event>
 5   0  0.2234723E-04  0.1693511E+04  0.7818609E-02  0.8765074E-01
       -2   -1    0    0    0  501  0.00000000000E+00  0.00000000000E+00  0.71109004379E+03  0.71109004380E+03  0.25500000920E-02 0.  1.
        2   -1    0    0  501    0  0.00000000000E+00  0.00000000000E+00 -0.10083042858E+04  0.10083042858E+04  0.25500000920E-02 0. -1.
    10030    2    1    2    0    0  0.00000000000E+00  0.00000000000E+00 -0.29721424196E+03  0.17193943296E+04  0.16935113093E+04 0.  0.
        1    1    3    3  502    0  0.54221937798E+03 -0.35219290133E+03 -0.70373005536E+03  0.95565563067E+03  0.50400001928E-02 0. -1.
       -1    1    3    3    0  502 -0.54221937798E+03  0.35219290133E+03  0.40651581340E+03  0.76373869888E+03  0.50400001928E-02 0.  1.
</event>
<event>
 5   0  0.8372750E-05  0.1699684E+04  0.7818609E-02  0.8761544E-01
        3   -1    0    0  501    0  0.00000000000E+00  0.00000000000E+00  0.77670674460E+03  0.77670675116E+03  0.10100000352E+00 0.  1.
       -3   -1    0    0    0  501  0.00000000000E+00  0.00000000000E+00 -0.92986400844E+03  0.92986401393E+03  0.10100000352E+00 0. -1.
    10030    2    1    2    0    0  0.00000000000E+00  0.00000000000E+00 -0.15315726385E+03  0.17065707651E+04  0.16996842733E+04 0.  0.
        2    1    3    3  502    0  0.23564536645E+02 -0.43587431735E+03  0.65554642520E+03  0.78758036003E+03  0.25500000920E-02 0.  1.
       -2    1    3    3    0  502 -0.23564536645E+02  0.43587431735E+03 -0.80870368904E+03  0.91899040506E+03  0.25500000920E-02 0. -1.
</event>
<event>
 5   0  0.8372750E-05  0.1698265E+04  0.7818609E-02  0.8762355E-01
       -3   -1    0    0    0  501  0.00000000000E+00  0.00000000000E+00  0.64217481597E+03  0.64217482392E+03  0.10100000352E+00 0. -1.
        3   -1    0    0  501    0  0.00000000000E+00  0.00000000000E+00 -0.11227873804E+04  0.11227873849E+04  0.10100000352E+00 0.  1.
    10030    2    1    2    0    0  0.00000000000E+00  0.00000000000E+00 -0.48061256438E+03  0.17649622088E+04  0.16982647501E+04 0.  0.
        2    1    3    3  502    0 -0.42820003693E+03 -0.32300735460E+03 -0.92444281952E+03  0.10687766602E+04  0.25500000920E-02 0.  1.
       -2    1    3    3    0  502  0.42820003693E+03  0.32300735460E+03  0.44383025514E+03  0.69618554864E+03  0.25500000920E-02 0. -1.
</event>
<event>
 5   0  0.2242967E-04  0.1701297E+04  0.7818609E-02  0.8760625E-01
        2   -1    0    0  501    0  0.00000000000E+00  0.00000000000E+00  0.16679295111E+04  0.16679295111E+04  0.25500000920E-02 0. -1.
       -2   -1    0    0    0  501  0.00000000000E+00  0.00000000000E+00 -0.43383318164E+03  0.43383318165E+03  0.25500000920E-02 0.  1.
    10030    2    1    2    0    0  0.00000000000E+00  0.00000000000E+00  0.12340963295E+04  0.21017626928E+04  0.17012973480E+04 0.  0.
        4    1    3    3  502    0 -0.50179601787E+03  0.48993814302E+03  0.22310509166E+02  0.70166801214E+03  0.12699999809E+01 0.  1.
       -4    1    3    3    0  502  0.50179601787E+03 -0.48993814302E+03  0.12117858203E+04  0.14000946806E+04  0.12699999809E+01 0. -1.
</event>
<event>
 5   0  0.1126958E-04  0.1686526E+04  0.7818609E-02  0.8769086E-01
        1   -1    0    0  501    0  0.00000000000E+00  0.00000000000E+00  0.11485664597E+04  0.11485664597E+04  0.50400001928E-02 0.  1.
       -1   -1    0    0    0  501  0.00000000000E+00  0.00000000000E+00 -0.61911326109E+03  0.61911326111E+03  0.50400001928E-02 0. -1.
    10030    2    1    2    0    0  0.00000000000E+00  0.00000000000E+00  0.52945319857E+03  0.17676797208E+04  0.16865262838E+04 0.  0.
        4    1    3    3  502    0 -0.32857405822E+03 -0.57364034906E+03  0.81343145125E+03  0.10481872450E+04  0.12699999809E+01 0.  1.
       -4    1    3    3    0  502  0.32857405822E+03  0.57364034906E+03 -0.28397825268E+03  0.71949247578E+03  0.12699999809E+01 0. -1.
</event>
<event>
 5   0  0.2242967E-04  0.1717392E+04  0.7818609E-02  0.8751507E-01
        2   -1    0    0  501    0  0.00000000000E+00  0.00000000000E+00  0.41297689779E+03  0.41297689780E+03  0.25500000920E-02 0. -1.
       -2   -1    0    0    0  501  0.00000000000E+00  0.00000000000E+00 -0.17854730280E+04  0.17854730280E+04  0.25500000920E-02 0.  1.
    10030    2    1    2    0    0  0.00000000000E+00  0.00000000000E+00 -0.13724961302E+04  0.21984499258E+04  0.17173923398E+04 0.  0.
        4    1    3    3  502    0 -0.51549728108E+03  0.68667559978E+03 -0.67366170841E+03  0.10913672784E+04  0.12699999809E+01 0.  1.
       -4    1    3    3    0  502  0.51549728108E+03 -0.68667559978E+03 -0.69883442180E+03  0.11070826474E+04  0.12699999809E+01 0. -1.
</event>
<event>
 5   0  0.1186302E-04  0.1718831E+04  0.7818609E-02  0.8750697E-01
        1   -1    0    0  501    0  0.00000000000E+00  0.00000000000E+00  0.13794567467E+04  0.13794567467E+04  0.50400001928E-02 0.  1.
       -1   -1    0    0    0  501  0.00000000000E+00  0.00000000000E+00 -0.53542452059E+03  0.53542452061E+03  0.50400001928E-02 0. -1.
    10030    2    1    2    0    0  0.00000000000E+00  0.00000000000E+00  0.84403222612E+03  0.19148812673E+04  0.17188309601E+04 0.  0.
        3    1    3    3  502    0  0.11664787301E+03  0.12257666520E+03 -0.51668341507E+03  0.54368513566E+03  0.10100000352E+00 0. -1.
       -3    1    3    3    0  502 -0.11664787301E+03 -0.12257666520E+03  0.13607156412E+04  0.13711961317E+04  0.10100000352E+00 0.  1.
</event>
<event>
 5   0  0.1126958E-04  0.1684614E+04  0.7818609E-02  0.8770188E-01
        1   -1    0    0  501    0  0.00000000000E+00  0.00000000000E+00  0.80559445647E+03  0.80559445648E+03  0.50400001928E-02 0.  1.
       -1   -1    0    0    0  501  0.00000000000E+00  0.00000000000E+00 -0.88069276181E+03  0.88069276183E+03  0.50400001928E-02 0. -1.
    10030    2    1    2    0    0  0.00000000000E+00  0.00000000000E+00 -0.75098305345E+02  0.16862872183E+04  0.16846141479E+04 0.  0.
        4    1    3    3  502    0 -0.16173662665E+03  0.27835971559E+03 -0.81667731565E+03  0.87784185276E+03  0.12699999809E+01 0. -1.
       -4    1    3    3    0  502  0.16173662665E+03 -0.27835971559E+03  0.74157901030E+03  0.80844536555E+03  0.12699999809E+01 0.  1.
</event>
<event>
 5   0  0.1215233E-04  0.1690252E+04  0.7818609E-02  0.8766943E-01
       -1   -1    0    0    0  501  0.00000000000E+00  0.00000000000E+00  0.14563312000E+04  0.14563312000E+04  0.50400001928E-02 0. -1.
        1   -1    0    0  501    0  0.00000000000E+00  0.00000000000E+00 -0.49043662138E+03  0.49043662140E+03  0.50400001928E-02 0.  1.
    10030    2    1    2    0    0  0.00000000000E+00  0.00000000000E+00  0.96589457860E+03  0.19467678214E+04  0.16902522337E+04 0.  0.
        2    1    3    3  502    0  0.13742942564E+03 -0.10647970199E+03 -0.46961840959E+03  0.50076563840E+03  0.25500000920E-02 0.  1.
       -2    1    3    3    0  502 -0.13742942564E+03  0.10647970199E+03  0.14355129882E+04  0.14460021830E+04  0.25500000920E-02 0. -1.
</event>
<event>
 5   0  0.2234723E-04  0.1693877E+04  0.7818609E-02  0.8764864E-01
        2   -1    0    0  501    0  0.00000000000E+00  0.00000000000E+00  0.85035251857E+03  0.85035251857E+03  0.25500000920E-02 0. -1.
       -2   -1    0    0    0  501  0.00000000000E+00  0.00000000000E+00 -0.84353857638E+03  0.84353857639E+03  0.25500000920E-02 0.  1.
    10030    2    1    2    0    0  0.00000000000E+00  0.00000000000E+00  0.68139421862E+01  0.16938910950E+04  0.16938773898E+04 0.  0.
        1    1    3    3  502    0  0.22217094310E+03 -0.98553276400E+02  0.81472881118E+03  0.85020921663E+03  0.50400001928E-02 0. -1.
       -1    1    3    3    0  502 -0.22217094310E+03  0.98553276400E+02 -0.80791486900E+03  0.84368187833E+03  0.50400001928E-02 0.  1.
</event>
<event>
 5   0  0.1204741E-04  0.1693499E+04  0.7818609E-02  0.8765081E-01
        1   -1    0    0  501    0  0.00000000000E+00  0.00000000000E+00  0.98149367984E+03  0.98149367985E+03  0.50400001928E-02 0. -1.
       -1   -1    0    0    0  501  0.00000000000E+00  0.00000000000E+00 -0.73050377717E+03  0.73050377719E+03  0.50400001928E-02 0.  1.
    10030    2    1    2    0    0  0.00000000000E+00  0.00000000000E+00  0.25098990267E+03  0.17119974570E+04  0.16934991472E+04 0.  0.
        1    1    3    3  502    0 -0.59102419848E+02  0.71714166784E+03  0.57668793150E+03  0.92214653832E+03  0.50400001928E-02 0. -1.
       -1    1    3    3    0  502  0.59102419848E+02 -0.71714166784E+03 -0.32569802883E+03  0.78985091871E+03  0.50400001928E-02 0.  1.
</event>
<event>
 5   0  0.2234723E-04  0.1701289E+04  0.7818609E-02  0.8760629E-01
        2   -1    0    0  501    0  0.00000000000E+00  0.00000000000E+00  0.11863886845E+04  0.11863886845E+04  0.25500000920E-02 0.  1.
       -2   -1    0    0    0  501  0.00000000000E+00  0.00000000000E+00 -0.60991518381E+03  0.60991518381E+03  0.25500000920E-02 0. -1.
    10030    2    1    2    0    0  0.00000000000E+00  0.00000000000E+00  0.57647350065E+03  0.17963038683E+04  0.17012894787E+04 0.  0.
        1    1    3    3  502    0 -0.71477265697E+03 -0.28034401536E+02  0.77428336551E+03  0.10541350051E+04  0.50400001928E-02 0.  1.
       -1    1    3    3    0  502  0.71477265697E+03  0.28034401536E+02 -0.19780986486E+03  0.74216886318E+03  0.50400001928E-02 0. -1.
</event>
<event>
 5   0  0.2224454E-04  0.1700371E+04  0.7818609E-02  0.8761153E-01
       -2   -1    0    0    0  501  0.00000000000E+00  0.00000000000E+00  0.71569225480E+03  0.71569225481E+03  0.25500000920E-02 0.  1.
        2   -1    0    0  501    0  0.00000000000E+00  0.00000000000E+00 -0.10099526267E+04  0.10099526267E+04  0.25500000920E-02 0. -1.
    10030    2    1    2    0    0  0.00000000000E+00  0.00000000000E+00 -0.29426037186E+03  0.17256448815E+04  0.17003708685E+04 0.  0.
        2    1    3    3  502    0  0.74243949507E+03 -0.18525219063E+03  0.22889089144E+03  0.79870258430E+03  0.25500000920E-02 0.  1.
       -2    1    3    3    0  502 -0.74243949507E+03  0.18525219063E+03 -0.52315126330E+03  0.92694229717E+03  0.25500000920E-02 0. -1.
</event>
<event>
 5   0  0.2242967E-04  0.1688703E+04  0.7818609E-02  0.8767834E-01
        2   -1    0    0  501    0  0.00000000000E+00  0.00000000000E+00  0.13380381598E+04  0.13380381598E+04  0.25500000920E-02 0.  1.
       -2   -1    0    0    0  501  0.00000000000E+00  0.00000000000E+00 -0.53281708235E+03  0.53281708235E+03  0.25500000920E-02 0. -1.
    10030    2    1    2    0    0  0.00000000000E+00  0.00000000000E+00  0.80522107744E+03  0.18708552421E+04  0.16887031573E+04 0.  0.
        4    1    3    3  502    0 -0.37336711378E+02  0.93720818193E+02 -0.52611503848E+03  0.53570165988E+03  0.12699999809E+01 0. -1.
       -4    1    3    3    0  502  0.37336711378E+02 -0.93720818193E+02  0.13313361159E+04  0.13351535823E+04  0.12699999809E+01 0.  1.
</event>
<event>
 5   0  0.1126958E-04  0.1699021E+04  0.7818609E-02  0.8761923E-01
        1   -1    0    0  501    0  0.00000000000E+00  0.00000000000E+00  0.97092007063E+03  0.97092007064E+03  0.50400001928E-02 0. -1.
       -1   -1    0    0    0  501  0.00000000000E+00  0.00000000000E+00 -0.74328237132E+03  0.74328237134E+03  0.50400001928E-02 0.  1.
    10030    2    1    2    0    0  0.00000000000E+00  0.00000000000E+00  0.22763769931E+03  0.17142024420E+04  0.16990206267E+04 0.  0.
        4    1    3    3  502    0 -0.36468586923E+03  0.74768669588E+03 -0.59867539240E+02  0.83403651813E+03  0.12699999809E+01 0. -1.
       -4    1    3    3    0  502  0.36468586923E+03 -0.74768669588E+03  0.28750523855E+03  0.88016592385E+03  0.12699999809E+01 0.  1.
</event>
<event>
 5   0  0.1204741E-04  0.1705369E+04  0.7818609E-02  0.8758308E-01
       -1   -1    0    0    0  501  0.00000000000E+00  0.00000000000E+00  0.38560598054E+03  0.38560598057E+03  0.50400001928E-02 0. -1.
        1   -1    0    0  501    0  0.00000000000E+00  0.00000000000E+00 -0.18855287586E+04  0.18855287586E+04  0.50400001928E-02 0.  1.
    10030    2    1    2    0    0  0.00000000000E+00  0.00000000000E+00 -0.14999227781E+04  0.22711347392E+04  0.17053693627E+04 0.  0.
        1    1    3    3  502    0 -0.76569952936E+03  0.41339999081E+02 -0.12465943633E+04  0.14635580861E+04  0.50400001928E-02 0.  1.
       -1    1    3    3    0  502  0.76569952936E+03 -0.41339999081E+02 -0.25332841473E+03  0.80757665303E+03  0.50400001928E-02 0. -1.
</event>
<event>
 5   0  0.2242967E-04  0.1579923E+04  0.7818609E-02  0.8832978E-01
        2   -1    0    0  501    0  0.00000000000E+00  0.00000000000E+00  0.21044941482E+04  0.21044941482E+04  0.25500000920E-02 0. -1.
       -2   -1    0    0    0  501  0.00000000000E+00  0.00000000000E+00 -0.29652705656E+03  0.29652705657E+03  0.25500000920E-02 0.  1.
    10030    2    1    2    0    0  0.00000000000E+00  0.00000000000E+00  0.18079670917E+04  0.24010212048E+04  0.15799233593E+04 0.  0.
        4    1    3    3  502    0 -0.24745761496E+03 -0.32042332082E+03 -0.12687943114E+03  0.42427158598E+03  0.12699999809E+01 0.  1.
       -4    1    3    3    0  502  0.24745761496E+03  0.32042332082E+03  0.19348465228E+04  0.19767496188E+04  0.12699999809E+01 0. -1.
</event>
<event>
 5   0  0.2288806E-04  0.1696452E+04  0.7818609E-02  0.8763391E-01
        2   -1    0    0  501    0  0.00000000000E+00  0.00000000000E+00  0.79236952895E+03  0.79236952895E+03  0.25500000920E-02 0. -1.
       -2   -1    0    0    0  501  0.00000000000E+00  0.00000000000E+00 -0.90801975441E+03  0.90801975442E+03  0.25500000920E-02 0.  1.
    10030    2    1    2    0    0  0.00000000000E+00  0.00000000000E+00 -0.11565022547E+03  0.17003892834E+04  0.16964518090E+04 0.  0.
        3    1    3    3  502    0 -0.80201054401E+03 -0.19036999623E+03  0.14270304311E+03  0.83655592574E+03  0.10100000352E+00 0. -1.
       -3    1    3    3    0  502  0.80201054401E+03  0.19036999623E+03 -0.25835326858E+03  0.86383335763E+03  0.10100000352E+00 0.  1.
</event>
<event>
 5   0  0.1215233E-04  0.1716349E+04  0.7818609E-02  0.8752094E-01
        1   -1    0    0  501    0  0.00000000000E+00  0.00000000000E+00  0.81774529008E+03  0.81774529010E+03  0.50400001928E-02 0. -1.
       -1   -1    0    0    0  501  0.00000000000E+00  0.00000000000E+00 -0.90060252021E+03  0.90060252022E+03  0.50400001928E-02 0.  1.
    10030    2    1    2    0    0  0.00000000000E+00  0.00000000000E+00 -0.82857230129E+02  0.17183478103E+04  0.17163489962E+04 0.  0.
        2    1    3    3  502    0 -0.37369583662E+03  0.76213171636E+03 -0.16794879611E+03  0.86527459775E+03  0.25500000920E-02 0. -1.
       -2    1    3    3    0  502  0.37369583662E+03 -0.76213171636E+03  0.85091565980E+02  0.85307321257E+03  0.25500000920E-02 0.  1.
</event>
<event>
 5   0  0.1186302E-04  0.1707738E+04  0.7818609E-02  0.8756963E-01
        1   -1    0    0  501    0  0.00000000000E+00  0.00000000000E+00  0.10347839660E+04  0.10347839660E+04  0.50400001928E-02 0. -1.
       -1   -1    0    0    0  501  0.00000000000E+00  0.00000000000E+00 -0.70458408094E+03  0.70458408095E+03  0.50400001928E-02 0.  1.
    10030    2    1    2    0    0  0.00000000000E+00  0.00000000000E+00  0.33019988509E+03  0.17393680470E+04  0.17077380475E+04 0.  0.
        3    1    3    3  502    0  0.45644769996E+03  0.40812395537E+03 -0.44105529878E+03  0.75461212058E+03  0.10100000352E+00 0.  1.
       -3    1    3    3    0  502 -0.45644769996E+03 -0.40812395537E+03  0.77125518388E+03  0.98475592641E+03  0.10100000352E+00 0. -1.
</event>
<event>
 5   0  0.2224454E-04  0.1737136E+04  0.7818609E-02  0.8740463E-01
       -2   -1    0    0    0  501  0.00000000000E+00  0.00000000000E+00  0.16101569431E+04  0.16101569431E+04  0.25500000920E-02 0. -1.
        2   -1    0    0  501    0  0.00000000000E+00  0.00000000000E+00 -0.46853237185E+03  0.46853237185E+03  0.25500000920E-02 0.  1.
    10030    2    1    2    0    0  0.00000000000E+00  0.00000000000E+00  0.11416245712E+04  0.20786893149E+04  0.17371363235E+04 0.  0.
        2    1    3    3  502    0  0.75766037822E+03 -0.12087452051E+03  0.83639031529E+02  0.77178713778E+03  0.25500000920E-02 0.  1.
       -2    1    3    3    0  502 -0.75766037822E+03  0.12087452051E+03  0.10579855397E+04  0.13069021772E+04  0.25500000920E-02 0. -1.
</event>
<event>
 5   0  0.2242967E-04  0.1523196E+04  0.7818609E-02  0.8869173E-01
       -2   -1    0    0    0  501  0.00000000000E+00  0.00000000000E+00  0.38488612481E+03  0.38488612482E+03  0.25500000920E-02 0.  1.
        2   -1    0    0  501    0  0.00000000000E+00  0.00000000000E+00 -0.15070201988E+04  0.15070201988E+04  0.25500000920E-02 0. -1.
    10030    2    1    2    0    0  0.00000000000E+00  0.00000000000E+00 -0.11221340740E+04  0.18919063236E+04  0.15231955414E+04 0.  0.
        4    1    3    3  502    0  0.19328930753E+03  0.10391964361E+03  0.34476257391E+03  0.40868434519E+03  0.12699999809E+01 0.  1.
       -4    1    3    3    0  502 -0.19328930753E+03 -0.10391964361E+03 -0.14668966479E+04  0.14832219784E+04  0.12699999809E+01 0. -1.
</event>
<event>
 5   0  0.1204741E-04  0.1688905E+04  0.7818609E-02  0.8767717E-01
       -1   -1    0    0    0  501  0.00000000000E+00  0.00000000000E+00  0.51941657917E+03  0.51941657920E+03  0.50400001928E-02 0.  1.
        1   -1    0    0  501    0  0.00000000000E+00  0.00000000000E+00 -0.13728871901E+04  0.13728871901E+04  0.50400001928E-02 0. -1.
    10030    2    1    2    0    0  0.00000000000E+00  0.00000000000E+00 -0.85347061097E+03  0.18923037693E+04  0.16889054064E+04 0.  0.
        1    1    3    3  502    0  0.71069511429E+03 -0.62005000620E+02  0.79531649370E+02  0.71781435543E+03  0.50400001928E-02 0.  1.
       -1    1    3    3    0  502 -0.71069511429E+03  0.62005000620E+02 -0.93300226034E+03  0.11744894139E+04  0.50400001928E-02 0. -1.
</event>
<event>
 5   0  0.1204741E-04  0.1699728E+04  0.7818609E-02  0.8761520E-01
       -1   -1    0    0    0  501  0.00000000000E+00  0.00000000000E+00  0.70842233424E+03  0.70842233426E+03  0.50400001928E-02 0. -1.
        1   -1    0    0  501    0  0.00000000000E+00  0.00000000000E+00 -0.10195449438E+04  0.10195449438E+04  0.50400001928E-02 0.  1.
    10030    2    1    2    0    0  0.00000000000E+00  0.00000000000E+00 -0.31112260955E+03  0.17279672781E+04  0.16997275181E+04 0.  0.
        1    1    3    3  502    0 -0.13847523629E+03 -0.82936268033E+03 -0.30016386688E+02  0.84137912387E+03  0.50400001928E-02 0. -1.
       -1    1    3    3    0  502  0.13847523629E+03  0.82936268033E+03 -0.28110622286E+03  0.88658815419E+03  0.50400001928E-02 0.  1.
</event>
<event>
 5   0  0.2288806E-04  0.1693294E+04  0.7818609E-02  0.8765198E-01
       -2   -1    0    0    0  501  0.00000000000E+00  0.00000000000E+00  0.11646020255E+04  0.11646020255E+04  0.25500000920E-02 0.  1.
        2   -1    0    0  501    0  0.00000000000E+00  0.00000000000E+00 -0.61549865503E+03  0.61549865504E+03  0.25500000920E-02 0. -1.
    10030    2    1    2    0    0  0.00000000000E+00  0.00000000000E+00  0.54910337042E+03  0.17801006805E+04  0.16932938083E+04 0.  0.
        3    1    3    3  502    0  0.40641815529E+02 -0.50477183370E+03 -0.43873351084E+03  0.67002497342E+03  0.10100000352E+00 0. -1.
       -3    1    3    3    0  502 -0.40641815529E+02  0.50477183370E+03  0.98783688127E+03  0.11100757071E+04  0.10100000352E+00 0.  1.
</event>
<event>
 5   0  0.1126958E-04  0.1682376E+04  0.7818609E-02  0.8771480E-01
        1   -1    0    0  501    0  0.00000000000E+00  0.00000000000E+00  0.10382995479E+04  0.10382995479E+04  0.50400001928E-02 0. -1.
       -1   -1    0    0    0  501  0.00000000000E+00  0.00000000000E+00 -0.68149659547E+03  0.68149659549E+03  0.50400001928E-02 0.  1.
    10030    2    1    2    0    0  0.00000000000E+00  0.00000000000E+00  0.35680295242E+03  0.17197961434E+04  0.16823764228E+04 0.  0.
        4    1    3    3  502    0  0.30061338077E+02  0.51418681755E+02  0.10361402926E+04  0.10378515712E+04  0.12699999809E+01 0. -1.
       -4    1    3    3    0  502 -0.30061338077E+02 -0.51418681755E+02 -0.67933734020E+03  0.68194457222E+03  0.12699999809E+01 0.  1.
</event>
<event>
 5   0  0.1204741E-04  0.1701120E+04  0.7818609E-02  0.8760726E-01
       -1   -1    0    0    0  501  0.00000000000E+00  0.00000000000E+00  0.71683949361E+03  0.71683949363E+03  0.50400001928E-02 0. -1.
        1   -1    0    0  501    0  0.00000000000E+00  0.00000000000E+00 -0.10092253000E+04  0.10092253000E+04  0.50400001928E-02 0.  1.
    10030    2    1    2    0    0  0.00000000000E+00  0.00000000000E+00 -0.29238580636E+03  0.17260647936E+04  0.17011202815E+04 0.  0.
        1    1    3    3  502    0  0.26638757298E+03  0.49470443600E+03  0.50172976736E+03  0.75327788864E+03  0.50400001928E-02 0. -1.
       -1    1    3    3    0  502 -0.26638757298E+03 -0.49470443600E+03 -0.79411557372E+03  0.97278690497E+03  0.50400001928E-02 0.  1.
</event>
<event>
 5   0  0.1204741E-04  0.1710267E+04  0.7818609E-02  0.8755530E-01
       -1   -1    0    0    0  501  0.00000000000E+00  0.00000000000E+00  0.11926387874E+04  0.11926387874E+04  0.50400001928E-02 0.  1.
        1   -1    0    0  501    0  0.00000000000E+00  0.00000000000E+00 -0.61313916674E+03  0.61313916676E+03  0.50400001928E-02 0. -1.
    10030    2    1    2    0    0  0.00000000000E+00  0.00000000000E+00  0.57949962067E+03  0.18057779542E+04  0.17102672918E+04 0.  0.
        1    1    3    3  502    0 -0.43360515808E+03 -0.47162989513E+03 -0.30827770351E+03  0.71097351117E+03  0.50400001928E-02 0. -1.
       -1    1    3    3    0  502  0.43360515808E+03  0.47162989513E+03  0.88777732418E+03  0.10948044430E+04  0.50400001928E-02 0.  1.
</event>
<event>
 5   0  0.1186302E-04  0.1697432E+04  0.7818609E-02  0.8762830E-01
        1   -1    0    0  501    0  0.00000000000E+00  0.00000000000E+00  0.14442383043E+04  0.14442383044E+04  0.50400001928E-02 0. -1.
       -1   -1    0    0    0  501  0.00000000000E+00  0.00000000000E+00 -0.49875329796E+03  0.49875329799E+03  0.50400001928E-02 0.  1.
    10030    2    1    2    0    0  0.00000000000E+00  0.00000000000E+00  0.94548500639E+03  0.19429916023E+04  0.16974317275E+04 0.  0.
        3    1    3    3  502    0 -0.13792826031E+03 -0.82811146114E+03  0.61537081540E+03  0.10409005945E+04  0.10100000352E+00 0. -1.
       -3    1    3    3    0  502  0.13792826031E+03  0.82811146114E+03  0.33011419098E+03  0.90209100780E+03  0.10100000352E+00 0.  1.
</event>
<event>
 5   0  0.2356829E-04  0.1698205E+04  0.7818609E-02  0.8762389E-01
       -2   -1    0    0    0  501  0.00000000000E+00  0.00000000000E+00  0.87837244948E+03  0.87837244949E+03  0.25500000920E-02 0. -1.
        2   -1    0    0  501    0  0.00000000000E+00  0.00000000000E+00 -0.82080834392E+03  0.82080834393E+03  0.25500000920E-02 0.  1.
    10030    2    1    2    0    0  0.00000000000E+00  0.00000000000E+00  0.57564105560E+02  0.16991807934E+04  0.16982054477E+04 0.  0.
        5    1    3    3  502    0  0.30161062340E+03  0.27871562779E+03  0.77237910475E+03  0.87478165320E+03  0.46999998093E+01 0. -1.
       -5    1    3    3    0  502 -0.30161062340E+03 -0.27871562779E+03 -0.71481499919E+03  0.82439914021E+03  0.46999998093E+01 0.  1.
</event>
<event>
 5   0  0.1126958E-04  0.1699200E+04  0.7818609E-02  0.8761821E-01
       -1   -1    0    0    0  501  0.00000000000E+00  0.00000000000E+00  0.72062739999E+03  0.72062740001E+03  0.50400001928E-02 0.  1.
        1   -1    0    0  501    0  0.00000000000E+00  0.00000000000E+00 -0.10016548008E+04  0.10016548008E+04  0.50400001928E-02 0. -1.
    10030    2    1    2    0    0  0.00000000000E+00  0.00000000000E+00 -0.28102740083E+03  0.17222822008E+04  0.16991996879E+04 0.  0.
        4    1    3    3  502    0  0.26003155535E+03 -0.39141507027E+03 -0.85793963597E+03  0.97820457925E+03  0.12699999809E+01 0.  1.
       -4    1    3    3    0  502 -0.26003155535E+03  0.39141507027E+03  0.57691223513E+03  0.74407762160E+03  0.12699999809E+01 0. -1.
</event>
<event>
 5   0  0.1204741E-04  0.1722261E+04  0.7818609E-02  0.8748769E-01
       -1   -1    0    0    0  501  0.00000000000E+00  0.00000000000E+00  0.53795482148E+03  0.53795482150E+03  0.50400001928E-02 0. -1.
        1   -1    0    0  501    0  0.00000000000E+00  0.00000000000E+00 -0.13784540651E+04  0.13784540651E+04  0.50400001928E-02 0.  1.
    10030    2    1    2    0    0  0.00000000000E+00  0.00000000000E+00 -0.84049924363E+03  0.19164088866E+04  0.17222613165E+04 0.  0.
        1    1    3    3  502    0 -0.70234415770E+03 -0.16887843250E+03 -0.94185549558E+03  0.11869705200E+04  0.50400001928E-02 0.  1.
       -1    1    3    3    0  502  0.70234415770E+03  0.16887843250E+03  0.10135625195E+03  0.72943836659E+03  0.50400001928E-02 0. -1.
</event>
<event>
 5   0  0.1204741E-04  0.1700511E+04  0.7818609E-02  0.8761073E-01
       -1   -1    0    0    0  501  0.00000000000E+00  0.00000000000E+00  0.40665567746E+03  0.40665567750E+03  0.50400001928E-02 0. -1.
        1   -1    0    0  501    0  0.00000000000E+00  0.00000000000E+00 -0.17777558189E+04  0.17777558189E+04  0.50400001928E-02 0.  1.
    10030    2    1    2    0    0  0.00000000000E+00  0.00000000000E+00 -0.13711001414E+04  0.21844114964E+04  0.17005110960E+04 0.  0.
        1    1    3    3  502    0 -0.63190418501E+03 -0.27290782827E+03 -0.44358255653E+02  0.68974577682E+03  0.50400001928E-02 0. -1.
       -1    1    3    3    0  502  0.63190418501E+03  0.27290782827E+03 -0.13267418857E+04  0.14946657195E+04  0.50400001928E-02 0.  1.
</event>
<event>
 5   0  0.2356829E-04  0.1695992E+04  0.7818609E-02  0.8763654E-01
        2   -1    0    0  501    0  0.00000000000E+00  0.00000000000E+00  0.99344624735E+03  0.99344624736E+03  0.25500000920E-02 0. -1.
       -2   -1    0    0    0  501  0.00000000000E+00  0.00000000000E+00 -0.72384067549E+03  0.72384067550E+03  0.25500000920E-02 0.  1.
    10030    2    1    2    0    0  0.00000000000E+00  0.00000000000E+00  0.26960557186E+03  0.17172869229E+04  0.16959915127E+04 0.  0.
        5    1    3    3  502    0  0.58194958480E+02 -0.39655543864E+02  0.99046709477E+03  0.99297853510E+03  0.46999998093E+01 0. -1.
       -5    1    3    3    0  502 -0.58194958480E+02  0.39655543864E+02 -0.72086152291E+03  0.72430838775E+03  0.46999998093E+01 0.  1.
</event>
<event>
 5   0  0.2242967E-04  0.1704691E+04  0.7818609E-02  0.8758693E-01
        2   -1    0    0  501    0  0.00000000000E+00  0.00000000000E+00  0.99693996489E+03  0.99693996489E+03  0.25500000920E-02 0.  1.
       -2   -1    0    0    0  501  0.00000000000E+00  0.00000000000E+00 -0.72872316309E+03  0.72872316309E+03  0.25500000920E-02 0. -1.
    10030    2    1    2    0    0  0.00000000000E+00  0.00000000000E+00  0.26821680180E+03  0.17256631280E+04  0.17046914614E+04 0.  0.
        4    1    3    3  502    0 -0.32292200498E+03 -0.26201583756E+03  0.88727814110E+03  0.97989541942E+03  0.12699999809E+01 0.  1.
       -4    1    3    3    0  502  0.32292200498E+03  0.26201583756E+03 -0.61906133929E+03  0.74576770857E+03  0.12699999809E+01 0. -1.
</event>
<event>
 5   0  0.1234158E-04  0.1701106E+04  0.7818609E-02  0.8760734E-01
       -1   -1    0    0    0  501  0.00000000000E+00  0.00000000000E+00  0.67486352962E+03  0.67486352964E+03  0.50400001928E-02 0. -1.
        1   -1    0    0  501    0  0.00000000000E+00  0.00000000000E+00 -0.10719802170E+04  0.10719802170E+04  0.50400001928E-02 0.  1.
    10030    2    1    2    0    0  0.00000000000E+00  0.00000000000E+00 -0.39711668734E+03  0.17468437466E+04  0.17011059378E+04 0.  0.
        5    1    3    3  502    0  0.75391016709E+03 -0.23160024469E+03 -0.52555223616E+03  0.94775864877E+03  0.46999998093E+01 0. -1.
       -5    1    3    3    0  502 -0.75391016709E+03  0.23160024469E+03  0.12843554882E+03  0.79908509784E+03  0.46999998093E+01 0.  1.
</event>
<event>
 5   0  0.2242967E-04  0.1748860E+04  0.7818609E-02  0.8733978E-01
       -2   -1    0    0    0  501  0.00000000000E+00  0.00000000000E+00  0.51475557984E+03  0.51475557985E+03  0.25500000920E-02 0.  1.
        2   -1    0    0  501    0  0.00000000000E+00  0.00000000000E+00 -0.14854184792E+04  0.14854184792E+04  0.25500000920E-02 0. -1.
    10030    2    1    2    0    0  0.00000000000E+00  0.00000000000E+00 -0.97066289939E+03  0.20001740591E+04  0.17488595719E+04 0.  0.
        4    1    3    3  502    0  0.32166966837E+03  0.32933514018E+03 -0.13355973584E+04  0.14127119051E+04  0.12699999809E+01 0. -1.
       -4    1    3    3    0  502 -0.32166966837E+03 -0.32933514018E+03  0.36493445901E+03  0.58746215400E+03  0.12699999809E+01 0.  1.
</event>
<event>
 5   0  0.1186302E-04  0.1736434E+04  0.7818609E-02  0.8740853E-01
        1   -1    0    0  501    0  0.00000000000E+00  0.00000000000E+00  0.15721110310E+04  0.15721110310E+04  0.50400001928E-02 0. -1.
       -1   -1    0    0    0  501  0.00000000000E+00  0.00000000000E+00 -0.47948332725E+03  0.47948332728E+03  0.50400001928E-02 0.  1.
    10030    2    1    2    0    0  0.00000000000E+00  0.00000000000E+00  0.10926277037E+04  0.20515943582E+04  0.17364343097E+04 0.  0.
        3    1    3    3  502    0 -0.74103269214E+03  0.25258244088E+03  0.98976732818E+03  0.12619693793E+04  0.10100000352E+00 0. -1.
       -3    1    3    3    0  502  0.74103269214E+03 -0.25258244088E+03  0.10286037553E+03  0.78962497891E+03  0.10100000352E+00 0.  1.
</event>
<event>
 5   0  0.2224454E-04  0.1687312E+04  0.7818609E-02  0.8768634E-01
       -2   -1    0    0    0  501  0.00000000000E+00  0.00000000000E+00  0.56040210722E+03  0.56040210723E+03  0.25500000920E-02 0. -1.
        2   -1    0    0  501    0  0.00000000000E+00  0.00000000000E+00 -0.12700803067E+04  0.12700803067E+04  0.25500000920E-02 0.  1.
    10030    2    1    2    0    0  0.00000000000E+00  0.00000000000E+00 -0.70967819952E+03  0.18304824140E+04  0.16873122773E+04 0.  0.
        2    1    3    3  502    0  0.72421917494E+03 -0.42423494676E+03 -0.44744609407E+03  0.95114494716E+03  0.25500000920E-02 0. -1.
       -2    1    3    3    0  502 -0.72421917494E+03  0.42423494676E+03 -0.26223210545E+03  0.87933746681E+03  0.25500000920E-02 0.  1.
</event>
<event>
 5   0  0.2234723E-04  0.1774096E+04  0.7818609E-02  0.8720198E-01
       -2   -1    0    0    0  501  0.00000000000E+00  0.00000000000E+00  0.38419754015E+03  0.38419754015E+03  0.25500000920E-02 0. -1.
        2   -1    0    0  501    0  0.00000000000E+00  0.00000000000E+00 -0.20480449023E+04  0.20480449023E+04  0.25500000920E-02 0.  1.
    10030    2    1    2    0    0  0.00000000000E+00  0.00000000000E+00 -0.16638473622E+04  0.24322424425E+04  0.17740956159E+04 0.  0.
        1    1    3    3  502    0 -0.65656853125E+03  0.32084886316E+03 -0.15212773122E+04  0.16876939562E+04  0.50400001928E-02 0.  1.
       -1    1    3    3    0  502  0.65656853125E+03 -0.32084886316E+03 -0.14257004997E+03  0.74454848625E+03  0.50400001928E-02 0. -1.
</event>
<event>
 5   0  0.1126958E-04  0.1630483E+04  0.7818609E-02  0.8802037E-01
        1   -1    0    0  501    0  0.00000000000E+00  0.00000000000E+00  0.75484154048E+03  0.75484154049E+03  0.50400001928E-02 0.  1.
       -1   -1    0    0    0  501  0.00000000000E+00  0.00000000000E+00 -0.88047396309E+03  0.88047396310E+03  0.50400001928E-02 0. -1.
    10030    2    1    2    0    0  0.00000000000E+00  0.00000000000E+00 -0.12563242261E+03  0.16353155036E+04  0.16304825331E+04 0.  0.
        4    1    3    3  502    0  0.75060546958E+03 -0.20106985946E+03 -0.31008104722E+03  0.83665376834E+03  0.12699999809E+01 0. -1.
       -4    1    3    3    0  502 -0.75060546958E+03  0.20106985946E+03  0.18444862460E+03  0.79866173525E+03  0.12699999809E+01 0.  1.
</event>
<event>
 5   0  0.2234723E-04  0.1692464E+04  0.7818609E-02  0.8765674E-01
        2   -1    0    0  501    0  0.00000000000E+00  0.00000000000E+00  0.96830898579E+03  0.96830898579E+03  0.25500000920E-02 0.  1.
       -2   -1    0    0    0  501  0.00000000000E+00  0.00000000000E+00 -0.73954525753E+03  0.73954525754E+03  0.25500000920E-02 0. -1.
    10030    2    1    2    0    0  0.00000000000E+00  0.00000000000E+00  0.22876372825E+03  0.17078542433E+04  0.16924636697E+04 0.  0.
        1    1    3    3  502    0  0.76523440788E+03  0.35284633049E+03  0.36061077480E+02  0.84343620581E+03  0.50400001928E-02 0.  1.
       -1    1    3    3    0  502 -0.76523440788E+03 -0.35284633049E+03  0.19270265077E+03  0.86441803751E+03  0.50400001928E-02 0. -1.
</event>
<event>
 5   0  0.1215233E-04  0.1652327E+04  0.7818609E-02  0.8789031E-01
       -1   -1    0    0    0  501  0.00000000000E+00  0.00000000000E+00  0.93268209589E+03  0.93268209590E+03  0.50400001928E-02 0. -1.
        1   -1    0    0  501    0  0.00000000000E+00  0.00000000000E+00 -0.73180994119E+03  0.73180994121E+03  0.50400001928E-02 0.  1.
    10030    2    1    2    0    0  0.00000000000E+00  0.00000000000E+00  0.20087215470E+03  0.16644920371E+04  0.16523268802E+04 0.  0.
        2    1    3    3  502    0 -0.63425684841E+03  0.41281059907E+03  0.43431509245E+03  0.87253878997E+03  0.25500000920E-02 0. -1.
       -2    1    3    3    0  502  0.63425684841E+03 -0.41281059907E+03 -0.23344293775E+03  0.79195324714E+03  0.25500000920E-02 0.  1.
</event>
<event>
 5   0  0.2242967E-04  0.1844255E+04  0.7818609E-02  0.8683113E-01
       -2   -1    0    0    0  501  0.00000000000E+00  0.00000000000E+00  0.84905629473E+03  0.84905629473E+03  0.25500000920E-02 0.  1.
        2   -1    0    0  501    0  0.00000000000E+00  0.00000000000E+00 -0.10014875224E+04  0.10014875224E+04  0.25500000920E-02 0. -1.
    10030    2    1    2    0    0  0.00000000000E+00  0.00000000000E+00 -0.15243122767E+03  0.18505438171E+04  0.18442551721E+04 0.  0.
        4    1    3    3  502    0 -0.61761299650E+03  0.68022530916E+03 -0.15500333676E+03  0.93176173562E+03  0.12699999809E+01 0.  1.
       -4    1    3    3    0  502  0.61761299650E+03 -0.68022530916E+03  0.25721090954E+01  0.91878208151E+03  0.12699999809E+01 0. -1.
</event>
<event>
 5   0  0.2288806E-04  0.1862262E+04  0.7818609E-02  0.8673872E-01
       -2   -1    0    0    0  501  0.00000000000E+00  0.00000000000E+00  0.68410945169E+03  0.68410945169E+03  0.25500000920E-02 0. -1.
        2   -1    0    0  501    0  0.00000000000E+00  0.00000000000E+00 -0.12673483440E+04  0.12673483440E+04  0.25500000920E-02 0.  1.
    10030    2    1    2    0    0  0.00000000000E+00  0.00000000000E+00 -0.58323889228E+03  0.19514577957E+04  0.18622620446E+04 0.  0.
        3    1    3    3  502    0 -0.84011074906E+03 -0.18537232329E+03  0.81608264262E+02  0.86418105044E+03  0.10100000352E+00 0. -1.
       -3    1    3    3    0  502  0.84011074906E+03  0.18537232329E+03 -0.66484715654E+03  0.10872767452E+04  0.10100000352E+00 0.  1.
</event>
<event>
 5   0  0.1215233E-04  0.1877943E+04  0.7818609E-02  0.8665914E-01
        1   -1    0    0  501    0  0.00000000000E+00  0.00000000000E+00  0.77127427521E+03  0.77127427522E+03  0.50400001928E-02 0. -1.
       -1   -1    0    0    0  501  0.00000000000E+00  0.00000000000E+00 -0.11431308391E+04  0.11431308391E+04  0.50400001928E-02 0.  1.
    10030    2    1    2    0    0  0.00000000000E+00  0.00000000000E+00 -0.37185656390E+03  0.19144051143E+04  0.18779429272E+04 0.  0.
        2    1    3    3  502    0  0.25950185609E+03 -0.90219467797E+03 -0.20556254002E+03  0.96101634125E+03  0.25500000920E-02 0. -1.
       -2    1    3    3    0  502 -0.25950185609E+03  0.90219467797E+03 -0.16629402388E+03  0.95338877310E+03  0.25500000920E-02 0.  1.
</event>
<event>
 5   0  0.1126958E-04  0.1682490E+04  0.7818609E-02  0.8771415E-01
        1   -1    0    0  501    0  0.00000000000E+00  0.00000000000E+00  0.11252691415E+04  0.11252691415E+04  0.50400001928E-02 0. -1.
       -1   -1    0    0    0  501  0.00000000000E+00  0.00000000000E+00 -0.62890993051E+03  0.62890993053E+03  0.50400001928E-02 0.  1.
    10030    2    1    2    0    0  0.00000000000E+00  0.00000000000E+00  0.49635921100E+03  0.17541790721E+04  0.16824897475E+04 0.  0.
        4    1    3    3  502    0 -0.58424303304E+03 -0.49897654426E+03  0.60537602963E+03  0.97816116440E+03  0.12699999809E+01 0. -1.
       -4    1    3    3    0  502  0.58424303304E+03  0.49897654426E+03 -0.10901681863E+03  0.77601790767E+03  0.12699999809E+01 0.  1.
</event>
<event>
 5   0  0.1186302E-04  0.1707704E+04  0.7818609E-02  0.8756982E-01
       -1   -1    0    0    0  501  0.00000000000E+00  0.00000000000E+00  0.47846470084E+03  0.47846470086E+03  0.50400001928E-02 0. -1.
        1   -1    0    0  501    0  0.00000000000E+00  0.00000000000E+00 -0.15237561794E+04  0.15237561794E+04  0.50400001928E-02 0.  1.
    10030    2    1    2    0    0  0.00000000000E+00  0.00000000000E+00 -0.10452914786E+04  0.20022208803E+04  0.17077043592E+04 0.  0.
        3    1    3    3  502    0  0.18519358315E+03 -0.44304781173E+03 -0.13504377132E+04  0.14332724982E+04  0.10100000352E+00 0.  1.
       -3    1    3    3    0  502 -0.18519358315E+03  0.44304781173E+03  0.30514623464E+03  0.56894838205E+03  0.10100000352E+00 0. -1.
</event>
<event>
 5   0  0.1186302E-04  0.1691224E+04  0.7818609E-02  0.8766386E-01
        1   -1    0    0  501    0  0.00000000000E+00  0.00000000000E+00  0.10549857805E+04  0.10549857806E+04  0.50400001928E-02 0. -1.
       -1   -1    0    0    0  501  0.00000000000E+00  0.00000000000E+00 -0.67779049946E+03  0.67779049948E+03  0.50400001928E-02 0.  1.
    10030    2    1    2    0    0  0.00000000000E+00  0.00000000000E+00  0.37719528108E+03  0.17327762800E+04  0.16912236270E+04 0.  0.
        3    1    3    3  502    0 -0.10939742361E+03  0.71260066856E+03 -0.26417844785E+03  0.76782665467E+03  0.10100000352E+00 0.  1.
       -3    1    3    3    0  502  0.10939742361E+03 -0.71260066856E+03  0.64137372893E+03  0.96494962536E+03  0.10100000352E+00 0. -1.
</event>
<event>
 5   0  0.2234723E-04  0.1694718E+04  0.7818609E-02  0.8764383E-01
        2   -1    0    0  501    0  0.00000000000E+00  0.00000000000E+00  0.12532634379E+04  0.12532634379E+04  0.25500000920E-02 0. -1.
       -2   -1    0    0    0  501  0.00000000000E+00  0.00000000000E+00 -0.57291818231E+03  0.57291818231E+03  0.25500000920E-02 0.  1.
    10030    2    1    2    0    0  0.00000000000E+00  0.00000000000E+00  0.68034525561E+03  0.18261816202E+04  0.16947181604E+04 0.  0.
        1    1    3    3  502    0  0.10013449233E+03 -0.68294958106E+03  0.86979742530E+03  0.11104029034E+04  0.50400001928E-02 0. -1.
       -1    1    3    3    0  502 -0.10013449233E+03  0.68294958106E+03 -0.18945216969E+03  0.71577871682E+03  0.50400001928E-02 0.  1.
</event>
<event>
 5   0  0.2356829E-04  0.1697949E+04  0.7818609E-02  0.8762535E-01
        2   -1    0    0  501    0  0.00000000000E+00  0.00000000000E+00  0.18118705172E+04  0.18118705172E+04  0.25500000920E-02 0.  1.
       -2   -1    0    0    0  501  0.00000000000E+00  0.00000000000E+00 -0.39779748689E+03  0.39779748689E+03  0.25500000920E-02 0. -1.
    10030    2    1    2    0    0  0.00000000000E+00  0.00000000000E+00  0.14140730304E+04  0.22096680041E+04  0.16979488076E+04 0.  0.
        5    1    3    3  502    0 -0.11518316393E+03 -0.41289563926E+03 -0.24660182990E+03  0.49455487327E+03  0.46999998093E+01 0. -1.
       -5    1    3    3    0  502  0.11518316393E+03  0.41289563926E+03  0.16606748603E+04  0.17151131309E+04  0.46999998093E+01 0.  1.
</event>
<event>
 5   0  0.2224454E-04  0.1689485E+04  0.7818609E-02  0.8767384E-01
        2   -1    0    0  501    0  0.00000000000E+00  0.00000000000E+00  0.87678449979E+03  0.87678449979E+03  0.25500000920E-02 0.  1.
       -2   -1    0    0    0  501  0.00000000000E+00  0.00000000000E+00 -0.81387163249E+03  0.81387163249E+03  0.25500000920E-02 0. -1.
    10030    2    1    2    0    0  0.00000000000E+00  0.00000000000E+00  0.62912867300E+02  0.16906561323E+04  0.16894851668E+04 0.  0.
        2    1    3    3  502    0  0.20054779425E+03 -0.32069128398E+02  0.85198948957E+03  0.87586182536E+03  0.25500000920E-02 0.  1.
       -2    1    3    3    0  502 -0.20054779425E+03  0.32069128398E+02 -0.78907662227E+03  0.81479430693E+03  0.25500000920E-02 0. -1.
</event>
<event>
 5   0  0.1204741E-04  0.1693257E+04  0.7818609E-02  0.8765220E-01
        1   -1    0    0  501    0  0.00000000000E+00  0.00000000000E+00  0.13180390816E+04  0.13180390816E+04  0.50400001928E-02 0. -1.
       -1   -1    0    0    0  501  0.00000000000E+00  0.00000000000E+00 -0.54382285604E+03  0.54382285606E+03  0.50400001928E-02 0.  1.
    10030    2    1    2    0    0  0.00000000000E+00  0.00000000000E+00  0.77421622555E+03  0.18618619377E+04  0.16932569536E+04 0.  0.
        1    1    3    3  502    0  0.33873953688E+03 -0.45850137206E+03  0.10753852746E+04  0.12171365867E+04  0.50400001928E-02 0. -1.
       -1    1    3    3    0  502 -0.33873953688E+03  0.45850137206E+03 -0.30116904900E+03  0.64472535093E+03  0.50400001928E-02 0.  1.
</event>
<event>
 5   0  0.2224454E-04  0.1683576E+04  0.7818609E-02  0.8770787E-01
        2   -1    0    0  501    0  0.00000000000E+00  0.00000000000E+00  0.24663817692E+04  0.24663817692E+04  0.25500000920E-02 0.  1.
       -2   -1    0    0    0  501  0.00000000000E+00  0.00000000000E+00 -0.28730624449E+03  0.28730624450E+03  0.25500000920E-02 0. -1.
    10030    2    1    2    0    0  0.00000000000E+00  0.00000000000E+00  0.21790755247E+04  0.27536880137E+04  0.16835758178E+04 0.  0.
        2    1    3    3  502    0  0.74831164069E+03 -0.10055786582E+03  0.48077841213E+03  0.89511456113E+03  0.25500000920E-02 0. -1.
       -2    1    3    3    0  502 -0.74831164069E+03  0.10055786582E+03  0.16982971126E+04  0.18585734526E+04  0.25500000920E-02 0.  1.
</event>
<event>
 5   0  0.1204741E-04  0.1715946E+04  0.7818609E-02  0.8752322E-01
       -1   -1    0    0    0  501  0.00000000000E+00  0.00000000000E+00  0.38671384287E+03  0.38671384290E+03  0.50400001928E-02 0. -1.
        1   -1    0    0  501    0  0.00000000000E+00  0.00000000000E+00 -0.19035197813E+04  0.19035197813E+04  0.50400001928E-02 0.  1.
    10030    2    1    2    0    0  0.00000000000E+00  0.00000000000E+00 -0.15168059385E+04  0.22902336242E+04  0.17159457447E+04 0.  0.
        1    1    3    3  502    0 -0.74783955751E+03  0.26457434468E+03 -0.32211689989E+03  0.85616755653E+03  0.50400001928E-02 0. -1.
       -1    1    3    3    0  502  0.74783955751E+03 -0.26457434468E+03 -0.11946890386E+04  0.14340660677E+04  0.50400001928E-02 0.  1.
</event>
<event>
 5   0  0.1234158E-04  0.1715078E+04  0.7818609E-02  0.8752811E-01
        1   -1    0    0  501    0  0.00000000000E+00  0.00000000000E+00  0.99461715888E+03  0.99461715889E+03  0.50400001928E-02 0. -1.
       -1   -1    0    0    0  501  0.00000000000E+00  0.00000000000E+00 -0.73935324998E+03  0.73935324999E+03  0.50400001928E-02 0.  1.
    10030    2    1    2    0    0  0.00000000000E+00  0.00000000000E+00  0.25526390890E+03  0.17339704089E+04  0.17150783410E+04 0.  0.
        5    1    3    3  502    0 -0.58487399452E+03 -0.15612006933E+03 -0.48643002447E+03  0.77658697144E+03  0.46999998093E+01 0.  1.
       -5    1    3    3    0  502  0.58487399452E+03  0.15612006933E+03  0.74169393336E+03  0.95738343744E+03  0.46999998093E+01 0. -1.
</event>
<event>
 5   0  0.2242967E-04  0.1688743E+04  0.7818609E-02  0.8767811E-01
        2   -1    0    0  501    0  0.00000000000E+00  0.00000000000E+00  0.14720344844E+04  0.14720344844E+04  0.25500000920E-02 0. -1.
       -2   -1    0    0    0  501  0.00000000000E+00  0.00000000000E+00 -0.48433890749E+03  0.48433890750E+03  0.25500000920E-02 0.  1.
    10030    2    1    2    0    0  0.00000000000E+00  0.00000000000E+00  0.98769557688E+03  0.19563733919E+04  0.16887434073E+04 0.  0.
        4    1    3    3  502    0  0.61681954931E+03 -0.16865460403E+02  0.11615690270E+04  0.13152927497E+04  0.12699999809E+01 0. -1.
       -4    1    3    3    0  502 -0.61681954931E+03  0.16865460403E+02 -0.17387345010E+03  0.64108064213E+03  0.12699999809E+01 0.  1.
</event>
<event>
 5   0  0.1186302E-04  0.1701151E+04  0.7818609E-02  0.8760708E-01
       -1   -1    0    0    0  501  0.00000000000E+00  0.00000000000E+00  0.63804927455E+03  0.63804927457E+03  0.50400001928E-02 0. -1.
        1   -1    0    0  501    0  0.00000000000E+00  0.00000000000E+00 -0.11338920850E+04  0.11338920850E+04  0.50400001928E-02 0.  1.
    10030    2    1    2    0    0  0.00000000000E+00  0.00000000000E+00 -0.49584281042E+03  0.17719413595E+04  0.17011514010E+04 0.  0.
        3    1    3    3  502    0  0.75976875948E+03  0.27291759695E+03  0.31080085991E+02  0.80789762009E+03  0.10100000352E+00 0. -1.
       -3    1    3    3    0  502 -0.75976875948E+03 -0.27291759695E+03 -0.52692289641E+03  0.96404373944E+03  0.10100000352E+00 0.  1.
</event>
<event>
 5   0  0.8372750E-05  0.1702006E+04  0.7818609E-02  0.8760221E-01
        3   -1    0    0  501    0  0.00000000000E+00  0.00000000000E+00  0.12090964461E+04  0.12090964503E+04  0.10100000352E+00 0.  1.
       -3   -1    0    0    0  501  0.00000000000E+00  0.00000000000E+00 -0.59896451283E+03  0.59896452135E+03  0.10100000352E+00 0. -1.
    10030    2    1    2    0    0  0.00000000000E+00  0.00000000000E+00  0.61013193327E+03  0.18080609717E+04  0.17020057289E+04 0.  0.
        1    1    3    3  502    0  0.74099535861E+03  0.44136451375E+02  0.74715077942E+03  0.10532124358E+04  0.50400001928E-02 0.  1.
       -1    1    3    3    0  502 -0.74099535861E+03 -0.44136451375E+02 -0.13701884614E+03  0.75484853583E+03  0.50400001928E-02 0. -1.
</event>
<event>
 5   0  0.1204741E-04  0.1701260E+04  0.7818609E-02  0.8760646E-01
       -1   -1    0    0    0  501  0.00000000000E+00  0.00000000000E+00  0.89475145398E+03  0.89475145400E+03  0.50400001928E-02 0. -1.
        1   -1    0    0  501    0  0.00000000000E+00  0.00000000000E+00 -0.80868382624E+03  0.80868382625E+03  0.50400001928E-02 0.  1.
    10030    2    1    2    0    0  0.00000000000E+00  0.00000000000E+00  0.86067627745E+02  0.17034352803E+04  0.17012595679E+04 0.  0.
        1    1    3    3  502    0  0.58999196469E+03 -0.11039997824E+03  0.64654203000E+03  0.88221044551E+03  0.50400001928E-02 0. -1.
       -1    1    3    3    0  502 -0.58999196469E+03  0.11039997824E+03 -0.56047440225E+03  0.82122483474E+03  0.50400001928E-02 0.  1.
</event>
<event>
 5   0  0.1215233E-04  0.1692572E+04  0.7818609E-02  0.8765612E-01
       -1   -1    0    0    0  501  0.00000000000E+00  0.00000000000E+00  0.40757466087E+03  0.40757466090E+03  0.50400001928E-02 0.  1.
        1   -1    0    0  501    0  0.00000000000E+00  0.00000000000E+00 -0.17572240758E+04  0.17572240758E+04  0.50400001928E-02 0. -1.
    10030    2    1    2    0    0  0.00000000000E+00  0.00000000000E+00 -0.13496494150E+04  0.21647987367E+04  0.16925720154E+04 0.  0.
        2    1    3    3  502    0 -0.73850410943E+03 -0.14455100898E+03 -0.11700415041E+04  0.13911435710E+04  0.25500000920E-02 0.  1.
       -2    1    3    3    0  502  0.73850410943E+03  0.14455100898E+03 -0.17960791090E+03  0.77365516576E+03  0.25500000920E-02 0. -1.
</event>
<event>
 5   0  0.1126958E-04  0.1830129E+04  0.7818609E-02  0.8690440E-01
        1   -1    0    0  501    0  0.00000000000E+00  0.00000000000E+00  0.95649973837E+03  0.95649973838E+03  0.50400001928E-02 0. -1.
       -1   -1    0    0    0  501  0.00000000000E+00  0.00000000000E+00 -0.87542378784E+03  0.87542378785E+03  0.50400001928E-02 0.  1.
    10030    2    1    2    0    0  0.00000000000E+00  0.00000000000E+00  0.81075950526E+02  0.18319235262E+04  0.18301285464E+04 0.  0.
        4    1    3    3  502    0  0.73657088988E+03 -0.31634182717E+03  0.48225548173E+03  0.93551097802E+03  0.12699999809E+01 0.  1.
       -4    1    3    3    0  502 -0.73657088988E+03  0.31634182717E+03 -0.40117953121E+03  0.89641254821E+03  0.12699999809E+01 0. -1.
</event>
<event>
 5   0  0.8372750E-05  0.1662460E+04  0.7818609E-02  0.8783069E-01
       -3   -1    0    0    0  501  0.00000000000E+00  0.00000000000E+00  0.80946639961E+03  0.80946640591E+03  0.10100000352E+00 0.  1.
        3   -1    0    0  501    0  0.00000000000E+00  0.00000000000E+00 -0.85357836042E+03  0.85357836640E+03  0.10100000352E+00 0. -1.
    10030    2    1    2    0    0  0.00000000000E+00  0.00000000000E+00 -0.44111960810E+02  0.16630447723E+04  0.16624596385E+04 0.  0.
        2    1    3    3  502    0 -0.16628986067E+03 -0.38061290934E+03 -0.74232642304E+03  0.85062742894E+03  0.25500000920E-02 0. -1.
       -2    1    3    3    0  502  0.16628986067E+03  0.38061290934E+03  0.69821446223E+03  0.81241734336E+03  0.25500000920E-02 0.  1.
</event>
<event>
 5   0  0.2234723E-04  0.1699241E+04  0.7818609E-02  0.8761797E-01
        2   -1    0    0  501    0  0.00000000000E+00  0.00000000000E+00  0.99332598728E+03  0.99332598729E+03  0.25500000920E-02 0. -1.
       -2   -1    0    0    0  501  0.00000000000E+00  0.00000000000E+00 -0.72670535372E+03  0.72670535373E+03  0.25500000920E-02 0.  1.
    10030    2    1    2    0    0  0.00000000000E+00  0.00000000000E+00  0.26662063356E+03  0.17200313410E+04  0.16992413754E+04 0.  0.
        1    1    3    3  502    0  0.81328605785E+03 -0.24566479949E+03  0.14177367333E+03  0.86132756840E+03  0.50400001928E-02 0. -1.
       -1    1    3    3    0  502 -0.81328605785E+03  0.24566479949E+03  0.12484696023E+03  0.85870377262E+03  0.50400001928E-02 0.  1.
</event>
<event>
 5   0  0.1215233E-04  0.1689837E+04  0.7818609E-02  0.8767182E-01
       -1   -1    0    0    0  501  0.00000000000E+00  0.00000000000E+00  0.41927175831E+03  0.41927175834E+03  0.50400001928E-02 0. -1.
        1   -1    0    0  501    0  0.00000000000E+00  0.00000000000E+00 -0.17026838321E+04  0.17026838321E+04  0.50400001928E-02 0.  1.
    10030    2    1    2    0    0  0.00000000000E+00  0.00000000000E+00 -0.12834120738E+04  0.21219555905E+04  0.16898369675E+04 0.  0.
        2    1    3    3  502    0  0.18339608703E+03 -0.35429158856E+03 -0.15769664264E+04  0.16266467854E+04  0.25500000920E-02 0.  1.
       -2    1    3    3    0  502 -0.18339608703E+03  0.35429158856E+03  0.29355435258E+03  0.49530880508E+03  0.25500000920E-02 0. -1.
</event>
<event>
 5   0  0.2288806E-04  0.1698379E+04  0.7818609E-02  0.8762289E-01
       -2   -1    0    0    0  501  0.00000000000E+00  0.00000000000E+00  0.37410429323E+03  0.37410429324E+03  0.25500000920E-02 0. -1.
        2   -1    0    0  501    0  0.00000000000E+00  0.00000000000E+00 -0.19275984726E+04  0.19275984726E+04  0.25500000920E-02 0.  1.
    10030    2    1    2    0    0  0.00000000000E+00  0.00000000000E+00 -0.15534941794E+04  0.23017027658E+04  0.16983790675E+04 0.  0.
        3    1    3    3  502    0 -0.55796217758E+03  0.58164781718E+03 -0.11390966846E+04  0.13954129288E+04  0.10100000352E+00 0. -1.
       -3    1    3    3    0  502  0.55796217758E+03 -0.58164781718E+03 -0.41439749478E+03  0.90628983704E+03  0.10100000352E+00 0.  1.
</event>
<event>
 5   0  0.1126958E-04  0.1696848E+04  0.7818609E-02  0.8763164E-01
       -1   -1    0    0    0  501  0.00000000000E+00  0.00000000000E+00  0.25749094265E+03  0.25749094270E+03  0.50400001928E-02 0. -1.
        1   -1    0    0  501    0  0.00000000000E+00  0.00000000000E+00 -0.27955281698E+04  0.27955281698E+04  0.50400001928E-02 0.  1.
    10030    2    1    2    0    0  0.00000000000E+00  0.00000000000E+00 -0.25380372271E+04  0.30530191125E+04  0.16968478821E+04 0.  0.
        4    1    3    3  502    0 -0.33885836607E+03 -0.24561100240E+03 -0.25968840397E+04  0.26303912419E+04  0.12699999809E+01 0.  1.
       -4    1    3    3    0  502  0.33885836607E+03  0.24561100240E+03  0.58846812581E+02  0.42262787060E+03  0.12699999809E+01 0. -1.
</event>
<event>
 5   0  0.2234723E-04  0.1712438E+04  0.7818609E-02  0.8754302E-01
       -2   -1    0    0    0  501  0.00000000000E+00  0.00000000000E+00  0.93183979135E+03  0.93183979136E+03  0.25500000920E-02 0.  1.
        2   -1    0    0  501    0  0.00000000000E+00  0.00000000000E+00 -0.78673453856E+03  0.78673453857E+03  0.25500000920E-02 0. -1.
    10030    2    1    2    0    0  0.00000000000E+00  0.00000000000E+00  0.14510525279E+03  0.17185743299E+04  0.17124375005E+04 0.  0.
        1    1    3    3  502    0 -0.24392775734E+03 -0.42534920945E+03  0.77698533924E+03  0.91876488734E+03  0.50400001928E-02 0.  1.
       -1    1    3    3    0  502  0.24392775734E+03  0.42534920945E+03 -0.63188008645E+03  0.79980944259E+03  0.50400001928E-02 0. -1.
</event>
<event>
 5   0  0.1186302E-04  0.1697925E+04  0.7818609E-02  0.8762548E-01
       -1   -1    0    0    0  501  0.00000000000E+00  0.00000000000E+00  0.45483466853E+03  0.45483466856E+03  0.50400001928E-02 0.  1.
        1   -1    0    0  501    0  0.00000000000E+00  0.00000000000E+00 -0.15846146910E+04  0.15846146910E+04  0.50400001928E-02 0. -1.
    10030    2    1    2    0    0  0.00000000000E+00  0.00000000000E+00 -0.11297800225E+04  0.20394493596E+04  0.16979254374E+04 0.  0.
        3    1    3    3  502    0 -0.42560574220E+03 -0.23290139907E+03 -0.14016940874E+04  0.14832833965E+04  0.10100000352E+00 0. -1.
       -3    1    3    3    0  502  0.42560574220E+03  0.23290139907E+03  0.27191406498E+03  0.55616596301E+03  0.10100000352E+00 0.  1.
</event>
<event>
 5   0  0.2242967E-04  0.1704735E+04  0.7818609E-02  0.8758669E-01
       -2   -1    0    0    0  501  0.00000000000E+00  0.00000000000E+00  0.19562145500E+04  0.19562145500E+04  0.25500000920E-02 0.  1.
        2   -1    0    0  501    0  0.00000000000E+00  0.00000000000E+00 -0.37139596462E+03  0.37139596462E+03  0.25500000920E-02 0. -1.
    10030    2    1    2    0    0  0.00000000000E+00  0.00000000000E+00  0.15848185854E+04  0.23276105146E+04  0.17047348061E+04 0.  0.
        4    1    3    3  502    0 -0.97829370527E+02 -0.46167643887E+03  0.17615528324E+04  0.18236736863E+04  0.12699999809E+01 0.  1.
       -4    1    3    3    0  502  0.97829370527E+02  0.46167643887E+03 -0.17673424703E+03  0.50393682830E+03  0.12699999809E+01 0. -1.
</event>
<event>
 5   0  0.2224454E-04  0.1706348E+04  0.7818609E-02  0.8757752E-01
        2   -1    0    0  501    0  0.00000000000E+00  0.00000000000E+00  0.18934669167E+04  0.18934669167E+04  0.25500000920E-02 0.  1.
       -2   -1    0    0    0  501  0.00000000000E+00  0.00000000000E+00 -0.38442998410E+03  0.38442998411E+03  0.25500000920E-02 0. -1.
    10030    2    1    2    0    0  0.00000000000E+00  0.00000000000E+00  0.15090369326E+04  0.22778969008E+04  0.17063475105E+04 0.  0.
        2    1    3    3  502    0 -0.58399797926E+03  0.13616931934E+03 -0.55645976570E+02  0.60223931956E+03  0.25500000920E-02 0. -1.
       -2    1    3    3    0  502  0.58399797926E+03 -0.13616931934E+03  0.15646829091E+04  0.16756575812E+04  0.25500000920E-02 0.  1.
</event>
<event>
 5   0  0.2356829E-04  0.1679545E+04  0.7818609E-02  0.8773118E-01
        2   -1    0    0  501    0  0.00000000000E+00  0.00000000000E+00  0.88292833643E+03  0.88292833643E+03  0.25500000920E-02 0.  1.
       -2   -1    0    0    0  501  0.00000000000E+00  0.00000000000E+00 -0.79872574408E+03  0.79872574408E+03  0.25500000920E-02 0. -1.
    10030    2    1    2    0    0  0.00000000000E+00  0.00000000000E+00  0.84202592350E+02  0.16816540805E+04  0.16795446913E+04 0.  0.
        5    1    3    3  502    0  0.17883924532E+03 -0.43327579950E+03 -0.65554069047E+03  0.80589520470E+03  0.46999998093E+01 0. -1.
       -5    1    3    3    0  502 -0.17883924532E+03  0.43327579950E+03  0.73974328282E+03  0.87575887582E+03  0.46999998093E+01 0.  1.
</event>
<event>
 5   0  0.2224454E-04  0.1693239E+04  0.7818609E-02  0.8765230E-01
        2   -1    0    0  501    0  0.00000000000E+00  0.00000000000E+00  0.12069149240E+04  0.12069149240E+04  0.25500000920E-02 0.  1.
       -2   -1    0    0    0  501  0.00000000000E+00  0.00000000000E+00 -0.59388188778E+03  0.59388188778E+03  0.25500000920E-02 0. -1.
    10030    2    1    2    0    0  0.00000000000E+00  0.00000000000E+00  0.61303303620E+03  0.18007968118E+04  0.16932393965E+04 0.  0.
        2    1    3    3  502    0 -0.17986020854E+03 -0.60457768776E+03 -0.29406825218E+03  0.69594540885E+03  0.25500000920E-02 0. -1.
       -2    1    3    3    0  502  0.17986020854E+03  0.60457768776E+03  0.90710128838E+03  0.11048514029E+04  0.25500000920E-02 0.  1.
</event>
<event>
 5   0  0.2288806E-04  0.1714158E+04  0.7818609E-02  0.8753330E-01
        2   -1    0    0  501    0  0.00000000000E+00  0.00000000000E+00  0.12634816932E+04  0.12634816932E+04  0.25500000920E-02 0. -1.
       -2   -1    0    0    0  501  0.00000000000E+00  0.00000000000E+00 -0.58139721509E+03  0.58139721510E+03  0.25500000920E-02 0.  1.
    10030    2    1    2    0    0  0.00000000000E+00  0.00000000000E+00  0.68208447815E+03  0.18448789083E+04  0.17141583798E+04 0.  0.
        3    1    3    3  502    0 -0.82397248087E+03 -0.12499977857E+03  0.55637247456E+03  0.10020508642E+04  0.10100000352E+00 0.  1.
       -3    1    3    3    0  502  0.82397248087E+03  0.12499977857E+03  0.12571200359E+03  0.84282804410E+03  0.10100000352E+00 0. -1.
</event>
<event>
 5   0  0.2288806E-04  0.1684860E+04  0.7818609E-02  0.8770047E-01
        2   -1    0    0  501    0  0.00000000000E+00  0.00000000000E+00  0.12196243262E+04  0.12196243262E+04  0.25500000920E-02 0.  1.
       -2   -1    0    0    0  501  0.00000000000E+00  0.00000000000E+00 -0.58189089050E+03  0.58189089050E+03  0.25500000920E-02 0. -1.
    10030    2    1    2    0    0  0.00000000000E+00  0.00000000000E+00  0.63773343575E+03  0.18015152168E+04  0.16848599767E+04 0.  0.
        3    1    3    3  502    0  0.21819839640E+03 -0.79306484673E+03  0.12425998675E+03  0.83186714433E+03  0.10100000352E+00 0. -1.
       -3    1    3    3    0  502 -0.21819839640E+03  0.79306484673E+03  0.51347344900E+03  0.96964807242E+03  0.10100000352E+00 0.  1.
</event>
<event>
 5   0  0.2224454E-04  0.1702186E+04  0.7818609E-02  0.8760119E-01
        2   -1    0    0  501    0  0.00000000000E+00  0.00000000000E+00  0.46517213456E+03  0.46517213457E+03  0.25500000920E-02 0. -1.
       -2   -1    0    0    0  501  0.00000000000E+00  0.00000000000E+00 -0.15571847203E+04  0.15571847203E+04  0.25500000920E-02 0.  1.
    10030    2    1    2    0    0  0.00000000000E+00  0.00000000000E+00 -0.10920125857E+04  0.20223568548E+04  0.17021855836E+04 0.  0.
        2    1    3    3  502    0 -0.30320347934E+03  0.37761894619E+03 -0.13775284093E+04  0.14601756528E+04  0.25500000920E-02 0.  1.
       -2    1    3    3    0  502  0.30320347934E+03 -0.37761894619E+03  0.28551582362E+03  0.56218120207E+03  0.25500000920E-02 0. -1.
</event>
<event>
 5   0  0.8372750E-05  0.1709596E+04  0.7818609E-02  0.8755910E-01
        3   -1    0    0  501    0  0.00000000000E+00  0.00000000000E+00  0.78928668887E+03  0.78928669533E+03  0.10100000352E+00 0. -1.
       -3   -1    0    0    0  501  0.00000000000E+00  0.00000000000E+00 -0.92574653948E+03  0.92574654499E+03  0.10100000352E+00 0.  1.
    10030    2    1    2    0    0  0.00000000000E+00  0.00000000000E+00 -0.13645985061E+03  0.17150332403E+04  0.17095957781E+04 0.  0.
        5    1    3    3  502    0 -0.83610190602E+03  0.94461512587E+02 -0.21926763329E+03  0.86953421993E+03  0.46999998093E+01 0.  1.
       -5    1    3    3    0  502  0.83610190602E+03 -0.94461512587E+02  0.82807782681E+02  0.84549902040E+03  0.46999998093E+01 0. -1.
</event>
<event>
 5   0  0.2356829E-04  0.1702950E+04  0.7818609E-02  0.8759683E-01
        2   -1    0    0  501    0  0.00000000000E+00  0.00000000000E+00  0.14702473323E+04  0.14702473323E+04  0.25500000920E-02 0. -1.
       -2   -1    0    0    0  501  0.00000000000E+00  0.00000000000E+00 -0.49312105336E+03  0.49312105337E+03  0.25500000920E-02 0.  1.
    10030    2    1    2    0    0  0.00000000000E+00  0.00000000000E+00  0.97712627895E+03  0.19633683857E+04  0.17029502790E+04 0.  0.
        5    1    3    3  502    0 -0.55002373130E+03 -0.47259863535E+03 -0.25893543835E+02  0.72565015037E+03  0.46999998093E+01 0.  1.
       -5    1    3    3    0  502  0.55002373130E+03  0.47259863535E+03  0.10030198228E+04  0.12377182353E+04  0.46999998093E+01 0. -1.
</event>
<event>
 5   0  0.2288806E-04  0.1697637E+04  0.7818609E-02  0.8762713E-01
       -2   -1    0    0    0  501  0.00000000000E+00  0.00000000000E+00  0.12198782162E+04  0.12198782162E+04  0.25500000920E-02 0. -1.
        2   -1    0    0  501    0  0.00000000000E+00  0.00000000000E+00 -0.59062693007E+03  0.59062693007E+03  0.25500000920E-02 0.  1.
    10030    2    1    2    0    0  0.00000000000E+00  0.00000000000E+00  0.62925128616E+03  0.18105051463E+04  0.16976370942E+04 0.  0.
        3    1    3    3  502    0 -0.30284074145E+03  0.79090188188E+03  0.25378347674E+03  0.88410653471E+03  0.10100000352E+00 0.  1.
       -3    1    3    3    0  502  0.30284074145E+03 -0.79090188188E+03  0.37546780943E+03  0.92639861159E+03  0.10100000352E+00 0. -1.
</event>
<event>
 5   0  0.1126958E-04  0.1699925E+04  0.7818609E-02  0.8761407E-01
        1   -1    0    0  501    0  0.00000000000E+00  0.00000000000E+00  0.11300855283E+04  0.11300855283E+04  0.50400001928E-02 0.  1.
       -1   -1    0    0    0  501  0.00000000000E+00  0.00000000000E+00 -0.63927585872E+03  0.63927585874E+03  0.50400001928E-02 0. -1.
    10030    2    1    2    0    0  0.00000000000E+00  0.00000000000E+00  0.49080966958E+03  0.17693613870E+04  0.16999251708E+04 0.  0.
        4    1    3    3  502    0 -0.93308874451E+02 -0.26047053774E+03 -0.59109099638E+03  0.65264203511E+03  0.12699999809E+01 0. -1.
       -4    1    3    3    0  502  0.93308874451E+02  0.26047053774E+03  0.10819006660E+04  0.11167193519E+04  0.12699999809E+01 0.  1.
</event>
<event>
 5   0  0.2234723E-04  0.1696888E+04  0.7818609E-02  0.8763141E-01
       -2   -1    0    0    0  501  0.00000000000E+00  0.00000000000E+00  0.70321661388E+03  0.70321661389E+03  0.25500000920E-02 0.  1.
        2   -1    0    0  501    0  0.00000000000E+00  0.00000000000E+00 -0.10236630510E+04  0.10236630510E+04  0.25500000920E-02 0. -1.
    10030    2    1    2    0    0  0.00000000000E+00  0.00000000000E+00 -0.32044643707E+03  0.17268796648E+04  0.16968875796E+04 0.  0.
        1    1    3    3  502    0  0.32878069936E+03 -0.55119084063E+01  0.63573230375E+03  0.71573926221E+03  0.50400001928E-02 0.  1.
       -1    1    3    3    0  502 -0.32878069936E+03  0.55119084063E+01 -0.95617874083E+03  0.10111404026E+04  0.50400001928E-02 0. -1.
</event>
<event>
 5   0  0.2224454E-04  0.1703800E+04  0.7818609E-02  0.8759200E-01
        2   -1    0    0  501    0  0.00000000000E+00  0.00000000000E+00  0.14073132096E+04  0.14073132096E+04  0.25500000920E-02 0.  1.
       -2   -1    0    0    0  501  0.00000000000E+00  0.00000000000E+00 -0.51568736651E+03  0.51568736652E+03  0.25500000920E-02 0. -1.
    10030    2    1    2    0    0  0.00000000000E+00  0.00000000000E+00  0.89162584304E+03  0.19230005761E+04  0.17038000386E+04 0.  0.
        2    1    3    3  502    0 -0.29266079337E+03 -0.17513127552E+03  0.13268950907E+04  0.13700262353E+04  0.25500000920E-02 0.  1.
       -2    1    3    3    0  502  0.29266079337E+03  0.17513127552E+03 -0.43526924764E+03  0.55297434081E+03  0.25500000920E-02 0. -1.
</event>
<event>
 5   0  0.1215233E-04  0.1697291E+04  0.7818609E-02  0.8762911E-01
        1   -1    0    0  501    0  0.00000000000E+00  0.00000000000E+00  0.41228509168E+03  0.41228509171E+03  0.50400001928E-02 0. -1.
       -1   -1    0    0    0  501  0.00000000000E+00  0.00000000000E+00 -0.17468471239E+04  0.17468471239E+04  0.50400001928E-02 0.  1.
    10030    2    1    2    0    0  0.00000000000E+00  0.00000000000E+00 -0.13345620322E+04  0.21591322156E+04  0.16972908138E+04 0.  0.
        2    1    3    3  502    0 -0.95947216724E+02  0.81402850460E+03 -0.38756032467E+03  0.90667043625E+03  0.25500000920E-02 0. -1.
       -2    1    3    3    0  502  0.95947216724E+02 -0.81402850460E+03 -0.94700170756E+03  0.12524617794E+04  0.25500000920E-02 0.  1.
</event>
<event>
 5   0  0.2356829E-04  0.1702178E+04  0.7818609E-02  0.8760123E-01
       -2   -1    0    0    0  501  0.00000000000E+00  0.00000000000E+00  0.73234633631E+03  0.73234633631E+03  0.25500000920E-02 0.  1.
        2   -1    0    0  501    0  0.00000000000E+00  0.00000000000E+00 -0.98908441546E+03  0.98908441547E+03  0.25500000920E-02 0. -1.
    10030    2    1    2    0    0  0.00000000000E+00  0.00000000000E+00 -0.25673807916E+03  0.17214307518E+04  0.17021778379E+04 0.  0.
        5    1    3    3  502    0 -0.28839489503E+03  0.77129906930E+03  0.89136581309E+02  0.82827609522E+03  0.46999998093E+01 0.  1.
       -5    1    3    3    0  502  0.28839489503E+03 -0.77129906930E+03 -0.34587466047E+03  0.89315465656E+03  0.46999998093E+01 0. -1.
</event>
<event>
 5   0  0.1186302E-04  0.1687171E+04  0.7818609E-02  0.8768715E-01
       -1   -1    0    0    0  501  0.00000000000E+00  0.00000000000E+00  0.77882055327E+03  0.77882055329E+03  0.50400001928E-02 0.  1.
        1   -1    0    0  501    0  0.00000000000E+00  0.00000000000E+00 -0.91373568949E+03  0.91373568951E+03  0.50400001928E-02 0. -1.
    10030    2    1    2    0    0  0.00000000000E+00  0.00000000000E+00 -0.13491513622E+03  0.16925562428E+04  0.16871705726E+04 0.  0.
        3    1    3    3  502    0 -0.47082976370E+03  0.11286045127E+03 -0.76047237670E+03  0.90151893700E+03  0.10100000352E+00 0. -1.
       -3    1    3    3    0  502  0.47082976370E+03 -0.11286045127E+03  0.62555724048E+03  0.79103730580E+03  0.10100000352E+00 0.  1.
</event>
<event>
 5   0  0.1186302E-04  0.1643666E+04  0.7818609E-02  0.8794162E-01
       -1   -1    0    0    0  501  0.00000000000E+00  0.00000000000E+00  0.56647788429E+03  0.56647788431E+03  0.50400001928E-02 0.  1.
        1   -1    0    0  501    0  0.00000000000E+00  0.00000000000E+00 -0.11922967119E+04  0.11922967119E+04  0.50400001928E-02 0. -1.
    10030    2    1    2    0    0  0.00000000000E+00  0.00000000000E+00 -0.62581882764E+03  0.17587745963E+04  0.16436662908E+04 0.  0.
        3    1    3    3  502    0 -0.37230065446E+03  0.51175913109E+03 -0.87394121378E+03  0.10790173497E+04  0.10100000352E+00 0. -1.
       -3    1    3    3    0  502  0.37230065446E+03 -0.51175913109E+03  0.24812238613E+03  0.67975724657E+03  0.10100000352E+00 0.  1.
</event>
<event>
 5   0  0.1126958E-04  0.1719645E+04  0.7818609E-02  0.8750239E-01
       -1   -1    0    0    0  501  0.00000000000E+00  0.00000000000E+00  0.13949900196E+04  0.13949900196E+04  0.50400001928E-02 0. -1.
        1   -1    0    0  501    0  0.00000000000E+00  0.00000000000E+00 -0.52996408478E+03  0.52996408481E+03  0.50400001928E-02 0.  1.
    10030    2    1    2    0    0  0.00000000000E+00  0.00000000000E+00  0.86502593479E+03  0.19249541044E+04  0.17196448576E+04 0.  0.
        4    1    3    3  502    0 -0.65407042320E+03  0.31980212586E+03  0.94451816264E+03  0.11925593028E+04  0.12699999809E+01 0. -1.
       -4    1    3    3    0  502  0.65407042320E+03 -0.31980212586E+03 -0.79492227853E+02  0.73239480160E+03  0.12699999809E+01 0.  1.
</event>
<event>
 5   0  0.2242967E-04  0.1710883E+04  0.7818609E-02  0.8755181E-01
        2   -1    0    0  501    0  0.00000000000E+00  0.00000000000E+00  0.77877790330E+03  0.77877790330E+03  0.25500000920E-02 0.  1.
       -2   -1    0    0    0  501  0.00000000000E+00  0.00000000000E+00 -0.93965225247E+03  0.93965225248E+03  0.25500000920E-02 0. -1.
    10030    2    1    2    0    0  0.00000000000E+00  0.00000000000E+00 -0.16087434918E+03  0.17184301558E+04  0.17108832935E+04 0.  0.
        4    1    3    3  502    0 -0.32653624249E+03  0.16149302003E+03  0.69697498881E+03  0.78643605024E+03  0.12699999809E+01 0.  1.
       -4    1    3    3    0  502  0.32653624249E+03 -0.16149302003E+03 -0.85784933799E+03  0.93199410554E+03  0.12699999809E+01 0. -1.
</event>
<event>
 5   0  0.2224454E-04  0.1702023E+04  0.7818609E-02  0.8760211E-01
       -2   -1    0    0    0  501  0.00000000000E+00  0.00000000000E+00  0.80731046334E+03  0.80731046334E+03  0.25500000920E-02 0.  1.
        2   -1    0    0  501    0  0.00000000000E+00  0.00000000000E+00 -0.89707819290E+03  0.89707819290E+03  0.25500000920E-02 0. -1.
    10030    2    1    2    0    0  0.00000000000E+00  0.00000000000E+00 -0.89767729565E+02  0.17043886562E+04  0.17020230452E+04 0.  0.
        2    1    3    3  502    0  0.34187593358E+03  0.71237442896E+03 -0.36133594990E+03  0.86886140995E+03  0.25500000920E-02 0. -1.
       -2    1    3    3    0  502 -0.34187593358E+03 -0.71237442896E+03  0.27156822033E+03  0.83552724630E+03  0.25500000920E-02 0.  1.
</event>
<event>
 5   0  0.2242967E-04  0.1643455E+04  0.7818609E-02  0.8794288E-01
        2   -1    0    0  501    0  0.00000000000E+00  0.00000000000E+00  0.11534557175E+04  0.11534557175E+04  0.25500000920E-02 0. -1.
       -2   -1    0    0    0  501  0.00000000000E+00  0.00000000000E+00 -0.58540243454E+03  0.58540243455E+03  0.25500000920E-02 0.  1.
    10030    2    1    2    0    0  0.00000000000E+00  0.00000000000E+00  0.56805328296E+03  0.17388581520E+04  0.16434546360E+04 0.  0.
        4    1    3    3  502    0  0.14254556246E+03  0.79905924353E+03  0.14845051306E+03  0.82513882455E+03  0.12699999809E+01 0. -1.
       -4    1    3    3    0  502 -0.14254556246E+03 -0.79905924353E+03  0.41960276990E+03  0.91371932750E+03  0.12699999809E+01 0.  1.
</event>
<event>
 5   0  0.2234723E-04  0.1693608E+04  0.7818609E-02  0.8765018E-01
       -2   -1    0    0    0  501  0.00000000000E+00  0.00000000000E+00  0.47959708315E+03  0.47959708316E+03  0.25500000920E-02 0.  1.
        2   -1    0    0  501    0  0.00000000000E+00  0.00000000000E+00 -0.14951655528E+04  0.14951655529E+04  0.25500000920E-02 0. -1.
    10030    2    1    2    0    0  0.00000000000E+00  0.00000000000E+00 -0.10155684697E+04  0.19747626360E+04  0.16936080278E+04 0.  0.
        1    1    3    3  502    0 -0.75366217604E+03  0.38364975689E+03 -0.45718391468E+03  0.96135890459E+03  0.50400001928E-02 0.  1.
       -1    1    3    3    0  502  0.75366217604E+03 -0.38364975689E+03 -0.55838455502E+03  0.10134037314E+04  0.50400001928E-02 0. -1.
</event>
<event>
 5   0  0.2288806E-04  0.1705281E+04  0.7818609E-02  0.8758358E-01
        2   -1    0    0  501    0  0.00000000000E+00  0.00000000000E+00  0.21883821822E+04  0.21883821822E+04  0.25500000920E-02 0.  1.
       -2   -1    0    0    0  501  0.00000000000E+00  0.00000000000E+00 -0.33220679352E+03  0.33220679353E+03  0.25500000920E-02 0. -1.
    10030    2    1    2    0    0  0.00000000000E+00  0.00000000000E+00  0.18561753886E+04  0.25205889757E+04  0.17052805373E+04 0.  0.
        3    1    3    3  502    0 -0.66224485831E+03  0.24424177902E+02  0.17210904513E+04  0.18442660178E+04  0.10100000352E+00 0.  1.
       -3    1    3    3    0  502  0.66224485831E+03 -0.24424177902E+02  0.13508493736E+03  0.67632295786E+03  0.10100000352E+00 0. -1.
</event>
<event>
 5   0  0.1204741E-04  0.1698069E+04  0.7818609E-02  0.8762466E-01
        1   -1    0    0  501    0  0.00000000000E+00  0.00000000000E+00  0.17504230887E+04  0.17504230887E+04  0.50400001928E-02 0. -1.
       -1   -1    0    0    0  501  0.00000000000E+00  0.00000000000E+00 -0.41182030005E+03  0.41182030008E+03  0.50400001928E-02 0.  1.
    10030    2    1    2    0    0  0.00000000000E+00  0.00000000000E+00  0.13386027886E+04  0.21622433888E+04  0.16980692114E+04 0.  0.
        1    1    3    3  502    0 -0.36478560132E+03  0.33000276074E+03  0.15504858033E+04  0.16266458076E+04  0.50400001928E-02 0. -1.
       -1    1    3    3    0  502  0.36478560132E+03 -0.33000276074E+03 -0.21188301470E+03  0.53559758118E+03  0.50400001928E-02 0.  1.
</event>
<event>
 5   0  0.2224454E-04  0.1704516E+04  0.7818609E-02  0.8758793E-01
       -2   -1    0    0    0  501  0.00000000000E+00  0.00000000000E+00  0.82893424101E+03  0.82893424101E+03  0.25500000920E-02 0.  1.
        2   -1    0    0  501    0  0.00000000000E+00  0.00000000000E+00 -0.87623763785E+03  0.87623763786E+03  0.25500000920E-02 0. -1.
    10030    2    1    2    0    0  0.00000000000E+00  0.00000000000E+00 -0.47303396841E+02  0.17051718789E+04  0.17045156277E+04 0.  0.
        2    1    3    3  502    0 -0.45943898983E+03  0.70573392045E+03  0.10754310075E+03  0.84894644730E+03  0.25500000920E-02 0. -1.
       -2    1    3    3    0  502  0.45943898983E+03 -0.70573392045E+03 -0.15484649759E+03  0.85622543157E+03  0.25500000920E-02 0.  1.
</event>
<event>
 5   0  0.1215233E-04  0.1701103E+04  0.7818609E-02  0.8760736E-01
        1   -1    0    0  501    0  0.00000000000E+00  0.00000000000E+00  0.11855191693E+04  0.11855191693E+04  0.50400001928E-02 0.  1.
       -1   -1    0    0    0  501  0.00000000000E+00  0.00000000000E+00 -0.61022870507E+03  0.61022870509E+03  0.50400001928E-02 0. -1.
    10030    2    1    2    0    0  0.00000000000E+00  0.00000000000E+00  0.57529046420E+03  0.17957478744E+04  0.17011029687E+04 0.  0.
        2    1    3    3  502    0  0.14995135799E+03  0.43848573162E+03  0.10405468568E+04  0.11390754618E+04  0.25500000920E-02 0.  1.
       -2    1    3    3    0  502 -0.14995135799E+03 -0.43848573162E+03 -0.46525639255E+03  0.65667241256E+03  0.25500000920E-02 0. -1.
</event>
<event>
 5   0  0.2224454E-04  0.1694739E+04  0.7818609E-02  0.8764370E-01
       -2   -1    0    0    0  501  0.00000000000E+00  0.00000000000E+00  0.56548675288E+03  0.56548675288E+03  0.25500000920E-02 0.  1.
        2   -1    0    0  501    0  0.00000000000E+00  0.00000000000E+00 -0.12697648824E+04  0.12697648824E+04  0.25500000920E-02 0. -1.
    10030    2    1    2    0    0  0.00000000000E+00  0.00000000000E+00 -0.70427812950E+03  0.18352516353E+04  0.16947391779E+04 0.  0.
        2    1    3    3  502    0 -0.45983365061E+03 -0.25500478696E+03 -0.10717338419E+04  0.11937704367E+04  0.25500000920E-02 0. -1.
       -2    1    3    3    0  502  0.45983365061E+03  0.25500478696E+03  0.36745571237E+03  0.64148119861E+03  0.25500000920E-02 0.  1.
</event>
<event>
 5   0  0.2242967E-04  0.1694383E+04  0.7818609E-02  0.8764574E-01
        2   -1    0    0  501    0  0.00000000000E+00  0.00000000000E+00  0.13144242513E+04  0.13144242513E+04  0.25500000920E-02 0.  1.
       -2   -1    0    0    0  501  0.00000000000E+00  0.00000000000E+00 -0.54604418119E+03  0.54604418120E+03  0.25500000920E-02 0. -1.
    10030    2    1    2    0    0  0.00000000000E+00  0.00000000000E+00  0.76838007010E+03  0.18604684325E+04  0.16943833262E+04 0.  0.
        4    1    3    3  502    0 -0.42279915644E+03 -0.62150767808E+03 -0.44883604132E+02  0.75302527940E+03  0.12699999809E+01 0. -1.
       -4    1    3    3    0  502  0.42279915644E+03  0.62150767808E+03  0.81326367423E+03  0.11074431531E+04  0.12699999809E+01 0.  1.
</event>
<event>
 5   0  0.1204741E-04  0.1702381E+04  0.7818609E-02  0.8760007E-01
        1   -1    0    0  501    0  0.00000000000E+00  0.00000000000E+00  0.12489465385E+04  0.12489465385E+04  0.50400001928E-02 0. -1.
       -1   -1    0    0    0  501  0.00000000000E+00  0.00000000000E+00 -0.58010924195E+03  0.58010924197E+03  0.50400001928E-02 0.  1.
    10030    2    1    2    0    0  0.00000000000E+00  0.00000000000E+00  0.66883729655E+03  0.18290557805E+04  0.17023811908E+04 0.  0.
        1    1    3    3  502    0 -0.23210805965E+03 -0.43489281475E+03  0.10799691827E+04  0.11871559912E+04  0.50400001928E-02 0. -1.
       -1    1    3    3    0  502  0.23210805965E+03  0.43489281475E+03 -0.41113188618E+03  0.64189978932E+03  0.50400001928E-02 0.  1.
</event>
<event>
 5   0  0.1186302E-04  0.1699589E+04  0.7818609E-02  0.8761599E-01
        1   -1    0    0  501    0  0.00000000000E+00  0.00000000000E+00  0.14591484902E+04  0.14591484902E+04  0.50400001928E-02 0. -1.
       -1   -1    0    0    0  501  0.00000000000E+00  0.00000000000E+00 -0.49491226437E+03  0.49491226440E+03  0.50400001928E-02 0.  1.
    10030    2    1    2    0    0  0.00000000000E+00  0.00000000000E+00  0.96423622579E+03  0.19540607546E+04  0.16995887542E+04 0.  0.
        3    1    3    3  502    0 -0.17709227884E+03  0.13290951956E+01  0.14376964626E+04  0.14485629329E+04  0.10100000352E+00 0. -1.
       -3    1    3    3    0  502  0.17709227884E+03 -0.13290951956E+01 -0.47346023680E+03  0.50549782171E+03  0.10100000352E+00 0.  1.
</event>
<event>
 5   0  0.2288806E-04  0.1704811E+04  0.7818609E-02  0.8758625E-01
        2   -1    0    0  501    0  0.00000000000E+00  0.00000000000E+00  0.16622544463E+04  0.16622544463E+04  0.25500000920E-02 0. -1.
       -2   -1    0    0    0  501  0.00000000000E+00  0.00000000000E+00 -0.43711413490E+03  0.43711413491E+03  0.25500000920E-02 0.  1.
    10030    2    1    2    0    0  0.00000000000E+00  0.00000000000E+00  0.12251403114E+04  0.20993685812E+04  0.17048107394E+04 0.  0.
        3    1    3    3  502    0 -0.10017598644E+03 -0.53565612576E+03 -0.19459225325E+03  0.57864399120E+03  0.10100000352E+00 0.  1.
       -3    1    3    3    0  502  0.10017598644E+03  0.53565612576E+03  0.14197325647E+04  0.15207245900E+04  0.10100000352E+00 0. -1.
</event>
<event>
 5   0  0.1234158E-04  0.1692067E+04  0.7818609E-02  0.8765902E-01
        1   -1    0    0  501    0  0.00000000000E+00  0.00000000000E+00  0.70982872260E+03  0.70982872262E+03  0.50400001928E-02 0. -1.
       -1   -1    0    0    0  501  0.00000000000E+00  0.00000000000E+00 -0.10083740419E+04  0.10083740419E+04  0.50400001928E-02 0.  1.
    10030    2    1    2    0    0  0.00000000000E+00  0.00000000000E+00 -0.29854531931E+03  0.17182027645E+04  0.16920672068E+04 0.  0.
        5    1    3    3  502    0  0.71206918422E+03  0.43959993839E+03 -0.23013322754E+02  0.83716326482E+03  0.46999998093E+01 0. -1.
       -5    1    3    3    0  502 -0.71206918422E+03 -0.43959993839E+03 -0.27553199655E+03  0.88103949972E+03  0.46999998093E+01 0.  1.
</event>
<event>
 5   0  0.1126958E-04  0.1694002E+04  0.7818609E-02  0.8764792E-01
       -1   -1    0    0    0  501  0.00000000000E+00  0.00000000000E+00  0.35492751217E+03  0.35492751220E+03  0.50400001928E-02 0. -1.
        1   -1    0    0  501    0  0.00000000000E+00  0.00000000000E+00 -0.20212887455E+04  0.20212887455E+04  0.50400001928E-02 0.  1.
    10030    2    1    2    0    0  0.00000000000E+00  0.00000000000E+00 -0.16663612333E+04  0.23762162577E+04  0.16940023446E+04 0.  0.
        4    1    3    3  502    0  0.60880964463E+03  0.55992118206E+03 -0.10889553964E+04  0.13674744538E+04  0.12699999809E+01 0.  1.
       -4    1    3    3    0  502 -0.60880964463E+03 -0.55992118206E+03 -0.57740583687E+03  0.10087418039E+04  0.12699999809E+01 0. -1.
</event>
<event>
 5   0  0.2242967E-04  0.1612730E+04  0.7818609E-02  0.8812765E-01
        2   -1    0    0  501    0  0.00000000000E+00  0.00000000000E+00  0.61882374145E+03  0.61882374146E+03  0.25500000920E-02 0. -1.
       -2   -1    0    0    0  501  0.00000000000E+00  0.00000000000E+00 -0.10507431543E+04  0.10507431543E+04  0.25500000920E-02 0.  1.
    10030    2    1    2    0    0  0.00000000000E+00  0.00000000000E+00 -0.43191941288E+03  0.16695668958E+04  0.16127303681E+04 0.  0.
        4    1    3    3  502    0 -0.20012558711E+03  0.30117982768E+03  0.53017913032E+03  0.64175623280E+03  0.12699999809E+01 0. -1.
       -4    1    3    3    0  502  0.20012558711E+03 -0.30117982768E+03 -0.96209854320E+03  0.10278106630E+04  0.12699999809E+01 0.  1.
</event>
<event>
 5   0  0.2234723E-04  0.1736875E+04  0.7818609E-02  0.8740608E-01
        2   -1    0    0  501    0  0.00000000000E+00  0.00000000000E+00  0.98141505636E+03  0.98141505637E+03  0.25500000920E-02 0.  1.
       -2   -1    0    0    0  501  0.00000000000E+00  0.00000000000E+00 -0.76846543705E+03  0.76846543706E+03  0.25500000920E-02 0. -1.
    10030    2    1    2    0    0  0.00000000000E+00  0.00000000000E+00  0.21294961931E+03  0.17498804934E+04  0.17368748374E+04 0.  0.
        1    1    3    3  502    0 -0.65637452474E+03 -0.56229771554E+03  0.21121415426E+02  0.86455326721E+03  0.50400001928E-02 0.  1.
       -1    1    3    3    0  502  0.65637452474E+03  0.56229771554E+03  0.19182820389E+03  0.88532722621E+03  0.50400001928E-02 0. -1.
</event>
<event>
 5   0  0.1215233E-04  0.1705621E+04  0.7818609E-02  0.8758165E-01
       -1   -1    0    0    0  501  0.00000000000E+00  0.00000000000E+00  0.59777638053E+03  0.59777638055E+03  0.50400001928E-02 0.  1.
        1   -1    0    0  501    0  0.00000000000E+00  0.00000000000E+00 -0.12166517861E+04  0.12166517861E+04  0.50400001928E-02 0. -1.
    10030    2    1    2    0    0  0.00000000000E+00  0.00000000000E+00 -0.61887540555E+03  0.18144281666E+04  0.17056209439E+04 0.  0.
        2    1    3    3  502    0  0.10636273266E+03  0.74789466065E+03 -0.73044490884E+03  0.10508135987E+04  0.25500000920E-02 0. -1.
       -2    1    3    3    0  502 -0.10636273266E+03 -0.74789466065E+03  0.11156950329E+03  0.76361456795E+03  0.25500000920E-02 0.  1.
</event>
<event>
 5   0  0.2224454E-04  0.1711252E+04  0.7818609E-02  0.8754973E-01
        2   -1    0    0  501    0  0.00000000000E+00  0.00000000000E+00  0.13355812479E+04  0.13355812479E+04  0.25500000920E-02 0. -1.
       -2   -1    0    0    0  501  0.00000000000E+00  0.00000000000E+00 -0.54814746568E+03  0.54814746568E+03  0.25500000920E-02 0.  1.
    10030    2    1    2    0    0  0.00000000000E+00  0.00000000000E+00  0.78743378218E+03  0.18837287135E+04  0.17112515610E+04 0.  0.
        2    1    3    3  502    0 -0.81763789480E+03  0.76558698941E+02  0.65814150022E+03  0.10523987817E+04  0.25500000920E-02 0. -1.
       -2    1    3    3    0  502  0.81763789480E+03 -0.76558698941E+02  0.12929228195E+03  0.83132993184E+03  0.25500000920E-02 0.  1.
</event>
<event>
 5   0  0.2234723E-04  0.1711589E+04  0.7818609E-02  0.8754782E-01
       -2   -1    0    0    0  501  0.00000000000E+00  0.00000000000E+00  0.88424802059E+03  0.88424802060E+03  0.25500000920E-02 0. -1.
        2   -1    0    0  501    0  0.00000000000E+00  0.00000000000E+00 -0.82825628798E+03  0.82825628799E+03  0.25500000920E-02 0.  1.
    10030    2    1    2    0    0  0.00000000000E+00  0.00000000000E+00  0.55991732612E+02  0.17125043086E+04  0.17115887160E+04 0.  0.
        1    1    3    3  502    0  0.83882621330E+03 -0.65469962560E+02  0.18450285022E+03  0.86136927847E+03  0.50400001928E-02 0. -1.
       -1    1    3    3    0  502 -0.83882621330E+03  0.65469962560E+02 -0.12851111761E+03  0.85113503012E+03  0.50400001928E-02 0.  1.
</event>
<event>
 5   0  0.2288806E-04  0.1699535E+04  0.7818609E-02  0.8761630E-01
        2   -1    0    0  501    0  0.00000000000E+00  0.00000000000E+00  0.77197377698E+03  0.77197377699E+03  0.25500000920E-02 0. -1.
       -2   -1    0    0    0  501  0.00000000000E+00  0.00000000000E+00 -0.93540014919E+03  0.93540014920E+03  0.25500000920E-02 0.  1.
    10030    2    1    2    0    0  0.00000000000E+00  0.00000000000E+00 -0.16342637221E+03  0.17073739262E+04  0.16995345082E+04 0.  0.
        3    1    3    3  502    0  0.31144313328E+03 -0.54760040038E+02  0.71066381405E+03  0.77784224240E+03  0.10100000352E+00 0. -1.
       -3    1    3    3    0  502 -0.31144313328E+03  0.54760040038E+02 -0.87409018626E+03  0.92953168379E+03  0.10100000352E+00 0.  1.
</event>
<event>
 5   0  0.2224454E-04  0.1694586E+04  0.7818609E-02  0.8764458E-01
       -2   -1    0    0    0  501  0.00000000000E+00  0.00000000000E+00  0.83434084492E+03  0.83434084492E+03  0.25500000920E-02 0. -1.
        2   -1    0    0  501    0  0.00000000000E+00  0.00000000000E+00 -0.86044590393E+03  0.86044590393E+03  0.25500000920E-02 0.  1.
    10030    2    1    2    0    0  0.00000000000E+00  0.00000000000E+00 -0.26105059006E+02  0.16947867489E+04  0.16945856868E+04 0.  0.
        2    1    3    3  502    0 -0.72896045685E+03  0.28150034576E+03 -0.34062668753E+03  0.85243904919E+03  0.25500000920E-02 0.  1.
       -2    1    3    3    0  502  0.72896045685E+03 -0.28150034576E+03  0.31452162852E+03  0.84234769967E+03  0.25500000920E-02 0. -1.
</event>
<event>
 5   0  0.1234158E-04  0.1678652E+04  0.7818609E-02  0.8773634E-01
       -1   -1    0    0    0  501  0.00000000000E+00  0.00000000000E+00  0.25015752374E+04  0.25015752374E+04  0.50400001928E-02 0. -1.
        1   -1    0    0  501    0  0.00000000000E+00  0.00000000000E+00 -0.28160983592E+03  0.28160983596E+03  0.50400001928E-02 0.  1.
    10030    2    1    2    0    0  0.00000000000E+00  0.00000000000E+00  0.22199654014E+04  0.27831850733E+04  0.16786520690E+04 0.  0.
        5    1    3    3  502    0 -0.72924315154E+03 -0.37758464359E+03  0.82242636042E+03  0.11622275790E+04  0.46999998093E+01 0. -1.
       -5    1    3    3    0  502  0.72924315154E+03  0.37758464359E+03  0.13975390410E+04  0.16209574943E+04  0.46999998093E+01 0.  1.
</event>
<event>
 5   0  0.2242967E-04  0.1767647E+04  0.7818609E-02  0.8723696E-01
        2   -1    0    0  501    0  0.00000000000E+00  0.00000000000E+00  0.82177667196E+03  0.82177667196E+03  0.25500000920E-02 0. -1.
       -2   -1    0    0    0  501  0.00000000000E+00  0.00000000000E+00 -0.95055485322E+03  0.95055485322E+03  0.25500000920E-02 0.  1.
    10030    2    1    2    0    0  0.00000000000E+00  0.00000000000E+00 -0.12877818126E+03  0.17723315252E+04  0.17676468016E+04 0.  0.
        4    1    3    3  502    0 -0.36414866390E+03  0.59020744073E+02 -0.86967049999E+03  0.94467776998E+03  0.12699999809E+01 0.  1.
       -4    1    3    3    0  502  0.36414866390E+03 -0.59020744073E+02  0.74089231872E+03  0.82765375520E+03  0.12699999809E+01 0. -1.
</event>
<event>
 5   0  0.1186302E-04  0.1696634E+04  0.7818609E-02  0.8763286E-01
        1   -1    0    0  501    0  0.00000000000E+00  0.00000000000E+00  0.19755780282E+04  0.19755780282E+04  0.50400001928E-02 0. -1.
       -1   -1    0    0    0  501  0.00000000000E+00  0.00000000000E+00 -0.36426893533E+03  0.36426893537E+03  0.50400001928E-02 0.  1.
    10030    2    1    2    0    0  0.00000000000E+00  0.00000000000E+00  0.16113090929E+04  0.23398469636E+04  0.16966339676E+04 0.  0.
        3    1    3    3  502    0  0.29482845668E+03  0.11213728822E+03  0.18916931321E+04  0.19178116452E+04  0.10100000352E+00 0. -1.
       -3    1    3    3    0  502 -0.29482845668E+03 -0.11213728822E+03 -0.28038403924E+03  0.42203531835E+03  0.10100000352E+00 0.  1.
</event>
<event>
 5   0  0.1204741E-04  0.1696550E+04  0.7818609E-02  0.8763334E-01
        1   -1    0    0  501    0  0.00000000000E+00  0.00000000000E+00  0.77691063794E+03  0.77691063795E+03  0.50400001928E-02 0.  1.
       -1   -1    0    0    0  501  0.00000000000E+00  0.00000000000E+00 -0.92619475877E+03  0.92619475879E+03  0.50400001928E-02 0. -1.
    10030    2    1    2    0    0  0.00000000000E+00  0.00000000000E+00 -0.14928412084E+03  0.17031053967E+04  0.16965501005E+04 0.  0.
        1    1    3    3  502    0 -0.52030598404E+03 -0.24470842538E+03 -0.70072649443E+03  0.90643154761E+03  0.50400001928E-02 0. -1.
       -1    1    3    3    0  502  0.52030598404E+03  0.24470842538E+03  0.55144237359E+03  0.79667384913E+03  0.50400001928E-02 0.  1.
</event>
<event>
 5   0  0.2288806E-04  0.1695272E+04  0.7818609E-02  0.8764066E-01
       -2   -1    0    0    0  501  0.00000000000E+00  0.00000000000E+00  0.79848131868E+03  0.79848131869E+03  0.25500000920E-02 0. -1.
        2   -1    0    0  501    0  0.00000000000E+00  0.00000000000E+00 -0.89981615102E+03  0.89981615102E+03  0.25500000920E-02 0.  1.
    10030    2    1    2    0    0  0.00000000000E+00  0.00000000000E+00 -0.10133483234E+03  0.16982974697E+04  0.16952715261E+04 0.  0.
        3    1    3    3  502    0 -0.50580285649E+03 -0.26489553840E+03  0.57693321459E+03  0.81170075779E+03  0.10100000352E+00 0. -1.
       -3    1    3    3    0  502  0.50580285649E+03  0.26489553840E+03 -0.67826804693E+03  0.88659671192E+03  0.10100000352E+00 0.  1.
</event>
<event>
 5   0  0.8372750E-05  0.1701392E+04  0.7818609E-02  0.8760571E-01
        3   -1    0    0  501    0  0.00000000000E+00  0.00000000000E+00  0.93244199444E+03  0.93244199991E+03  0.10100000352E+00 0.  1.
       -3   -1    0    0    0  501  0.00000000000E+00  0.00000000000E+00 -0.77611681522E+03  0.77611682179E+03  0.10100000352E+00 0. -1.
    10030    2    1    2    0    0  0.00000000000E+00  0.00000000000E+00  0.15632517922E+03  0.17085588217E+04  0.17013922786E+04 0.  0.
        1    1    3    3  502    0 -0.67468416290E+03 -0.18185704877E+03  0.56540030405E+03  0.89885939374E+03  0.50400001928E-02 0.  1.
       -1    1    3    3    0  502  0.67468416290E+03  0.18185704877E+03 -0.40907512483E+03  0.80969942796E+03  0.50400001928E-02 0. -1.
</event>
<event>
 5   0  0.1186302E-04  0.1699135E+04  0.7818609E-02  0.8761858E-01
        1   -1    0    0  501    0  0.00000000000E+00  0.00000000000E+00  0.18716080158E+04  0.18716080158E+04  0.50400001928E-02 0.  1.
       -1   -1    0    0    0  501  0.00000000000E+00  0.00000000000E+00 -0.38563873653E+03  0.38563873656E+03  0.50400001928E-02 0. -1.
    10030    2    1    2    0    0  0.00000000000E+00  0.00000000000E+00  0.14859692792E+04  0.22572467523E+04  0.16991345450E+04 0.  0.
        3    1    3    3  502    0  0.27034675019E+03 -0.32377973078E+03  0.17226739795E+04  0.17735631732E+04  0.10100000352E+00 0.  1.
       -3    1    3    3    0  502 -0.27034675019E+03  0.32377973078E+03 -0.23670470027E+03  0.48368357914E+03  0.10100000352E+00 0. -1.
</event>
<event>
 5   0  0.1126958E-04  0.1705970E+04  0.7818609E-02  0.8757967E-01
        1   -1    0    0  501    0  0.00000000000E+00  0.00000000000E+00  0.16163650205E+04  0.16163650205E+04  0.50400001928E-02 0.  1.
       -1   -1    0    0    0  501  0.00000000000E+00  0.00000000000E+00 -0.45013568486E+03  0.45013568489E+03  0.50400001928E-02 0. -1.
    10030    2    1    2    0    0  0.00000000000E+00  0.00000000000E+00  0.11662293356E+04  0.20665007054E+04  0.17059701938E+04 0.  0.
        4    1    3    3  502    0  0.59732225251E+03  0.47373751946E+02  0.13184893666E+04  0.14482589439E+04  0.12699999809E+01 0.  1.
       -4    1    3    3    0  502 -0.59732225251E+03 -0.47373751946E+02 -0.15226003101E+03  0.61824176150E+03  0.12699999809E+01 0. -1.
</event>
<event>
 5   0  0.1234158E-04  0.1700445E+04  0.7818609E-02  0.8761111E-01
       -1   -1    0    0    0  501  0.00000000000E+00  0.00000000000E+00  0.40933506140E+03  0.40933506143E+03  0.50400001928E-02 0.  1.
        1   -1    0    0  501    0  0.00000000000E+00  0.00000000000E+00 -0.17659816185E+04  0.17659816185E+04  0.50400001928E-02 0. -1.
    10030    2    1    2    0    0  0.00000000000E+00  0.00000000000E+00 -0.13566465571E+04  0.21753166800E+04  0.17004448763E+04 0.  0.
        5    1    3    3  502    0  0.31396751368E+03  0.71875540311E+03 -0.25855495909E+03  0.82586783810E+03  0.46999998093E+01 0.  1.
       -5    1    3    3    0  502 -0.31396751368E+03 -0.71875540311E+03 -0.10980915980E+04  0.13494488419E+04  0.46999998093E+01 0. -1.
</event>
<event>
 5   0  0.1126958E-04  0.1693259E+04  0.7818609E-02  0.8765218E-01
        1   -1    0    0  501    0  0.00000000000E+00  0.00000000000E+00  0.16292265043E+04  0.16292265043E+04  0.50400001928E-02 0. -1.
       -1   -1    0    0    0  501  0.00000000000E+00  0.00000000000E+00 -0.43995199081E+03  0.43995199084E+03  0.50400001928E-02 0.  1.
    10030    2    1    2    0    0  0.00000000000E+00  0.00000000000E+00  0.11892745135E+04  0.20691784951E+04  0.16932589218E+04 0.  0.
        4    1    3    3  502    0 -0.37020571621E+03 -0.37629360521E+03 -0.21422843882E+03  0.56968814849E+03  0.12699999809E+01 0.  1.
       -4    1    3    3    0  502  0.37020571621E+03  0.37629360521E+03  0.14035029523E+04  0.14994903466E+04  0.12699999809E+01 0. -1.
</event>
<event>
 5   0  0.2234723E-04  0.1693081E+04  0.7818609E-02  0.8765320E-01
        2   -1    0    0  501    0  0.00000000000E+00  0.00000000000E+00  0.10496293914E+04  0.10496293914E+04  0.25500000920E-02 0. -1.
       -2   -1    0    0    0  501  0.00000000000E+00  0.00000000000E+00 -0.68274637578E+03  0.68274637578E+03  0.25500000920E-02 0.  1.
    10030    2    1    2    0    0  0.00000000000E+00  0.00000000000E+00  0.36688301565E+03  0.17323757672E+04  0.16930808166E+04 0.  0.
        1    1    3    3  502    0 -0.59087304155E+03 -0.55952492069E+03  0.42216208770E+03  0.91674419356E+03  0.50400001928E-02 0. -1.
       -1    1    3    3    0  502  0.59087304155E+03  0.55952492069E+03 -0.55279072045E+02  0.81563157366E+03  0.50400001928E-02 0.  1.
</event>
<event>
 5   0  0.1126958E-04  0.1700736E+04  0.7818609E-02  0.8760945E-01
       -1   -1    0    0    0  501  0.00000000000E+00  0.00000000000E+00  0.14845908209E+04  0.14845908209E+04  0.50400001928E-02 0. -1.
        1   -1    0    0  501    0  0.00000000000E+00  0.00000000000E+00 -0.48708738007E+03  0.48708738010E+03  0.50400001928E-02 0.  1.
    10030    2    1    2    0    0  0.00000000000E+00  0.00000000000E+00  0.99750344083E+03  0.19716782010E+04  0.17007356684E+04 0.  0.
        4    1    3    3  502    0 -0.83314054660E+02 -0.77938658442E+03  0.88104107407E+03  0.11792453802E+04  0.12699999809E+01 0. -1.
       -4    1    3    3    0  502  0.83314054660E+02  0.77938658442E+03  0.11646236675E+03  0.79243282078E+03  0.12699999809E+01 0.  1.
</event>
<event>
 5   0  0.2288806E-04  0.1694516E+04  0.7818609E-02  0.8764498E-01
       -2   -1    0    0    0  501  0.00000000000E+00  0.00000000000E+00  0.87262804868E+03  0.87262804868E+03  0.25500000920E-02 0. -1.
        2   -1    0    0  501    0  0.00000000000E+00  0.00000000000E+00 -0.82262519523E+03  0.82262519523E+03  0.25500000920E-02 0.  1.
    10030    2    1    2    0    0  0.00000000000E+00  0.00000000000E+00  0.50002853449E+02  0.16952532439E+04  0.16945156463E+04 0.  0.
        3    1    3    3  502    0  0.96097010254E+01 -0.27409362480E+03 -0.77698717685E+03  0.82397132517E+03  0.10100000352E+00 0.  1.
       -3    1    3    3    0  502 -0.96097010254E+01  0.27409362480E+03  0.82699003030E+03  0.87128191874E+03  0.10100000352E+00 0. -1.
</event>
<event>
 5   0  0.2242967E-04  0.1699476E+04  0.7818609E-02  0.8761663E-01
        2   -1    0    0  501    0  0.00000000000E+00  0.00000000000E+00  0.10461271586E+04  0.10461271586E+04  0.25500000920E-02 0. -1.
       -2   -1    0    0    0  501  0.00000000000E+00  0.00000000000E+00 -0.69021682550E+03  0.69021682550E+03  0.25500000920E-02 0.  1.
    10030    2    1    2    0    0  0.00000000000E+00  0.00000000000E+00  0.35591033312E+03  0.17363439841E+04  0.16994758798E+04 0.  0.
        4    1    3    3  502    0  0.37814501221E+03 -0.75454053227E+03  0.27872488698E+03  0.88882745267E+03  0.12699999809E+01 0. -1.
       -4    1    3    3    0  502 -0.37814501221E+03  0.75454053227E+03  0.77185446142E+02  0.84751653146E+03  0.12699999809E+01 0.  1.
</event>
<event>
 5   0  0.1126958E-04  0.1703388E+04  0.7818609E-02  0.8759434E-01
       -1   -1    0    0    0  501  0.00000000000E+00  0.00000000000E+00  0.13716654202E+04  0.13716654202E+04  0.50400001928E-02 0.  1.
        1   -1    0    0  501    0  0.00000000000E+00  0.00000000000E+00 -0.52883352946E+03  0.52883352948E+03  0.50400001928E-02 0. -1.
    10030    2    1    2    0    0  0.00000000000E+00  0.00000000000E+00  0.84283189070E+03  0.19004989497E+04  0.17033879950E+04 0.  0.
        4    1    3    3  502    0  0.17518555808E+03  0.13127874647E+03 -0.49690588262E+03  0.54299277906E+03  0.12699999809E+01 0. -1.
       -4    1    3    3    0  502 -0.17518555808E+03 -0.13127874647E+03  0.13397377733E+04  0.13575061706E+04  0.12699999809E+01 0.  1.
</event>
<event>
 5   0  0.1204741E-04  0.1691132E+04  0.7818609E-02  0.8766439E-01
        1   -1    0    0  501    0  0.00000000000E+00  0.00000000000E+00  0.11371807873E+04  0.11371807874E+04  0.50400001928E-02 0. -1.
       -1   -1    0    0    0  501  0.00000000000E+00  0.00000000000E+00 -0.62873162844E+03  0.62873162846E+03  0.50400001928E-02 0.  1.
    10030    2    1    2    0    0  0.00000000000E+00  0.00000000000E+00  0.50844915890E+03  0.17659124158E+04  0.16911316073E+04 0.  0.
        1    1    3    3  502    0 -0.77490713473E+03  0.25834462684E+03  0.48242537744E+03  0.94866077104E+03  0.50400001928E-02 0.  1.
       -1    1    3    3    0  502  0.77490713473E+03 -0.25834462684E+03  0.26023781467E+02  0.81725164479E+03  0.50400001928E-02 0. -1.
</event>
<event>
 5   0  0.2224454E-04  0.1705053E+04  0.7818609E-02  0.8758488E-01
        2   -1    0    0  501    0  0.00000000000E+00  0.00000000000E+00  0.12458083187E+04  0.12458083187E+04  0.25500000920E-02 0. -1.
       -2   -1    0    0    0  501  0.00000000000E+00  0.00000000000E+00 -0.58339725428E+03  0.58339725429E+03  0.25500000920E-02 0.  1.
    10030    2    1    2    0    0  0.00000000000E+00  0.00000000000E+00  0.66241106444E+03  0.18292055730E+04  0.17050526707E+04 0.  0.
        2    1    3    3  502    0 -0.20829998998E+02 -0.66874679423E+03 -0.23560724871E+03  0.70934261067E+03  0.25500000920E-02 0.  1.
       -2    1    3    3    0  502  0.20829998998E+02  0.66874679423E+03  0.89801831315E+03  0.11198629623E+04  0.25500000920E-02 0. -1.
</event>
<event>
 5   0  0.2288806E-04  0.1701745E+04  0.7818609E-02  0.8760370E-01
        2   -1    0    0  501    0  0.00000000000E+00  0.00000000000E+00  0.71071331903E+03  0.71071331903E+03  0.25500000920E-02 0.  1.
       -2   -1    0    0    0  501  0.00000000000E+00  0.00000000000E+00 -0.10186718051E+04  0.10186718051E+04  0.25500000920E-02 0. -1.
    10030    2    1    2    0    0  0.00000000000E+00  0.00000000000E+00 -0.30795848611E+03  0.17293851242E+04  0.17017445397E+04 0.  0.
        3    1    3    3  502    0 -0.83014191638E+03  0.14579079484E+03 -0.35496296472E+02  0.84359383263E+03  0.10100000352E+00 0.  1.
       -3    1    3    3    0  502  0.83014191638E+03 -0.14579079484E+03 -0.27246218964E+03  0.88579129155E+03  0.10100000352E+00 0. -1.
</event>
<event>
 5   0  0.1126958E-04  0.1695769E+04  0.7818609E-02  0.8763781E-01
        1   -1    0    0  501    0  0.00000000000E+00  0.00000000000E+00  0.14806486371E+04  0.14806486371E+04  0.50400001928E-02 0. -1.
       -1   -1    0    0    0  501  0.00000000000E+00  0.00000000000E+00 -0.48553581009E+03  0.48553581012E+03  0.50400001928E-02 0.  1.
    10030    2    1    2    0    0  0.00000000000E+00  0.00000000000E+00  0.99511282701E+03  0.19661844472E+04  0.16957687761E+04 0.  0.
        4    1    3    3  502    0  0.65489547132E+03  0.53750443934E+03  0.45897528180E+03  0.96356578544E+03  0.12699999809E+01 0. -1.
       -4    1    3    3    0  502 -0.65489547132E+03 -0.53750443934E+03  0.53613754521E+03  0.10026186618E+04  0.12699999809E+01 0.  1.
</event>
<event>
 5   0  0.1215233E-04  0.1730558E+04  0.7818609E-02  0.8744125E-01
       -1   -1    0    0    0  501  0.00000000000E+00  0.00000000000E+00  0.56125318801E+03  0.56125318803E+03  0.50400001928E-02 0.  1.
        1   -1    0    0  501    0  0.00000000000E+00  0.00000000000E+00 -0.13339929686E+04  0.13339929686E+04  0.50400001928E-02 0. -1.
    10030    2    1    2    0    0  0.00000000000E+00  0.00000000000E+00 -0.77273978056E+03  0.18952461566E+04  0.17305580677E+04 0.  0.
        2    1    3    3  502    0 -0.35081640502E+03 -0.23435275267E+03 -0.12137191453E+04  0.12849542896E+04  0.25500000920E-02 0. -1.
       -2    1    3    3    0  502  0.35081640502E+03  0.23435275267E+03  0.44097936477E+03  0.61029186696E+03  0.25500000920E-02 0.  1.
</event>
<event>
 5   0  0.1204741E-04  0.1666542E+04  0.7818609E-02  0.8780680E-01
       -1   -1    0    0    0  501  0.00000000000E+00  0.00000000000E+00  0.72086689469E+03  0.72086689471E+03  0.50400001928E-02 0.  1.
        1   -1    0    0  501    0  0.00000000000E+00  0.00000000000E+00 -0.96320191232E+03  0.96320191233E+03  0.50400001928E-02 0. -1.
    10030    2    1    2    0    0  0.00000000000E+00  0.00000000000E+00 -0.24233501763E+03  0.16840688070E+04  0.16665417745E+04 0.  0.
        1    1    3    3  502    0  0.48426602740E+01  0.18509484537E+03  0.69981572533E+03  0.72389612693E+03  0.50400001928E-02 0.  1.
       -1    1    3    3    0  502 -0.48426602740E+01 -0.18509484537E+03 -0.94215074296E+03  0.96017268011E+03  0.50400001928E-02 0. -1.
</event>
<event>
 5   0  0.2224454E-04  0.1732555E+04  0.7818609E-02  0.8743012E-01
        2   -1    0    0  501    0  0.00000000000E+00  0.00000000000E+00  0.21915854273E+04  0.21915854273E+04  0.25500000920E-02 0.  1.
       -2   -1    0    0    0  501  0.00000000000E+00  0.00000000000E+00 -0.34241710969E+03  0.34241710970E+03  0.25500000920E-02 0. -1.
    10030    2    1    2    0    0  0.00000000000E+00  0.00000000000E+00  0.18491683176E+04  0.25340025370E+04  0.17325545852E+04 0.  0.
        2    1    3    3  502    0 -0.75620472222E+03 -0.34514064849E+03  0.56791600305E+03  0.10067255017E+04  0.25500000920E-02 0.  1.
       -2    1    3    3    0  502  0.75620472222E+03  0.34514064849E+03  0.12812523146E+04  0.15272770354E+04  0.25500000920E-02 0. -1.
</event>
<event>
 5   0  0.1234158E-04  0.1689367E+04  0.7818609E-02  0.8767452E-01
       -1   -1    0    0    0  501  0.00000000000E+00  0.00000000000E+00  0.76902871015E+03  0.76902871016E+03  0.50400001928E-02 0.  1.
        1   -1    0    0  501    0  0.00000000000E+00  0.00000000000E+00 -0.92778061093E+03  0.92778061094E+03  0.50400001928E-02 0. -1.
    10030    2    1    2    0    0  0.00000000000E+00  0.00000000000E+00 -0.15875190078E+03  0.16968093211E+04  0.16893666583E+04 0.  0.
        5    1    3    3  502    0 -0.19802897297E+03  0.68061196796E+03  0.38201666048E+03  0.80523719732E+03  0.46999998093E+01 0. -1.
       -5    1    3    3    0  502  0.19802897297E+03 -0.68061196796E+03 -0.54076856126E+03  0.89157212378E+03  0.46999998093E+01 0.  1.
</event>
<event>
 5   0  0.1186302E-04  0.1713904E+04  0.7818609E-02  0.8753474E-01
        1   -1    0    0  501    0  0.00000000000E+00  0.00000000000E+00  0.22876430837E+04  0.22876430837E+04  0.50400001928E-02 0.  1.
       -1   -1    0    0    0  501  0.00000000000E+00  0.00000000000E+00 -0.32101471049E+03  0.32101471053E+03  0.50400001928E-02 0. -1.
    10030    2    1    2    0    0  0.00000000000E+00  0.00000000000E+00  0.19666283732E+04  0.26086577942E+04  0.17139044107E+04 0.  0.
        3    1    3    3  502    0 -0.26353695092E+03  0.31097650073E+03  0.21306341637E+04  0.21692763904E+04  0.10100000352E+00 0.  1.
       -3    1    3    3    0  502  0.26353695092E+03 -0.31097650073E+03 -0.16400579045E+03  0.43938140380E+03  0.10100000352E+00 0. -1.
</event>
<event>
 5   0  0.2288806E-04  0.1699659E+04  0.7818609E-02  0.8761559E-01
        2   -1    0    0  501    0  0.00000000000E+00  0.00000000000E+00  0.11805206600E+04  0.11805206600E+04  0.25500000920E-02 0. -1.
       -2   -1    0    0    0  501  0.00000000000E+00  0.00000000000E+00 -0.61177255794E+03  0.61177255794E+03  0.25500000920E-02 0.  1.
    10030    2    1    2    0    0  0.00000000000E+00  0.00000000000E+00  0.56874810206E+03  0.17922932179E+04  0.16996589586E+04 0.  0.
        3    1    3    3  502    0  0.21903624421E+02 -0.83944020797E+03  0.14659905030E+03  0.85242649142E+03  0.10100000352E+00 0. -1.
       -3    1    3    3    0  502 -0.21903624421E+02  0.83944020797E+03  0.42214905176E+03  0.93986672652E+03  0.10100000352E+00 0.  1.
</event>
<event>
 5   0  0.2288806E-04  0.1699246E+04  0.7818609E-02  0.8761795E-01
        2   -1    0    0  501    0  0.00000000000E+00  0.00000000000E+00  0.24353305148E+04  0.24353305148E+04  0.25500000920E-02 0.  1.
       -2   -1    0    0    0  501  0.00000000000E+00  0.00000000000E+00 -0.29641107097E+03  0.29641107098E+03  0.25500000920E-02 0. -1.
    10030    2    1    2    0    0  0.00000000000E+00  0.00000000000E+00  0.21389194438E+04  0.27317415858E+04  0.16992456280E+04 0.  0.
        3    1    3    3  502    0 -0.72727613025E+03  0.40209620316E+03  0.13536358186E+04  0.15883771170E+04  0.10100000352E+00 0. -1.
       -3    1    3    3    0  502  0.72727613025E+03 -0.40209620316E+03  0.78528362527E+03  0.11433644688E+04  0.10100000352E+00 0.  1.
</event>
<event>
 5   0  0.1204741E-04  0.1668881E+04  0.7818609E-02  0.8779314E-01
        1   -1    0    0  501    0  0.00000000000E+00  0.00000000000E+00  0.19470841164E+04  0.19470841164E+04  0.50400001928E-02 0.  1.
       -1   -1    0    0    0  501  0.00000000000E+00  0.00000000000E+00 -0.35760694564E+03  0.35760694568E+03  0.50400001928E-02 0. -1.
    10030    2    1    2    0    0  0.00000000000E+00  0.00000000000E+00  0.15894771708E+04  0.23046910621E+04  0.16688808272E+04 0.  0.
        1    1    3    3  502    0 -0.28659842715E+03 -0.20777445585E+03 -0.24877611349E+03  0.43266434752E+03  0.50400001928E-02 0. -1.
       -1    1    3    3    0  502  0.28659842715E+03  0.20777445585E+03  0.18382532843E+04  0.18720267146E+04  0.50400001928E-02 0.  1.
</event>
<event>
 5   0  0.2234723E-04  0.1701369E+04  0.7818609E-02  0.8760584E-01
        2   -1    0    0  501    0  0.00000000000E+00  0.00000000000E+00  0.83882773342E+03  0.83882773343E+03  0.25500000920E-02 0. -1.
       -2   -1    0    0    0  501  0.00000000000E+00  0.00000000000E+00 -0.86270853730E+03  0.86270853730E+03  0.25500000920E-02 0.  1.
    10030    2    1    2    0    0  0.00000000000E+00  0.00000000000E+00 -0.23880803878E+02  0.17015362707E+04  0.17013686807E+04 0.  0.
        1    1    3    3  502    0 -0.60051772696E+03 -0.35250106667E+03 -0.50064516865E+03  0.85762703276E+03  0.50400001928E-02 0.  1.
       -1    1    3    3    0  502  0.60051772696E+03  0.35250106667E+03  0.47676436478E+03  0.84390923797E+03  0.50400001928E-02 0. -1.
</event>
<event>
 5   0  0.1215233E-04  0.1700600E+04  0.7818609E-02  0.8761023E-01
        1   -1    0    0  501    0  0.00000000000E+00  0.00000000000E+00  0.15275229383E+04  0.15275229383E+04  0.50400001928E-02 0.  1.
       -1   -1    0    0    0  501  0.00000000000E+00  0.00000000000E+00 -0.47332164638E+03  0.47332164641E+03  0.50400001928E-02 0. -1.
    10030    2    1    2    0    0  0.00000000000E+00  0.00000000000E+00  0.10542012919E+04  0.20008445847E+04  0.17005995085E+04 0.  0.
        2    1    3    3  502    0 -0.55249321939E+03  0.22949001101E+03 -0.18380898526E+03  0.62585954151E+03  0.25500000920E-02 0. -1.
       -2    1    3    3    0  502  0.55249321939E+03 -0.22949001101E+03  0.12380102772E+04  0.13749850432E+04  0.25500000920E-02 0.  1.
</event>
<event>
 5   0  0.1204741E-04  0.1704175E+04  0.7818609E-02  0.8758987E-01
       -1   -1    0    0    0  501  0.00000000000E+00  0.00000000000E+00  0.61855329258E+03  0.61855329261E+03  0.50400001928E-02 0.  1.
        1   -1    0    0  501    0  0.00000000000E+00  0.00000000000E+00 -0.11737922089E+04  0.11737922089E+04  0.50400001928E-02 0. -1.
    10030    2    1    2    0    0  0.00000000000E+00  0.00000000000E+00 -0.55523891633E+03  0.17923455015E+04  0.17041749155E+04 0.  0.
        1    1    3    3  502    0  0.18126501868E+03 -0.51355638492E+03  0.41161476294E+03  0.68265941771E+03  0.50400001928E-02 0.  1.
       -1    1    3    3    0  502 -0.18126501868E+03  0.51355638492E+03 -0.96685367926E+03  0.11096860838E+04  0.50400001928E-02 0. -1.
</event>
<event>
 5   0  0.8372750E-05  0.1703033E+04  0.7818609E-02  0.8759637E-01
       -4   -1    0    0    0  501  0.00000000000E+00  0.00000000000E+00  0.94402454101E+03  0.94402539528E+03  0.12699999809E+01 0. -1.
        4   -1    0    0  501    0  0.00000000000E+00  0.00000000000E+00 -0.76807169796E+03  0.76807274792E+03  0.12699999809E+01 0.  1.
    10030    2    1    2    0    0  0.00000000000E+00  0.00000000000E+00  0.17595284305E+03  0.17120981432E+04  0.17030327798E+04 0.  0.
        4    1    3    3  502    0 -0.84369760503E+03  0.35525921254E+02 -0.22109023210E+02  0.84473555721E+03  0.12699999809E+01 0.  1.
       -4    1    3    3    0  502  0.84369760503E+03 -0.35525921254E+02  0.19806186626E+03  0.86736258599E+03  0.12699999809E+01 0. -1.
</event>
<event>
 5   0  0.2234723E-04  0.1675045E+04  0.7818609E-02  0.8775727E-01
       -2   -1    0    0    0  501  0.00000000000E+00  0.00000000000E+00  0.57542762951E+03  0.57542762952E+03  0.25500000920E-02 0. -1.
        2   -1    0    0  501    0  0.00000000000E+00  0.00000000000E+00 -0.12189957992E+04  0.12189957992E+04  0.25500000920E-02 0.  1.
    10030    2    1    2    0    0  0.00000000000E+00  0.00000000000E+00 -0.64356816973E+03  0.17944234288E+04  0.16750449106E+04 0.  0.
        1    1    3    3  502    0 -0.57929157761E+03  0.32134229845E+03  0.22718685768E+03  0.70032383437E+03  0.50400001928E-02 0. -1.
       -1    1    3    3    0  502  0.57929157761E+03 -0.32134229845E+03 -0.87075502741E+03  0.10940995944E+04  0.50400001928E-02 0.  1.
</event>
<event>
 5   0  0.1215233E-04  0.1697697E+04  0.7818609E-02  0.8762679E-01
       -1   -1    0    0    0  501  0.00000000000E+00  0.00000000000E+00  0.65769334874E+03  0.65769334876E+03  0.50400001928E-02 0.  1.
        1   -1    0    0  501    0  0.00000000000E+00  0.00000000000E+00 -0.10955619112E+04  0.10955619113E+04  0.50400001928E-02 0. -1.
    10030    2    1    2    0    0  0.00000000000E+00  0.00000000000E+00 -0.43786856251E+03  0.17532552600E+04  0.16976970073E+04 0.  0.
        2    1    3    3  502    0 -0.61386160306E+03  0.25423100861E+03 -0.76450703985E+03  0.10128822673E+04  0.25500000920E-02 0. -1.
       -2    1    3    3    0  502  0.61386160306E+03 -0.25423100861E+03  0.32663847734E+03  0.74037299271E+03  0.25500000920E-02 0.  1.
</event>
<event>
 5   0  0.1215233E-04  0.1700985E+04  0.7818609E-02  0.8760803E-01
        1   -1    0    0  501    0  0.00000000000E+00  0.00000000000E+00  0.12952436097E+04  0.12952436097E+04  0.50400001928E-02 0. -1.
       -1   -1    0    0    0  501  0.00000000000E+00  0.00000000000E+00 -0.55845681622E+03  0.55845681624E+03  0.50400001928E-02 0.  1.
    10030    2    1    2    0    0  0.00000000000E+00  0.00000000000E+00  0.73678679350E+03  0.18537004260E+04  0.17009851528E+04 0.  0.
        2    1    3    3  502    0  0.68168391181E+03 -0.43491470664E+02  0.92059406090E+03  0.11463323639E+04  0.25500000920E-02 0. -1.
       -2    1    3    3    0  502 -0.68168391181E+03  0.43491470664E+02 -0.18380726740E+03  0.70736806204E+03  0.25500000920E-02 0.  1.
</event>
<event>
 5   0  0.2224454E-04  0.1693006E+04  0.7818609E-02  0.8765363E-01
       -2   -1    0    0    0  501  0.00000000000E+00  0.00000000000E+00  0.37242005302E+03  0.37242005303E+03  0.25500000920E-02 0. -1.
        2   -1    0    0  501    0  0.00000000000E+00  0.00000000000E+00 -0.19240843180E+04  0.19240843180E+04  0.25500000920E-02 0.  1.
    10030    2    1    2    0    0  0.00000000000E+00  0.00000000000E+00 -0.15516642649E+04  0.22965043710E+04  0.16930063009E+04 0.  0.
        2    1    3    3  502    0 -0.22940209931E+03  0.47563417409E+03 -0.16732694315E+04  0.17546178448E+04  0.25500000920E-02 0.  1.
       -2    1    3    3    0  502  0.22940209931E+03 -0.47563417409E+03  0.12160516660E+03  0.54188652620E+03  0.25500000920E-02 0. -1.
</event>
<event>
 5   0  0.1186302E-04  0.1676196E+04  0.7818609E-02  0.8775058E-01
        1   -1    0    0  501    0  0.00000000000E+00  0.00000000000E+00  0.11447391059E+04  0.11447391059E+04  0.50400001928E-02 0.  1.
       -1   -1    0    0    0  501  0.00000000000E+00  0.00000000000E+00 -0.61359695107E+03  0.61359695110E+03  0.50400001928E-02 0. -1.
    10030    2    1    2    0    0  0.00000000000E+00  0.00000000000E+00  0.53114215481E+03  0.17583360570E+04  0.16761961999E+04 0.  0.
        3    1    3    3  502    0 -0.55888556983E+02 -0.25773866526E+03  0.11000768902E+04  0.11312479502E+04  0.10100000352E+00 0.  1.
       -3    1    3    3    0  502  0.55888556983E+02  0.25773866526E+03 -0.56893473536E+03  0.62708810678E+03  0.10100000352E+00 0. -1.
</event>
<event>
 5   0  0.2356829E-04  0.1707113E+04  0.7818609E-02  0.8757318E-01
        2   -1    0    0  501    0  0.00000000000E+00  0.00000000000E+00  0.40790440871E+03  0.40790440872E+03  0.25500000920E-02 0.  1.
       -2   -1    0    0    0  501  0.00000000000E+00  0.00000000000E+00 -0.17861013572E+04  0.17861013572E+04  0.25500000920E-02 0. -1.
    10030    2    1    2    0    0  0.00000000000E+00  0.00000000000E+00 -0.13781969485E+04  0.21940057659E+04  0.17071129055E+04 0.  0.
        5    1    3    3  502    0 -0.43802168992E+03 -0.39447424900E+03 -0.14824656872E+04  0.15953681512E+04  0.46999998093E+01 0. -1.
       -5    1    3    3    0  502  0.43802168992E+03  0.39447424900E+03  0.10426873870E+03  0.59863761478E+03  0.46999998093E+01 0.  1.
</event>
<event>
 5   0  0.1186302E-04  0.1724917E+04  0.7818609E-02  0.8747279E-01
        1   -1    0    0  501    0  0.00000000000E+00  0.00000000000E+00  0.11510857919E+04  0.11510857919E+04  0.50400001928E-02 0. -1.
       -1   -1    0    0    0  501  0.00000000000E+00  0.00000000000E+00 -0.64620285494E+03  0.64620285495E+03  0.50400001928E-02 0.  1.
    10030    2    1    2    0    0  0.00000000000E+00  0.00000000000E+00  0.50488293696E+03  0.17972886469E+04  0.17249173024E+04 0.  0.
        3    1    3    3  502    0 -0.14058743677E+03 -0.11483465892E+03 -0.62607244451E+03  0.65185776228E+03  0.10100000352E+00 0.  1.
       -3    1    3    3    0  502  0.14058743677E+03  0.11483465892E+03  0.11309553815E+04  0.11454308846E+04  0.10100000352E+00 0. -1.
</event>
<event>
 5   0  0.2224454E-04  0.1710398E+04  0.7818609E-02  0.8755456E-01
        2   -1    0    0  501    0  0.00000000000E+00  0.00000000000E+00  0.55049372384E+03  0.55049372384E+03  0.25500000920E-02 0.  1.
       -2   -1    0    0    0  501  0.00000000000E+00  0.00000000000E+00 -0.13285632383E+04  0.13285632383E+04  0.25500000920E-02 0. -1.
    10030    2    1    2    0    0  0.00000000000E+00  0.00000000000E+00 -0.77806951444E+03  0.18790569621E+04  0.17103984616E+04 0.  0.
        2    1    3    3  502    0  0.75929699336E+03  0.25439628073E+03 -0.59239502121E+02  0.80296868582E+03  0.25500000920E-02 0.  1.
       -2    1    3    3    0  502 -0.75929699336E+03 -0.25439628073E+03 -0.71883001232E+03  0.10760882763E+04  0.25500000920E-02 0. -1.
</event>
<event>
 5   0  0.2224454E-04  0.1743284E+04  0.7818609E-02  0.8737056E-01
       -2   -1    0    0    0  501  0.00000000000E+00  0.00000000000E+00  0.49035904184E+03  0.49035904185E+03  0.25500000920E-02 0.  1.
        2   -1    0    0  501    0  0.00000000000E+00  0.00000000000E+00 -0.15493952402E+04  0.15493952402E+04  0.25500000920E-02 0. -1.
    10030    2    1    2    0    0  0.00000000000E+00  0.00000000000E+00 -0.10590361984E+04  0.20397542821E+04  0.17432842172E+04 0.  0.
        2    1    3    3  502    0 -0.45553996211E+03 -0.35050300349E+02  0.33902481435E+03  0.56893145931E+03  0.25500000920E-02 0.  1.
       -2    1    3    3    0  502  0.45553996211E+03  0.35050300349E+02 -0.13980610127E+04  0.14708228228E+04  0.25500000920E-02 0. -1.
</event>
<event>
 5   0  0.1204741E-04  0.1687852E+04  0.7818609E-02  0.8768323E-01
        1   -1    0    0  501    0  0.00000000000E+00  0.00000000000E+00  0.42404687083E+03  0.42404687086E+03  0.50400001928E-02 0. -1.
       -1   -1    0    0    0  501  0.00000000000E+00  0.00000000000E+00 -0.16795578474E+04  0.16795578474E+04  0.50400001928E-02 0.  1.
    10030    2    1    2    0    0  0.00000000000E+00  0.00000000000E+00 -0.12555109765E+04  0.21036047182E+04  0.16878521850E+04 0.  0.
        1    1    3    3  502    0  0.22954734511E+03 -0.16477390254E+03 -0.16188497290E+04  0.16433249428E+04  0.50400001928E-02 0.  1.
       -1    1    3    3    0  502 -0.22954734511E+03  0.16477390254E+03  0.36333875245E+03  0.46027977542E+03  0.50400001928E-02 0. -1.
</event>
<event>
 5   0  0.2288806E-04  0.1692372E+04  0.7818609E-02  0.8765727E-01
        2   -1    0    0  501    0  0.00000000000E+00  0.00000000000E+00  0.13734815209E+04  0.13734815209E+04  0.25500000920E-02 0.  1.
       -2   -1    0    0    0  501  0.00000000000E+00  0.00000000000E+00 -0.52132522807E+03  0.52132522808E+03  0.25500000920E-02 0. -1.
    10030    2    1    2    0    0  0.00000000000E+00  0.00000000000E+00  0.85215629282E+03  0.18948067490E+04  0.16923717879E+04 0.  0.
        3    1    3    3  502    0 -0.44288362709E+03 -0.47342045787E+02  0.12316132639E+04  0.13096787463E+04  0.10100000352E+00 0.  1.
       -3    1    3    3    0  502  0.44288362709E+03  0.47342045787E+02 -0.37945697108E+03  0.58512800270E+03  0.10100000352E+00 0. -1.
</event>
<event>
 5   0  0.2224454E-04  0.1711163E+04  0.7818609E-02  0.8755023E-01
        2   -1    0    0  501    0  0.00000000000E+00  0.00000000000E+00  0.11332098482E+04  0.11332098482E+04  0.25500000920E-02 0.  1.
       -2   -1    0    0    0  501  0.00000000000E+00  0.00000000000E+00 -0.64596976732E+03  0.64596976733E+03  0.25500000920E-02 0. -1.
    10030    2    1    2    0    0  0.00000000000E+00  0.00000000000E+00  0.48724008092E+03  0.17791796156E+04  0.17111625312E+04 0.  0.
        2    1    3    3  502    0  0.21795865283E+03 -0.62311721349E+03 -0.32229222976E+03  0.73461099737E+03  0.25500000920E-02 0. -1.
       -2    1    3    3    0  502 -0.21795865283E+03  0.62311721349E+03  0.80953231068E+03  0.10445686182E+04  0.25500000920E-02 0.  1.
</event>
<event>
 5   0  0.1186302E-04  0.1696036E+04  0.7818609E-02  0.8763628E-01
       -1   -1    0    0    0  501  0.00000000000E+00  0.00000000000E+00  0.59737998258E+03  0.59737998260E+03  0.50400001928E-02 0.  1.
        1   -1    0    0  501    0  0.00000000000E+00  0.00000000000E+00 -0.12038140849E+04  0.12038140850E+04  0.50400001928E-02 0. -1.
    10030    2    1    2    0    0  0.00000000000E+00  0.00000000000E+00 -0.60643410236E+03  0.18011940676E+04  0.16960358925E+04 0.  0.
        3    1    3    3  502    0  0.65300889555E+03 -0.36147722849E+03  0.12429399136E+03  0.75666069732E+03  0.10100000352E+00 0. -1.
       -3    1    3    3    0  502 -0.65300889555E+03  0.36147722849E+03 -0.73072809372E+03  0.10445333702E+04  0.10100000352E+00 0.  1.
</event>
<event>
 5   0  0.1186302E-04  0.1701458E+04  0.7818609E-02  0.8760533E-01
       -1   -1    0    0    0  501  0.00000000000E+00  0.00000000000E+00  0.94229203182E+03  0.94229203183E+03  0.50400001928E-02 0. -1.
        1   -1    0    0  501    0  0.00000000000E+00  0.00000000000E+00 -0.76806362394E+03  0.76806362396E+03  0.50400001928E-02 0.  1.
    10030    2    1    2    0    0  0.00000000000E+00  0.00000000000E+00  0.17422840788E+03  0.17103556558E+04  0.17014584718E+04 0.  0.
        3    1    3    3  502    0 -0.69396285084E+03  0.47750302314E+03 -0.32447428293E+02  0.84299847049E+03  0.10100000352E+00 0.  1.
       -3    1    3    3    0  502  0.69396285084E+03 -0.47750302314E+03  0.20667583617E+03  0.86735718531E+03  0.10100000352E+00 0. -1.
</event>
<event>
 5   0  0.1126958E-04  0.1709267E+04  0.7818609E-02  0.8756096E-01
       -1   -1    0    0    0  501  0.00000000000E+00  0.00000000000E+00  0.56679873341E+03  0.56679873343E+03  0.50400001928E-02 0. -1.
        1   -1    0    0  501    0  0.00000000000E+00  0.00000000000E+00 -0.12886386391E+04  0.12886386391E+04  0.50400001928E-02 0.  1.
    10030    2    1    2    0    0  0.00000000000E+00  0.00000000000E+00 -0.72183990566E+03  0.18554373725E+04  0.17092673851E+04 0.  0.
        4    1    3    3  502    0 -0.94835765292E+01  0.26010479955E+03 -0.12445679084E+04  0.12714933489E+04  0.12699999809E+01 0.  1.
       -4    1    3    3    0  502  0.94835765292E+01 -0.26010479955E+03  0.52272800270E+03  0.58394402358E+03  0.12699999809E+01 0. -1.
</event>
<event>
 5   0  0.2288806E-04  0.1690028E+04  0.7818609E-02  0.8767072E-01
       -2   -1    0    0    0  501  0.00000000000E+00  0.00000000000E+00  0.74468988324E+03  0.74468988324E+03  0.25500000920E-02 0.  1.
        2   -1    0    0  501    0  0.00000000000E+00  0.00000000000E+00 -0.95885366225E+03  0.95885366225E+03  0.25500000920E-02 0. -1.
    10030    2    1    2    0    0  0.00000000000E+00  0.00000000000E+00 -0.21416377901E+03  0.17035435455E+04  0.16900279546E+04 0.  0.
        3    1    3    3  502    0 -0.17061609045E+03  0.43273051841E+03  0.60402646375E+03  0.76237361640E+03  0.10100000352E+00 0.  1.
       -3    1    3    3    0  502  0.17061609045E+03 -0.43273051841E+03 -0.81819024276E+03  0.94116992909E+03  0.10100000352E+00 0. -1.
</event>
<event>
 5   0  0.2224454E-04  0.1719200E+04  0.7818609E-02  0.8750489E-01
       -2   -1    0    0    0  501  0.00000000000E+00  0.00000000000E+00  0.34205025166E+03  0.34205025167E+03  0.25500000920E-02 0. -1.
        2   -1    0    0  501    0  0.00000000000E+00  0.00000000000E+00 -0.21602453838E+04  0.21602453838E+04  0.25500000920E-02 0.  1.
    10030    2    1    2    0    0  0.00000000000E+00  0.00000000000E+00 -0.18181951321E+04  0.25022956355E+04  0.17192003690E+04 0.  0.
        2    1    3    3  502    0 -0.55524419540E+03 -0.19897627803E+03  0.10551612349E+01  0.58982098056E+03  0.25500000920E-02 0. -1.
       -2    1    3    3    0  502  0.55524419540E+03  0.19897627803E+03 -0.18192502934E+04  0.19124746549E+04  0.25500000920E-02 0.  1.
</event>
<event>
 5   0  0.2242967E-04  0.1716945E+04  0.7818609E-02  0.8751758E-01
        2   -1    0    0  501    0  0.00000000000E+00  0.00000000000E+00  0.64569129024E+03  0.64569129025E+03  0.25500000920E-02 0.  1.
       -2   -1    0    0    0  501  0.00000000000E+00  0.00000000000E+00 -0.11413742001E+04  0.11413742002E+04  0.25500000920E-02 0. -1.
    10030    2    1    2    0    0  0.00000000000E+00  0.00000000000E+00 -0.49568290990E+03  0.17870654904E+04  0.17169454039E+04 0.  0.
        4    1    3    3  502    0 -0.15686990870E+03  0.83954590005E+03 -0.33815063080E+03  0.91858203148E+03  0.12699999809E+01 0. -1.
       -4    1    3    3    0  502  0.15686990870E+03 -0.83954590005E+03 -0.15753227911E+03  0.86848345892E+03  0.12699999809E+01 0.  1.
</event>
<event>
 5   0  0.1215233E-04  0.1699398E+04  0.7818609E-02  0.8761708E-01
       -1   -1    0    0    0  501  0.00000000000E+00  0.00000000000E+00  0.76448164986E+03  0.76448164987E+03  0.50400001928E-02 0.  1.
        1   -1    0    0  501    0  0.00000000000E+00  0.00000000000E+00 -0.94441594942E+03  0.94441594943E+03  0.50400001928E-02 0. -1.
    10030    2    1    2    0    0  0.00000000000E+00  0.00000000000E+00 -0.17993429956E+03  0.17088975993E+04  0.16993983208E+04 0.  0.
        2    1    3    3  502    0 -0.64943654535E+03  0.53311527851E+03 -0.21720083221E+03  0.86784556698E+03  0.25500000920E-02 0. -1.
       -2    1    3    3    0  502  0.64943654535E+03 -0.53311527851E+03  0.37266532650E+02  0.84105203232E+03  0.25500000920E-02 0.  1.
</event>
<event>
 5   0  0.8372750E-05  0.1699430E+04  0.7818609E-02  0.8761690E-01
       -3   -1    0    0    0  501  0.00000000000E+00  0.00000000000E+00  0.78264858597E+03  0.78264859249E+03  0.10100000352E+00 0.  1.
        3   -1    0    0  501    0  0.00000000000E+00  0.00000000000E+00 -0.92252816984E+03  0.92252817537E+03  0.10100000352E+00 0. -1.
    10030    2    1    2    0    0  0.00000000000E+00  0.00000000000E+00 -0.13987958387E+03  0.17051767679E+04  0.16994297607E+04 0.  0.
        3    1    3    3  502    0 -0.14387572020E+03 -0.53948430143E+03 -0.71263052608E+03  0.90530978745E+03  0.10100000352E+00 0. -1.
       -3    1    3    3    0  502  0.14387572020E+03  0.53948430143E+03  0.57275094221E+03  0.79986698041E+03  0.10100000352E+00 0.  1.
</event>
<event>
 5   0  0.2234723E-04  0.1698379E+04  0.7818609E-02  0.8762290E-01
       -2   -1    0    0    0  501  0.00000000000E+00  0.00000000000E+00  0.39174880144E+03  0.39174880144E+03  0.25500000920E-02 0.  1.
        2   -1    0    0  501    0  0.00000000000E+00  0.00000000000E+00 -0.18407779192E+04  0.18407779192E+04  0.25500000920E-02 0. -1.
    10030    2    1    2    0    0  0.00000000000E+00  0.00000000000E+00 -0.14490291177E+04  0.22325267206E+04  0.16983786899E+04 0.  0.
        1    1    3    3  502    0  0.72260035805E+03 -0.30796664469E+03 -0.11486899849E+04  0.13915758740E+04  0.50400001928E-02 0. -1.
       -1    1    3    3    0  502 -0.72260035805E+03  0.30796664469E+03 -0.30033913287E+03  0.84095084663E+03  0.50400001928E-02 0.  1.
</event>
<event>
 5   0  0.2224454E-04  0.1698512E+04  0.7818609E-02  0.8762213E-01
       -2   -1    0    0    0  501  0.00000000000E+00  0.00000000000E+00  0.32843443621E+03  0.32843443622E+03  0.25500000920E-02 0.  1.
        2   -1    0    0  501    0  0.00000000000E+00  0.00000000000E+00 -0.21959808094E+04  0.21959808094E+04  0.25500000920E-02 0. -1.
    10030    2    1    2    0    0  0.00000000000E+00  0.00000000000E+00 -0.18675463732E+04  0.25244152456E+04  0.16985119594E+04 0.  0.
        2    1    3    3  502    0 -0.60551872353E+02  0.40172860055E+03  0.17463867779E+03  0.44221156196E+03  0.25500000920E-02 0.  1.
       -2    1    3    3    0  502  0.60551872353E+02 -0.40172860055E+03 -0.20421850510E+04  0.20822036836E+04  0.25500000920E-02 0. -1.
</event>
<event>
 5   0  0.1204741E-04  0.1716591E+04  0.7818609E-02  0.8751958E-01
       -1   -1    0    0    0  501  0.00000000000E+00  0.00000000000E+00  0.64921362387E+03  0.64921362388E+03  0.50400001928E-02 0. -1.
        1   -1    0    0  501    0  0.00000000000E+00  0.00000000000E+00 -0.11347135910E+04  0.11347135910E+04  0.50400001928E-02 0.  1.
    10030    2    1    2    0    0  0.00000000000E+00  0.00000000000E+00 -0.48549996709E+03  0.17839272149E+04  0.17165914161E+04 0.  0.
        1    1    3    3  502    0 -0.60285970741E+03  0.51774295324E+03  0.94276668071E+02  0.80024101532E+03  0.50400001928E-02 0. -1.
       -1    1    3    3    0  502  0.60285970741E+03 -0.51774295324E+03 -0.57977663517E+03  0.98368619953E+03  0.50400001928E-02 0.  1.
</event>
<event>
 5   0  0.1186302E-04  0.1694123E+04  0.7818609E-02  0.8764723E-01
       -1   -1    0    0    0  501  0.00000000000E+00  0.00000000000E+00  0.10078038357E+04  0.10078038357E+04  0.50400001928E-02 0. -1.
        1   -1    0    0  501    0  0.00000000000E+00  0.00000000000E+00 -0.71195711896E+03  0.71195711898E+03  0.50400001928E-02 0.  1.
    10030    2    1    2    0    0  0.00000000000E+00  0.00000000000E+00  0.29584671675E+03  0.17197609547E+04  0.16941229181E+04 0.  0.
        3    1    3    3  502    0 -0.34960705742E+03  0.82269861096E+02 -0.63083668779E+03  0.72591208938E+03  0.10100000352E+00 0.  1.
       -3    1    3    3    0  502  0.34960705742E+03 -0.82269861096E+02  0.92668340454E+03  0.99384886532E+03  0.10100000352E+00 0. -1.
</event>
<event>
 5   0  0.1126958E-04  0.1704286E+04  0.7818609E-02  0.8758924E-01
       -1   -1    0    0    0  501  0.00000000000E+00  0.00000000000E+00  0.82193045533E+03  0.82193045534E+03  0.50400001928E-02 0. -1.
        1   -1    0    0  501    0  0.00000000000E+00  0.00000000000E+00 -0.88346565075E+03  0.88346565076E+03  0.50400001928E-02 0.  1.
    10030    2    1    2    0    0  0.00000000000E+00  0.00000000000E+00 -0.61535195422E+02  0.17053961061E+04  0.17042855683E+04 0.  0.
        4    1    3    3  502    0 -0.33235030131E+03 -0.51989774426E+03 -0.61885398638E+03  0.87391776308E+03  0.12699999809E+01 0.  1.
       -4    1    3    3    0  502  0.33235030131E+03  0.51989774426E+03  0.55731879096E+03  0.83147834303E+03  0.12699999809E+01 0. -1.
</event>
<event>
 5   0  0.1204741E-04  0.1705626E+04  0.7818609E-02  0.8758162E-01
        1   -1    0    0  501    0  0.00000000000E+00  0.00000000000E+00  0.11502201063E+04  0.11502201063E+04  0.50400001928E-02 0.  1.
       -1   -1    0    0    0  501  0.00000000000E+00  0.00000000000E+00 -0.63230507992E+03  0.63230507994E+03  0.50400001928E-02 0. -1.
    10030    2    1    2    0    0  0.00000000000E+00  0.00000000000E+00  0.51791502635E+03  0.17825251862E+04  0.17056260038E+04 0.  0.
        1    1    3    3  502    0  0.28768706655E+03  0.41176031662E+03 -0.46130257430E+03  0.68199008181E+03  0.50400001928E-02 0. -1.
       -1    1    3    3    0  502 -0.28768706655E+03 -0.41176031662E+03  0.97921760065E+03  0.11005351044E+04  0.50400001928E-02 0.  1.
</event>
<event>
 5   0  0.2288806E-04  0.1700417E+04  0.7818609E-02  0.8761127E-01
       -2   -1    0    0    0  501  0.00000000000E+00  0.00000000000E+00  0.81684573296E+03  0.81684573296E+03  0.25500000920E-02 0. -1.
        2   -1    0    0  501    0  0.00000000000E+00  0.00000000000E+00 -0.88493356011E+03  0.88493356011E+03  0.25500000920E-02 0.  1.
    10030    2    1    2    0    0  0.00000000000E+00  0.00000000000E+00 -0.68087827152E+02  0.17017792931E+04  0.17004166578E+04 0.  0.
        3    1    3    3  502    0 -0.71419865981E+03  0.23600914127E+03  0.36259949894E+03  0.83502002806E+03  0.10100000352E+00 0.  1.
       -3    1    3    3    0  502  0.71419865981E+03 -0.23600914127E+03 -0.43068732609E+03  0.86675926501E+03  0.10100000352E+00 0. -1.
</event>
<event>
 5   0  0.1215233E-04  0.1576465E+04  0.7818609E-02  0.8835138E-01
       -1   -1    0    0    0  501  0.00000000000E+00  0.00000000000E+00  0.35886076924E+03  0.35886076927E+03  0.50400001928E-02 0.  1.
        1   -1    0    0  501    0  0.00000000000E+00  0.00000000000E+00 -0.17313411672E+04  0.17313411672E+04  0.50400001928E-02 0. -1.
    10030    2    1    2    0    0  0.00000000000E+00  0.00000000000E+00 -0.13724803979E+04  0.20902019365E+04  0.15764649354E+04 0.  0.
        2    1    3    3  502    0 -0.30387048201E+03 -0.12813187268E+03 -0.16354764755E+04  0.16683939429E+04  0.25500000920E-02 0. -1.
       -2    1    3    3    0  502  0.30387048201E+03  0.12813187268E+03  0.26299607757E+03  0.42180799359E+03  0.25500000920E-02 0.  1.
</event>
<event>
 5   0  0.2234723E-04  0.1553700E+04  0.7818609E-02  0.8849508E-01
        2   -1    0    0  501    0  0.00000000000E+00  0.00000000000E+00  0.96646015859E+03  0.96646015860E+03  0.25500000920E-02 0. -1.
       -2   -1    0    0    0  501  0.00000000000E+00  0.00000000000E+00 -0.62443931907E+03  0.62443931907E+03  0.25500000920E-02 0.  1.
    10030    2    1    2    0    0  0.00000000000E+00  0.00000000000E+00  0.34202083952E+03  0.15908994777E+04  0.15536997436E+04 0.  0.
        1    1    3    3  502    0 -0.58363940576E+03  0.49533413149E+01 -0.35393996849E+03  0.68259284560E+03  0.50400001928E-02 0.  1.
       -1    1    3    3    0  502  0.58363940576E+03 -0.49533413149E+01  0.69596080801E+03  0.90830663207E+03  0.50400001928E-02 0. -1.
</event>
<event>
 5   0  0.1215233E-04  0.1691382E+04  0.7818609E-02  0.8766295E-01
        1   -1    0    0  501    0  0.00000000000E+00  0.00000000000E+00  0.13107133481E+04  0.13107133481E+04  0.50400001928E-02 0.  1.
       -1   -1    0    0    0  501  0.00000000000E+00  0.00000000000E+00 -0.54565187507E+03  0.54565187509E+03  0.50400001928E-02 0. -1.
    10030    2    1    2    0    0  0.00000000000E+00  0.00000000000E+00  0.76506147301E+03  0.18563652232E+04  0.16913819156E+04 0.  0.
        2    1    3    3  502    0  0.42932511207E+03  0.70874505618E+03  0.56799152312E+03  0.10046163332E+04  0.25500000920E-02 0. -1.
       -2    1    3    3    0  502 -0.42932511207E+03 -0.70874505618E+03  0.19706994989E+03  0.85174889003E+03  0.25500000920E-02 0.  1.
</event>
<event>
 5   0  0.1186302E-04  0.1692426E+04  0.7818609E-02  0.8765696E-01
        1   -1    0    0  501    0  0.00000000000E+00  0.00000000000E+00  0.59104045748E+03  0.59104045750E+03  0.50400001928E-02 0.  1.
       -1   -1    0    0    0  501  0.00000000000E+00  0.00000000000E+00 -0.12115528170E+04  0.12115528170E+04  0.50400001928E-02 0. -1.
    10030    2    1    2    0    0  0.00000000000E+00  0.00000000000E+00 -0.62051235952E+03  0.18025932745E+04  0.16924263426E+04 0.  0.
        3    1    3    3  502    0 -0.39432902529E+03  0.73494960834E+03 -0.15801695840E+03  0.84889085066E+03  0.10100000352E+00 0.  1.
       -3    1    3    3    0  502  0.39432902529E+03 -0.73494960834E+03 -0.46249540112E+03  0.95370242384E+03  0.10100000352E+00 0. -1.
</event>
<event>
 5   0  0.2242967E-04  0.1677300E+04  0.7818609E-02  0.8774418E-01
        2   -1    0    0  501    0  0.00000000000E+00  0.00000000000E+00  0.90456944973E+03  0.90456944974E+03  0.25500000920E-02 0. -1.
       -2   -1    0    0    0  501  0.00000000000E+00  0.00000000000E+00 -0.77753399971E+03  0.77753399971E+03  0.25500000920E-02 0.  1.
    10030    2    1    2    0    0  0.00000000000E+00  0.00000000000E+00  0.12703545003E+03  0.16821034494E+04  0.16772996182E+04 0.  0.
        4    1    3    3  502    0 -0.48533828520E+02 -0.41397451669E+03 -0.66630375056E+03  0.78593430634E+03  0.12699999809E+01 0.  1.
       -4    1    3    3    0  502  0.48533828520E+02  0.41397451669E+03  0.79333920058E+03  0.89616914311E+03  0.12699999809E+01 0. -1.
</event>
<event>
 5   0  0.1126958E-04  0.1721985E+04  0.7818609E-02  0.8748924E-01
        1   -1    0    0  501    0  0.00000000000E+00  0.00000000000E+00  0.22498881512E+04  0.22498881513E+04  0.50400001928E-02 0. -1.
       -1   -1    0    0    0  501  0.00000000000E+00  0.00000000000E+00 -0.32948655174E+03  0.32948655177E+03  0.50400001928E-02 0.  1.
    10030    2    1    2    0    0  0.00000000000E+00  0.00000000000E+00  0.19204015995E+04  0.25793747030E+04  0.17219847721E+04 0.  0.
        4    1    3    3  502    0 -0.33060456295E+03  0.48880072152E+03  0.21070139073E+02  0.59048377291E+03  0.12699999809E+01 0.  1.
       -4    1    3    3    0  502  0.33060456295E+03 -0.48880072152E+03  0.18993314604E+04  0.19888909301E+04  0.12699999809E+01 0. -1.
</event>
<event>
 5   0  0.2224454E-04  0.1680430E+04  0.7818609E-02  0.8772605E-01
       -2   -1    0    0    0  501  0.00000000000E+00  0.00000000000E+00  0.11215674877E+04  0.11215674877E+04  0.25500000920E-02 0. -1.
        2   -1    0    0  501    0  0.00000000000E+00  0.00000000000E+00 -0.62944128166E+03  0.62944128167E+03  0.25500000920E-02 0.  1.
    10030    2    1    2    0    0  0.00000000000E+00  0.00000000000E+00  0.49212620607E+03  0.17510087694E+04  0.16804295605E+04 0.  0.
        2    1    3    3  502    0 -0.73179395892E+02  0.57328317860E+02 -0.62406619954E+03  0.63095196443E+03  0.25500000920E-02 0.  1.
       -2    1    3    3    0  502  0.73179395892E+02 -0.57328317860E+02  0.11161924056E+04  0.11200568050E+04  0.25500000920E-02 0. -1.
</event>
<event>
 5   0  0.1234158E-04  0.1704126E+04  0.7818609E-02  0.8759015E-01
       -1   -1    0    0    0  501  0.00000000000E+00  0.00000000000E+00  0.34595633274E+03  0.34595633277E+03  0.50400001928E-02 0. -1.
        1   -1    0    0  501    0  0.00000000000E+00  0.00000000000E+00 -0.20985629359E+04  0.20985629359E+04  0.50400001928E-02 0.  1.
    10030    2    1    2    0    0  0.00000000000E+00  0.00000000000E+00 -0.17526066032E+04  0.24445192687E+04  0.17041257435E+04 0.  0.
        5    1    3    3  502    0  0.84206497604E+03 -0.12801062379E+03 -0.84331346735E+03  0.11986074578E+04  0.46999998093E+01 0.  1.
       -5    1    3    3    0  502 -0.84206497604E+03  0.12801062379E+03 -0.90929313586E+03  0.12459118109E+04  0.46999998093E+01 0. -1.
</event>
<event>
 5   0  0.2288806E-04  0.1702211E+04  0.7818609E-02  0.8760105E-01
       -2   -1    0    0    0  501  0.00000000000E+00  0.00000000000E+00  0.47116567116E+03  0.47116567117E+03  0.25500000920E-02 0.  1.
        2   -1    0    0  501    0  0.00000000000E+00  0.00000000000E+00 -0.15374214944E+04  0.15374214944E+04  0.25500000920E-02 0. -1.
    10030    2    1    2    0    0  0.00000000000E+00  0.00000000000E+00 -0.10662558232E+04  0.20085871656E+04  0.17022105983E+04 0.  0.
        3    1    3    3  502    0 -0.45950471713E+03  0.50796736155E+03  0.62975775066E+02  0.68785273418E+03  0.10100000352E+00 0.  1.
       -3    1    3    3    0  502  0.45950471713E+03 -0.50796736155E+03 -0.11292315983E+04  0.13207344314E+04  0.10100000352E+00 0. -1.
</event>
<event>
 5   0  0.1215233E-04  0.1702399E+04  0.7818609E-02  0.8759998E-01
        1   -1    0    0  501    0  0.00000000000E+00  0.00000000000E+00  0.53708073113E+03  0.53708073116E+03  0.50400001928E-02 0.  1.
       -1   -1    0    0    0  501  0.00000000000E+00  0.00000000000E+00 -0.13490340738E+04  0.13490340738E+04  0.50400001928E-02 0. -1.
    10030    2    1    2    0    0  0.00000000000E+00  0.00000000000E+00 -0.81195334267E+03  0.18861148050E+04  0.17023985511E+04 0.  0.
        2    1    3    3  502    0 -0.41478344277E+03  0.63319430075E+02  0.41454391013E+03  0.58983159296E+03  0.25500000920E-02 0.  1.
       -2    1    3    3    0  502  0.41478344277E+03 -0.63319430075E+02 -0.12264972528E+04  0.12962832120E+04  0.25500000920E-02 0. -1.
</event>
<event>
 5   0  0.2224454E-04  0.1715233E+04  0.7818609E-02  0.8752724E-01
        2   -1    0    0  501    0  0.00000000000E+00  0.00000000000E+00  0.12394588027E+04  0.12394588027E+04  0.25500000920E-02 0.  1.
       -2   -1    0    0    0  501  0.00000000000E+00  0.00000000000E+00 -0.59340924981E+03  0.59340924981E+03  0.25500000920E-02 0. -1.
    10030    2    1    2    0    0  0.00000000000E+00  0.00000000000E+00  0.64604955293E+03  0.18328680526E+04  0.17152332999E+04 0.  0.
        2    1    3    3  502    0  0.50740456044E+03  0.54145411125E+03 -0.13643379939E+03  0.75448401187E+03  0.25500000920E-02 0. -1.
       -2    1    3    3    0  502 -0.50740456044E+03 -0.54145411125E+03  0.78248335232E+03  0.10783840407E+04  0.25500000920E-02 0.  1.
</event>
<event>
 5   0  0.2234723E-04  0.1724592E+04  0.7818609E-02  0.8747462E-01
       -2   -1    0    0    0  501  0.00000000000E+00  0.00000000000E+00  0.38275755622E+03  0.38275755623E+03  0.25500000920E-02 0.  1.
        2   -1    0    0  501    0  0.00000000000E+00  0.00000000000E+00 -0.19426243932E+04  0.19426243932E+04  0.25500000920E-02 0. -1.
    10030    2    1    2    0    0  0.00000000000E+00  0.00000000000E+00 -0.15598668370E+04  0.23253819494E+04  0.17245917377E+04 0.  0.
        1    1    3    3  502    0 -0.79290031113E+03  0.18523090855E+03 -0.11626244128E+04  0.14194001966E+04  0.50400001928E-02 0. -1.
       -1    1    3    3    0  502  0.79290031113E+03 -0.18523090855E+03 -0.39724242422E+03  0.90598175285E+03  0.50400001928E-02 0.  1.
</event>
<event>
 5   0  0.1186302E-04  0.1697814E+04  0.7818609E-02  0.8762612E-01
        1   -1    0    0  501    0  0.00000000000E+00  0.00000000000E+00  0.15630204181E+04  0.15630204182E+04  0.50400001928E-02 0. -1.
       -1   -1    0    0    0  501  0.00000000000E+00  0.00000000000E+00 -0.46105784168E+03  0.46105784170E+03  0.50400001928E-02 0.  1.
    10030    2    1    2    0    0  0.00000000000E+00  0.00000000000E+00  0.11019625765E+04  0.20240782599E+04  0.16978136771E+04 0.  0.
        3    1    3    3  502    0  0.15586327298E+03 -0.32031200157E+03 -0.36764519971E+03  0.51191419328E+03  0.10100000352E+00 0.  1.
       -3    1    3    3    0  502 -0.15586327298E+03  0.32031200157E+03  0.14696077762E+04  0.15121640666E+04  0.10100000352E+00 0. -1.
</event>
<event>
 5   0  0.1126958E-04  0.1694717E+04  0.7818609E-02  0.8764383E-01
        1   -1    0    0  501    0  0.00000000000E+00  0.00000000000E+00  0.18813305866E+04  0.18813305866E+04  0.50400001928E-02 0. -1.
       -1   -1    0    0    0  501  0.00000000000E+00  0.00000000000E+00 -0.38165356963E+03  0.38165356966E+03  0.50400001928E-02 0.  1.
    10030    2    1    2    0    0  0.00000000000E+00  0.00000000000E+00  0.14996770169E+04  0.22629841562E+04  0.16947171257E+04 0.  0.
        4    1    3    3  502    0 -0.63705698078E+02  0.50049095394E+03  0.16588992688E+04  0.17339256062E+04  0.12699999809E+01 0. -1.
       -4    1    3    3    0  502  0.63705698078E+02 -0.50049095394E+03 -0.15922225187E+03  0.52905855001E+03  0.12699999809E+01 0.  1.
</event>
<event>
 5   0  0.2224454E-04  0.1645791E+04  0.7818609E-02  0.8792900E-01
        2   -1    0    0  501    0  0.00000000000E+00  0.00000000000E+00  0.12035792196E+04  0.12035792196E+04  0.25500000920E-02 0.  1.
       -2   -1    0    0    0  501  0.00000000000E+00  0.00000000000E+00 -0.56261927371E+03  0.56261927372E+03  0.25500000920E-02 0. -1.
    10030    2    1    2    0    0  0.00000000000E+00  0.00000000000E+00  0.64095994588E+03  0.17661984933E+04  0.16457908329E+04 0.  0.
        2    1    3    3  502    0 -0.38249191575E+03 -0.28126007222E+02 -0.46084145275E+03  0.59955482024E+03  0.25500000920E-02 0. -1.
       -2    1    3    3    0  502  0.38249191575E+03  0.28126007222E+02  0.11018013986E+04  0.11666436731E+04  0.25500000920E-02 0.  1.
</event>
<event>
 5   0  0.2242967E-04  0.1737960E+04  0.7818609E-02  0.8740005E-01
       -2   -1    0    0    0  501  0.00000000000E+00  0.00000000000E+00  0.32414913859E+03  0.32414913860E+03  0.25500000920E-02 0.  1.
        2   -1    0    0  501    0  0.00000000000E+00  0.00000000000E+00 -0.23295652448E+04  0.23295652448E+04  0.25500000920E-02 0. -1.
    10030    2    1    2    0    0  0.00000000000E+00  0.00000000000E+00 -0.20054161062E+04  0.26537143834E+04  0.17379603763E+04 0.  0.
        4    1    3    3  502    0  0.78976087130E+03 -0.73528494693E+02 -0.46071568525E+03  0.91727271240E+03  0.12699999809E+01 0.  1.
       -4    1    3    3    0  502 -0.78976087130E+03  0.73528494693E+02 -0.15447004210E+04  0.17364416710E+04  0.12699999809E+01 0. -1.
</event>
<event>
 5   0  0.2288806E-04  0.1697150E+04  0.7818609E-02  0.8762992E-01
       -2   -1    0    0    0  501  0.00000000000E+00  0.00000000000E+00  0.46186643324E+03  0.46186643324E+03  0.25500000920E-02 0.  1.
        2   -1    0    0  501    0  0.00000000000E+00  0.00000000000E+00 -0.15590635801E+04  0.15590635801E+04  0.25500000920E-02 0. -1.
    10030    2    1    2    0    0  0.00000000000E+00  0.00000000000E+00 -0.10971971468E+04  0.20209300133E+04  0.16971495337E+04 0.  0.
        3    1    3    3  502    0 -0.18530655990E+03  0.65389243579E+03 -0.11536330003E+04  0.13389484487E+04  0.10100000352E+00 0. -1.
       -3    1    3    3    0  502  0.18530655990E+03 -0.65389243579E+03  0.56435853450E+02  0.68198156462E+03  0.10100000352E+00 0.  1.
</event>
<event>
 5   0  0.2356829E-04  0.1714011E+04  0.7818609E-02  0.8753413E-01
        2   -1    0    0  501    0  0.00000000000E+00  0.00000000000E+00  0.18332808303E+04  0.18332808303E+04  0.25500000920E-02 0.  1.
       -2   -1    0    0    0  501  0.00000000000E+00  0.00000000000E+00 -0.40062526628E+03  0.40062526629E+03  0.25500000920E-02 0. -1.
    10030    2    1    2    0    0  0.00000000000E+00  0.00000000000E+00  0.14326555640E+04  0.22339060966E+04  0.17140112261E+04 0.  0.
        5    1    3    3  502    0 -0.50679922332E+03 -0.61149187241E+03  0.29668938433E+03  0.84782925378E+03  0.46999998093E+01 0. -1.
       -5    1    3    3    0  502  0.50679922332E+03  0.61149187241E+03  0.11359661797E+04  0.13860768428E+04  0.46999998093E+01 0.  1.
</event>
<event>
 5   0  0.1126958E-04  0.1707059E+04  0.7818609E-02  0.8757349E-01
        1   -1    0    0  501    0  0.00000000000E+00  0.00000000000E+00  0.85570607834E+03  0.85570607835E+03  0.50400001928E-02 0. -1.
       -1   -1    0    0    0  501  0.00000000000E+00  0.00000000000E+00 -0.85135847968E+03  0.85135847970E+03  0.50400001928E-02 0.  1.
    10030    2    1    2    0    0  0.00000000000E+00  0.00000000000E+00  0.43475986563E+01  0.17070645580E+04  0.17070590217E+04 0.  0.
        4    1    3    3  502    0  0.71178948536E+03 -0.14037135132E+03  0.45180024050E+03  0.85467739993E+03  0.12699999809E+01 0. -1.
       -4    1    3    3    0  502 -0.71178948536E+03  0.14037135132E+03 -0.44745264184E+03  0.85238715812E+03  0.12699999809E+01 0.  1.
</event>
<event>
 5   0  0.1234158E-04  0.1718152E+04  0.7818609E-02  0.8751079E-01
       -1   -1    0    0    0  501  0.00000000000E+00  0.00000000000E+00  0.12659390436E+04  0.12659390436E+04  0.50400001928E-02 0.  1.
        1   -1    0    0  501    0  0.00000000000E+00  0.00000000000E+00 -0.58297533662E+03  0.58297533664E+03  0.50400001928E-02 0. -1.
    10030    2    1    2    0    0  0.00000000000E+00  0.00000000000E+00  0.68296370700E+03  0.18489143803E+04  0.17181516116E+04 0.  0.
        5    1    3    3  502    0 -0.75405017024E+03  0.34056223313E+03  0.92775804397E+02  0.83258857412E+03  0.46999998093E+01 0. -1.
       -5    1    3    3    0  502  0.75405017024E+03 -0.34056223313E+03  0.59018790260E+03  0.10163258062E+04  0.46999998093E+01 0.  1.
</event>
<event>
 5   0  0.1204741E-04  0.1727325E+04  0.7818609E-02  0.8745931E-01
        1   -1    0    0  501    0  0.00000000000E+00  0.00000000000E+00  0.18713866360E+04  0.18713866360E+04  0.50400001928E-02 0. -1.
       -1   -1    0    0    0  501  0.00000000000E+00  0.00000000000E+00 -0.39858842398E+03  0.39858842401E+03  0.50400001928E-02 0.  1.
    10030    2    1    2    0    0  0.00000000000E+00  0.00000000000E+00  0.14727982120E+04  0.22699750600E+04  0.17273251575E+04 0.  0.
        1    1    3    3  502    0  0.77028812939E+03  0.36823787662E+03  0.90759343155E+03  0.12460613039E+04  0.50400001928E-02 0. -1.
       -1    1    3    3    0  502 -0.77028812939E+03 -0.36823787662E+03  0.56520478045E+03  0.10239137561E+04  0.50400001928E-02 0.  1.
</event>
<event>
 5   0  0.2242967E-04  0.1697226E+04  0.7818609E-02  0.8762948E-01
        2   -1    0    0  501    0  0.00000000000E+00  0.00000000000E+00  0.62838132810E+03  0.62838132811E+03  0.25500000920E-02 0.  1.
       -2   -1    0    0    0  501  0.00000000000E+00  0.00000000000E+00 -0.11460302876E+04  0.11460302876E+04  0.25500000920E-02 0. -1.
    10030    2    1    2    0    0  0.00000000000E+00  0.00000000000E+00 -0.51764895953E+03  0.17744116157E+04  0.16972260123E+04 0.  0.
        4    1    3    3  502    0  0.55036287108E+01  0.77734799722E+03 -0.61465904560E+03  0.99101339746E+03  0.12699999809E+01 0.  1.
       -4    1    3    3    0  502 -0.55036287108E+01 -0.77734799722E+03  0.97010086068E+02  0.78339821828E+03  0.12699999809E+01 0. -1.
</event>
<event>
 5   0  0.2242967E-04  0.1709690E+04  0.7818609E-02  0.8755857E-01
       -2   -1    0    0    0  501  0.00000000000E+00  0.00000000000E+00  0.59801733491E+03  0.59801733491E+03  0.25500000920E-02 0. -1.
        2   -1    0    0  501    0  0.00000000000E+00  0.00000000000E+00 -0.12219711945E+04  0.12219711945E+04  0.25500000920E-02 0.  1.
    10030    2    1    2    0    0  0.00000000000E+00  0.00000000000E+00 -0.62395385958E+03  0.18199885294E+04  0.17096899802E+04 0.  0.
        4    1    3    3  502    0 -0.29530657632E+03 -0.43884156436E+03  0.40289019928E+03  0.66491354190E+03  0.12699999809E+01 0. -1.
       -4    1    3    3    0  502  0.29530657632E+03  0.43884156436E+03 -0.10268440589E+04  0.11550749875E+04  0.12699999809E+01 0.  1.
</event>
<event>
 5   0  0.8372750E-05  0.1702147E+04  0.7818609E-02  0.8760141E-01
        3   -1    0    0  501    0  0.00000000000E+00  0.00000000000E+00  0.63932071998E+03  0.63932072796E+03  0.10100000352E+00 0.  1.
       -3   -1    0    0    0  501  0.00000000000E+00  0.00000000000E+00 -0.11329622376E+04  0.11329622421E+04  0.10100000352E+00 0. -1.
    10030    2    1    2    0    0  0.00000000000E+00  0.00000000000E+00 -0.49364151765E+03  0.17722829701E+04  0.17021471670E+04 0.  0.
        4    1    3    3  502    0  0.19383506656E+03 -0.17450168951E+03 -0.10903259159E+04  0.11210865660E+04  0.12699999809E+01 0. -1.
       -4    1    3    3    0  502 -0.19383506656E+03  0.17450168951E+03  0.59668439826E+03  0.65119640408E+03  0.12699999809E+01 0.  1.
</event>
<event>
 5   0  0.2224454E-04  0.1668645E+04  0.7818609E-02  0.8779452E-01
        2   -1    0    0  501    0  0.00000000000E+00  0.00000000000E+00  0.48442268872E+03  0.48442268873E+03  0.25500000920E-02 0. -1.
       -2   -1    0    0    0  501  0.00000000000E+00  0.00000000000E+00 -0.14369566428E+04  0.14369566429E+04  0.25500000920E-02 0.  1.
    10030    2    1    2    0    0  0.00000000000E+00  0.00000000000E+00 -0.95253395413E+03  0.19213793316E+04  0.16686454393E+04 0.  0.
        2    1    3    3  502    0 -0.16855759530E+03  0.73580740416E+03 -0.88543292736E+03  0.11635358472E+04  0.25500000920E-02 0.  1.
       -2    1    3    3    0  502  0.16855759530E+03 -0.73580740416E+03 -0.67101026761E+02  0.75784348434E+03  0.25500000920E-02 0. -1.
</event>
<event>
 5   0  0.1215233E-04  0.1727158E+04  0.7818609E-02  0.8746025E-01
        1   -1    0    0  501    0  0.00000000000E+00  0.00000000000E+00  0.24570219669E+04  0.24570219669E+04  0.50400001928E-02 0.  1.
       -1   -1    0    0    0  501  0.00000000000E+00  0.00000000000E+00 -0.30352527214E+03  0.30352527218E+03  0.50400001928E-02 0. -1.
    10030    2    1    2    0    0  0.00000000000E+00  0.00000000000E+00  0.21534966947E+04  0.27605472391E+04  0.17271575043E+04 0.  0.
        2    1    3    3  502    0 -0.56567262108E+03 -0.54872813647E+03  0.51238090972E+03  0.94001185027E+03  0.25500000920E-02 0. -1.
       -2    1    3    3    0  502  0.56567262108E+03  0.54872813647E+03  0.16411157850E+04  0.18205353888E+04  0.25500000920E-02 0.  1.
</event>
<event>
 5   0  0.1186302E-04  0.1897428E+04  0.7818609E-02  0.8656138E-01
        1   -1    0    0  501    0  0.00000000000E+00  0.00000000000E+00  0.62620379288E+03  0.62620379290E+03  0.50400001928E-02 0. -1.
       -1   -1    0    0    0  501  0.00000000000E+00  0.00000000000E+00 -0.14373252989E+04  0.14373252989E+04  0.50400001928E-02 0.  1.
    10030    2    1    2    0    0  0.00000000000E+00  0.00000000000E+00 -0.81112150603E+03  0.20635290918E+04  0.18974283162E+04 0.  0.
        3    1    3    3  502    0 -0.47615027362E+03 -0.34723754587E+03 -0.12141271745E+04  0.13495917169E+04  0.10100000352E+00 0.  1.
       -3    1    3    3    0  502  0.47615027362E+03  0.34723754587E+03  0.40300566843E+03  0.71393737493E+03  0.10100000352E+00 0. -1.
</event>
<event>
 5   0  0.2356829E-04  0.1698861E+04  0.7818609E-02  0.8762014E-01
        2   -1    0    0  501    0  0.00000000000E+00  0.00000000000E+00  0.57491664926E+03  0.57491664926E+03  0.25500000920E-02 0. -1.
       -2   -1    0    0    0  501  0.00000000000E+00  0.00000000000E+00 -0.12550207090E+04  0.12550207090E+04  0.25500000920E-02 0.  1.
    10030    2    1    2    0    0  0.00000000000E+00  0.00000000000E+00 -0.68010405979E+03  0.18299373583E+04  0.16988611489E+04 0.  0.
        5    1    3    3  502    0  0.36250181271E+03  0.13506389786E+03  0.47450847120E+03  0.61223377885E+03  0.46999998093E+01 0. -1.
       -5    1    3    3    0  502 -0.36250181271E+03 -0.13506389786E+03 -0.11546125310E+04  0.12177035795E+04  0.46999998093E+01 0.  1.
</event>
<event>
 5   0  0.2234723E-04  0.1693451E+04  0.7818609E-02  0.8765108E-01
        2   -1    0    0  501    0  0.00000000000E+00  0.00000000000E+00  0.10836650598E+04  0.10836650598E+04  0.25500000920E-02 0. -1.
       -2   -1    0    0    0  501  0.00000000000E+00  0.00000000000E+00 -0.66159233254E+03  0.66159233255E+03  0.25500000920E-02 0.  1.
    10030    2    1    2    0    0  0.00000000000E+00  0.00000000000E+00  0.42207272724E+03  0.17452573923E+04  0.16934514987E+04 0.  0.
        1    1    3    3  502    0 -0.34469452551E+03 -0.66134188729E+02  0.10051650655E+04  0.10646806356E+04  0.50400001928E-02 0. -1.
       -1    1    3    3    0  502  0.34469452551E+03  0.66134188729E+02 -0.58309233828E+03  0.68057675674E+03  0.50400001928E-02 0.  1.
</event>
<event>
 5   0  0.1126958E-04  0.1662122E+04  0.7818609E-02  0.8783267E-01
       -1   -1    0    0    0  501  0.00000000000E+00  0.00000000000E+00  0.11048814024E+04  0.11048814024E+04  0.50400001928E-02 0.  1.
        1   -1    0    0  501    0  0.00000000000E+00  0.00000000000E+00 -0.62510118898E+03  0.62510118900E+03  0.50400001928E-02 0. -1.
    10030    2    1    2    0    0  0.00000000000E+00  0.00000000000E+00  0.47978021338E+03  0.17299825914E+04  0.16621223521E+04 0.  0.
        4    1    3    3  502    0 -0.43159169639E+03 -0.12201766693E+03  0.96809852509E+03  0.10669470796E+04  0.12699999809E+01 0.  1.
       -4    1    3    3    0  502  0.43159169639E+03  0.12201766693E+03 -0.48831831171E+03  0.66303551179E+03  0.12699999809E+01 0. -1.
</event>
<event>
 5   0  0.1126958E-04  0.1603991E+04  0.7818609E-02  0.8818100E-01
       -1   -1    0    0    0  501  0.00000000000E+00  0.00000000000E+00  0.48918063313E+03  0.48918063316E+03  0.50400001928E-02 0. -1.
        1   -1    0    0  501    0  0.00000000000E+00  0.00000000000E+00 -0.13148454199E+04  0.13148454199E+04  0.50400001928E-02 0.  1.
    10030    2    1    2    0    0  0.00000000000E+00  0.00000000000E+00 -0.82566478675E+03  0.18040260531E+04  0.16039911658E+04 0.  0.
        4    1    3    3  502    0  0.46838156440E+03 -0.59392110078E+03 -0.71267220885E+03  0.10392434046E+04  0.12699999809E+01 0.  1.
       -4    1    3    3    0  502 -0.46838156440E+03  0.59392110078E+03 -0.11299257790E+03  0.76478264846E+03  0.12699999809E+01 0. -1.
</event>
<event>
 5   0  0.1234158E-04  0.1703174E+04  0.7818609E-02  0.8759556E-01
        1   -1    0    0  501    0  0.00000000000E+00  0.00000000000E+00  0.13812315317E+04  0.13812315317E+04  0.50400001928E-02 0.  1.
       -1   -1    0    0    0  501  0.00000000000E+00  0.00000000000E+00 -0.52503901701E+03  0.52503901703E+03  0.50400001928E-02 0. -1.
    10030    2    1    2    0    0  0.00000000000E+00  0.00000000000E+00  0.85619251468E+03  0.19062705487E+04  0.17031740318E+04 0.  0.
        5    1    3    3  502    0 -0.25954199301E+02 -0.18076591037E+03 -0.50285021587E+03  0.53500501344E+03  0.46999998093E+01 0. -1.
       -5    1    3    3    0  502  0.25954199301E+02  0.18076591037E+03  0.13590427305E+04  0.13712655353E+04  0.46999998093E+01 0.  1.
</event>
<event>
 5   0  0.2242967E-04  0.1703708E+04  0.7818609E-02  0.8759252E-01
       -2   -1    0    0    0  501  0.00000000000E+00  0.00000000000E+00  0.84882945428E+03  0.84882945428E+03  0.25500000920E-02 0. -1.
        2   -1    0    0  501    0  0.00000000000E+00  0.00000000000E+00 -0.85488937009E+03  0.85488937009E+03  0.25500000920E-02 0.  1.
    10030    2    1    2    0    0  0.00000000000E+00  0.00000000000E+00 -0.60599158097E+01  0.17037188244E+04  0.17037080472E+04 0.  0.
        4    1    3    3  502    0 -0.58236166840E+03  0.58229357566E+03  0.21478497212E+03  0.85108467159E+03  0.12699999809E+01 0. -1.
       -4    1    3    3    0  502  0.58236166840E+03 -0.58229357566E+03 -0.22084488793E+03  0.85263415278E+03  0.12699999809E+01 0.  1.
</event>
<event>
 5   0  0.1234158E-04  0.1685937E+04  0.7818609E-02  0.8769426E-01
        1   -1    0    0  501    0  0.00000000000E+00  0.00000000000E+00  0.84175864165E+03  0.84175864166E+03  0.50400001928E-02 0. -1.
       -1   -1    0    0    0  501  0.00000000000E+00  0.00000000000E+00 -0.84418022337E+03  0.84418022338E+03  0.50400001928E-02 0.  1.
    10030    2    1    2    0    0  0.00000000000E+00  0.00000000000E+00 -0.24215817188E+01  0.16859388650E+04  0.16859371259E+04 0.  0.
        5    1    3    3  502    0  0.25028731768E+03  0.68718592463E+03  0.41796224530E+03  0.84236735745E+03  0.46999998093E+01 0. -1.
       -5    1    3    3    0  502 -0.25028731768E+03 -0.68718592463E+03 -0.42038382702E+03  0.84357150759E+03  0.46999998093E+01 0.  1.
</event>
<event>
 5   0  0.2288806E-04  0.1695143E+04  0.7818609E-02  0.8764139E-01
        2   -1    0    0  501    0  0.00000000000E+00  0.00000000000E+00  0.16481912941E+04  0.16481912941E+04  0.25500000920E-02 0.  1.
       -2   -1    0    0    0  501  0.00000000000E+00  0.00000000000E+00 -0.43585816550E+03  0.43585816551E+03  0.25500000920E-02 0. -1.
    10030    2    1    2    0    0  0.00000000000E+00  0.00000000000E+00  0.12123331286E+04  0.20840494596E+04  0.16951432197E+04 0.  0.
        3    1    3    3  502    0  0.16830108317E+03 -0.54332171355E+02  0.16252546411E+04  0.16348485857E+04  0.10100000352E+00 0.  1.
       -3    1    3    3    0  502 -0.16830108317E+03  0.54332171355E+02 -0.41292151252E+03  0.44920087393E+03  0.10100000352E+00 0. -1.
</event>
<event>
 5   0  0.2288806E-04  0.1774875E+04  0.7818609E-02  0.8719776E-01
       -2   -1    0    0    0  501  0.00000000000E+00  0.00000000000E+00  0.90029686158E+03  0.90029686158E+03  0.25500000920E-02 0.  1.
        2   -1    0    0  501    0  0.00000000000E+00  0.00000000000E+00 -0.87476138993E+03  0.87476138993E+03  0.25500000920E-02 0. -1.
    10030    2    1    2    0    0  0.00000000000E+00  0.00000000000E+00  0.25535471656E+02  0.17750582515E+04  0.17748745691E+04 0.  0.
        3    1    3    3  502    0 -0.58763365329E+03 -0.43290679675E+03 -0.49208478213E+03  0.88026646429E+03  0.10100000352E+00 0. -1.
       -3    1    3    3    0  502  0.58763365329E+03  0.43290679675E+03  0.51762025379E+03  0.89479178722E+03  0.10100000352E+00 0.  1.
</event>
<event>
 5   0  0.8372750E-05  0.1709589E+04  0.7818609E-02  0.8755914E-01
        3   -1    0    0  501    0  0.00000000000E+00  0.00000000000E+00  0.16689433872E+04  0.16689433902E+04  0.10100000352E+00 0.  1.
       -3   -1    0    0    0  501  0.00000000000E+00  0.00000000000E+00 -0.43780630678E+03  0.43780631843E+03  0.10100000352E+00 0. -1.
    10030    2    1    2    0    0  0.00000000000E+00  0.00000000000E+00  0.12311370804E+04  0.21067497086E+04  0.17095893730E+04 0.  0.
        1    1    3    3  502    0  0.57136692685E+02 -0.65826607614E+03  0.12838586709E+04  0.14439085551E+04  0.50400001928E-02 0. -1.
       -1    1    3    3    0  502 -0.57136692685E+02  0.65826607614E+03 -0.52721590554E+02  0.66284115351E+03  0.50400001928E-02 0.  1.
</event>
<event>
 5   0  0.1234158E-04  0.1679394E+04  0.7818609E-02  0.8773204E-01
       -1   -1    0    0    0  501  0.00000000000E+00  0.00000000000E+00  0.11256105438E+04  0.11256105439E+04  0.50400001928E-02 0. -1.
        1   -1    0    0  501    0  0.00000000000E+00  0.00000000000E+00 -0.62640797481E+03  0.62640797483E+03  0.50400001928E-02 0.  1.
    10030    2    1    2    0    0  0.00000000000E+00  0.00000000000E+00  0.49920256903E+03  0.17520185187E+04  0.16793944399E+04 0.  0.
        5    1    3    3  502    0 -0.61884701437E+02 -0.83739185537E+03  0.24562934370E+03  0.87487753440E+03  0.46999998093E+01 0.  1.
       -5    1    3    3    0  502  0.61884701437E+02  0.83739185537E+03  0.25357322533E+03  0.87714098428E+03  0.46999998093E+01 0. -1.
</event>
<event>
 5   0  0.2288806E-04  0.1671402E+04  0.7818609E-02  0.8777845E-01
        2   -1    0    0  501    0  0.00000000000E+00  0.00000000000E+00  0.15293276362E+04  0.15293276362E+04  0.25500000920E-02 0.  1.
       -2   -1    0    0    0  501  0.00000000000E+00  0.00000000000E+00 -0.45666875433E+03  0.45666875434E+03  0.25500000920E-02 0. -1.
    10030    2    1    2    0    0  0.00000000000E+00  0.00000000000E+00  0.10726588819E+04  0.19859963905E+04  0.16714019823E+04 0.  0.
        3    1    3    3  502    0  0.14096779355E+03  0.59961294925E+03 -0.13476721487E+03  0.63053137918E+03  0.10100000352E+00 0. -1.
       -3    1    3    3    0  502 -0.14096779355E+03 -0.59961294925E+03  0.12074260967E+04  0.13554650114E+04  0.10100000352E+00 0.  1.
</event>
<event>
 5   0  0.8372750E-05  0.1696219E+04  0.7818609E-02  0.8763523E-01
        3   -1    0    0  501    0  0.00000000000E+00  0.00000000000E+00  0.75496723172E+03  0.75496723847E+03  0.10100000352E+00 0.  1.
       -3   -1    0    0    0  501  0.00000000000E+00  0.00000000000E+00 -0.95274344709E+03  0.95274345245E+03  0.10100000352E+00 0. -1.
    10030    2    1    2    0    0  0.00000000000E+00  0.00000000000E+00 -0.19777621537E+03  0.17077106909E+04  0.16962194352E+04 0.  0.
        5    1    3    3  502    0 -0.27227522575E+03 -0.30036230598E+03 -0.84886201805E+03  0.94071256455E+03  0.46999998093E+01 0. -1.
       -5    1    3    3    0  502  0.27227522575E+03  0.30036230598E+03  0.65108580268E+03  0.76699812637E+03  0.46999998093E+01 0.  1.
</event>
<event>
 5   0  0.2224454E-04  0.1701215E+04  0.7818609E-02  0.8760672E-01
       -2   -1    0    0    0  501  0.00000000000E+00  0.00000000000E+00  0.11428806237E+04  0.11428806237E+04  0.25500000920E-02 0.  1.
        2   -1    0    0  501    0  0.00000000000E+00  0.00000000000E+00 -0.63307816568E+03  0.63307816569E+03  0.25500000920E-02 0. -1.
    10030    2    1    2    0    0  0.00000000000E+00  0.00000000000E+00  0.50980245801E+03  0.17759587894E+04  0.17012145883E+04 0.  0.
        2    1    3    3  502    0  0.21896153877E+03 -0.80711754155E+02 -0.59900648300E+03  0.64285870096E+03  0.25500000920E-02 0. -1.
       -2    1    3    3    0  502 -0.21896153877E+03  0.80711754155E+02  0.11088089410E+04  0.11331000884E+04  0.25500000920E-02 0.  1.
</event>
<event>
 5   0  0.2234723E-04  0.1696310E+04  0.7818609E-02  0.8763472E-01
       -2   -1    0    0    0  501  0.00000000000E+00  0.00000000000E+00  0.55437800399E+03  0.55437800400E+03  0.25500000920E-02 0. -1.
        2   -1    0    0  501    0  0.00000000000E+00  0.00000000000E+00 -0.12976113252E+04  0.12976113252E+04  0.25500000920E-02 0.  1.
    10030    2    1    2    0    0  0.00000000000E+00  0.00000000000E+00 -0.74323332122E+03  0.18519893292E+04  0.16963103212E+04 0.  0.
        1    1    3    3  502    0 -0.83231846378E+03 -0.16293254420E+03 -0.36273781724E+03  0.92243144092E+03  0.50400001928E-02 0. -1.
       -1    1    3    3    0  502  0.83231846378E+03  0.16293254420E+03 -0.38049550398E+03  0.92955788829E+03  0.50400001928E-02 0.  1.
</event>
<event>
 5   0  0.1204741E-04  0.1693336E+04  0.7818609E-02  0.8765174E-01
       -1   -1    0    0    0  501  0.00000000000E+00  0.00000000000E+00  0.51442027370E+03  0.51442027373E+03  0.50400001928E-02 0. -1.
        1   -1    0    0  501    0  0.00000000000E+00  0.00000000000E+00 -0.13935036541E+04  0.13935036541E+04  0.50400001928E-02 0.  1.
    10030    2    1    2    0    0  0.00000000000E+00  0.00000000000E+00 -0.87908338039E+03  0.19079239278E+04  0.16933357980E+04 0.  0.
        1    1    3    3  502    0 -0.41183626495E+03 -0.10281937833E+03  0.38586853193E+03  0.57365098941E+03  0.50400001928E-02 0. -1.
       -1    1    3    3    0  502  0.41183626495E+03  0.10281937833E+03 -0.12649519123E+04  0.13342729384E+04  0.50400001928E-02 0.  1.
</event>
<event>
 5   0  0.2242967E-04  0.1708194E+04  0.7818609E-02  0.8756705E-01
        2   -1    0    0  501    0  0.00000000000E+00  0.00000000000E+00  0.29105595609E+03  0.29105595610E+03  0.25500000920E-02 0. -1.
       -2   -1    0    0    0  501  0.00000000000E+00  0.00000000000E+00 -0.25063273071E+04  0.25063273071E+04  0.25500000920E-02 0.  1.
    10030    2    1    2    0    0  0.00000000000E+00  0.00000000000E+00 -0.22152713510E+04  0.27973832632E+04  0.17081937720E+04 0.  0.
        4    1    3    3  502    0  0.65565541336E+03  0.29584303259E+03 -0.18617848830E+04  0.19959087365E+04  0.12699999809E+01 0.  1.
       -4    1    3    3    0  502 -0.65565541336E+03 -0.29584303259E+03 -0.35348646806E+03  0.80147452674E+03  0.12699999809E+01 0. -1.
</event>
<event>
 5   0  0.2242967E-04  0.1708308E+04  0.7818609E-02  0.8756640E-01
        2   -1    0    0  501    0  0.00000000000E+00  0.00000000000E+00  0.32617981647E+04  0.32617981647E+04  0.25500000920E-02 0.  1.
       -2   -1    0    0    0  501  0.00000000000E+00  0.00000000000E+00 -0.22367375214E+03  0.22367375216E+03  0.25500000920E-02 0. -1.
    10030    2    1    2    0    0  0.00000000000E+00  0.00000000000E+00  0.30381244125E+04  0.34854719168E+04  0.17083075066E+04 0.  0.
        4    1    3    3  502    0  0.25035513941E+03  0.34187531190E+03  0.59016392297E+01  0.42378398621E+03  0.12699999809E+01 0. -1.
       -4    1    3    3    0  502 -0.25035513941E+03 -0.34187531190E+03  0.30322227733E+04  0.30616879306E+04  0.12699999809E+01 0.  1.
</event>
<event>
 5   0  0.2288806E-04  0.1701916E+04  0.7818609E-02  0.8760272E-01
       -2   -1    0    0    0  501  0.00000000000E+00  0.00000000000E+00  0.11127423234E+04  0.11127423234E+04  0.25500000920E-02 0. -1.
        2   -1    0    0  501    0  0.00000000000E+00  0.00000000000E+00 -0.65076122661E+03  0.65076122662E+03  0.25500000920E-02 0.  1.
    10030    2    1    2    0    0  0.00000000000E+00  0.00000000000E+00  0.46198109678E+03  0.17635035500E+04  0.17019160488E+04 0.  0.
        3    1    3    3  502    0  0.17192017638E+03  0.83147798938E+03  0.28976488161E+03  0.89714875616E+03  0.10100000352E+00 0. -1.
       -3    1    3    3    0  502 -0.17192017638E+03 -0.83147798938E+03  0.17221621518E+03  0.86635479386E+03  0.10100000352E+00 0.  1.
</event>
<event>
 5   0  0.1126958E-04  0.1698341E+04  0.7818609E-02  0.8762311E-01
       -1   -1    0    0    0  501  0.00000000000E+00  0.00000000000E+00  0.52313061539E+03  0.52313061541E+03  0.50400001928E-02 0.  1.
        1   -1    0    0  501    0  0.00000000000E+00  0.00000000000E+00 -0.13784131991E+04  0.13784131991E+04  0.50400001928E-02 0. -1.
    10030    2    1    2    0    0  0.00000000000E+00  0.00000000000E+00 -0.85528258374E+03  0.19015438146E+04  0.16983405373E+04 0.  0.
        4    1    3    3  502    0  0.45201419839E+03 -0.65639575758E+03 -0.99455814311E+02  0.80315957195E+03  0.12699999809E+01 0.  1.
       -4    1    3    3    0  502 -0.45201419839E+03  0.65639575758E+03 -0.75582676943E+03  0.10983842426E+04  0.12699999809E+01 0. -1.
</event>
<event>
 5   0  0.1215233E-04  0.1851591E+04  0.7818609E-02  0.8679335E-01
        1   -1    0    0  501    0  0.00000000000E+00  0.00000000000E+00  0.16219329329E+04  0.16219329329E+04  0.50400001928E-02 0.  1.
       -1   -1    0    0    0  501  0.00000000000E+00  0.00000000000E+00 -0.52844183513E+03  0.52844183515E+03  0.50400001928E-02 0. -1.
    10030    2    1    2    0    0  0.00000000000E+00  0.00000000000E+00  0.10934910978E+04  0.21503747680E+04  0.18515909003E+04 0.  0.
        2    1    3    3  502    0 -0.75650884521E+03 -0.12067062071E+03  0.11504662200E+04  0.13821865124E+04  0.25500000920E-02 0.  1.
       -2    1    3    3    0  502  0.75650884521E+03  0.12067062071E+03 -0.56975122269E+02  0.76818825567E+03  0.25500000920E-02 0. -1.
</event>
<event>
 5   0  0.2288806E-04  0.1701815E+04  0.7818609E-02  0.8760330E-01
       -2   -1    0    0    0  501  0.00000000000E+00  0.00000000000E+00  0.54296577706E+03  0.54296577707E+03  0.25500000920E-02 0.  1.
        2   -1    0    0  501    0  0.00000000000E+00  0.00000000000E+00 -0.13334977513E+04  0.13334977513E+04  0.25500000920E-02 0. -1.
    10030    2    1    2    0    0  0.00000000000E+00  0.00000000000E+00 -0.79053197428E+03  0.18764635284E+04  0.17018150814E+04 0.  0.
        3    1    3    3  502    0 -0.26652356649E+03  0.69267623509E+03 -0.85415990637E+03  0.11315583653E+04  0.10100000352E+00 0. -1.
       -3    1    3    3    0  502  0.26652356649E+03 -0.69267623509E+03  0.63627932085E+02  0.74490516315E+03  0.10100000352E+00 0.  1.
</event>
<event>
 5   0  0.2242967E-04  0.1602662E+04  0.7818609E-02  0.8818914E-01
       -2   -1    0    0    0  501  0.00000000000E+00  0.00000000000E+00  0.51542626121E+03  0.51542626122E+03  0.25500000920E-02 0.  1.
        2   -1    0    0  501    0  0.00000000000E+00  0.00000000000E+00 -0.12458257394E+04  0.12458257394E+04  0.25500000920E-02 0. -1.
    10030    2    1    2    0    0  0.00000000000E+00  0.00000000000E+00 -0.73039947822E+03  0.17612520006E+04  0.16026619144E+04 0.  0.
        4    1    3    3  502    0 -0.91328883853E+02 -0.12791519116E+03  0.49831984330E+03  0.52252037308E+03  0.12699999809E+01 0.  1.
       -4    1    3    3    0  502  0.91328883853E+02  0.12791519116E+03 -0.12287193215E+04  0.12387316276E+04  0.12699999809E+01 0. -1.
</event>
<event>
 5   0  0.2242967E-04  0.1794995E+04  0.7818609E-02  0.8708966E-01
        2   -1    0    0  501    0  0.00000000000E+00  0.00000000000E+00  0.19064075706E+04  0.19064075706E+04  0.25500000920E-02 0. -1.
       -2   -1    0    0    0  501  0.00000000000E+00  0.00000000000E+00 -0.42252320834E+03  0.42252320835E+03  0.25500000920E-02 0.  1.
    10030    2    1    2    0    0  0.00000000000E+00  0.00000000000E+00  0.14838843623E+04  0.23289307790E+04  0.17949946442E+04 0.  0.
        4    1    3    3  502    0 -0.13546804700E+03 -0.29136163832E+03  0.18292220542E+04  0.18572286161E+04  0.12699999809E+01 0. -1.
       -4    1    3    3    0  502  0.13546804700E+03  0.29136163832E+03 -0.34533769194E+03  0.47170216283E+03  0.12699999809E+01 0.  1.
</event>
<event>
 5   0  0.1186302E-04  0.1708895E+04  0.7818609E-02  0.8756308E-01
       -1   -1    0    0    0  501  0.00000000000E+00  0.00000000000E+00  0.46010641642E+03  0.46010641645E+03  0.50400001928E-02 0. -1.
        1   -1    0    0  501    0  0.00000000000E+00  0.00000000000E+00 -0.15867637518E+04  0.15867637518E+04  0.50400001928E-02 0.  1.
    10030    2    1    2    0    0  0.00000000000E+00  0.00000000000E+00 -0.11266573354E+04  0.20468701683E+04  0.17088945943E+04 0.  0.
        3    1    3    3  502    0  0.11962916046E+03 -0.42102198301E+03  0.31563660367E+03  0.53962683587E+03  0.10100000352E+00 0. -1.
       -3    1    3    3    0  502 -0.11962916046E+03  0.42102198301E+03 -0.14422939391E+04  0.15072433324E+04  0.10100000352E+00 0.  1.
</event>
<event>
 5   0  0.1204741E-04  0.1691148E+04  0.7818609E-02  0.8766429E-01
        1   -1    0    0  501    0  0.00000000000E+00  0.00000000000E+00  0.19070018619E+04  0.19070018619E+04  0.50400001928E-02 0.  1.
       -1   -1    0    0    0  501  0.00000000000E+00  0.00000000000E+00 -0.37493165042E+03  0.37493165046E+03  0.50400001928E-02 0. -1.
    10030    2    1    2    0    0  0.00000000000E+00  0.00000000000E+00  0.15320702114E+04  0.22819335123E+04  0.16911479598E+04 0.  0.
        1    1    3    3  502    0  0.90281899664E+02 -0.57144012818E+03  0.15981531712E+04  0.16996435509E+04  0.50400001928E-02 0.  1.
       -1    1    3    3    0  502 -0.90281899664E+02  0.57144012818E+03 -0.66082959816E+02  0.58228996137E+03  0.50400001928E-02 0. -1.
</event>
<event>
 5   0  0.1215233E-04  0.1661349E+04  0.7818609E-02  0.8783721E-01
        1   -1    0    0  501    0  0.00000000000E+00  0.00000000000E+00  0.70316607493E+03  0.70316607495E+03  0.50400001928E-02 0.  1.
       -1   -1    0    0    0  501  0.00000000000E+00  0.00000000000E+00 -0.98130439173E+03  0.98130439175E+03  0.50400001928E-02 0. -1.
    10030    2    1    2    0    0  0.00000000000E+00  0.00000000000E+00 -0.27813831680E+03  0.16844704667E+04  0.16613487984E+04 0.  0.
        2    1    3    3  502    0 -0.53582097826E+03  0.20334732916E+03  0.47060275997E+03  0.74156672978E+03  0.25500000920E-02 0.  1.
       -2    1    3    3    0  502  0.53582097826E+03 -0.20334732916E+03 -0.74874107678E+03  0.94290373691E+03  0.25500000920E-02 0. -1.
</event>
<event>
 5   0  0.2234723E-04  0.1704236E+04  0.7818609E-02  0.8758952E-01
        2   -1    0    0  501    0  0.00000000000E+00  0.00000000000E+00  0.12143710015E+04  0.12143710015E+04  0.25500000920E-02 0.  1.
       -2   -1    0    0    0  501  0.00000000000E+00  0.00000000000E+00 -0.59792679618E+03  0.59792679619E+03  0.25500000920E-02 0. -1.
    10030    2    1    2    0    0  0.00000000000E+00  0.00000000000E+00  0.61644420528E+03  0.18122977977E+04  0.17042358549E+04 0.  0.
        1    1    3    3  502    0  0.29272430132E+03 -0.94783003706E+02  0.11532357405E+04  0.11935761424E+04  0.50400001928E-02 0.  1.
       -1    1    3    3    0  502 -0.29272430132E+03  0.94783003706E+02 -0.53679153525E+03  0.61872165528E+03  0.50400001928E-02 0. -1.
</event>
<event>
 5   0  0.2242967E-04  0.1715773E+04  0.7818609E-02  0.8752419E-01
       -2   -1    0    0    0  501  0.00000000000E+00  0.00000000000E+00  0.80507632328E+03  0.80507632328E+03  0.25500000920E-02 0. -1.
        2   -1    0    0  501    0  0.00000000000E+00  0.00000000000E+00 -0.91416076644E+03  0.91416076644E+03  0.25500000920E-02 0.  1.
    10030    2    1    2    0    0  0.00000000000E+00  0.00000000000E+00 -0.10908444316E+03  0.17192370897E+04  0.17157729322E+04 0.  0.
        4    1    3    3  502    0 -0.84597667509E+03 -0.13943385362E+03 -0.25341635822E+02  0.85776578723E+03  0.12699999809E+01 0. -1.
       -4    1    3    3    0  502  0.84597667509E+03  0.13943385362E+03 -0.83742807339E+02  0.86147130249E+03  0.12699999809E+01 0.  1.
</event>
<event>
 5   0  0.1234158E-04  0.1689541E+04  0.7818609E-02  0.8767352E-01
       -1   -1    0    0    0  501  0.00000000000E+00  0.00000000000E+00  0.40013525601E+03  0.40013525604E+03  0.50400001928E-02 0.  1.
        1   -1    0    0  501    0  0.00000000000E+00  0.00000000000E+00 -0.17834898151E+04  0.17834898151E+04  0.50400001928E-02 0. -1.
    10030    2    1    2    0    0  0.00000000000E+00  0.00000000000E+00 -0.13833545591E+04  0.21836250712E+04  0.16895409481E+04 0.  0.
        5    1    3    3  502    0  0.10322860269E+03 -0.29579710868E+03 -0.17056127617E+04  0.17341537005E+04  0.46999998093E+01 0. -1.
       -5    1    3    3    0  502 -0.10322860269E+03  0.29579710868E+03  0.32225820261E+03  0.44947137069E+03  0.46999998093E+01 0.  1.
</event>
<event>
 5   0  0.2234723E-04  0.1701583E+04  0.7818609E-02  0.8760462E-01
       -2   -1    0    0    0  501  0.00000000000E+00  0.00000000000E+00  0.62281930313E+03  0.62281930313E+03  0.25500000920E-02 0. -1.
        2   -1    0    0  501    0  0.00000000000E+00  0.00000000000E+00 -0.11622093390E+04  0.11622093390E+04  0.25500000920E-02 0.  1.
    10030    2    1    2    0    0  0.00000000000E+00  0.00000000000E+00 -0.53939003586E+03  0.17850286421E+04  0.17015832752E+04 0.  0.
        1    1    3    3  502    0  0.89130250849E+02  0.29604466571E+03 -0.11011937754E+04  0.11437719950E+04  0.50400001928E-02 0.  1.
       -1    1    3    3    0  502 -0.89130250849E+02 -0.29604466571E+03  0.56180373949E+03  0.64125664710E+03  0.50400001928E-02 0. -1.
</event>
<event>
 5   0  0.1186302E-04  0.1747378E+04  0.7818609E-02  0.8734795E-01
        1   -1    0    0  501    0  0.00000000000E+00  0.00000000000E+00  0.17609192238E+04  0.17609192238E+04  0.50400001928E-02 0. -1.
       -1   -1    0    0    0  501  0.00000000000E+00  0.00000000000E+00 -0.43348527234E+03  0.43348527237E+03  0.50400001928E-02 0.  1.
    10030    2    1    2    0    0  0.00000000000E+00  0.00000000000E+00  0.13274339514E+04  0.21944044962E+04  0.17473780923E+04 0.  0.
        3    1    3    3  502    0 -0.70929008992E+03  0.37106176951E+03  0.11033519667E+04  0.13631452018E+04  0.10100000352E+00 0. -1.
       -3    1    3    3    0  502  0.70929008992E+03 -0.37106176951E+03  0.22408198473E+03  0.83125929440E+03  0.10100000352E+00 0.  1.
</event>
<event>
 5   0  0.8372750E-05  0.1696362E+04  0.7818609E-02  0.8763442E-01
       -3   -1    0    0    0  501  0.00000000000E+00  0.00000000000E+00  0.71736370122E+03  0.71736370833E+03  0.10100000352E+00 0.  1.
        3   -1    0    0  501    0  0.00000000000E+00  0.00000000000E+00 -0.10028538549E+04  0.10028538600E+04  0.10100000352E+00 0. -1.
    10030    2    1    2    0    0  0.00000000000E+00  0.00000000000E+00 -0.28549015365E+03  0.17202175683E+04  0.16963619468E+04 0.  0.
        2    1    3    3  502    0 -0.21104960633E+03 -0.43658910348E+03 -0.84841839910E+03  0.97722349621E+03  0.25500000920E-02 0. -1.
       -2    1    3    3    0  502  0.21104960633E+03  0.43658910348E+03  0.56292824545E+03  0.74299407208E+03  0.25500000920E-02 0.  1.
</event>
<event>
 5   0  0.1234158E-04  0.1694507E+04  0.7818609E-02  0.8764504E-01
       -1   -1    0    0    0  501  0.00000000000E+00  0.00000000000E+00  0.56403533477E+03  0.56403533479E+03  0.50400001928E-02 0. -1.
        1   -1    0    0  501    0  0.00000000000E+00  0.00000000000E+00 -0.12726829035E+04  0.12726829035E+04  0.50400001928E-02 0.  1.
    10030    2    1    2    0    0  0.00000000000E+00  0.00000000000E+00 -0.70864756869E+03  0.18367182383E+04  0.16945065683E+04 0.  0.
        5    1    3    3  502    0  0.52293176822E+03  0.66501513006E+03 -0.30449528410E+03  0.89913415320E+03  0.46999998093E+01 0.  1.
       -5    1    3    3    0  502 -0.52293176822E+03 -0.66501513006E+03 -0.40415228459E+03  0.93758408506E+03  0.46999998093E+01 0. -1.
</event>
<event>
 5   0  0.2356829E-04  0.1702170E+04  0.7818609E-02  0.8760128E-01
        2   -1    0    0  501    0  0.00000000000E+00  0.00000000000E+00  0.39596912934E+03  0.39596912935E+03  0.25500000920E-02 0. -1.
       -2   -1    0    0    0  501  0.00000000000E+00  0.00000000000E+00 -0.18292988614E+04  0.18292988614E+04  0.25500000920E-02 0.  1.
    10030    2    1    2    0    0  0.00000000000E+00  0.00000000000E+00 -0.14333297320E+04  0.22252679907E+04  0.17021702353E+04 0.  0.
        5    1    3    3  502    0 -0.79855992841E+03 -0.20467906851E+03 -0.99316158220E+03  0.12907298318E+04  0.46999998093E+01 0. -1.
       -5    1    3    3    0  502  0.79855992841E+03  0.20467906851E+03 -0.44016814983E+03  0.93453815892E+03  0.46999998093E+01 0.  1.
</event>
<event>
 5   0  0.2356829E-04  0.1700515E+04  0.7818609E-02  0.8761071E-01
        2   -1    0    0  501    0  0.00000000000E+00  0.00000000000E+00  0.21002191010E+04  0.21002191010E+04  0.25500000920E-02 0. -1.
       -2   -1    0    0    0  501  0.00000000000E+00  0.00000000000E+00 -0.34422018139E+03  0.34422018140E+03  0.25500000920E-02 0.  1.
    10030    2    1    2    0    0  0.00000000000E+00  0.00000000000E+00  0.17559989196E+04  0.24444392824E+04  0.17005149807E+04 0.  0.
        5    1    3    3  502    0  0.49234793915E+03  0.67242218677E+03  0.63593352466E+03  0.10483280156E+04  0.46999998093E+01 0. -1.
       -5    1    3    3    0  502 -0.49234793915E+03 -0.67242218677E+03  0.11200653950E+04  0.13961112669E+04  0.46999998093E+01 0.  1.
</event>
<event>
 5   0  0.2224454E-04  0.1656078E+04  0.7818609E-02  0.8786819E-01
       -2   -1    0    0    0  501  0.00000000000E+00  0.00000000000E+00  0.89424270265E+03  0.89424270266E+03  0.25500000920E-02 0. -1.
        2   -1    0    0  501    0  0.00000000000E+00  0.00000000000E+00 -0.76673656513E+03  0.76673656513E+03  0.25500000920E-02 0.  1.
    10030    2    1    2    0    0  0.00000000000E+00  0.00000000000E+00  0.12750613752E+03  0.16609792678E+04  0.16560779912E+04 0.  0.
        2    1    3    3  502    0 -0.80384014775E+03 -0.14906526626E+03  0.19555409748E+03  0.84060742430E+03  0.25500000920E-02 0. -1.
       -2    1    3    3    0  502  0.80384014775E+03  0.14906526626E+03 -0.68047959956E+02  0.82037184349E+03  0.25500000920E-02 0.  1.
</event>
<event>
 5   0  0.1204741E-04  0.1706211E+04  0.7818609E-02  0.8757830E-01
       -1   -1    0    0    0  501  0.00000000000E+00  0.00000000000E+00  0.10731108365E+04  0.10731108365E+04  0.50400001928E-02 0. -1.
        1   -1    0    0  501    0  0.00000000000E+00  0.00000000000E+00 -0.67820457369E+03  0.67820457371E+03  0.50400001928E-02 0.  1.
    10030    2    1    2    0    0  0.00000000000E+00  0.00000000000E+00  0.39490626282E+03  0.17513154102E+04  0.17062106288E+04 0.  0.
        1    1    3    3  502    0 -0.70849320668E+03 -0.45785764212E+03  0.66839717476E+02  0.84620552599E+03  0.50400001928E-02 0.  1.
       -1    1    3    3    0  502  0.70849320668E+03  0.45785764212E+03  0.32806654534E+03  0.90510988425E+03  0.50400001928E-02 0. -1.
</event>
<event>
 5   0  0.2356829E-04  0.1665179E+04  0.7818609E-02  0.8781477E-01
        2   -1    0    0  501    0  0.00000000000E+00  0.00000000000E+00  0.10581452213E+04  0.10581452213E+04  0.25500000920E-02 0. -1.
       -2   -1    0    0    0  501  0.00000000000E+00  0.00000000000E+00 -0.65511334699E+03  0.65511334699E+03  0.25500000920E-02 0.  1.
    10030    2    1    2    0    0  0.00000000000E+00  0.00000000000E+00  0.40303187428E+03  0.17132585683E+04  0.16651787382E+04 0.  0.
        5    1    3    3  502    0 -0.42450149963E+03  0.49783598774E+03  0.73130173894E+03  0.98125762023E+03  0.46999998093E+01 0. -1.
       -5    1    3    3    0  502  0.42450149963E+03 -0.49783598774E+03 -0.32826986466E+03  0.73200094803E+03  0.46999998093E+01 0.  1.
</event>
<event>
 5   0  0.1234158E-04  0.1696034E+04  0.7818609E-02  0.8763630E-01
        1   -1    0    0  501    0  0.00000000000E+00  0.00000000000E+00  0.20335511456E+04  0.20335511456E+04  0.50400001928E-02 0.  1.
       -1   -1    0    0    0  501  0.00000000000E+00  0.00000000000E+00 -0.35363403183E+03  0.35363403186E+03  0.50400001928E-02 0. -1.
    10030    2    1    2    0    0  0.00000000000E+00  0.00000000000E+00  0.16799171138E+04  0.23871851775E+04  0.16960340688E+04 0.  0.
        5    1    3    3  502    0 -0.29745402017E+03  0.24507001162E+03  0.19031390308E+04  0.19417771410E+04  0.46999998093E+01 0.  1.
       -5    1    3    3    0  502  0.29745402017E+03 -0.24507001162E+03 -0.22322191704E+03  0.44540803647E+03  0.46999998093E+01 0. -1.
</event>
<event>
 5   0  0.2288806E-04  0.1700268E+04  0.7818609E-02  0.8761211E-01
       -2   -1    0    0    0  501  0.00000000000E+00  0.00000000000E+00  0.52237279362E+03  0.52237279363E+03  0.25500000920E-02 0.  1.
        2   -1    0    0  501    0  0.00000000000E+00  0.00000000000E+00 -0.13835482917E+04  0.13835482917E+04  0.25500000920E-02 0. -1.
    10030    2    1    2    0    0  0.00000000000E+00  0.00000000000E+00 -0.86117549810E+03  0.19059210854E+04  0.17002681980E+04 0.  0.
        3    1    3    3  502    0 -0.75298485176E+03 -0.31136267884E+03 -0.70239306327E+03  0.10757736427E+04  0.10100000352E+00 0. -1.
       -3    1    3    3    0  502  0.75298485176E+03  0.31136267884E+03 -0.15878243482E+03  0.83014744267E+03  0.10100000352E+00 0.  1.
</event>
<event>
 5   0  0.2356829E-04  0.1698321E+04  0.7818609E-02  0.8762323E-01
        2   -1    0    0  501    0  0.00000000000E+00  0.00000000000E+00  0.10212299374E+04  0.10212299374E+04  0.25500000920E-02 0.  1.
       -2   -1    0    0    0  501  0.00000000000E+00  0.00000000000E+00 -0.70608318621E+03  0.70608318621E+03  0.25500000920E-02 0. -1.
    10030    2    1    2    0    0  0.00000000000E+00  0.00000000000E+00  0.31514675115E+03  0.17273131236E+04  0.16983206859E+04 0.  0.
        5    1    3    3  502    0  0.61642113140E+03  0.33306999667E+03  0.64549263355E+03  0.95267699872E+03  0.46999998093E+01 0.  1.
       -5    1    3    3    0  502 -0.61642113140E+03 -0.33306999667E+03 -0.33034588240E+03  0.77463612486E+03  0.46999998093E+01 0. -1.
</event>
<event>
 5   0  0.1126958E-04  0.1750634E+04  0.7818609E-02  0.8733001E-01
       -1   -1    0    0    0  501  0.00000000000E+00  0.00000000000E+00  0.30875938015E+03  0.30875938019E+03  0.50400001928E-02 0. -1.
        1   -1    0    0  501    0  0.00000000000E+00  0.00000000000E+00 -0.24814783354E+04  0.24814783354E+04  0.50400001928E-02 0.  1.
    10030    2    1    2    0    0  0.00000000000E+00  0.00000000000E+00 -0.21727189553E+04  0.27902377156E+04  0.17506338426E+04 0.  0.
        4    1    3    3  502    0 -0.26575600263E+02 -0.86790052996E+03 -0.91016572538E+03  0.12579192554E+04  0.12699999809E+01 0. -1.
       -4    1    3    3    0  502  0.26575600263E+02  0.86790052996E+03 -0.12625532299E+04  0.15323184603E+04  0.12699999809E+01 0.  1.
</event>
<event>
 5   0  0.2288806E-04  0.1719777E+04  0.7818609E-02  0.8750165E-01
       -2   -1    0    0    0  501  0.00000000000E+00  0.00000000000E+00  0.34989739579E+03  0.34989739580E+03  0.25500000920E-02 0. -1.
        2   -1    0    0  501    0  0.00000000000E+00  0.00000000000E+00 -0.21132134502E+04  0.21132134502E+04  0.25500000920E-02 0.  1.
    10030    2    1    2    0    0  0.00000000000E+00  0.00000000000E+00 -0.17633160544E+04  0.24631108460E+04  0.17197765936E+04 0.  0.
        3    1    3    3  502    0  0.54118247856E+03 -0.50931100987E+03 -0.15012212012E+04  0.16750944108E+04  0.10100000352E+00 0.  1.
       -3    1    3    3    0  502 -0.54118247856E+03  0.50931100987E+03 -0.26209485318E+03  0.78801643520E+03  0.10100000352E+00 0. -1.
</event>
<event>
 5   0  0.2224454E-04  0.1712969E+04  0.7818609E-02  0.8754002E-01
       -2   -1    0    0    0  501  0.00000000000E+00  0.00000000000E+00  0.30288209153E+03  0.30288209154E+03  0.25500000920E-02 0.  1.
        2   -1    0    0  501    0  0.00000000000E+00  0.00000000000E+00 -0.24219518744E+04  0.24219518744E+04  0.25500000920E-02 0. -1.
    10030    2    1    2    0    0  0.00000000000E+00  0.00000000000E+00 -0.21190697828E+04  0.27248339659E+04  0.17129691758E+04 0.  0.
        2    1    3    3  502    0 -0.33741677238E+03  0.13631596377E+02 -0.23115848252E+04  0.23361207808E+04  0.25500000920E-02 0. -1.
       -2    1    3    3    0  502  0.33741677238E+03 -0.13631596377E+02  0.19251504234E+03  0.38871318506E+03  0.25500000920E-02 0.  1.
</event>
<event>
 5   0  0.2242967E-04  0.1703773E+04  0.7818609E-02  0.8759215E-01
       -2   -1    0    0    0  501  0.00000000000E+00  0.00000000000E+00  0.45153011585E+03  0.45153011586E+03  0.25500000920E-02 0.  1.
        2   -1    0    0  501    0  0.00000000000E+00  0.00000000000E+00 -0.16072255702E+04  0.16072255702E+04  0.25500000920E-02 0. -1.
    10030    2    1    2    0    0  0.00000000000E+00  0.00000000000E+00 -0.11556954544E+04  0.20587556861E+04  0.17037731632E+04 0.  0.
        4    1    3    3  502    0 -0.35852473334E+03  0.34033988147E+03  0.26048819334E+03  0.55877270075E+03  0.12699999809E+01 0.  1.
       -4    1    3    3    0  502  0.35852473334E+03 -0.34033988147E+03 -0.14161836477E+04  0.14999829853E+04  0.12699999809E+01 0. -1.
</event>
<event>
 5   0  0.2288806E-04  0.1676631E+04  0.7818609E-02  0.8774806E-01
       -2   -1    0    0    0  501  0.00000000000E+00  0.00000000000E+00  0.81823546018E+03  0.81823546019E+03  0.25500000920E-02 0. -1.
        2   -1    0    0  501    0  0.00000000000E+00  0.00000000000E+00 -0.85888864947E+03  0.85888864947E+03  0.25500000920E-02 0.  1.
    10030    2    1    2    0    0  0.00000000000E+00  0.00000000000E+00 -0.40653189289E+02  0.16771241097E+04  0.16766313242E+04 0.  0.
        3    1    3    3  502    0  0.87722165268E+02 -0.41188369297E+03  0.70475180944E+03  0.82098628364E+03  0.10100000352E+00 0. -1.
       -3    1    3    3    0  502 -0.87722165268E+02  0.41188369297E+03 -0.74540499873E+03  0.85613782602E+03  0.10100000352E+00 0.  1.
</event>
<event>
 5   0  0.2234723E-04  0.1700807E+04  0.7818609E-02  0.8760905E-01
       -2   -1    0    0    0  501  0.00000000000E+00  0.00000000000E+00  0.40988325835E+03  0.40988325836E+03  0.25500000920E-02 0.  1.
        2   -1    0    0  501    0  0.00000000000E+00  0.00000000000E+00 -0.17643699465E+04  0.17643699465E+04  0.25500000920E-02 0. -1.
    10030    2    1    2    0    0  0.00000000000E+00  0.00000000000E+00 -0.13544866881E+04  0.21742532048E+04  0.17008065176E+04 0.  0.
        1    1    3    3  502    0 -0.61600441119E+03 -0.26996555074E+02  0.71442099656E+02  0.62072072805E+03  0.50400001928E-02 0.  1.
       -1    1    3    3    0  502  0.61600441119E+03  0.26996555074E+02 -0.14259287878E+04  0.15535324768E+04  0.50400001928E-02 0. -1.
</event>
<event>
 5   0  0.2234723E-04  0.1689460E+04  0.7818609E-02  0.8767399E-01
        2   -1    0    0  501    0  0.00000000000E+00  0.00000000000E+00  0.87634466791E+03  0.87634466791E+03  0.25500000920E-02 0.  1.
       -2   -1    0    0    0  501  0.00000000000E+00  0.00000000000E+00 -0.81425586330E+03  0.81425586330E+03  0.25500000920E-02 0. -1.
    10030    2    1    2    0    0  0.00000000000E+00  0.00000000000E+00  0.62088804615E+02  0.16906005312E+04  0.16894600133E+04 0.  0.
        1    1    3    3  502    0  0.79656259169E+03  0.14196490779E+03 -0.21181840137E+03  0.83638091364E+03  0.50400001928E-02 0. -1.
       -1    1    3    3    0  502 -0.79656259169E+03 -0.14196490779E+03  0.27390720598E+03  0.85421961757E+03  0.50400001928E-02 0.  1.
</event>
<event>
 5   0  0.1204741E-04  0.1690260E+04  0.7818609E-02  0.8766939E-01
       -1   -1    0    0    0  501  0.00000000000E+00  0.00000000000E+00  0.44838022867E+03  0.44838022870E+03  0.50400001928E-02 0. -1.
        1   -1    0    0  501    0  0.00000000000E+00  0.00000000000E+00 -0.15929434292E+04  0.15929434292E+04  0.50400001928E-02 0.  1.
    10030    2    1    2    0    0  0.00000000000E+00  0.00000000000E+00 -0.11445632006E+04  0.20413236579E+04  0.16902595530E+04 0.  0.
        1    1    3    3  502    0 -0.10471966108E+03 -0.53073120132E+03  0.21188812369E+03  0.58098054396E+03  0.50400001928E-02 0. -1.
       -1    1    3    3    0  502  0.10471966108E+03  0.53073120132E+03 -0.13564513242E+04  0.14603431140E+04  0.50400001928E-02 0.  1.
</event>
<event>
 5   0  0.1215233E-04  0.1707783E+04  0.7818609E-02  0.8756938E-01
       -1   -1    0    0    0  501  0.00000000000E+00  0.00000000000E+00  0.62931659746E+03  0.62931659748E+03  0.50400001928E-02 0.  1.
        1   -1    0    0  501    0  0.00000000000E+00  0.00000000000E+00 -0.11586078003E+04  0.11586078004E+04  0.50400001928E-02 0. -1.
    10030    2    1    2    0    0  0.00000000000E+00  0.00000000000E+00 -0.52929120289E+03  0.17879243978E+04  0.17077834977E+04 0.  0.
        2    1    3    3  502    0  0.89262012485E+02  0.54014972702E+02 -0.11519096490E+04  0.11566249019E+04  0.25500000920E-02 0. -1.
       -2    1    3    3    0  502 -0.89262012485E+02 -0.54014972702E+02  0.62261844612E+03  0.63129949596E+03  0.25500000920E-02 0.  1.
</event>
<event>
 5   0  0.2234723E-04  0.1703371E+04  0.7818609E-02  0.8759444E-01
       -2   -1    0    0    0  501  0.00000000000E+00  0.00000000000E+00  0.59565866961E+03  0.59565866962E+03  0.25500000920E-02 0. -1.
        2   -1    0    0  501    0  0.00000000000E+00  0.00000000000E+00 -0.12177578187E+04  0.12177578187E+04  0.25500000920E-02 0.  1.
    10030    2    1    2    0    0  0.00000000000E+00  0.00000000000E+00 -0.62209914911E+03  0.18134164883E+04  0.17033707784E+04 0.  0.
        1    1    3    3  502    0  0.83806565425E+02  0.40903511929E+03  0.47922471814E+03  0.63560176190E+03  0.50400001928E-02 0. -1.
       -1    1    3    3    0  502 -0.83806565425E+02 -0.40903511929E+03 -0.11013238672E+04  0.11778147264E+04  0.50400001928E-02 0.  1.
</event>
<event>
 5   0  0.1234158E-04  0.1694182E+04  0.7818609E-02  0.8764690E-01
       -1   -1    0    0    0  501  0.00000000000E+00  0.00000000000E+00  0.27392740565E+03  0.27392740569E+03  0.50400001928E-02 0. -1.
        1   -1    0    0  501    0  0.00000000000E+00  0.00000000000E+00 -0.26195373852E+04  0.26195373852E+04  0.50400001928E-02 0.  1.
    10030    2    1    2    0    0  0.00000000000E+00  0.00000000000E+00 -0.23456099796E+04  0.28934647909E+04  0.16941819029E+04 0.  0.
        5    1    3    3  502    0  0.43116222183E+03  0.19480367703E+03  0.27208304086E+02  0.47393218494E+03  0.46999998093E+01 0. -1.
       -5    1    3    3    0  502 -0.43116222183E+03 -0.19480367703E+03 -0.23728182837E+04  0.24195326060E+04  0.46999998093E+01 0.  1.
</event>
<event>
 5   0  0.2356829E-04  0.1714131E+04  0.7818609E-02  0.8753346E-01
        2   -1    0    0  501    0  0.00000000000E+00  0.00000000000E+00  0.67748059294E+03  0.67748059295E+03  0.25500000920E-02 0.  1.
       -2   -1    0    0    0  501  0.00000000000E+00  0.00000000000E+00 -0.10842546534E+04  0.10842546534E+04  0.25500000920E-02 0. -1.
    10030    2    1    2    0    0  0.00000000000E+00  0.00000000000E+00 -0.40677406049E+03  0.17617352464E+04  0.17141312499E+04 0.  0.
        5    1    3    3  502    0 -0.79089846465E+03  0.31086819421E+03 -0.89031666010E+02  0.85446365815E+03  0.46999998093E+01 0.  1.
       -5    1    3    3    0  502  0.79089846465E+03 -0.31086819421E+03 -0.31774239448E+03  0.90727158823E+03  0.46999998093E+01 0. -1.
</event>
<event>
 5   0  0.1186302E-04  0.1672214E+04  0.7818609E-02  0.8777373E-01
        1   -1    0    0  501    0  0.00000000000E+00  0.00000000000E+00  0.63328800483E+03  0.63328800485E+03  0.50400001928E-02 0. -1.
       -1   -1    0    0    0  501  0.00000000000E+00  0.00000000000E+00 -0.11038809517E+04  0.11038809517E+04  0.50400001928E-02 0.  1.
    10030    2    1    2    0    0  0.00000000000E+00  0.00000000000E+00 -0.47059294684E+03  0.17371689565E+04  0.16722135814E+04 0.  0.
        3    1    3    3  502    0 -0.78739940682E+03 -0.21705859895E+03 -0.49571936250E+02  0.81827235582E+03  0.10100000352E+00 0.  1.
       -3    1    3    3    0  502  0.78739940682E+03  0.21705859895E+03 -0.42102101059E+03  0.91889660071E+03  0.10100000352E+00 0. -1.
</event>
<event>
 5   0  0.2224454E-04  0.1524108E+04  0.7818609E-02  0.8868578E-01
       -2   -1    0    0    0  501  0.00000000000E+00  0.00000000000E+00  0.39808228837E+03  0.39808228838E+03  0.25500000920E-02 0. -1.
        2   -1    0    0  501    0  0.00000000000E+00  0.00000000000E+00 -0.14588095146E+04  0.14588095146E+04  0.25500000920E-02 0.  1.
    10030    2    1    2    0    0  0.00000000000E+00  0.00000000000E+00 -0.10607272263E+04  0.18568918030E+04  0.15241079094E+04 0.  0.
        2    1    3    3  502    0  0.50115797738E+02  0.50966922225E+03  0.15716823170E+03  0.53570156091E+03  0.25500000920E-02 0. -1.
       -2    1    3    3    0  502 -0.50115797738E+02 -0.50966922225E+03 -0.12178954580E+04  0.13211902421E+04  0.25500000920E-02 0.  1.
</event>
<event>
 5   0  0.1126958E-04  0.1539506E+04  0.7818609E-02  0.8858599E-01
       -1   -1    0    0    0  501  0.00000000000E+00  0.00000000000E+00  0.37944195247E+03  0.37944195251E+03  0.50400001928E-02 0.  1.
        1   -1    0    0  501    0  0.00000000000E+00  0.00000000000E+00 -0.15615561554E+04  0.15615561554E+04  0.50400001928E-02 0. -1.
    10030    2    1    2    0    0  0.00000000000E+00  0.00000000000E+00 -0.11821142029E+04  0.19409981079E+04  0.15395063060E+04 0.  0.
        4    1    3    3  502    0  0.51241932520E+03 -0.32869700675E+03  0.28591962007E+01  0.60878984468E+03  0.12699999809E+01 0.  1.
       -4    1    3    3    0  502 -0.51241932520E+03  0.32869700675E+03 -0.11849733991E+04  0.13322082632E+04  0.12699999809E+01 0. -1.
</event>
<event>
 5   0  0.1234158E-04  0.1703740E+04  0.7818609E-02  0.8759234E-01
        1   -1    0    0  501    0  0.00000000000E+00  0.00000000000E+00  0.14905400459E+04  0.14905400459E+04  0.50400001928E-02 0. -1.
       -1   -1    0    0    0  501  0.00000000000E+00  0.00000000000E+00 -0.48685869928E+03  0.48685869931E+03  0.50400001928E-02 0.  1.
    10030    2    1    2    0    0  0.00000000000E+00  0.00000000000E+00  0.10036813467E+04  0.19773987453E+04  0.17037398722E+04 0.  0.
        5    1    3    3  502    0 -0.41414278028E+03 -0.54473172015E+03  0.10906932094E+04  0.12875871452E+04  0.46999998093E+01 0. -1.
       -5    1    3    3    0  502  0.41414278028E+03  0.54473172015E+03 -0.87011862714E+02  0.68981160011E+03  0.46999998093E+01 0.  1.
</event>
<event>
 5   0  0.1204741E-04  0.1694495E+04  0.7818609E-02  0.8764510E-01
       -1   -1    0    0    0  501  0.00000000000E+00  0.00000000000E+00  0.11395189026E+04  0.11395189026E+04  0.50400001928E-02 0. -1.
        1   -1    0    0  501    0  0.00000000000E+00  0.00000000000E+00 -0.62994004095E+03  0.62994004097E+03  0.50400001928E-02 0.  1.
    10030    2    1    2    0    0  0.00000000000E+00  0.00000000000E+00  0.50957886168E+03  0.17694589436E+04  0.16944953045E+04 0.  0.
        1    1    3    3  502    0  0.37531759970E+03  0.19800352592E+03  0.10205523325E+04  0.11052582324E+04  0.50400001928E-02 0. -1.
       -1    1    3    3    0  502 -0.37531759970E+03 -0.19800352592E+03 -0.51097347079E+03  0.66420071123E+03  0.50400001928E-02 0.  1.
</event>
<event>
 5   0  0.1215233E-04  0.1708485E+04  0.7818609E-02  0.8756540E-01
        1   -1    0    0  501    0  0.00000000000E+00  0.00000000000E+00  0.70603030198E+03  0.70603030200E+03  0.50400001928E-02 0.  1.
       -1   -1    0    0    0  501  0.00000000000E+00  0.00000000000E+00 -0.10335679680E+04  0.10335679681E+04  0.50400001928E-02 0. -1.
    10030    2    1    2    0    0  0.00000000000E+00  0.00000000000E+00 -0.32753766606E+03  0.17395982701E+04  0.17084850653E+04 0.  0.
        2    1    3    3  502    0  0.62423496679E+03 -0.52635771984E+03 -0.41935512840E+03  0.91792181950E+03  0.25500000920E-02 0. -1.
       -2    1    3    3    0  502 -0.62423496679E+03  0.52635771984E+03  0.91817462335E+02  0.82167645056E+03  0.25500000920E-02 0.  1.
</event>
<event>
 5   0  0.2288806E-04  0.1706075E+04  0.7818609E-02  0.8757907E-01
       -2   -1    0    0    0  501  0.00000000000E+00  0.00000000000E+00  0.54299613071E+03  0.54299613071E+03  0.25500000920E-02 0. -1.
        2   -1    0    0  501    0  0.00000000000E+00  0.00000000000E+00 -0.13401076737E+04  0.13401076737E+04  0.25500000920E-02 0.  1.
    10030    2    1    2    0    0  0.00000000000E+00  0.00000000000E+00 -0.79711154297E+03  0.18831038044E+04  0.17060753577E+04 0.  0.
        3    1    3    3  502    0 -0.65698783853E+03  0.41574989284E+03 -0.78596306579E+03  0.11055401143E+04  0.10100000352E+00 0.  1.
       -3    1    3    3    0  502  0.65698783853E+03 -0.41574989284E+03 -0.11148477186E+02  0.77756369008E+03  0.10100000352E+00 0. -1.
</event>
<event>
 5   0  0.2234723E-04  0.1842938E+04  0.7818609E-02  0.8683793E-01
       -2   -1    0    0    0  501  0.00000000000E+00  0.00000000000E+00  0.30368573500E+03  0.30368573501E+03  0.25500000920E-02 0. -1.
        2   -1    0    0  501    0  0.00000000000E+00  0.00000000000E+00 -0.27959991755E+04  0.27959991755E+04  0.25500000920E-02 0.  1.
    10030    2    1    2    0    0  0.00000000000E+00  0.00000000000E+00 -0.24923134405E+04  0.30996849105E+04  0.18429379422E+04 0.  0.
        1    1    3    3  502    0 -0.50306549489E+03  0.47632096332E+03 -0.22680543672E+04  0.23715031446E+04  0.50400001928E-02 0.  1.
       -1    1    3    3    0  502  0.50306549489E+03 -0.47632096332E+03 -0.22425907333E+03  0.72818176594E+03  0.50400001928E-02 0. -1.
</event>
<event>
 5   0  0.1215233E-04  0.1684932E+04  0.7818609E-02  0.8770005E-01
       -1   -1    0    0    0  501  0.00000000000E+00  0.00000000000E+00  0.42184955437E+03  0.42184955440E+03  0.50400001928E-02 0. -1.
        1   -1    0    0  501    0  0.00000000000E+00  0.00000000000E+00 -0.16824700920E+04  0.16824700920E+04  0.50400001928E-02 0.  1.
    10030    2    1    2    0    0  0.00000000000E+00  0.00000000000E+00 -0.12606205376E+04  0.21043196464E+04  0.16849323530E+04 0.  0.
        2    1    3    3  502    0 -0.13112413673E+03 -0.52363721388E+03  0.17749039806E+03  0.56823614141E+03  0.25500000920E-02 0. -1.
       -2    1    3    3    0  502  0.13112413673E+03  0.52363721388E+03 -0.14381109356E+04  0.15360835050E+04  0.25500000920E-02 0.  1.
</event>
<event>
 5   0  0.1126958E-04  0.1704145E+04  0.7818609E-02  0.8759004E-01
       -1   -1    0    0    0  501  0.00000000000E+00  0.00000000000E+00  0.56286428499E+03  0.56286428502E+03  0.50400001928E-02 0. -1.
        1   -1    0    0  501    0  0.00000000000E+00  0.00000000000E+00 -0.12898809600E+04  0.12898809600E+04  0.50400001928E-02 0.  1.
    10030    2    1    2    0    0  0.00000000000E+00  0.00000000000E+00 -0.72701667500E+03  0.18527452450E+04  0.17041454449E+04 0.  0.
        4    1    3    3  502    0 -0.68529108071E+03 -0.43301693590E+03 -0.78134067791E+02  0.81439184520E+03  0.12699999809E+01 0. -1.
       -4    1    3    3    0  502  0.68529108071E+03  0.43301693590E+03 -0.64888260721E+03  0.10383533998E+04  0.12699999809E+01 0.  1.
</event>
<event>
 5   0  0.1186302E-04  0.1868038E+04  0.7818609E-02  0.8670932E-01
       -1   -1    0    0    0  501  0.00000000000E+00  0.00000000000E+00  0.36276066193E+03  0.36276066197E+03  0.50400001928E-02 0. -1.
        1   -1    0    0  501    0  0.00000000000E+00  0.00000000000E+00 -0.24048676928E+04  0.24048676928E+04  0.50400001928E-02 0.  1.
    10030    2    1    2    0    0  0.00000000000E+00  0.00000000000E+00 -0.20421070309E+04  0.27676283548E+04  0.18680378970E+04 0.  0.
        3    1    3    3  502    0  0.24209309642E+03  0.57449031260E+03 -0.20515096881E+04  0.21441408996E+04  0.10100000352E+00 0.  1.
       -3    1    3    3    0  502 -0.24209309642E+03 -0.57449031260E+03  0.94026572683E+01  0.62348745518E+03  0.10100000352E+00 0. -1.
</event>
<event>
 5   0  0.1126958E-04  0.1703067E+04  0.7818609E-02  0.8759617E-01
        1   -1    0    0  501    0  0.00000000000E+00  0.00000000000E+00  0.11772453878E+04  0.11772453878E+04  0.50400001928E-02 0.  1.
       -1   -1    0    0    0  501  0.00000000000E+00  0.00000000000E+00 -0.61593735557E+03  0.61593735559E+03  0.50400001928E-02 0. -1.
    10030    2    1    2    0    0  0.00000000000E+00  0.00000000000E+00  0.56130803220E+03  0.17931827434E+04  0.17030671285E+04 0.  0.
        4    1    3    3  502    0 -0.53693999901E+02  0.14180831795E+03 -0.60160673114E+03  0.62042317536E+03  0.12699999809E+01 0. -1.
       -4    1    3    3    0  502  0.53693999901E+02 -0.14180831795E+03  0.11629147633E+04  0.11727595680E+04  0.12699999809E+01 0.  1.
</event>
<event>
 5   0  0.2224454E-04  0.1703701E+04  0.7818609E-02  0.8759256E-01
       -2   -1    0    0    0  501  0.00000000000E+00  0.00000000000E+00  0.26470673427E+03  0.26470673428E+03  0.25500000920E-02 0.  1.
        2   -1    0    0  501    0  0.00000000000E+00  0.00000000000E+00 -0.27413338827E+04  0.27413338827E+04  0.25500000920E-02 0. -1.
    10030    2    1    2    0    0  0.00000000000E+00  0.00000000000E+00 -0.24766271484E+04  0.30060406170E+04  0.17037013114E+04 0.  0.
        2    1    3    3  502    0  0.39824880803E+03 -0.73656507279E+03 -0.15145974872E+04  0.17306460550E+04  0.25500000920E-02 0.  1.
       -2    1    3    3    0  502 -0.39824880803E+03  0.73656507279E+03 -0.96202966126E+03  0.12753945620E+04  0.25500000920E-02 0. -1.
</event>
<event>
 5   0  0.2234723E-04  0.1682951E+04  0.7818609E-02  0.8771148E-01
       -2   -1    0    0    0  501  0.00000000000E+00  0.00000000000E+00  0.77177753233E+03  0.77177753234E+03  0.25500000920E-02 0.  1.
        2   -1    0    0  501    0  0.00000000000E+00  0.00000000000E+00 -0.91746733067E+03  0.91746733067E+03  0.25500000920E-02 0. -1.
    10030    2    1    2    0    0  0.00000000000E+00  0.00000000000E+00 -0.14568979834E+03  0.16892448630E+04  0.16829505904E+04 0.  0.
        1    1    3    3  502    0 -0.29528449000E+03 -0.63545110833E+03 -0.54051626670E+03  0.88495699088E+03  0.50400001928E-02 0. -1.
       -1    1    3    3    0  502  0.29528449000E+03  0.63545110833E+03  0.39482646837E+03  0.80428787213E+03  0.50400001928E-02 0.  1.
</event>
<event>
 5   0  0.1204741E-04  0.1700722E+04  0.7818609E-02  0.8760953E-01
       -1   -1    0    0    0  501  0.00000000000E+00  0.00000000000E+00  0.54950803385E+03  0.54950803387E+03  0.50400001928E-02 0. -1.
        1   -1    0    0  501    0  0.00000000000E+00  0.00000000000E+00 -0.13159293212E+04  0.13159293213E+04  0.50400001928E-02 0.  1.
    10030    2    1    2    0    0  0.00000000000E+00  0.00000000000E+00 -0.76642128739E+03  0.18654373551E+04  0.17007218868E+04 0.  0.
        1    1    3    3  502    0 -0.47495483124E+03 -0.53803124792E+03  0.11709502395E+03  0.72716639094E+03  0.50400001928E-02 0. -1.
       -1    1    3    3    0  502  0.47495483124E+03  0.53803124792E+03 -0.88351631135E+03  0.11382709642E+04  0.50400001928E-02 0.  1.
</event>
<event>
 5   0  0.2224454E-04  0.1702310E+04  0.7818609E-02  0.8760048E-01
       -2   -1    0    0    0  501  0.00000000000E+00  0.00000000000E+00  0.95100001496E+03  0.95100001497E+03  0.25500000920E-02 0. -1.
        2   -1    0    0  501    0  0.00000000000E+00  0.00000000000E+00 -0.76179230860E+03  0.76179230861E+03  0.25500000920E-02 0.  1.
    10030    2    1    2    0    0  0.00000000000E+00  0.00000000000E+00  0.18920770636E+03  0.17127923236E+04  0.17023096039E+04 0.  0.
        2    1    3    3  502    0  0.43423905504E+03 -0.45566139043E+03 -0.48187603708E+03  0.79271392997E+03  0.25500000920E-02 0.  1.
       -2    1    3    3    0  502 -0.43423905504E+03  0.45566139043E+03  0.67108374344E+03  0.92007839360E+03  0.25500000920E-02 0. -1.
</event>
<event>
 5   0  0.1186302E-04  0.1701004E+04  0.7818609E-02  0.8760792E-01
       -1   -1    0    0    0  501  0.00000000000E+00  0.00000000000E+00  0.14221787221E+04  0.14221787221E+04  0.50400001928E-02 0.  1.
        1   -1    0    0  501    0  0.00000000000E+00  0.00000000000E+00 -0.50862372647E+03  0.50862372649E+03  0.50400001928E-02 0. -1.
    10030    2    1    2    0    0  0.00000000000E+00  0.00000000000E+00  0.91355499563E+03  0.19308024486E+04  0.17010042226E+04 0.  0.
        3    1    3    3  502    0  0.33668423380E+03 -0.78090226595E+03  0.47239110490E+03  0.97278876866E+03  0.10100000352E+00 0. -1.
       -3    1    3    3    0  502 -0.33668423380E+03  0.78090226595E+03  0.44116389073E+03  0.95801367993E+03  0.10100000352E+00 0.  1.
</event>
<event>
 5   0  0.2234723E-04  0.1702291E+04  0.7818609E-02  0.8760059E-01
       -2   -1    0    0    0  501  0.00000000000E+00  0.00000000000E+00  0.96017799845E+03  0.96017799846E+03  0.25500000920E-02 0.  1.
        2   -1    0    0  501    0  0.00000000000E+00  0.00000000000E+00 -0.75449403377E+03  0.75449403377E+03  0.25500000920E-02 0. -1.
    10030    2    1    2    0    0  0.00000000000E+00  0.00000000000E+00  0.20568396469E+03  0.17146720322E+04  0.17022908931E+04 0.  0.
        1    1    3    3  502    0  0.77517419595E+03 -0.35099402070E+03  0.83817192492E+02  0.85505389211E+03  0.50400001928E-02 0.  1.
       -1    1    3    3    0  502 -0.77517419595E+03  0.35099402070E+03  0.12186677219E+03  0.85961814012E+03  0.50400001928E-02 0. -1.
</event>
<event>
 5   0  0.1186302E-04  0.1703501E+04  0.7818609E-02  0.8759370E-01
        1   -1    0    0  501    0  0.00000000000E+00  0.00000000000E+00  0.92420916594E+03  0.92420916595E+03  0.50400001928E-02 0.  1.
       -1   -1    0    0    0  501  0.00000000000E+00  0.00000000000E+00 -0.78497250583E+03  0.78497250585E+03  0.50400001928E-02 0. -1.
    10030    2    1    2    0    0  0.00000000000E+00  0.00000000000E+00  0.13923666011E+03  0.17091816718E+04  0.17035008482E+04 0.  0.
        3    1    3    3  502    0 -0.30385222625E+02 -0.43566968201E+03  0.80332122130E+03  0.91436115861E+03  0.10100000352E+00 0.  1.
       -3    1    3    3    0  502  0.30385222625E+02  0.43566968201E+03 -0.66408456119E+03  0.79482051319E+03  0.10100000352E+00 0. -1.
</event>
<event>
 5   0  0.2356829E-04  0.1705840E+04  0.7818609E-02  0.8758040E-01
        2   -1    0    0  501    0  0.00000000000E+00  0.00000000000E+00  0.19382331431E+04  0.19382331431E+04  0.25500000920E-02 0. -1.
       -2   -1    0    0    0  501  0.00000000000E+00  0.00000000000E+00 -0.37532777538E+03  0.37532777539E+03  0.25500000920E-02 0.  1.
    10030    2    1    2    0    0  0.00000000000E+00  0.00000000000E+00  0.15629053678E+04  0.23135609185E+04  0.17058402432E+04 0.  0.
        5    1    3    3  502    0 -0.26024821580E+03 -0.56144781690E+03  0.15774944364E+04  0.16945393391E+04  0.46999998093E+01 0. -1.
       -5    1    3    3    0  502  0.26024821580E+03  0.56144781690E+03 -0.14589068600E+02  0.61902157947E+03  0.46999998093E+01 0.  1.
</event>
<event>
 5   0  0.2234723E-04  0.1698591E+04  0.7818609E-02  0.8762168E-01
       -2   -1    0    0    0  501  0.00000000000E+00  0.00000000000E+00  0.28954141062E+03  0.28954141063E+03  0.25500000920E-02 0. -1.
        2   -1    0    0  501    0  0.00000000000E+00  0.00000000000E+00 -0.24911920341E+04  0.24911920341E+04  0.25500000920E-02 0.  1.
    10030    2    1    2    0    0  0.00000000000E+00  0.00000000000E+00 -0.22016506235E+04  0.27807334448E+04  0.16985914820E+04 0.  0.
        1    1    3    3  502    0  0.15895569478E+03 -0.34666308420E+03 -0.23431332787E+04  0.23739662526E+04  0.50400001928E-02 0.  1.
       -1    1    3    3    0  502 -0.15895569478E+03  0.34666308420E+03  0.14148265519E+03  0.40676719213E+03  0.50400001928E-02 0. -1.
</event>
<event>
 5   0  0.1215233E-04  0.1701120E+04  0.7818609E-02  0.8760726E-01
       -1   -1    0    0    0  501  0.00000000000E+00  0.00000000000E+00  0.13111189947E+04  0.13111189947E+04  0.50400001928E-02 0. -1.
        1   -1    0    0  501    0  0.00000000000E+00  0.00000000000E+00 -0.55178228023E+03  0.55178228025E+03  0.50400001928E-02 0.  1.
    10030    2    1    2    0    0  0.00000000000E+00  0.00000000000E+00  0.75933671448E+03  0.18629012750E+04  0.17011199000E+04 0.  0.
        2    1    3    3  502    0 -0.43511819815E+03  0.55796939268E+03  0.89656913502E+03  0.11421444319E+04  0.25500000920E-02 0. -1.
       -2    1    3    3    0  502  0.43511819815E+03 -0.55796939268E+03 -0.13723242053E+03  0.72075684303E+03  0.25500000920E-02 0.  1.
</event>
<event>
 5   0  0.2224454E-04  0.1697061E+04  0.7818609E-02  0.8763043E-01
        2   -1    0    0  501    0  0.00000000000E+00  0.00000000000E+00  0.64935401865E+03  0.64935401865E+03  0.25500000920E-02 0.  1.
       -2   -1    0    0    0  501  0.00000000000E+00  0.00000000000E+00 -0.11087999238E+04  0.11087999238E+04  0.25500000920E-02 0. -1.
    10030    2    1    2    0    0  0.00000000000E+00  0.00000000000E+00 -0.45944590517E+03  0.17581539425E+04  0.16970606193E+04 0.  0.
        2    1    3    3  502    0 -0.76536727944E+03  0.33555496913E+03 -0.38205179139E+03  0.91888398673E+03  0.25500000920E-02 0. -1.
       -2    1    3    3    0  502  0.76536727944E+03 -0.33555496913E+03 -0.77394113779E+02  0.83926995574E+03  0.25500000920E-02 0.  1.
</event>
<event>
 5   0  0.2234723E-04  0.1710607E+04  0.7818609E-02  0.8755338E-01
       -2   -1    0    0    0  501  0.00000000000E+00  0.00000000000E+00  0.57622421195E+03  0.57622421196E+03  0.25500000920E-02 0.  1.
        2   -1    0    0  501    0  0.00000000000E+00  0.00000000000E+00 -0.12695474841E+04  0.12695474841E+04  0.25500000920E-02 0. -1.
    10030    2    1    2    0    0  0.00000000000E+00  0.00000000000E+00 -0.69332327217E+03  0.18457716961E+04  0.17106069082E+04 0.  0.
        1    1    3    3  502    0  0.57734610684E+03 -0.10498667260E+03 -0.10180775961E+04  0.11750883882E+04  0.50400001928E-02 0. -1.
       -1    1    3    3    0  502 -0.57734610684E+03  0.10498667260E+03  0.32475432390E+03  0.67068330785E+03  0.50400001928E-02 0.  1.
</event>
<event>
 5   0  0.1215233E-04  0.1685069E+04  0.7818609E-02  0.8769926E-01
        1   -1    0    0  501    0  0.00000000000E+00  0.00000000000E+00  0.11517236820E+04  0.11517236820E+04  0.50400001928E-02 0.  1.
       -1   -1    0    0    0  501  0.00000000000E+00  0.00000000000E+00 -0.61634934076E+03  0.61634934078E+03  0.50400001928E-02 0. -1.
    10030    2    1    2    0    0  0.00000000000E+00  0.00000000000E+00  0.53537434126E+03  0.17680730228E+04  0.16850687015E+04 0.  0.
        2    1    3    3  502    0  0.38480894431E+02 -0.57148452968E+03 -0.38063992017E+03  0.68772239729E+03  0.25500000920E-02 0. -1.
       -2    1    3    3    0  502 -0.38480894431E+02  0.57148452968E+03  0.91601426144E+03  0.10803506255E+04  0.25500000920E-02 0.  1.
</event>
<event>
 5   0  0.1126958E-04  0.1693183E+04  0.7818609E-02  0.8765262E-01
       -1   -1    0    0    0  501  0.00000000000E+00  0.00000000000E+00  0.64697678743E+03  0.64697678745E+03  0.50400001928E-02 0. -1.
        1   -1    0    0  501    0  0.00000000000E+00  0.00000000000E+00 -0.11077943428E+04  0.11077943428E+04  0.50400001928E-02 0.  1.
    10030    2    1    2    0    0  0.00000000000E+00  0.00000000000E+00 -0.46081755533E+03  0.17547711302E+04  0.16931830675E+04 0.  0.
        4    1    3    3  502    0  0.32264397216E+03 -0.57754746018E+03  0.31706306512E+03  0.73361488650E+03  0.12699999809E+01 0.  1.
       -4    1    3    3    0  502 -0.32264397216E+03  0.57754746018E+03 -0.77788062045E+03  0.10211562437E+04  0.12699999809E+01 0. -1.
</event>
<event>
 5   0  0.2356829E-04  0.1698241E+04  0.7818609E-02  0.8762368E-01
       -2   -1    0    0    0  501  0.00000000000E+00  0.00000000000E+00  0.42241863771E+03  0.42241863771E+03  0.25500000920E-02 0. -1.
        2   -1    0    0  501    0  0.00000000000E+00  0.00000000000E+00 -0.17068507112E+04  0.17068507112E+04  0.25500000920E-02 0.  1.
    10030    2    1    2    0    0  0.00000000000E+00  0.00000000000E+00 -0.12844320735E+04  0.21292693489E+04  0.16982409160E+04 0.  0.
        5    1    3    3  502    0  0.18235075317E+03 -0.52188753869E+03  0.16584894006E+03  0.57718832381E+03  0.46999998093E+01 0. -1.
       -5    1    3    3    0  502 -0.18235075317E+03  0.52188753869E+03 -0.14502810136E+04  0.15520810251E+04  0.46999998093E+01 0.  1.
</event>
<event>
 5   0  0.1186302E-04  0.1696819E+04  0.7818609E-02  0.8763181E-01
       -1   -1    0    0    0  501  0.00000000000E+00  0.00000000000E+00  0.96696147739E+03  0.96696147741E+03  0.50400001928E-02 0. -1.
        1   -1    0    0  501    0  0.00000000000E+00  0.00000000000E+00 -0.74439214696E+03  0.74439214697E+03  0.50400001928E-02 0.  1.
    10030    2    1    2    0    0  0.00000000000E+00  0.00000000000E+00  0.22256933044E+03  0.17113536244E+04  0.16968188238E+04 0.  0.
        3    1    3    3  502    0 -0.39869069011E+03  0.43511417685E+03  0.72603012517E+03  0.93562725812E+03  0.10100000352E+00 0. -1.
       -3    1    3    3    0  502  0.39869069011E+03 -0.43511417685E+03 -0.50346079474E+03  0.77572636626E+03  0.10100000352E+00 0.  1.
</event>
<event>
 5   0  0.1186302E-04  0.1708599E+04  0.7818609E-02  0.8756475E-01
       -1   -1    0    0    0  501  0.00000000000E+00  0.00000000000E+00  0.12690357951E+04  0.12690357952E+04  0.50400001928E-02 0.  1.
        1   -1    0    0  501    0  0.00000000000E+00  0.00000000000E+00 -0.57510432339E+03  0.57510432342E+03  0.50400001928E-02 0. -1.
    10030    2    1    2    0    0  0.00000000000E+00  0.00000000000E+00  0.69393147175E+03  0.18441401186E+04  0.17085993941E+04 0.  0.
        3    1    3    3  502    0 -0.38945034634E+03 -0.71262353067E+03  0.60741938696E+02  0.81436690873E+03  0.10100000352E+00 0. -1.
       -3    1    3    3    0  502  0.38945034634E+03  0.71262353067E+03  0.63318953305E+03  0.10297732098E+04  0.10100000352E+00 0.  1.
</event>
<event>
 5   0  0.2288806E-04  0.1698947E+04  0.7818609E-02  0.8761965E-01
        2   -1    0    0  501    0  0.00000000000E+00  0.00000000000E+00  0.11084742726E+04  0.11084742726E+04  0.25500000920E-02 0. -1.
       -2   -1    0    0    0  501  0.00000000000E+00  0.00000000000E+00 -0.65098959670E+03  0.65098959671E+03  0.25500000920E-02 0.  1.
    10030    2    1    2    0    0  0.00000000000E+00  0.00000000000E+00  0.45748467588E+03  0.17594638693E+04  0.16989469911E+04 0.  0.
        3    1    3    3  502    0 -0.72779675415E+03  0.37689793543E+03 -0.25166453425E+01  0.81960143532E+03  0.10100000352E+00 0. -1.
       -3    1    3    3    0  502  0.72779675415E+03 -0.37689793543E+03  0.46000132122E+03  0.93986243398E+03  0.10100000352E+00 0.  1.
</event>
<event>
 5   0  0.2356829E-04  0.1697793E+04  0.7818609E-02  0.8762624E-01
       -2   -1    0    0    0  501  0.00000000000E+00  0.00000000000E+00  0.63800787605E+03  0.63800787605E+03  0.25500000920E-02 0. -1.
        2   -1    0    0  501    0  0.00000000000E+00  0.00000000000E+00 -0.11294925330E+04  0.11294925330E+04  0.25500000920E-02 0.  1.
    10030    2    1    2    0    0  0.00000000000E+00  0.00000000000E+00 -0.49148465699E+03  0.17675004091E+04  0.16977928402E+04 0.  0.
        5    1    3    3  502    0 -0.30391668238E+03  0.70279300485E+03 -0.62728635342E+03  0.98984524885E+03  0.46999998093E+01 0.  1.
       -5    1    3    3    0  502  0.30391668238E+03 -0.70279300485E+03  0.13580169643E+03  0.77765516024E+03  0.46999998093E+01 0. -1.
</event>
<event>
 5   0  0.1234158E-04  0.1692684E+04  0.7818609E-02  0.8765548E-01
        1   -1    0    0  501    0  0.00000000000E+00  0.00000000000E+00  0.70487282922E+03  0.70487282924E+03  0.50400001928E-02 0.  1.
       -1   -1    0    0    0  501  0.00000000000E+00  0.00000000000E+00 -0.10162047815E+04  0.10162047816E+04  0.50400001928E-02 0. -1.
    10030    2    1    2    0    0  0.00000000000E+00  0.00000000000E+00 -0.31133195232E+03  0.17210776108E+04  0.16926844236E+04 0.  0.
        5    1    3    3  502    0 -0.17478230049E+03 -0.82316064757E+03 -0.63982803610E+02  0.84395390480E+03  0.46999998093E+01 0.  1.
       -5    1    3    3    0  502  0.17478230049E+03  0.82316064757E+03 -0.24734914871E+03  0.87712370600E+03  0.46999998093E+01 0. -1.
</event>
<event>
 5   0  0.1215233E-04  0.1696009E+04  0.7818609E-02  0.8763644E-01
       -1   -1    0    0    0  501  0.00000000000E+00  0.00000000000E+00  0.30355384906E+03  0.30355384910E+03  0.50400001928E-02 0. -1.
        1   -1    0    0  501    0  0.00000000000E+00  0.00000000000E+00 -0.23689755541E+04  0.23689755542E+04  0.50400001928E-02 0.  1.
    10030    2    1    2    0    0  0.00000000000E+00  0.00000000000E+00 -0.20654217051E+04  0.26725294033E+04  0.16960090187E+04 0.  0.
        2    1    3    3  502    0  0.75157397496E+02 -0.63871727683E+03 -0.16174274083E+03  0.66315089410E+03  0.25500000920E-02 0. -1.
       -2    1    3    3    0  502 -0.75157397496E+02  0.63871727683E+03 -0.19036789643E+04  0.20093785092E+04  0.25500000920E-02 0.  1.
</event>
<event>
 5   0  0.2242967E-04  0.1683461E+04  0.7818609E-02  0.8770854E-01
       -2   -1    0    0    0  501  0.00000000000E+00  0.00000000000E+00  0.37321550769E+03  0.37321550770E+03  0.25500000920E-02 0. -1.
        2   -1    0    0  501    0  0.00000000000E+00  0.00000000000E+00 -0.18983953319E+04  0.18983953319E+04  0.25500000920E-02 0.  1.
    10030    2    1    2    0    0  0.00000000000E+00  0.00000000000E+00 -0.15251798243E+04  0.22716108396E+04  0.16834614075E+04 0.  0.
        4    1    3    3  502    0 -0.41535521980E+03  0.13092932754E+03  0.20937417927E+03  0.48322004022E+03  0.12699999809E+01 0. -1.
       -4    1    3    3    0  502  0.41535521980E+03 -0.13092932754E+03 -0.17345540035E+04  0.17883907994E+04  0.12699999809E+01 0.  1.
</event>
<event>
 5   0  0.2356829E-04  0.1692604E+04  0.7818609E-02  0.8765594E-01
       -2   -1    0    0    0  501  0.00000000000E+00  0.00000000000E+00  0.51556138387E+03  0.51556138388E+03  0.25500000920E-02 0.  1.
        2   -1    0    0  501    0  0.00000000000E+00  0.00000000000E+00 -0.13892171346E+04  0.13892171346E+04  0.25500000920E-02 0. -1.
    10030    2    1    2    0    0  0.00000000000E+00  0.00000000000E+00 -0.87365575076E+03  0.19047785185E+04  0.16926035666E+04 0.  0.
        5    1    3    3  502    0 -0.14021142682E+03  0.63681471467E+03  0.17025079644E+03  0.67394335720E+03  0.46999998093E+01 0.  1.
       -5    1    3    3    0  502  0.14021142682E+03 -0.63681471467E+03 -0.10439065472E+04  0.12308351613E+04  0.46999998093E+01 0. -1.
</event>
<event>
 5   0  0.1204741E-04  0.1686673E+04  0.7818609E-02  0.8769002E-01
        1   -1    0    0  501    0  0.00000000000E+00  0.00000000000E+00  0.10205001913E+04  0.10205001913E+04  0.50400001928E-02 0.  1.
       -1   -1    0    0    0  501  0.00000000000E+00  0.00000000000E+00 -0.69692923449E+03  0.69692923451E+03  0.50400001928E-02 0. -1.
    10030    2    1    2    0    0  0.00000000000E+00  0.00000000000E+00  0.32357095680E+03  0.17174294258E+04  0.16866729584E+04 0.  0.
        1    1    3    3  502    0  0.28747404125E+03 -0.76766139030E+03 -0.39997465668E+02  0.82069795408E+03  0.50400001928E-02 0. -1.
       -1    1    3    3    0  502 -0.28747404125E+03  0.76766139030E+03  0.36356842247E+03  0.89673147173E+03  0.50400001928E-02 0.  1.
</event>
<event>
 5   0  0.2224454E-04  0.1704421E+04  0.7818609E-02  0.8758847E-01
        2   -1    0    0  501    0  0.00000000000E+00  0.00000000000E+00  0.10549338139E+04  0.10549338139E+04  0.25500000920E-02 0. -1.
       -2   -1    0    0    0  501  0.00000000000E+00  0.00000000000E+00 -0.68844421916E+03  0.68844421917E+03  0.25500000920E-02 0.  1.
    10030    2    1    2    0    0  0.00000000000E+00  0.00000000000E+00  0.36648959470E+03  0.17433780330E+04  0.17044214101E+04 0.  0.
        2    1    3    3  502    0  0.71239622019E+03  0.31204118202E+03 -0.17312190738E+03  0.79677428965E+03  0.25500000920E-02 0.  1.
       -2    1    3    3    0  502 -0.71239622019E+03 -0.31204118202E+03  0.53961150208E+03  0.94660374339E+03  0.25500000920E-02 0. -1.
</event>
<event>
 5   0  0.1215233E-04  0.1686045E+04  0.7818609E-02  0.8769364E-01
        1   -1    0    0  501    0  0.00000000000E+00  0.00000000000E+00  0.14084663192E+04  0.14084663193E+04  0.50400001928E-02 0. -1.
       -1   -1    0    0    0  501  0.00000000000E+00  0.00000000000E+00 -0.50458187369E+03  0.50458187371E+03  0.50400001928E-02 0.  1.
    10030    2    1    2    0    0  0.00000000000E+00  0.00000000000E+00  0.90388444556E+03  0.19130481930E+04  0.16860445717E+04 0.  0.
        2    1    3    3  502    0  0.23532537269E+03 -0.79917358482E+03  0.59826253280E+03  0.10256580853E+04  0.25500000920E-02 0.  1.
       -2    1    3    3    0  502 -0.23532537269E+03  0.79917358482E+03  0.30562191275E+03  0.88739010771E+03  0.25500000920E-02 0. -1.
</event>
<event>
 5   0  0.2234723E-04  0.1701780E+04  0.7818609E-02  0.8760350E-01
       -2   -1    0    0    0  501  0.00000000000E+00  0.00000000000E+00  0.56983697480E+03  0.56983697480E+03  0.25500000920E-02 0. -1.
        2   -1    0    0  501    0  0.00000000000E+00  0.00000000000E+00 -0.12705637347E+04  0.12705637347E+04  0.25500000920E-02 0.  1.
    10030    2    1    2    0    0  0.00000000000E+00  0.00000000000E+00 -0.70072675993E+03  0.18404007095E+04  0.17017804734E+04 0.  0.
        1    1    3    3  502    0 -0.11424925728E+02 -0.55140225775E+02  0.56781965742E+03  0.57060506202E+03  0.50400001928E-02 0. -1.
       -1    1    3    3    0  502  0.11424925728E+02  0.55140225775E+02 -0.12685464173E+04  0.12697956475E+04  0.50400001928E-02 0.  1.
</event>
<event>
 5   0  0.1186302E-04  0.1685531E+04  0.7818609E-02  0.8769660E-01
       -1   -1    0    0    0  501  0.00000000000E+00  0.00000000000E+00  0.20950508495E+04  0.20950508495E+04  0.50400001928E-02 0. -1.
        1   -1    0    0  501    0  0.00000000000E+00  0.00000000000E+00 -0.33901514521E+03  0.33901514525E+03  0.50400001928E-02 0.  1.
    10030    2    1    2    0    0  0.00000000000E+00  0.00000000000E+00  0.17560357043E+04  0.24340659948E+04  0.16855313323E+04 0.  0.
        3    1    3    3  502    0 -0.18193341647E+03  0.61110881398E+03  0.82191962895E+02  0.64289134348E+03  0.10100000352E+00 0.  1.
       -3    1    3    3    0  502  0.18193341647E+03 -0.61110881398E+03  0.16738437414E+04  0.17911746513E+04  0.10100000352E+00 0. -1.
</event>
<event>
 5   0  0.1186302E-04  0.1698059E+04  0.7818609E-02  0.8762472E-01
       -1   -1    0    0    0  501  0.00000000000E+00  0.00000000000E+00  0.58114454625E+03  0.58114454627E+03  0.50400001928E-02 0. -1.
        1   -1    0    0  501    0  0.00000000000E+00  0.00000000000E+00 -0.12403995497E+04  0.12403995497E+04  0.50400001928E-02 0.  1.
    10030    2    1    2    0    0  0.00000000000E+00  0.00000000000E+00 -0.65925500347E+03  0.18215440960E+04  0.16980594024E+04 0.  0.
        3    1    3    3  502    0  0.70717261295E+03  0.42036387894E+03 -0.55477764552E+03  0.99225860611E+03  0.10100000352E+00 0.  1.
       -3    1    3    3    0  502 -0.70717261295E+03 -0.42036387894E+03 -0.10447735795E+03  0.82928548990E+03  0.10100000352E+00 0. -1.
</event>
<event>
 5   0  0.2242967E-04  0.1838141E+04  0.7818609E-02  0.8686275E-01
       -2   -1    0    0    0  501  0.00000000000E+00  0.00000000000E+00  0.76287797521E+03  0.76287797521E+03  0.25500000920E-02 0. -1.
        2   -1    0    0  501    0  0.00000000000E+00  0.00000000000E+00 -0.11072421387E+04  0.11072421387E+04  0.25500000920E-02 0.  1.
    10030    2    1    2    0    0  0.00000000000E+00  0.00000000000E+00 -0.34436416350E+03  0.18701201139E+04  0.18381410619E+04 0.  0.
        4    1    3    3  502    0  0.69693896836E+03  0.52431726414E+03 -0.46715105648E+03  0.98937568273E+03  0.12699999809E+01 0.  1.
       -4    1    3    3    0  502 -0.69693896836E+03 -0.52431726414E+03  0.12278689298E+03  0.88074443120E+03  0.12699999809E+01 0. -1.
</event>
<event>
 5   0  0.2234723E-04  0.1707707E+04  0.7818609E-02  0.8756981E-01
        2   -1    0    0  501    0  0.00000000000E+00  0.00000000000E+00  0.85669236218E+03  0.85669236218E+03  0.25500000920E-02 0. -1.
       -2   -1    0    0    0  501  0.00000000000E+00  0.00000000000E+00 -0.85102447039E+03  0.85102447039E+03  0.25500000920E-02 0.  1.
    10030    2    1    2    0    0  0.00000000000E+00  0.00000000000E+00  0.56678917899E+01  0.17077168326E+04  0.17077074267E+04 0.  0.
        1    1    3    3  502    0 -0.96078533542E+02  0.28716237802E+03 -0.79552679274E+03  0.85120866652E+03  0.50400001928E-02 0.  1.
       -1    1    3    3    0  502  0.96078533542E+02 -0.28716237802E+03  0.80119468453E+03  0.85650816605E+03  0.50400001928E-02 0. -1.
</event>
<event>
 5   0  0.8372750E-05  0.1706769E+04  0.7818609E-02  0.8757513E-01
       -4   -1    0    0    0  501  0.00000000000E+00  0.00000000000E+00  0.84734869262E+03  0.84734964435E+03  0.12699999809E+01 0.  1.
        4   -1    0    0  501    0  0.00000000000E+00  0.00000000000E+00 -0.85946147830E+03  0.85946241662E+03  0.12699999809E+01 0. -1.
    10030    2    1    2    0    0  0.00000000000E+00  0.00000000000E+00 -0.12112785684E+02  0.17068120610E+04  0.17067690798E+04 0.  0.
        4    1    3    3  502    0  0.27021718537E+03 -0.76783746618E+03 -0.26232805722E+03  0.85522472149E+03  0.12699999809E+01 0. -1.
       -4    1    3    3    0  502 -0.27021718537E+03  0.76783746618E+03  0.25021527153E+03  0.85158733948E+03  0.12699999809E+01 0.  1.
</event>
<event>
 5   0  0.1126958E-04  0.1707642E+04  0.7818609E-02  0.8757018E-01
       -1   -1    0    0    0  501  0.00000000000E+00  0.00000000000E+00  0.84305134471E+03  0.84305134473E+03  0.50400001928E-02 0. -1.
        1   -1    0    0  501    0  0.00000000000E+00  0.00000000000E+00 -0.86472865661E+03  0.86472865662E+03  0.50400001928E-02 0.  1.
    10030    2    1    2    0    0  0.00000000000E+00  0.00000000000E+00 -0.21677311894E+02  0.17077800013E+04  0.17076424178E+04 0.  0.
        4    1    3    3  502    0 -0.85984906094E+01  0.72492690826E+03  0.44021440858E+03  0.84816466254E+03  0.12699999809E+01 0. -1.
       -4    1    3    3    0  502  0.85984906094E+01 -0.72492690826E+03 -0.46189172047E+03  0.85961533880E+03  0.12699999809E+01 0.  1.
</event>
<event>
 5   0  0.1234158E-04  0.1692327E+04  0.7818609E-02  0.8765752E-01
        1   -1    0    0  501    0  0.00000000000E+00  0.00000000000E+00  0.15294659643E+04  0.15294659643E+04  0.50400001928E-02 0.  1.
       -1   -1    0    0    0  501  0.00000000000E+00  0.00000000000E+00 -0.46813273522E+03  0.46813273525E+03  0.50400001928E-02 0. -1.
    10030    2    1    2    0    0  0.00000000000E+00  0.00000000000E+00  0.10613332291E+04  0.19975986995E+04  0.16923274923E+04 0.  0.
        5    1    3    3  502    0 -0.26584578833E+03  0.58141897532E+03 -0.12362155383E+03  0.65117308498E+03  0.46999998093E+01 0. -1.
       -5    1    3    3    0  502  0.26584578833E+03 -0.58141897532E+03  0.11849547829E+04  0.13464256146E+04  0.46999998093E+01 0.  1.
</event>
<event>
 5   0  0.2224454E-04  0.1697323E+04  0.7818609E-02  0.8762893E-01
        2   -1    0    0  501    0  0.00000000000E+00  0.00000000000E+00  0.22839922789E+03  0.22839922791E+03  0.25500000920E-02 0.  1.
       -2   -1    0    0    0  501  0.00000000000E+00  0.00000000000E+00 -0.31533644505E+04  0.31533644505E+04  0.25500000920E-02 0. -1.
    10030    2    1    2    0    0  0.00000000000E+00  0.00000000000E+00 -0.29249652227E+04  0.33817636785E+04  0.16973226043E+04 0.  0.
        2    1    3    3  502    0 -0.23631889048E+03 -0.75653393802E+03 -0.85803699981E+03  0.11680829210E+04  0.25500000920E-02 0.  1.
       -2    1    3    3    0  502  0.23631889048E+03  0.75653393802E+03 -0.20669282228E+04  0.22136807574E+04  0.25500000920E-02 0. -1.
</event>
<event>
 5   0  0.1126958E-04  0.1749120E+04  0.7818609E-02  0.8733835E-01
        1   -1    0    0  501    0  0.00000000000E+00  0.00000000000E+00  0.79283593478E+03  0.79283593480E+03  0.50400001928E-02 0.  1.
       -1   -1    0    0    0  501  0.00000000000E+00  0.00000000000E+00 -0.96470798638E+03  0.96470798639E+03  0.50400001928E-02 0. -1.
    10030    2    1    2    0    0  0.00000000000E+00  0.00000000000E+00 -0.17187205160E+03  0.17575439212E+04  0.17491199595E+04 0.  0.
        4    1    3    3  502    0  0.33002744975E+03  0.38939576816E+03 -0.79950147830E+03  0.94855226980E+03  0.12699999809E+01 0. -1.
       -4    1    3    3    0  502 -0.33002744975E+03 -0.38939576816E+03  0.62762942670E+03  0.80899165138E+03  0.12699999809E+01 0.  1.
</event>
<event>
 5   0  0.2356829E-04  0.1692602E+04  0.7818609E-02  0.8765595E-01
       -2   -1    0    0    0  501  0.00000000000E+00  0.00000000000E+00  0.10938696140E+04  0.10938696140E+04  0.25500000920E-02 0. -1.
        2   -1    0    0  501    0  0.00000000000E+00  0.00000000000E+00 -0.65476313345E+03  0.65476313346E+03  0.25500000920E-02 0.  1.
    10030    2    1    2    0    0  0.00000000000E+00  0.00000000000E+00  0.43910648055E+03  0.17486327475E+04  0.16926021341E+04 0.  0.
        5    1    3    3  502    0 -0.14781281124E+03 -0.81579388731E+03  0.39498351645E+03  0.91836940389E+03  0.46999998093E+01 0. -1.
       -5    1    3    3    0  502  0.14781281124E+03  0.81579388731E+03  0.44122964105E+02  0.83026334358E+03  0.46999998093E+01 0.  1.
</event>
<event>
 5   0  0.1234158E-04  0.1709349E+04  0.7818609E-02  0.8756050E-01
       -1   -1    0    0    0  501  0.00000000000E+00  0.00000000000E+00  0.56101551323E+03  0.56101551326E+03  0.50400001928E-02 0.  1.
        1   -1    0    0  501    0  0.00000000000E+00  0.00000000000E+00 -0.13020461757E+04  0.13020461757E+04  0.50400001928E-02 0. -1.
    10030    2    1    2    0    0  0.00000000000E+00  0.00000000000E+00 -0.74103066247E+03  0.18630616890E+04  0.17093485350E+04 0.  0.
        5    1    3    3  502    0 -0.14287198491E+03 -0.40033993536E+03  0.43761943493E+03  0.61009616270E+03  0.46999998093E+01 0.  1.
       -5    1    3    3    0  502  0.14287198491E+03  0.40033993536E+03 -0.11786500974E+04  0.12529655263E+04  0.46999998093E+01 0. -1.
</event>
<event>
 5   0  0.1204741E-04  0.1704832E+04  0.7818609E-02  0.8758613E-01
        1   -1    0    0  501    0  0.00000000000E+00  0.00000000000E+00  0.12452393377E+04  0.12452393377E+04  0.50400001928E-02 0.  1.
       -1   -1    0    0    0  501  0.00000000000E+00  0.00000000000E+00 -0.58351289123E+03  0.58351289125E+03  0.50400001928E-02 0. -1.
    10030    2    1    2    0    0  0.00000000000E+00  0.00000000000E+00  0.66172644647E+03  0.18287522290E+04  0.17048321985E+04 0.  0.
        1    1    3    3  502    0  0.16039989538E+03 -0.12947181583E+03  0.12181010483E+04  0.12354194597E+04  0.50400001928E-02 0.  1.
       -1    1    3    3    0  502 -0.16039989538E+03  0.12947181583E+03 -0.55637460180E+03  0.59333276927E+03  0.50400001928E-02 0. -1.
</event>
<event>
 5   0  0.2224454E-04  0.1695512E+04  0.7818609E-02  0.8763928E-01
        2   -1    0    0  501    0  0.00000000000E+00  0.00000000000E+00  0.21261224782E+04  0.21261224782E+04  0.25500000920E-02 0. -1.
       -2   -1    0    0    0  501  0.00000000000E+00  0.00000000000E+00 -0.33802850637E+03  0.33802850638E+03  0.25500000920E-02 0.  1.
    10030    2    1    2    0    0  0.00000000000E+00  0.00000000000E+00  0.17880939718E+04  0.24641509846E+04  0.16955117289E+04 0.  0.
        2    1    3    3  502    0  0.73081875889E+03 -0.42515537090E+03  0.80402380078E+03  0.11667507960E+04  0.25500000920E-02 0.  1.
       -2    1    3    3    0  502 -0.73081875889E+03  0.42515537090E+03  0.98407017104E+03  0.12974001886E+04  0.25500000920E-02 0. -1.
</event>
<event>
 5   0  0.1234158E-04  0.1704427E+04  0.7818609E-02  0.8758844E-01
       -1   -1    0    0    0  501  0.00000000000E+00  0.00000000000E+00  0.13241795919E+04  0.13241795919E+04  0.50400001928E-02 0. -1.
        1   -1    0    0  501    0  0.00000000000E+00  0.00000000000E+00 -0.54846609024E+03  0.54846609026E+03  0.50400001928E-02 0.  1.
    10030    2    1    2    0    0  0.00000000000E+00  0.00000000000E+00  0.77571350170E+03  0.18726456822E+04  0.17044267114E+04 0.  0.
        5    1    3    3  502    0 -0.69072223673E+03  0.39971982014E+03  0.71631405260E+03  0.10723810213E+04  0.46999998093E+01 0.  1.
       -5    1    3    3    0  502  0.69072223673E+03 -0.39971982014E+03  0.59399449098E+02  0.80026466090E+03  0.46999998093E+01 0. -1.
</event>
<event>
 5   0  0.2234723E-04  0.1693699E+04  0.7818609E-02  0.8764966E-01
       -2   -1    0    0    0  501  0.00000000000E+00  0.00000000000E+00  0.27970608569E+03  0.27970608570E+03  0.25500000920E-02 0.  1.
        2   -1    0    0  501    0  0.00000000000E+00  0.00000000000E+00 -0.25639556890E+04  0.25639556890E+04  0.25500000920E-02 0. -1.
    10030    2    1    2    0    0  0.00000000000E+00  0.00000000000E+00 -0.22842496034E+04  0.28436617747E+04  0.16936989221E+04 0.  0.
        1    1    3    3  502    0  0.23151672676E+03  0.19564609921E+03  0.18550754042E+03  0.35537366036E+03  0.50400001928E-02 0.  1.
       -1    1    3    3    0  502 -0.23151672676E+03 -0.19564609921E+03 -0.24697571438E+04  0.24882881144E+04  0.50400001928E-02 0. -1.
</event>
<event>
 5   0  0.1204741E-04  0.1709754E+04  0.7818609E-02  0.8755821E-01
       -1   -1    0    0    0  501  0.00000000000E+00  0.00000000000E+00  0.70213724636E+03  0.70213724638E+03  0.50400001928E-02 0.  1.
        1   -1    0    0  501    0  0.00000000000E+00  0.00000000000E+00 -0.10408436242E+04  0.10408436242E+04  0.50400001928E-02 0. -1.
    10030    2    1    2    0    0  0.00000000000E+00  0.00000000000E+00 -0.33870637785E+03  0.17429808706E+04  0.17097544575E+04 0.  0.
        1    1    3    3  502    0 -0.27708905938E+03 -0.38812384920E+03  0.55393940478E+03  0.73093592970E+03  0.50400001928E-02 0.  1.
       -1    1    3    3    0  502  0.27708905938E+03  0.38812384920E+03 -0.89264578263E+03  0.10120449409E+04  0.50400001928E-02 0. -1.
</event>
<event>
 5   0  0.1215233E-04  0.1736018E+04  0.7818609E-02  0.8741084E-01
        1   -1    0    0  501    0  0.00000000000E+00  0.00000000000E+00  0.82988662240E+03  0.82988662242E+03  0.50400001928E-02 0. -1.
       -1   -1    0    0    0  501  0.00000000000E+00  0.00000000000E+00 -0.90788294958E+03  0.90788294959E+03  0.50400001928E-02 0.  1.
    10030    2    1    2    0    0  0.00000000000E+00  0.00000000000E+00 -0.77996327177E+02  0.17377695720E+04  0.17360183347E+04 0.  0.
        2    1    3    3  502    0 -0.64385256836E+03  0.42778458532E+03 -0.43423077053E+03  0.88662401462E+03  0.25500000920E-02 0. -1.
       -2    1    3    3    0  502  0.64385256836E+03 -0.42778458532E+03  0.35623444335E+03  0.85114555739E+03  0.25500000920E-02 0.  1.
</event>
<event>
 5   0  0.2242967E-04  0.1732899E+04  0.7818609E-02  0.8742820E-01
        2   -1    0    0  501    0  0.00000000000E+00  0.00000000000E+00  0.12885844296E+04  0.12885844296E+04  0.25500000920E-02 0.  1.
       -2   -1    0    0    0  501  0.00000000000E+00  0.00000000000E+00 -0.58260454512E+03  0.58260454513E+03  0.25500000920E-02 0. -1.
    10030    2    1    2    0    0  0.00000000000E+00  0.00000000000E+00  0.70597988443E+03  0.18711889747E+04  0.17328994725E+04 0.  0.
        4    1    3    3  502    0  0.44699401065E+03  0.68424460486E+03  0.66358887511E+03  0.10527801921E+04  0.12699999809E+01 0.  1.
       -4    1    3    3    0  502 -0.44699401065E+03 -0.68424460486E+03  0.42391009326E+02  0.81840878258E+03  0.12699999809E+01 0. -1.
</event>
<event>
 5   0  0.2224454E-04  0.1702002E+04  0.7818609E-02  0.8760224E-01
        2   -1    0    0  501    0  0.00000000000E+00  0.00000000000E+00  0.59546949944E+03  0.59546949945E+03  0.25500000920E-02 0. -1.
       -2   -1    0    0    0  501  0.00000000000E+00  0.00000000000E+00 -0.12161870418E+04  0.12161870418E+04  0.25500000920E-02 0.  1.
    10030    2    1    2    0    0  0.00000000000E+00  0.00000000000E+00 -0.62071754235E+03  0.18116565412E+04  0.17020015147E+04 0.  0.
        2    1    3    3  502    0  0.53377104360E+03  0.65075943997E+03 -0.44416751787E+03  0.95167439791E+03  0.25500000920E-02 0. -1.
       -2    1    3    3    0  502 -0.53377104360E+03 -0.65075943997E+03 -0.17655002448E+03  0.85998214333E+03  0.25500000920E-02 0.  1.
</event>
<event>
 5   0  0.2242967E-04  0.1723409E+04  0.7818609E-02  0.8748125E-01
       -2   -1    0    0    0  501  0.00000000000E+00  0.00000000000E+00  0.37014586536E+03  0.37014586537E+03  0.25500000920E-02 0. -1.
        2   -1    0    0  501    0  0.00000000000E+00  0.00000000000E+00 -0.20060597683E+04  0.20060597683E+04  0.25500000920E-02 0.  1.
    10030    2    1    2    0    0  0.00000000000E+00  0.00000000000E+00 -0.16359139029E+04  0.23762056336E+04  0.17234090970E+04 0.  0.
        4    1    3    3  502    0  0.59770633786E+03  0.30590277487E+03 -0.73282180799E+02  0.67542672802E+03  0.12699999809E+01 0. -1.
       -4    1    3    3    0  502 -0.59770633786E+03 -0.30590277487E+03 -0.15626317221E+04  0.17007789056E+04  0.12699999809E+01 0.  1.
</event>
<event>
 5   0  0.1215233E-04  0.1691802E+04  0.7818609E-02  0.8766054E-01
       -1   -1    0    0    0  501  0.00000000000E+00  0.00000000000E+00  0.43412556936E+03  0.43412556939E+03  0.50400001928E-02 0. -1.
        1   -1    0    0  501    0  0.00000000000E+00  0.00000000000E+00 -0.16482532680E+04  0.16482532680E+04  0.50400001928E-02 0.  1.
    10030    2    1    2    0    0  0.00000000000E+00  0.00000000000E+00 -0.12141276986E+04  0.20823788374E+04  0.16918024571E+04 0.  0.
        2    1    3    3  502    0 -0.69024248026E+02 -0.84148771087E+03 -0.54330825048E+03  0.10040168173E+04  0.25500000920E-02 0. -1.
       -2    1    3    3    0  502  0.69024248026E+02  0.84148771087E+03 -0.67081944816E+03  0.10783620201E+04  0.25500000920E-02 0.  1.
</event>
<event>
 5   0  0.2234723E-04  0.1668358E+04  0.7818609E-02  0.8779619E-01
        2   -1    0    0  501    0  0.00000000000E+00  0.00000000000E+00  0.88204195546E+03  0.88204195546E+03  0.25500000920E-02 0. -1.
       -2   -1    0    0    0  501  0.00000000000E+00  0.00000000000E+00 -0.78891350501E+03  0.78891350501E+03  0.25500000920E-02 0.  1.
    10030    2    1    2    0    0  0.00000000000E+00  0.00000000000E+00  0.93128450452E+02  0.16709554605E+04  0.16683582477E+04 0.  0.
        1    1    3    3  502    0  0.15679739070E+03  0.81755363004E+03 -0.71424836276E+01  0.83248445920E+03  0.50400001928E-02 0.  1.
       -1    1    3    3    0  502 -0.15679739070E+03 -0.81755363004E+03  0.10027093408E+03  0.83847100127E+03  0.50400001928E-02 0. -1.
</event>
<event>
 5   0  0.1126958E-04  0.1682193E+04  0.7818609E-02  0.8771586E-01
       -1   -1    0    0    0  501  0.00000000000E+00  0.00000000000E+00  0.83982868405E+03  0.83982868407E+03  0.50400001928E-02 0. -1.
        1   -1    0    0  501    0  0.00000000000E+00  0.00000000000E+00 -0.84236579101E+03  0.84236579102E+03  0.50400001928E-02 0.  1.
    10030    2    1    2    0    0  0.00000000000E+00  0.00000000000E+00 -0.25371069562E+01  0.16821944751E+04  0.16821925618E+04 0.  0.
        4    1    3    3  502    0 -0.37176208206E+03  0.67496510387E+03 -0.33839859116E+03  0.84160570133E+03  0.12699999809E+01 0.  1.
       -4    1    3    3    0  502  0.37176208206E+03 -0.67496510387E+03  0.33586148421E+03  0.84058877376E+03  0.12699999809E+01 0. -1.
</event>
<event>
 5   0  0.1215233E-04  0.1700140E+04  0.7818609E-02  0.8761284E-01
       -1   -1    0    0    0  501  0.00000000000E+00  0.00000000000E+00  0.11366755901E+04  0.11366755902E+04  0.50400001928E-02 0.  1.
        1   -1    0    0  501    0  0.00000000000E+00  0.00000000000E+00 -0.63573045588E+03  0.63573045590E+03  0.50400001928E-02 0. -1.
    10030    2    1    2    0    0  0.00000000000E+00  0.00000000000E+00  0.50094513427E+03  0.17724060461E+04  0.17001403367E+04 0.  0.
        2    1    3    3  502    0 -0.66783060325E+03 -0.52227725001E+03  0.18580316593E+03  0.86792514481E+03  0.25500000920E-02 0.  1.
       -2    1    3    3    0  502  0.66783060325E+03  0.52227725001E+03  0.31514196834E+03  0.90448090125E+03  0.25500000920E-02 0. -1.
</event>
<event>
 5   0  0.1204741E-04  0.1728362E+04  0.7818609E-02  0.8745352E-01
        1   -1    0    0  501    0  0.00000000000E+00  0.00000000000E+00  0.13676178491E+04  0.13676178491E+04  0.50400001928E-02 0.  1.
       -1   -1    0    0    0  501  0.00000000000E+00  0.00000000000E+00 -0.54606549526E+03  0.54606549528E+03  0.50400001928E-02 0. -1.
    10030    2    1    2    0    0  0.00000000000E+00  0.00000000000E+00  0.82155235388E+03  0.19136833444E+04  0.17283621358E+04 0.  0.
        1    1    3    3  502    0  0.28961603989E+03  0.77305836098E+03  0.69374110905E+03  0.10783197144E+04  0.50400001928E-02 0.  1.
       -1    1    3    3    0  502 -0.28961603989E+03 -0.77305836098E+03  0.12781124483E+03  0.83536363003E+03  0.50400001928E-02 0. -1.
</event>
<event>
 5   0  0.2234723E-04  0.1695561E+04  0.7818609E-02  0.8763900E-01
       -2   -1    0    0    0  501  0.00000000000E+00  0.00000000000E+00  0.69614630299E+03  0.69614630299E+03  0.25500000920E-02 0.  1.
        2   -1    0    0  501    0  0.00000000000E+00  0.00000000000E+00 -0.10324435809E+04  0.10324435810E+04  0.25500000920E-02 0. -1.
    10030    2    1    2    0    0  0.00000000000E+00  0.00000000000E+00 -0.33629727796E+03  0.17285898839E+04  0.16955610068E+04 0.  0.
        1    1    3    3  502    0 -0.15999114902E+03 -0.79387324662E+03 -0.42383258692E+03  0.91403827121E+03  0.50400001928E-02 0. -1.
       -1    1    3    3    0  502  0.15999114902E+03  0.79387324662E+03  0.87535308961E+02  0.81455161273E+03  0.50400001928E-02 0.  1.
</event>
<event>
 5   0  0.1186302E-04  0.1689699E+04  0.7818609E-02  0.8767261E-01
       -1   -1    0    0    0  501  0.00000000000E+00  0.00000000000E+00  0.32186861825E+03  0.32186861829E+03  0.50400001928E-02 0.  1.
        1   -1    0    0  501    0  0.00000000000E+00  0.00000000000E+00 -0.22175843770E+04  0.22175843770E+04  0.50400001928E-02 0. -1.
    10030    2    1    2    0    0  0.00000000000E+00  0.00000000000E+00 -0.18957157588E+04  0.25394529953E+04  0.16896991677E+04 0.  0.
        3    1    3    3  502    0 -0.58901972907E+03 -0.17341442778E+03 -0.75715937350E+02  0.61866769623E+03  0.10100000352E+00 0.  1.
       -3    1    3    3    0  502  0.58901972907E+03  0.17341442778E+03 -0.18199998214E+04  0.19207852991E+04  0.10100000352E+00 0. -1.
</event>
<event>
 5   0  0.1234158E-04  0.1730753E+04  0.7818609E-02  0.8744017E-01
       -1   -1    0    0    0  501  0.00000000000E+00  0.00000000000E+00  0.10412840221E+04  0.10412840221E+04  0.50400001928E-02 0. -1.
        1   -1    0    0  501    0  0.00000000000E+00  0.00000000000E+00 -0.71918541690E+03  0.71918541692E+03  0.50400001928E-02 0.  1.
    10030    2    1    2    0    0  0.00000000000E+00  0.00000000000E+00  0.32209860522E+03  0.17604694391E+04  0.17307527652E+04 0.  0.
        5    1    3    3  502    0  0.55276196242E+03 -0.34532419674E+03  0.74008575603E+03  0.98617625414E+03  0.46999998093E+01 0. -1.
       -5    1    3    3    0  502 -0.55276196242E+03  0.34532419674E+03 -0.41798715081E+03  0.77429318491E+03  0.46999998093E+01 0.  1.
</event>
<event>
 5   0  0.1186302E-04  0.1673869E+04  0.7818609E-02  0.8776410E-01
       -1   -1    0    0    0  501  0.00000000000E+00  0.00000000000E+00  0.95989984471E+03  0.95989984472E+03  0.50400001928E-02 0. -1.
        1   -1    0    0  501    0  0.00000000000E+00  0.00000000000E+00 -0.72972110670E+03  0.72972110671E+03  0.50400001928E-02 0.  1.
    10030    2    1    2    0    0  0.00000000000E+00  0.00000000000E+00  0.23017873801E+03  0.16896209514E+04  0.16738687846E+04 0.  0.
        3    1    3    3  502    0  0.41079933251E+03 -0.10201334610E+03  0.84389248167E+03  0.94409604660E+03  0.10100000352E+00 0. -1.
       -3    1    3    3    0  502 -0.41079933251E+03  0.10201334610E+03 -0.61371374366E+03  0.74552490484E+03  0.10100000352E+00 0.  1.
</event>
<event>
 5   0  0.2224454E-04  0.1696139E+04  0.7818609E-02  0.8763569E-01
        2   -1    0    0  501    0  0.00000000000E+00  0.00000000000E+00  0.17407337628E+04  0.17407337628E+04  0.25500000920E-02 0. -1.
       -2   -1    0    0    0  501  0.00000000000E+00  0.00000000000E+00 -0.41317174781E+03  0.41317174782E+03  0.25500000920E-02 0.  1.
    10030    2    1    2    0    0  0.00000000000E+00  0.00000000000E+00  0.13275620150E+04  0.21539055106E+04  0.16961391585E+04 0.  0.
        2    1    3    3  502    0 -0.76220321779E+02 -0.28730839452E+03  0.16724155834E+04  0.16986257783E+04  0.25500000920E-02 0. -1.
       -2    1    3    3    0  502  0.76220321779E+02  0.28730839452E+03 -0.34485356842E+03  0.45527973233E+03  0.25500000920E-02 0.  1.
</event>
<event>
 5   0  0.2224454E-04  0.1721324E+04  0.7818609E-02  0.8749295E-01
        2   -1    0    0  501    0  0.00000000000E+00  0.00000000000E+00  0.21177566361E+04  0.21177566361E+04  0.25500000920E-02 0. -1.
       -2   -1    0    0    0  501  0.00000000000E+00  0.00000000000E+00 -0.34977543018E+03  0.34977543019E+03  0.25500000920E-02 0.  1.
    10030    2    1    2    0    0  0.00000000000E+00  0.00000000000E+00  0.17679812059E+04  0.24675320663E+04  0.17213241861E+04 0.  0.
        2    1    3    3  502    0 -0.62177682758E+03  0.14208235003E+03  0.55594817868E+02  0.64022230615E+03  0.25500000920E-02 0.  1.
       -2    1    3    3    0  502  0.62177682758E+03 -0.14208235003E+03  0.17123863880E+04  0.18273097601E+04  0.25500000920E-02 0. -1.
</event>
<event>
 5   0  0.2242967E-04  0.1693682E+04  0.7818609E-02  0.8764976E-01
        2   -1    0    0  501    0  0.00000000000E+00  0.00000000000E+00  0.13855150413E+04  0.13855150413E+04  0.25500000920E-02 0. -1.
       -2   -1    0    0    0  501  0.00000000000E+00  0.00000000000E+00 -0.51759793114E+03  0.51759793115E+03  0.25500000920E-02 0.  1.
    10030    2    1    2    0    0  0.00000000000E+00  0.00000000000E+00  0.86791711019E+03  0.19031129725E+04  0.16936820469E+04 0.  0.
        4    1    3    3  502    0 -0.61948821068E+03  0.49351971106E+03  0.77070022854E+03  0.11051279580E+04  0.12699999809E+01 0. -1.
       -4    1    3    3    0  502  0.61948821068E+03 -0.49351971106E+03  0.97216881657E+02  0.79798501449E+03  0.12699999809E+01 0.  1.
</event>
<event>
 5   0  0.8372750E-05  0.1697996E+04  0.7818609E-02  0.8762508E-01
       -3   -1    0    0    0  501  0.00000000000E+00  0.00000000000E+00  0.12912637584E+04  0.12912637624E+04  0.10100000352E+00 0.  1.
        3   -1    0    0  501    0  0.00000000000E+00  0.00000000000E+00 -0.55821127810E+03  0.55821128724E+03  0.10100000352E+00 0. -1.
    10030    2    1    2    0    0  0.00000000000E+00  0.00000000000E+00  0.73305248035E+03  0.18494750496E+04  0.16979964724E+04 0.  0.
        1    1    3    3  502    0 -0.30653962746E+03 -0.27068439011E+02 -0.49532659674E+03  0.58313607422E+03  0.50400001928E-02 0. -1.
       -1    1    3    3    0  502  0.30653962746E+03  0.27068439011E+02  0.12283790771E+04  0.12663389754E+04  0.50400001928E-02 0.  1.
</event>
<event>
 5   0  0.1186302E-04  0.1693956E+04  0.7818609E-02  0.8764819E-01
       -1   -1    0    0    0  501  0.00000000000E+00  0.00000000000E+00  0.94025673777E+03  0.94025673778E+03  0.50400001928E-02 0. -1.
        1   -1    0    0  501    0  0.00000000000E+00  0.00000000000E+00 -0.76295293661E+03  0.76295293663E+03  0.50400001928E-02 0.  1.
    10030    2    1    2    0    0  0.00000000000E+00  0.00000000000E+00  0.17730380116E+03  0.17032096744E+04  0.16939558900E+04 0.  0.
        3    1    3    3  502    0  0.47061494401E+03 -0.57700979394E+03  0.49453135375E+03  0.89385681061E+03  0.10100000352E+00 0. -1.
       -3    1    3    3    0  502 -0.47061494401E+03  0.57700979394E+03 -0.31722755259E+03  0.80935286381E+03  0.10100000352E+00 0.  1.
</event>
<event>
 5   0  0.1126958E-04  0.1701380E+04  0.7818609E-02  0.8760577E-01
        1   -1    0    0  501    0  0.00000000000E+00  0.00000000000E+00  0.89473997681E+03  0.89473997682E+03  0.50400001928E-02 0. -1.
       -1   -1    0    0    0  501  0.00000000000E+00  0.00000000000E+00 -0.80880913551E+03  0.80880913553E+03  0.50400001928E-02 0.  1.
    10030    2    1    2    0    0  0.00000000000E+00  0.00000000000E+00  0.85930841292E+02  0.17035491123E+04  0.17013804597E+04 0.  0.
        4    1    3    3  502    0 -0.36799672930E+03  0.38709304203E+03 -0.62000364509E+03  0.81833290829E+03  0.12699999809E+01 0.  1.
       -4    1    3    3    0  502  0.36799672930E+03 -0.38709304203E+03  0.70593448638E+03  0.88521620406E+03  0.12699999809E+01 0. -1.
</event>
<event>
 5   0  0.2356829E-04  0.1703381E+04  0.7818609E-02  0.8759438E-01
        2   -1    0    0  501    0  0.00000000000E+00  0.00000000000E+00  0.10170450905E+04  0.10170450905E+04  0.25500000920E-02 0.  1.
       -2   -1    0    0    0  501  0.00000000000E+00  0.00000000000E+00 -0.71321968873E+03  0.71321968873E+03  0.25500000920E-02 0. -1.
    10030    2    1    2    0    0  0.00000000000E+00  0.00000000000E+00  0.30382540179E+03  0.17302647793E+04  0.17033808533E+04 0.  0.
        5    1    3    3  502    0  0.76341308156E+03 -0.37751572851E+03  0.14574776881E+03  0.86404985995E+03  0.46999998093E+01 0. -1.
       -5    1    3    3    0  502 -0.76341308156E+03  0.37751572851E+03  0.15807763298E+03  0.86621491930E+03  0.46999998093E+01 0.  1.
</event>
<event>
 5   0  0.1186302E-04  0.1707266E+04  0.7818609E-02  0.8757231E-01
       -1   -1    0    0    0  501  0.00000000000E+00  0.00000000000E+00  0.98365336391E+03  0.98365336392E+03  0.50400001928E-02 0. -1.
        1   -1    0    0  501    0  0.00000000000E+00  0.00000000000E+00 -0.74079907574E+03  0.74079907575E+03  0.50400001928E-02 0.  1.
    10030    2    1    2    0    0  0.00000000000E+00  0.00000000000E+00  0.24285428817E+03  0.17244524397E+04  0.17072662392E+04 0.  0.
        3    1    3    3  502    0  0.21273866062E+03 -0.78122586125E+03  0.39455239242E+03  0.90069039330E+03  0.10100000352E+00 0. -1.
       -3    1    3    3    0  502 -0.21273866062E+03  0.78122586125E+03 -0.15169810425E+03  0.82376204638E+03  0.10100000352E+00 0.  1.
</event>
<event>
 5   0  0.1215233E-04  0.1709275E+04  0.7818609E-02  0.8756092E-01
        1   -1    0    0  501    0  0.00000000000E+00  0.00000000000E+00  0.11285259483E+04  0.11285259484E+04  0.50400001928E-02 0.  1.
       -1   -1    0    0    0  501  0.00000000000E+00  0.00000000000E+00 -0.64722043589E+03  0.64722043591E+03  0.50400001928E-02 0. -1.
    10030    2    1    2    0    0  0.00000000000E+00  0.00000000000E+00  0.48130551246E+03  0.17757463843E+04  0.17092747658E+04 0.  0.
        2    1    3    3  502    0  0.47866599554E+03  0.68767528517E+03  0.41568816921E+03  0.93531550140E+03  0.25500000920E-02 0.  1.
       -2    1    3    3    0  502 -0.47866599554E+03 -0.68767528517E+03  0.65617343243E+02  0.84043088286E+03  0.25500000920E-02 0. -1.
</event>
<event>
 5   0  0.2288806E-04  0.1725389E+04  0.7818609E-02  0.8747015E-01
       -2   -1    0    0    0  501  0.00000000000E+00  0.00000000000E+00  0.23196353592E+03  0.23196353593E+03  0.25500000920E-02 0.  1.
        2   -1    0    0  501    0  0.00000000000E+00  0.00000000000E+00 -0.32084445712E+04  0.32084445712E+04  0.25500000920E-02 0. -1.
    10030    2    1    2    0    0  0.00000000000E+00  0.00000000000E+00 -0.29764810352E+04  0.34404081071E+04  0.17253894025E+04 0.  0.
        3    1    3    3  502    0 -0.37200699706E+03 -0.25304610591E+03 -0.29559854599E+04  0.29900286933E+04  0.10100000352E+00 0. -1.
       -3    1    3    3    0  502  0.37200699706E+03  0.25304610591E+03 -0.20495575391E+02  0.45037941381E+03  0.10100000352E+00 0.  1.
</event>
<event>
 5   0  0.1186302E-04  0.1684308E+04  0.7818609E-02  0.8770365E-01
        1   -1    0    0  501    0  0.00000000000E+00  0.00000000000E+00  0.48631068829E+03  0.48631068831E+03  0.50400001928E-02 0.  1.
       -1   -1    0    0    0  501  0.00000000000E+00  0.00000000000E+00 -0.14583746320E+04  0.14583746320E+04  0.50400001928E-02 0. -1.
    10030    2    1    2    0    0  0.00000000000E+00  0.00000000000E+00 -0.97206394374E+03  0.19446853204E+04  0.16843077761E+04 0.  0.
        3    1    3    3  502    0 -0.94544316635E+02 -0.83681498674E+03 -0.49182924337E+03  0.97524046505E+03  0.10100000352E+00 0.  1.
       -3    1    3    3    0  502  0.94544316635E+02  0.83681498674E+03 -0.48023470037E+03  0.96944485530E+03  0.10100000352E+00 0. -1.
</event>
<event>
 5   0  0.1186302E-04  0.1701749E+04  0.7818609E-02  0.8760367E-01
       -1   -1    0    0    0  501  0.00000000000E+00  0.00000000000E+00  0.83071075808E+03  0.83071075809E+03  0.50400001928E-02 0.  1.
        1   -1    0    0  501    0  0.00000000000E+00  0.00000000000E+00 -0.87152801153E+03  0.87152801154E+03  0.50400001928E-02 0. -1.
    10030    2    1    2    0    0  0.00000000000E+00  0.00000000000E+00 -0.40817253448E+02  0.17022387696E+04  0.17017493296E+04 0.  0.
        3    1    3    3  502    0  0.31308798523E+02  0.39124844913E+03 -0.77556422566E+03  0.86922693707E+03  0.10100000352E+00 0. -1.
       -3    1    3    3    0  502 -0.31308798523E+02 -0.39124844913E+03  0.73474697221E+03  0.83301183256E+03  0.10100000352E+00 0.  1.
</event>
<event>
 5   0  0.1186302E-04  0.1700681E+04  0.7818609E-02  0.8760976E-01
        1   -1    0    0  501    0  0.00000000000E+00  0.00000000000E+00  0.13096139809E+04  0.13096139809E+04  0.50400001928E-02 0. -1.
       -1   -1    0    0    0  501  0.00000000000E+00  0.00000000000E+00 -0.55213138275E+03  0.55213138277E+03  0.50400001928E-02 0.  1.
    10030    2    1    2    0    0  0.00000000000E+00  0.00000000000E+00  0.75748259810E+03  0.18617453636E+04  0.17006810144E+04 0.  0.
        3    1    3    3  502    0  0.94676044868E+02  0.44025217828E+03  0.11683675722E+04  0.12521454899E+04  0.10100000352E+00 0. -1.
       -3    1    3    3    0  502 -0.94676044868E+02 -0.44025217828E+03 -0.41088497407E+03  0.60959987374E+03  0.10100000352E+00 0.  1.
</event>
<event>
 5   0  0.8372750E-05  0.1741149E+04  0.7818609E-02  0.8738238E-01
        4   -1    0    0  501    0  0.00000000000E+00  0.00000000000E+00  0.43579850893E+03  0.43580035943E+03  0.12699999809E+01 0.  1.
       -4   -1    0    0    0  501  0.00000000000E+00  0.00000000000E+00 -0.17391001859E+04  0.17391006497E+04  0.12699999809E+01 0. -1.
    10030    2    1    2    0    0  0.00000000000E+00  0.00000000000E+00 -0.13033016770E+04  0.21749010091E+04  0.17411487984E+04 0.  0.
        4    1    3    3  502    0 -0.36436215552E+03  0.49140511995E+03  0.12205616590E+03  0.62380934012E+03  0.12699999809E+01 0.  1.
       -4    1    3    3    0  502  0.36436215552E+03 -0.49140511995E+03 -0.14253578429E+04  0.15510916690E+04  0.12699999809E+01 0. -1.
</event>
<event>
 5   0  0.1126958E-04  0.1698069E+04  0.7818609E-02  0.8762466E-01
       -1   -1    0    0    0  501  0.00000000000E+00  0.00000000000E+00  0.19960304095E+04  0.19960304095E+04  0.50400001928E-02 0.  1.
        1   -1    0    0  501    0  0.00000000000E+00  0.00000000000E+00 -0.36114660723E+03  0.36114660727E+03  0.50400001928E-02 0. -1.
    10030    2    1    2    0    0  0.00000000000E+00  0.00000000000E+00  0.16348838023E+04  0.23571770168E+04  0.16980690332E+04 0.  0.
        4    1    3    3  502    0 -0.21273186712E+02 -0.66900385656E+03  0.15425292210E+04  0.16814924083E+04  0.12699999809E+01 0.  1.
       -4    1    3    3    0  502  0.21273186712E+02  0.66900385656E+03  0.92354581248E+02  0.67568460848E+03  0.12699999809E+01 0. -1.
</event>
<event>
 5   0  0.1126958E-04  0.1712366E+04  0.7818609E-02  0.8754343E-01
       -1   -1    0    0    0  501  0.00000000000E+00  0.00000000000E+00  0.32057452420E+03  0.32057452424E+03  0.50400001928E-02 0. -1.
        1   -1    0    0  501    0  0.00000000000E+00  0.00000000000E+00 -0.22866732837E+04  0.22866732837E+04  0.50400001928E-02 0.  1.
    10030    2    1    2    0    0  0.00000000000E+00  0.00000000000E+00 -0.19660987595E+04  0.26072478080E+04  0.17123658487E+04 0.  0.
        4    1    3    3  502    0 -0.65321756318E+03  0.41671642684E+03 -0.15377059935E+04  0.17218847524E+04  0.12699999809E+01 0.  1.
       -4    1    3    3    0  502  0.65321756318E+03 -0.41671642684E+03 -0.42839276603E+03  0.88536305555E+03  0.12699999809E+01 0. -1.
</event>
<event>
 5   0  0.2288806E-04  0.1697406E+04  0.7818609E-02  0.8762845E-01
       -2   -1    0    0    0  501  0.00000000000E+00  0.00000000000E+00  0.64769820859E+03  0.64769820860E+03  0.25500000920E-02 0.  1.
        2   -1    0    0  501    0  0.00000000000E+00  0.00000000000E+00 -0.11120867055E+04  0.11120867055E+04  0.25500000920E-02 0. -1.
    10030    2    1    2    0    0  0.00000000000E+00  0.00000000000E+00 -0.46438849694E+03  0.17597849141E+04  0.16974057464E+04 0.  0.
        3    1    3    3  502    0  0.39477783867E+03 -0.67088300455E+02  0.54360090713E+03  0.67516837781E+03  0.10100000352E+00 0.  1.
       -3    1    3    3    0  502 -0.39477783867E+03  0.67088300455E+02 -0.10079894041E+04  0.10846165363E+04  0.10100000352E+00 0. -1.
</event>
<event>
 5   0  0.2242967E-04  0.1697504E+04  0.7818609E-02  0.8762789E-01
        2   -1    0    0  501    0  0.00000000000E+00  0.00000000000E+00  0.33411227395E+03  0.33411227396E+03  0.25500000920E-02 0.  1.
       -2   -1    0    0    0  501  0.00000000000E+00  0.00000000000E+00 -0.21561023794E+04  0.21561023794E+04  0.25500000920E-02 0. -1.
    10030    2    1    2    0    0  0.00000000000E+00  0.00000000000E+00 -0.18219901055E+04  0.24902146534E+04  0.16975043669E+04 0.  0.
        4    1    3    3  502    0 -0.32200726384E+03  0.18728523763E+03  0.20778159153E+03  0.42654336342E+03  0.12699999809E+01 0.  1.
       -4    1    3    3    0  502  0.32200726384E+03 -0.18728523763E+03 -0.20297716970E+04  0.20636712900E+04  0.12699999809E+01 0. -1.
</event>
<event>
 5   0  0.2242967E-04  0.1709545E+04  0.7818609E-02  0.8755939E-01
        2   -1    0    0  501    0  0.00000000000E+00  0.00000000000E+00  0.19639478354E+04  0.19639478354E+04  0.25500000920E-02 0. -1.
       -2   -1    0    0    0  501  0.00000000000E+00  0.00000000000E+00 -0.37202425578E+03  0.37202425579E+03  0.25500000920E-02 0.  1.
    10030    2    1    2    0    0  0.00000000000E+00  0.00000000000E+00  0.15919235796E+04  0.23359720912E+04  0.17095452400E+04 0.  0.
        4    1    3    3  502    0 -0.52976877322E+03 -0.18603083841E+03 -0.84693121455E+02  0.56783533145E+03  0.12699999809E+01 0.  1.
       -4    1    3    3    0  502  0.52976877322E+03  0.18603083841E+03  0.16766167011E+04  0.17681367597E+04  0.12699999809E+01 0. -1.
</event>
<event>
 5   0  0.1234158E-04  0.1695048E+04  0.7818609E-02  0.8764194E-01
        1   -1    0    0  501    0  0.00000000000E+00  0.00000000000E+00  0.20148402729E+04  0.20148402729E+04  0.50400001928E-02 0. -1.
       -1   -1    0    0    0  501  0.00000000000E+00  0.00000000000E+00 -0.35650300173E+03  0.35650300176E+03  0.50400001928E-02 0.  1.
    10030    2    1    2    0    0  0.00000000000E+00  0.00000000000E+00  0.16583372712E+04  0.23713432747E+04  0.16950476163E+04 0.  0.
        5    1    3    3  502    0  0.12729706393E+03 -0.78889166934E+03  0.43416970884E+03  0.90943940673E+03  0.46999998093E+01 0.  1.
       -5    1    3    3    0  502 -0.12729706393E+03  0.78889166934E+03  0.12241675624E+04  0.14619038680E+04  0.46999998093E+01 0. -1.
</event>
<event>
 5   0  0.1186302E-04  0.1655847E+04  0.7818609E-02  0.8786955E-01
        1   -1    0    0  501    0  0.00000000000E+00  0.00000000000E+00  0.14533955374E+04  0.14533955374E+04  0.50400001928E-02 0. -1.
       -1   -1    0    0    0  501  0.00000000000E+00  0.00000000000E+00 -0.47162472540E+03  0.47162472543E+03  0.50400001928E-02 0.  1.
    10030    2    1    2    0    0  0.00000000000E+00  0.00000000000E+00  0.98177081204E+03  0.19250202629E+04  0.16558469389E+04 0.  0.
        3    1    3    3  502    0 -0.68034696259E+03 -0.35867296047E+03  0.84720362878E+03  0.11442343645E+04  0.10100000352E+00 0. -1.
       -3    1    3    3    0  502  0.68034696259E+03  0.35867296047E+03  0.13456718326E+03  0.78078589837E+03  0.10100000352E+00 0.  1.
</event>
<event>
 5   0  0.2242967E-04  0.1709352E+04  0.7818609E-02  0.8756048E-01
        2   -1    0    0  501    0  0.00000000000E+00  0.00000000000E+00  0.12829155675E+04  0.12829155675E+04  0.25500000920E-02 0. -1.
       -2   -1    0    0    0  501  0.00000000000E+00  0.00000000000E+00 -0.56938374418E+03  0.56938374418E+03  0.25500000920E-02 0.  1.
    10030    2    1    2    0    0  0.00000000000E+00  0.00000000000E+00  0.71353182337E+03  0.18522993117E+04  0.17093522391E+04 0.  0.
        4    1    3    3  502    0  0.65099616614E+03 -0.53556045662E+03  0.20409895911E+03  0.86734019222E+03  0.12699999809E+01 0.  1.
       -4    1    3    3    0  502 -0.65099616614E+03  0.53556045662E+03  0.50943286426E+03  0.98495911951E+03  0.12699999809E+01 0. -1.
</event>
<event>
 5   0  0.2356829E-04  0.1694785E+04  0.7818609E-02  0.8764344E-01
        2   -1    0    0  501    0  0.00000000000E+00  0.00000000000E+00  0.73452218652E+03  0.73452218653E+03  0.25500000920E-02 0.  1.
       -2   -1    0    0    0  501  0.00000000000E+00  0.00000000000E+00 -0.97760759750E+03  0.97760759750E+03  0.25500000920E-02 0. -1.
    10030    2    1    2    0    0  0.00000000000E+00  0.00000000000E+00 -0.24308541097E+03  0.17121297840E+04  0.16947854969E+04 0.  0.
        5    1    3    3  502    0 -0.29956727011E+03  0.45300034574E+03 -0.77866280025E+03  0.94936173772E+03  0.46999998093E+01 0. -1.
       -5    1    3    3    0  502  0.29956727011E+03 -0.45300034574E+03  0.53557738928E+03  0.76276804631E+03  0.46999998093E+01 0.  1.
</event>
<event>
 5   0  0.1234158E-04  0.1678762E+04  0.7818609E-02  0.8773571E-01
        1   -1    0    0  501    0  0.00000000000E+00  0.00000000000E+00  0.19053959472E+04  0.19053959472E+04  0.50400001928E-02 0. -1.
       -1   -1    0    0    0  501  0.00000000000E+00  0.00000000000E+00 -0.36977128082E+03  0.36977128086E+03  0.50400001928E-02 0.  1.
    10030    2    1    2    0    0  0.00000000000E+00  0.00000000000E+00  0.15356246664E+04  0.22751672280E+04  0.16787622820E+04 0.  0.
        5    1    3    3  502    0  0.75442536592E+03  0.23833357821E+03  0.38790748644E+03  0.88116674658E+03  0.46999998093E+01 0.  1.
       -5    1    3    3    0  502 -0.75442536592E+03 -0.23833357821E+03  0.11477171799E+04  0.13940004815E+04  0.46999998093E+01 0. -1.
</event>
<event>
 5   0  0.1186302E-04  0.1751874E+04  0.7818609E-02  0.8732319E-01
       -1   -1    0    0    0  501  0.00000000000E+00  0.00000000000E+00  0.69789148915E+03  0.69789148916E+03  0.50400001928E-02 0. -1.
        1   -1    0    0  501    0  0.00000000000E+00  0.00000000000E+00 -0.10994053065E+04  0.10994053065E+04  0.50400001928E-02 0.  1.
    10030    2    1    2    0    0  0.00000000000E+00  0.00000000000E+00 -0.40151381735E+03  0.17972967957E+04  0.17518739756E+04 0.  0.
        3    1    3    3  502    0  0.37004374642E+03  0.79323446045E+03 -0.16654081585E+03  0.89100456624E+03  0.10100000352E+00 0.  1.
       -3    1    3    3    0  502 -0.37004374642E+03 -0.79323446045E+03 -0.23497300150E+03  0.90629222944E+03  0.10100000352E+00 0. -1.
</event>
<event>
 5   0  0.2224454E-04  0.1699669E+04  0.7818609E-02  0.8761553E-01
       -2   -1    0    0    0  501  0.00000000000E+00  0.00000000000E+00  0.38547490332E+03  0.38547490333E+03  0.25500000920E-02 0.  1.
        2   -1    0    0  501    0  0.00000000000E+00  0.00000000000E+00 -0.18735811132E+04  0.18735811132E+04  0.25500000920E-02 0. -1.
    10030    2    1    2    0    0  0.00000000000E+00  0.00000000000E+00 -0.14881062099E+04  0.22590560166E+04  0.16996687895E+04 0.  0.
        2    1    3    3  502    0 -0.12582973215E+02 -0.16542234267E+03 -0.18518495812E+04  0.18592659181E+04  0.25500000920E-02 0. -1.
       -2    1    3    3    0  502  0.12582973215E+02  0.16542234267E+03  0.36374337130E+03  0.39979009848E+03  0.25500000920E-02 0.  1.
</event>
<event>
 5   0  0.2356829E-04  0.1670217E+04  0.7818609E-02  0.8778536E-01
        2   -1    0    0  501    0  0.00000000000E+00  0.00000000000E+00  0.10241564655E+04  0.10241564655E+04  0.25500000920E-02 0. -1.
       -2   -1    0    0    0  501  0.00000000000E+00  0.00000000000E+00 -0.68095641272E+03  0.68095641273E+03  0.25500000920E-02 0.  1.
    10030    2    1    2    0    0  0.00000000000E+00  0.00000000000E+00  0.34320005275E+03  0.17051128782E+04  0.16702166480E+04 0.  0.
        5    1    3    3  502    0 -0.61494232756E+03 -0.24622252724E+03 -0.34755627909E+03  0.74806220080E+03  0.46999998093E+01 0.  1.
       -5    1    3    3    0  502  0.61494232756E+03  0.24622252724E+03  0.69075633183E+03  0.95705067740E+03  0.46999998093E+01 0. -1.
</event>
<event>
 5   0  0.2234723E-04  0.1705662E+04  0.7818609E-02  0.8758142E-01
       -2   -1    0    0    0  501  0.00000000000E+00  0.00000000000E+00  0.56770054487E+03  0.56770054488E+03  0.25500000920E-02 0. -1.
        2   -1    0    0  501    0  0.00000000000E+00  0.00000000000E+00 -0.12811701154E+04  0.12811701154E+04  0.25500000920E-02 0.  1.
    10030    2    1    2    0    0  0.00000000000E+00  0.00000000000E+00 -0.71346957057E+03  0.18488706603E+04  0.17056623026E+04 0.  0.
        1    1    3    3  502    0  0.36139089954E+03  0.68078128267E+03  0.38954523860E+02  0.77174088402E+03  0.50400001928E-02 0.  1.
       -1    1    3    3    0  502 -0.36139089954E+03 -0.68078128267E+03 -0.75242409443E+03  0.10771297763E+04  0.50400001928E-02 0. -1.
</event>
<event>
 5   0  0.2242967E-04  0.1725217E+04  0.7818609E-02  0.8747112E-01
       -2   -1    0    0    0  501  0.00000000000E+00  0.00000000000E+00  0.57162675733E+03  0.57162675734E+03  0.25500000920E-02 0.  1.
        2   -1    0    0  501    0  0.00000000000E+00  0.00000000000E+00 -0.13017118911E+04  0.13017118911E+04  0.25500000920E-02 0. -1.
    10030    2    1    2    0    0  0.00000000000E+00  0.00000000000E+00 -0.73008513381E+03  0.18733386485E+04  0.17252169108E+04 0.  0.
        4    1    3    3  502    0 -0.82057215379E+03  0.59813152029E+02 -0.83607689961E+02  0.82698738288E+03  0.12699999809E+01 0.  1.
       -4    1    3    3    0  502  0.82057215379E+03 -0.59813152029E+02 -0.64647744385E+03  0.10463512656E+04  0.12699999809E+01 0. -1.
</event>
<event>
 5   0  0.2356829E-04  0.1690958E+04  0.7818609E-02  0.8766538E-01
        2   -1    0    0  501    0  0.00000000000E+00  0.00000000000E+00  0.97403714000E+03  0.97403714000E+03  0.25500000920E-02 0. -1.
       -2   -1    0    0    0  501  0.00000000000E+00  0.00000000000E+00 -0.73388871508E+03  0.73388871508E+03  0.25500000920E-02 0.  1.
    10030    2    1    2    0    0  0.00000000000E+00  0.00000000000E+00  0.24014842492E+03  0.17079258551E+04  0.16909581486E+04 0.  0.
        5    1    3    3  502    0 -0.44076488969E+03  0.65205020394E+03 -0.19184431883E+03  0.81010461615E+03  0.46999998093E+01 0. -1.
       -5    1    3    3    0  502  0.44076488969E+03 -0.65205020394E+03  0.43199274375E+03  0.89782123894E+03  0.46999998093E+01 0.  1.
</event>
<event>
 5   0  0.2288806E-04  0.1704118E+04  0.7818609E-02  0.8759019E-01
        2   -1    0    0  501    0  0.00000000000E+00  0.00000000000E+00  0.10728667197E+04  0.10728667197E+04  0.25500000920E-02 0. -1.
       -2   -1    0    0    0  501  0.00000000000E+00  0.00000000000E+00 -0.67669554448E+03  0.67669554448E+03  0.25500000920E-02 0.  1.
    10030    2    1    2    0    0  0.00000000000E+00  0.00000000000E+00  0.39617117525E+03  0.17495622642E+04  0.17041175183E+04 0.  0.
        3    1    3    3  502    0 -0.40550689779E+03 -0.48396783133E+03  0.78548250768E+03  0.10077913901E+04  0.10100000352E+00 0. -1.
       -3    1    3    3    0  502  0.40550689779E+03  0.48396783133E+03 -0.38931133243E+03  0.74177087411E+03  0.10100000352E+00 0.  1.
</event>
<event>
 5   0  0.1126958E-04  0.1685144E+04  0.7818609E-02  0.8769883E-01
       -1   -1    0    0    0  501  0.00000000000E+00  0.00000000000E+00  0.88125969165E+03  0.88125969167E+03  0.50400001928E-02 0. -1.
        1   -1    0    0  501    0  0.00000000000E+00  0.00000000000E+00 -0.80558232414E+03  0.80558232416E+03  0.50400001928E-02 0.  1.
    10030    2    1    2    0    0  0.00000000000E+00  0.00000000000E+00  0.75677367511E+02  0.16868420158E+04  0.16851435910E+04 0.  0.
        4    1    3    3  502    0  0.34837909988E+03  0.69377022629E+03  0.36564468417E+03  0.85812748009E+03  0.12699999809E+01 0. -1.
       -4    1    3    3    0  502 -0.34837909988E+03 -0.69377022629E+03 -0.28996731666E+03  0.82871453574E+03  0.12699999809E+01 0.  1.
</event>
<event>
 5   0  0.2356829E-04  0.1708199E+04  0.7818609E-02  0.8756702E-01
       -2   -1    0    0    0  501  0.00000000000E+00  0.00000000000E+00  0.69982452349E+03  0.69982452349E+03  0.25500000920E-02 0.  1.
        2   -1    0    0  501    0  0.00000000000E+00  0.00000000000E+00 -0.10423844947E+04  0.10423844947E+04  0.25500000920E-02 0. -1.
    10030    2    1    2    0    0  0.00000000000E+00  0.00000000000E+00 -0.34255997122E+03  0.17422090182E+04  0.17081993236E+04 0.  0.
        5    1    3    3  502    0  0.45013809238E+03 -0.59452004885E+03 -0.59596644531E+03  0.95460802670E+03  0.46999998093E+01 0. -1.
       -5    1    3    3    0  502 -0.45013809238E+03  0.59452004885E+03  0.25340647409E+03  0.78760099150E+03  0.46999998093E+01 0.  1.
</event>
<event>
 5   0  0.1234158E-04  0.1716964E+04  0.7818609E-02  0.8751748E-01
        1   -1    0    0  501    0  0.00000000000E+00  0.00000000000E+00  0.53046526048E+03  0.53046526050E+03  0.50400001928E-02 0. -1.
       -1   -1    0    0    0  501  0.00000000000E+00  0.00000000000E+00 -0.13893300009E+04  0.13893300009E+04  0.50400001928E-02 0.  1.
    10030    2    1    2    0    0  0.00000000000E+00  0.00000000000E+00 -0.85886474045E+03  0.19197952614E+04  0.17169639494E+04 0.  0.
        5    1    3    3  502    0 -0.28776031745E+03  0.76101023877E+03 -0.12316449180E+03  0.82288162323E+03  0.46999998093E+01 0. -1.
       -5    1    3    3    0  502  0.28776031745E+03 -0.76101023877E+03 -0.73570024865E+03  0.10969136382E+04  0.46999998093E+01 0.  1.
</event>
<event>
 5   0  0.1234158E-04  0.1695485E+04  0.7818609E-02  0.8763944E-01
       -1   -1    0    0    0  501  0.00000000000E+00  0.00000000000E+00  0.46353136604E+03  0.46353136607E+03  0.50400001928E-02 0. -1.
        1   -1    0    0  501    0  0.00000000000E+00  0.00000000000E+00 -0.15504178981E+04  0.15504178981E+04  0.50400001928E-02 0.  1.
    10030    2    1    2    0    0  0.00000000000E+00  0.00000000000E+00 -0.10868865320E+04  0.20139492642E+04  0.16954849764E+04 0.  0.
        5    1    3    3  502    0 -0.60984926066E+03  0.58296175249E+03 -0.64200252431E+03  0.10601650140E+04  0.46999998093E+01 0.  1.
       -5    1    3    3    0  502  0.60984926066E+03 -0.58296175249E+03 -0.44488400772E+03  0.95378425019E+03  0.46999998093E+01 0. -1.
</event>
<event>
 5   0  0.1234158E-04  0.1692134E+04  0.7818609E-02  0.8765863E-01
       -1   -1    0    0    0  501  0.00000000000E+00  0.00000000000E+00  0.25461504524E+04  0.25461504524E+04  0.50400001928E-02 0. -1.
        1   -1    0    0  501    0  0.00000000000E+00  0.00000000000E+00 -0.28114184645E+03  0.28114184649E+03  0.50400001928E-02 0.  1.
    10030    2    1    2    0    0  0.00000000000E+00  0.00000000000E+00  0.22650086059E+04  0.28272922989E+04  0.16921340840E+04 0.  0.
        5    1    3    3  502    0  0.42002699275E+03 -0.51710503290E+03  0.26111934644E+03  0.71555970595E+03  0.46999998093E+01 0.  1.
       -5    1    3    3    0  502 -0.42002699275E+03  0.51710503290E+03  0.20038892595E+04  0.21117325929E+04  0.46999998093E+01 0. -1.
</event>
<event>
 5   0  0.1204741E-04  0.1705417E+04  0.7818609E-02  0.8758281E-01
       -1   -1    0    0    0  501  0.00000000000E+00  0.00000000000E+00  0.52001135766E+03  0.52001135769E+03  0.50400001928E-02 0.  1.
        1   -1    0    0  501    0  0.00000000000E+00  0.00000000000E+00 -0.13982617891E+04  0.13982617891E+04  0.50400001928E-02 0. -1.
    10030    2    1    2    0    0  0.00000000000E+00  0.00000000000E+00 -0.87825043148E+03  0.19182731468E+04  0.17054172643E+04 0.  0.
        1    1    3    3  502    0  0.24238017336E+03 -0.41771899577E+03 -0.12296002957E+04  0.13210428437E+04  0.50400001928E-02 0. -1.
       -1    1    3    3    0  502 -0.24238017336E+03  0.41771899577E+03  0.35134986418E+03  0.59723030311E+03  0.50400001928E-02 0.  1.
</event>
<event>
 5   0  0.2288806E-04  0.1717241E+04  0.7818609E-02  0.8751592E-01
       -2   -1    0    0    0  501  0.00000000000E+00  0.00000000000E+00  0.47103694280E+03  0.47103694281E+03  0.25500000920E-02 0.  1.
        2   -1    0    0  501    0  0.00000000000E+00  0.00000000000E+00 -0.15651196252E+04  0.15651196252E+04  0.25500000920E-02 0. -1.
    10030    2    1    2    0    0  0.00000000000E+00  0.00000000000E+00 -0.10940826824E+04  0.20361565680E+04  0.17172410004E+04 0.  0.
        3    1    3    3  502    0  0.18917574761E+03  0.12390061915E+03  0.43509225748E+03  0.49035100655E+03  0.10100000352E+00 0.  1.
       -3    1    3    3    0  502 -0.18917574761E+03 -0.12390061915E+03 -0.15291749399E+04  0.15458055614E+04  0.10100000352E+00 0. -1.
</event>
<event>
 5   0  0.8372750E-05  0.1699480E+04  0.7818609E-02  0.8761661E-01
       -4   -1    0    0    0  501  0.00000000000E+00  0.00000000000E+00  0.19901290091E+04  0.19901294144E+04  0.12699999809E+01 0.  1.
        4   -1    0    0  501    0  0.00000000000E+00  0.00000000000E+00 -0.36281825661E+03  0.36282047934E+03  0.12699999809E+01 0. -1.
    10030    2    1    2    0    0  0.00000000000E+00  0.00000000000E+00  0.16273107525E+04  0.23529498937E+04  0.16994801902E+04 0.  0.
        2    1    3    3  502    0  0.59478020976E+03  0.56937628963E+03  0.11044205029E+04  0.13775694191E+04  0.25500000920E-02 0.  1.
       -2    1    3    3    0  502 -0.59478020976E+03 -0.56937628963E+03  0.52289024957E+03  0.97538047459E+03  0.25500000920E-02 0. -1.
</event>
<event>
 5   0  0.1126958E-04  0.1740635E+04  0.7818609E-02  0.8738522E-01
        1   -1    0    0  501    0  0.00000000000E+00  0.00000000000E+00  0.13314242141E+04  0.13314242141E+04  0.50400001928E-02 0. -1.
       -1   -1    0    0    0  501  0.00000000000E+00  0.00000000000E+00 -0.56890386413E+03  0.56890386415E+03  0.50400001928E-02 0.  1.
    10030    2    1    2    0    0  0.00000000000E+00  0.00000000000E+00  0.76252034997E+03  0.19003280783E+04  0.17406348040E+04 0.  0.
        4    1    3    3  502    0 -0.86470590240E+03  0.50096025888E+02  0.47405752548E+03  0.98739964544E+03  0.12699999809E+01 0.  1.
       -4    1    3    3    0  502  0.86470590240E+03 -0.50096025888E+02  0.28846282449E+03  0.91292843283E+03  0.12699999809E+01 0. -1.
</event>
<event>
 5   0  0.2224454E-04  0.1701582E+04  0.7818609E-02  0.8760462E-01
        2   -1    0    0  501    0  0.00000000000E+00  0.00000000000E+00  0.12231105321E+04  0.12231105321E+04  0.25500000920E-02 0.  1.
       -2   -1    0    0    0  501  0.00000000000E+00  0.00000000000E+00 -0.59180717425E+03  0.59180717425E+03  0.25500000920E-02 0. -1.
    10030    2    1    2    0    0  0.00000000000E+00  0.00000000000E+00  0.63130335781E+03  0.18149177063E+04  0.17015823081E+04 0.  0.
        2    1    3    3  502    0 -0.35905384008E+03 -0.20147126278E+03 -0.47847580620E+03  0.63122850611E+03  0.25500000920E-02 0. -1.
       -2    1    3    3    0  502  0.35905384008E+03  0.20147126278E+03  0.11097791640E+04  0.11836892002E+04  0.25500000920E-02 0.  1.
</event>
<event>
 5   0  0.2224454E-04  0.1684480E+04  0.7818609E-02  0.8770266E-01
        2   -1    0    0  501    0  0.00000000000E+00  0.00000000000E+00  0.18341253307E+04  0.18341253307E+04  0.25500000920E-02 0. -1.
       -2   -1    0    0    0  501  0.00000000000E+00  0.00000000000E+00 -0.38676084429E+03  0.38676084430E+03  0.25500000920E-02 0.  1.
    10030    2    1    2    0    0  0.00000000000E+00  0.00000000000E+00  0.14473644865E+04  0.22208861750E+04  0.16844795772E+04 0.  0.
        2    1    3    3  502    0  0.40127789113E+03 -0.10285937420E+03  0.16905261373E+04  0.17405408980E+04  0.25500000920E-02 0. -1.
       -2    1    3    3    0  502 -0.40127789113E+03  0.10285937420E+03 -0.24316165080E+03  0.48034527707E+03  0.25500000920E-02 0.  1.
</event>
<event>
 5   0  0.1204741E-04  0.1698826E+04  0.7818609E-02  0.8762034E-01
       -1   -1    0    0    0  501  0.00000000000E+00  0.00000000000E+00  0.77982070209E+03  0.77982070210E+03  0.50400001928E-02 0.  1.
        1   -1    0    0  501    0  0.00000000000E+00  0.00000000000E+00 -0.92521626449E+03  0.92521626451E+03  0.50400001928E-02 0. -1.
    10030    2    1    2    0    0  0.00000000000E+00  0.00000000000E+00 -0.14539556241E+03  0.17050369666E+04  0.16988264149E+04 0.  0.
        1    1    3    3  502    0  0.56993854801E+03  0.48938603450E+03  0.32520352509E+03  0.81858779128E+03  0.50400001928E-02 0.  1.
       -1    1    3    3    0  502 -0.56993854801E+03 -0.48938603450E+03 -0.47059908750E+03  0.88644917533E+03  0.50400001928E-02 0. -1.
</event>
<event>
 5   0  0.2356829E-04  0.1698639E+04  0.7818609E-02  0.8762141E-01
       -2   -1    0    0    0  501  0.00000000000E+00  0.00000000000E+00  0.45557555071E+03  0.45557555071E+03  0.25500000920E-02 0. -1.
        2   -1    0    0  501    0  0.00000000000E+00  0.00000000000E+00 -0.15833682323E+04  0.15833682323E+04  0.25500000920E-02 0.  1.
    10030    2    1    2    0    0  0.00000000000E+00  0.00000000000E+00 -0.11277926816E+04  0.20389437830E+04  0.16986392841E+04 0.  0.
        5    1    3    3  502    0 -0.55170167216E+03 -0.41249183793E+03  0.32416934010E+02  0.68963555523E+03  0.46999998093E+01 0.  1.
       -5    1    3    3    0  502  0.55170167216E+03  0.41249183793E+03 -0.11602096156E+04  0.13493082278E+04  0.46999998093E+01 0. -1.
</event>
<event>
 5   0  0.1186302E-04  0.1692849E+04  0.7818609E-02  0.8765454E-01
        1   -1    0    0  501    0  0.00000000000E+00  0.00000000000E+00  0.20314643890E+04  0.20314643890E+04  0.50400001928E-02 0. -1.
       -1   -1    0    0    0  501  0.00000000000E+00  0.00000000000E+00 -0.35266876734E+03  0.35266876738E+03  0.50400001928E-02 0.  1.
    10030    2    1    2    0    0  0.00000000000E+00  0.00000000000E+00  0.16787956216E+04  0.23841331564E+04  0.16928485367E+04 0.  0.
        3    1    3    3  502    0  0.52200752861E+03 -0.52438226293E+03  0.14183081603E+04  0.15997083064E+04  0.10100000352E+00 0.  1.
       -3    1    3    3    0  502 -0.52200752861E+03  0.52438226293E+03  0.26048746131E+03  0.78442485000E+03  0.10100000352E+00 0. -1.
</event>
<event>
 5   0  0.2242967E-04  0.1706287E+04  0.7818609E-02  0.8757787E-01
       -2   -1    0    0    0  501  0.00000000000E+00  0.00000000000E+00  0.62164557619E+03  0.62164557620E+03  0.25500000920E-02 0.  1.
        2   -1    0    0  501    0  0.00000000000E+00  0.00000000000E+00 -0.11708496560E+04  0.11708496560E+04  0.25500000920E-02 0. -1.
    10030    2    1    2    0    0  0.00000000000E+00  0.00000000000E+00 -0.54920407984E+03  0.17924952322E+04  0.17062866220E+04 0.  0.
        4    1    3    3  502    0 -0.23896759724E+03  0.44870887878E+02 -0.11336796429E+04  0.11594611053E+04  0.12699999809E+01 0. -1.
       -4    1    3    3    0  502  0.23896759724E+03 -0.44870887878E+02  0.58447556307E+03  0.63303412691E+03  0.12699999809E+01 0.  1.
</event>
<event>
 5   0  0.8372750E-05  0.1720035E+04  0.7818609E-02  0.8750019E-01
       -4   -1    0    0    0  501  0.00000000000E+00  0.00000000000E+00  0.96398018651E+03  0.96398102309E+03  0.12699999809E+01 0.  1.
        4   -1    0    0  501    0  0.00000000000E+00  0.00000000000E+00 -0.76726523317E+03  0.76726628424E+03  0.12699999809E+01 0. -1.
    10030    2    1    2    0    0  0.00000000000E+00  0.00000000000E+00  0.19671495333E+03  0.17312473073E+04  0.17200350189E+04 0.  0.
        2    1    3    3  502    0 -0.51524114195E+03 -0.50058761788E+03  0.57427022801E+03  0.91969978379E+03  0.25500000920E-02 0.  1.
       -2    1    3    3    0  502  0.51524114195E+03  0.50058761788E+03 -0.37755527467E+03  0.81154752354E+03  0.25500000920E-02 0. -1.
</event>
<event>
 5   0  0.1204741E-04  0.1692706E+04  0.7818609E-02  0.8765536E-01
       -1   -1    0    0    0  501  0.00000000000E+00  0.00000000000E+00  0.45478092090E+03  0.45478092093E+03  0.50400001928E-02 0.  1.
        1   -1    0    0  501    0  0.00000000000E+00  0.00000000000E+00 -0.15750730236E+04  0.15750730237E+04  0.50400001928E-02 0. -1.
    10030    2    1    2    0    0  0.00000000000E+00  0.00000000000E+00 -0.11202921027E+04  0.20298539446E+04  0.16927057160E+04 0.  0.
        1    1    3    3  502    0  0.14860314968E+03 -0.44561207015E+03  0.28411223109E+03  0.54897429179E+03  0.50400001928E-02 0.  1.
       -1    1    3    3    0  502 -0.14860314968E+03  0.44561207015E+03 -0.14044043338E+04  0.14808796528E+04  0.50400001928E-02 0. -1.
</event>
<event>
 5   0  0.1204741E-04  0.1709891E+04  0.7818609E-02  0.8755743E-01
       -1   -1    0    0    0  501  0.00000000000E+00  0.00000000000E+00  0.63700607891E+03  0.63700607893E+03  0.50400001928E-02 0.  1.
        1   -1    0    0  501    0  0.00000000000E+00  0.00000000000E+00 -0.11474487965E+04  0.11474487965E+04  0.50400001928E-02 0. -1.
    10030    2    1    2    0    0  0.00000000000E+00  0.00000000000E+00 -0.51044271756E+03  0.17844548754E+04  0.17098910592E+04 0.  0.
        1    1    3    3  502    0  0.34257913440E+03 -0.74362122398E+03  0.16817699692E+01  0.81874038404E+03  0.50400001928E-02 0.  1.
       -1    1    3    3    0  502 -0.34257913440E+03  0.74362122398E+03 -0.51212448753E+03  0.96571449136E+03  0.50400001928E-02 0. -1.
</event>
<event>
 5   0  0.1186302E-04  0.1669219E+04  0.7818609E-02  0.8779117E-01
       -1   -1    0    0    0  501  0.00000000000E+00  0.00000000000E+00  0.39584160641E+03  0.39584160644E+03  0.50400001928E-02 0.  1.
        1   -1    0    0  501    0  0.00000000000E+00  0.00000000000E+00 -0.17597263844E+04  0.17597263845E+04  0.50400001928E-02 0. -1.
    10030    2    1    2    0    0  0.00000000000E+00  0.00000000000E+00 -0.13638847780E+04  0.21555679909E+04  0.16692188819E+04 0.  0.
        3    1    3    3  502    0  0.72574746883E+03 -0.17774105537E+03 -0.11621344661E+04  0.13816142004E+04  0.10100000352E+00 0. -1.
       -3    1    3    3    0  502 -0.72574746883E+03  0.17774105537E+03 -0.20175031199E+03  0.77395379053E+03  0.10100000352E+00 0.  1.
</event>
<event>
 5   0  0.2242967E-04  0.1694208E+04  0.7818609E-02  0.8764674E-01
       -2   -1    0    0    0  501  0.00000000000E+00  0.00000000000E+00  0.35592513874E+03  0.35592513875E+03  0.25500000920E-02 0.  1.
        2   -1    0    0  501    0  0.00000000000E+00  0.00000000000E+00 -0.20161134874E+04  0.20161134874E+04  0.25500000920E-02 0. -1.
    10030    2    1    2    0    0  0.00000000000E+00  0.00000000000E+00 -0.16601883486E+04  0.23720386261E+04  0.16942083375E+04 0.  0.
        4    1    3    3  502    0  0.30449702934E+02 -0.45513672514E+03  0.16928459842E+03  0.48655473602E+03  0.12699999809E+01 0.  1.
       -4    1    3    3    0  502 -0.30449702934E+02  0.45513672514E+03 -0.18294729471E+04  0.18854838901E+04  0.12699999809E+01 0. -1.
</event>
<event>
 5   0  0.2234723E-04  0.1699188E+04  0.7818609E-02  0.8761828E-01
       -2   -1    0    0    0  501  0.00000000000E+00  0.00000000000E+00  0.38132470538E+03  0.38132470539E+03  0.25500000920E-02 0. -1.
        2   -1    0    0  501    0  0.00000000000E+00  0.00000000000E+00 -0.18929006798E+04  0.18929006798E+04  0.25500000920E-02 0.  1.
    10030    2    1    2    0    0  0.00000000000E+00  0.00000000000E+00 -0.15115759745E+04  0.22742253852E+04  0.16991877990E+04 0.  0.
        1    1    3    3  502    0  0.20599054439E+03 -0.51939529950E+03  0.10080672549E+03  0.56777246979E+03  0.50400001928E-02 0. -1.
       -1    1    3    3    0  502 -0.20599054439E+03  0.51939529950E+03 -0.16123826999E+04  0.17064529154E+04  0.50400001928E-02 0.  1.
</event>
<event>
 5   0  0.8372750E-05  0.1695665E+04  0.7818609E-02  0.8763841E-01
        4   -1    0    0  501    0  0.00000000000E+00  0.00000000000E+00  0.10157305185E+04  0.10157313125E+04  0.12699999809E+01 0. -1.
       -4   -1    0    0    0  501  0.00000000000E+00  0.00000000000E+00 -0.70768586126E+03  0.70768700081E+03  0.12699999809E+01 0.  1.
    10030    2    1    2    0    0  0.00000000000E+00  0.00000000000E+00  0.30804465727E+03  0.17234183133E+04  0.16956648170E+04 0.  0.
        2    1    3    3  502    0 -0.72395410176E+03  0.43948576237E+03  0.19419798218E+03  0.86889017320E+03  0.25500000920E-02 0. -1.
       -2    1    3    3    0  502  0.72395410176E+03 -0.43948576237E+03  0.11384667508E+03  0.85452814010E+03  0.25500000920E-02 0.  1.
</event>
<event>
 5   0  0.1215233E-04  0.1694408E+04  0.7818609E-02  0.8764560E-01
        1   -1    0    0  501    0  0.00000000000E+00  0.00000000000E+00  0.88637914764E+03  0.88637914765E+03  0.50400001928E-02 0. -1.
       -1   -1    0    0    0  501  0.00000000000E+00  0.00000000000E+00 -0.80976065327E+03  0.80976065329E+03  0.50400001928E-02 0.  1.
    10030    2    1    2    0    0  0.00000000000E+00  0.00000000000E+00  0.76618494364E+02  0.16961398009E+04  0.16944084014E+04 0.  0.
        2    1    3    3  502    0 -0.20033560023E+03 -0.28636375441E+03  0.81085974132E+03  0.88296776422E+03  0.25500000920E-02 0. -1.
       -2    1    3    3    0  502  0.20033560023E+03  0.28636375441E+03 -0.73424124696E+03  0.81317203672E+03  0.25500000920E-02 0.  1.
</event>
<event>
 5   0  0.8372750E-05  0.1681597E+04  0.7818609E-02  0.8771930E-01
       -3   -1    0    0    0  501  0.00000000000E+00  0.00000000000E+00  0.71929475576E+03  0.71929476285E+03  0.10100000352E+00 0.  1.
        3   -1    0    0  501    0  0.00000000000E+00  0.00000000000E+00 -0.98282719806E+03  0.98282720325E+03  0.10100000352E+00 0. -1.
    10030    2    1    2    0    0  0.00000000000E+00  0.00000000000E+00 -0.26353244231E+03  0.17021219661E+04  0.16815974070E+04 0.  0.
        2    1    3    3  502    0 -0.34933089061E+03  0.35573153173E+03 -0.81705653320E+03  0.95716162285E+03  0.25500000920E-02 0. -1.
       -2    1    3    3    0  502  0.34933089061E+03 -0.35573153173E+03  0.55352409090E+03  0.74496034325E+03  0.25500000920E-02 0.  1.
</event>
<event>
 5   0  0.2242967E-04  0.1696544E+04  0.7818609E-02  0.8763338E-01
        2   -1    0    0  501    0  0.00000000000E+00  0.00000000000E+00  0.47442998152E+03  0.47442998153E+03  0.25500000920E-02 0. -1.
       -2   -1    0    0    0  501  0.00000000000E+00  0.00000000000E+00 -0.15166942877E+04  0.15166942877E+04  0.25500000920E-02 0.  1.
    10030    2    1    2    0    0  0.00000000000E+00  0.00000000000E+00 -0.10422643061E+04  0.19911242692E+04  0.16965438313E+04 0.  0.
        4    1    3    3  502    0  0.32701007921E+03  0.64785528844E+03 -0.56514505620E+01  0.72573109238E+03  0.12699999809E+01 0. -1.
       -4    1    3    3    0  502 -0.32701007921E+03 -0.64785528844E+03 -0.10366128556E+04  0.12653931768E+04  0.12699999809E+01 0.  1.
</event>
<event>
 5   0  0.1186302E-04  0.1700734E+04  0.7818609E-02  0.8760946E-01
       -1   -1    0    0    0  501  0.00000000000E+00  0.00000000000E+00  0.99053728594E+03  0.99053728595E+03  0.50400001928E-02 0.  1.
        1   -1    0    0  501    0  0.00000000000E+00  0.00000000000E+00 -0.73003203603E+03  0.73003203605E+03  0.50400001928E-02 0. -1.
    10030    2    1    2    0    0  0.00000000000E+00  0.00000000000E+00  0.26050524990E+03  0.17205693220E+04  0.17007339023E+04 0.  0.
        3    1    3    3  502    0 -0.12597739612E+03 -0.14676715590E+03  0.96798829940E+03  0.98712322451E+03  0.10100000352E+00 0.  1.
       -3    1    3    3    0  502  0.12597739612E+03  0.14676715590E+03 -0.70748304950E+03  0.73344609749E+03  0.10100000352E+00 0. -1.
</event>
<event>
 5   0  0.2242967E-04  0.1692411E+04  0.7818609E-02  0.8765704E-01
        2   -1    0    0  501    0  0.00000000000E+00  0.00000000000E+00  0.17317716537E+04  0.17317716537E+04  0.25500000920E-02 0.  1.
       -2   -1    0    0    0  501  0.00000000000E+00  0.00000000000E+00 -0.41348626858E+03  0.41348626859E+03  0.25500000920E-02 0. -1.
    10030    2    1    2    0    0  0.00000000000E+00  0.00000000000E+00  0.13182853852E+04  0.21452579223E+04  0.16924110602E+04 0.  0.
        4    1    3    3  502    0  0.53327917417E+03  0.57902177069E+03  0.10527227813E+04  0.13144884007E+04  0.12699999809E+01 0. -1.
       -4    1    3    3    0  502 -0.53327917417E+03 -0.57902177069E+03  0.26556260387E+03  0.83076952159E+03  0.12699999809E+01 0.  1.
</event>
<event>
 5   0  0.1186302E-04  0.1531223E+04  0.7818609E-02  0.8863951E-01
       -1   -1    0    0    0  501  0.00000000000E+00  0.00000000000E+00  0.44987704010E+03  0.44987704013E+03  0.50400001928E-02 0.  1.
        1   -1    0    0  501    0  0.00000000000E+00  0.00000000000E+00 -0.13029361247E+04  0.13029361248E+04  0.50400001928E-02 0. -1.
    10030    2    1    2    0    0  0.00000000000E+00  0.00000000000E+00 -0.85305908465E+03  0.17528131649E+04  0.15312231023E+04 0.  0.
        3    1    3    3  502    0  0.75400108907E+03  0.89717949645E+02 -0.53865362886E+03  0.93097513119E+03  0.10100000352E+00 0. -1.
       -3    1    3    3    0  502 -0.75400108907E+03 -0.89717949645E+02 -0.31440545579E+03  0.82183803370E+03  0.10100000352E+00 0.  1.
</event>
<event>
 5   0  0.1204741E-04  0.1699051E+04  0.7818609E-02  0.8761906E-01
       -1   -1    0    0    0  501  0.00000000000E+00  0.00000000000E+00  0.54267518740E+03  0.54267518742E+03  0.50400001928E-02 0. -1.
        1   -1    0    0  501    0  0.00000000000E+00  0.00000000000E+00 -0.13298816970E+04  0.13298816970E+04  0.50400001928E-02 0.  1.
    10030    2    1    2    0    0  0.00000000000E+00  0.00000000000E+00 -0.78720650959E+03  0.18725568844E+04  0.16990512637E+04 0.  0.
        1    1    3    3  502    0  0.30538264138E+03 -0.32049190339E+03 -0.11927119595E+04  0.12722167410E+04  0.50400001928E-02 0.  1.
       -1    1    3    3    0  502 -0.30538264138E+03  0.32049190339E+03  0.40550544993E+03  0.60034014337E+03  0.50400001928E-02 0. -1.
</event>
<event>
 5   0  0.2242967E-04  0.1686825E+04  0.7818609E-02  0.8768914E-01
       -2   -1    0    0    0  501  0.00000000000E+00  0.00000000000E+00  0.36213443791E+03  0.36213443792E+03  0.25500000920E-02 0. -1.
        2   -1    0    0  501    0  0.00000000000E+00  0.00000000000E+00 -0.19643114358E+04  0.19643114358E+04  0.25500000920E-02 0.  1.
    10030    2    1    2    0    0  0.00000000000E+00  0.00000000000E+00 -0.16021769979E+04  0.23264458737E+04  0.16868252046E+04 0.  0.
        4    1    3    3  502    0 -0.16244315270E+03  0.30394725287E+03  0.26059055506E+03  0.43206569023E+03  0.12699999809E+01 0. -1.
       -4    1    3    3    0  502  0.16244315270E+03 -0.30394725287E+03 -0.18627675530E+04  0.18943801835E+04  0.12699999809E+01 0.  1.
</event>
<event>
 5   0  0.2234723E-04  0.1711731E+04  0.7818609E-02  0.8754702E-01
       -2   -1    0    0    0  501  0.00000000000E+00  0.00000000000E+00  0.99563578738E+03  0.99563578739E+03  0.25500000920E-02 0. -1.
        2   -1    0    0  501    0  0.00000000000E+00  0.00000000000E+00 -0.73571619924E+03  0.73571619924E+03  0.25500000920E-02 0.  1.
    10030    2    1    2    0    0  0.00000000000E+00  0.00000000000E+00  0.25991958815E+03  0.17313519866E+04  0.17117305598E+04 0.  0.
        1    1    3    3  502    0 -0.81289487536E+03 -0.26709251034E+03  0.11053312658E+03  0.86275956069E+03  0.50400001928E-02 0. -1.
       -1    1    3    3    0  502  0.81289487536E+03  0.26709251034E+03  0.14938646157E+03  0.86859242593E+03  0.50400001928E-02 0.  1.
</event>
<event>
 5   0  0.2224454E-04  0.1684318E+04  0.7818609E-02  0.8770359E-01
        2   -1    0    0  501    0  0.00000000000E+00  0.00000000000E+00  0.64704480331E+03  0.64704480332E+03  0.25500000920E-02 0. -1.
       -2   -1    0    0    0  501  0.00000000000E+00  0.00000000000E+00 -0.10961088590E+04  0.10961088590E+04  0.25500000920E-02 0.  1.
    10030    2    1    2    0    0  0.00000000000E+00  0.00000000000E+00 -0.44906405566E+03  0.17431536623E+04  0.16843177148E+04 0.  0.
        2    1    3    3  502    0  0.66964919195E+03  0.50928369563E+03 -0.26369045637E+03  0.88166466397E+03  0.25500000920E-02 0. -1.
       -2    1    3    3    0  502 -0.66964919195E+03 -0.50928369563E+03 -0.18537359929E+03  0.86148899832E+03  0.25500000920E-02 0.  1.
</event>
<event>
 5   0  0.2242967E-04  0.1700271E+04  0.7818609E-02  0.8761210E-01
        2   -1    0    0  501    0  0.00000000000E+00  0.00000000000E+00  0.84960452939E+03  0.84960452939E+03  0.25500000920E-02 0. -1.
       -2   -1    0    0    0  501  0.00000000000E+00  0.00000000000E+00 -0.85066673232E+03  0.85066673232E+03  0.25500000920E-02 0.  1.
    10030    2    1    2    0    0  0.00000000000E+00  0.00000000000E+00 -0.10622029301E+01  0.17002712617E+04  0.17002709299E+04 0.  0.
        4    1    3    3  502    0 -0.82099654823E+03 -0.16383909732E+03 -0.14834897047E+03  0.85022797646E+03  0.12699999809E+01 0. -1.
       -4    1    3    3    0  502  0.82099654823E+03  0.16383909732E+03  0.14728676754E+03  0.85004328526E+03  0.12699999809E+01 0.  1.
</event>
<event>
 5   0  0.1204741E-04  0.1727449E+04  0.7818609E-02  0.8745862E-01
        1   -1    0    0  501    0  0.00000000000E+00  0.00000000000E+00  0.42431711167E+03  0.42431711170E+03  0.50400001928E-02 0. -1.
       -1   -1    0    0    0  501  0.00000000000E+00  0.00000000000E+00 -0.17581662442E+04  0.17581662442E+04  0.50400001928E-02 0.  1.
    10030    2    1    2    0    0  0.00000000000E+00  0.00000000000E+00 -0.13338491325E+04  0.21824833559E+04  0.17274490124E+04 0.  0.
        1    1    3    3  502    0  0.41132943041E+03  0.72162225244E+03 -0.36770755398E+03  0.90837185162E+03  0.50400001928E-02 0. -1.
       -1    1    3    3    0  502 -0.41132943041E+03 -0.72162225244E+03 -0.96614157854E+03  0.12741115043E+04  0.50400001928E-02 0.  1.
</event>
<event>
 5   0  0.1186302E-04  0.1707869E+04  0.7818609E-02  0.8756889E-01
        1   -1    0    0  501    0  0.00000000000E+00  0.00000000000E+00  0.53132285380E+03  0.53132285382E+03  0.50400001928E-02 0.  1.
       -1   -1    0    0    0  501  0.00000000000E+00  0.00000000000E+00 -0.13724319991E+04  0.13724319991E+04  0.50400001928E-02 0. -1.
    10030    2    1    2    0    0  0.00000000000E+00  0.00000000000E+00 -0.84110914527E+03  0.19037548529E+04  0.17078694170E+04 0.  0.
        3    1    3    3  502    0  0.40530317217E+02 -0.12700716823E+03  0.51965082212E+03  0.53647974289E+03  0.10100000352E+00 0.  1.
       -3    1    3    3    0  502 -0.40530317217E+02  0.12700716823E+03 -0.13607599674E+04  0.13672751100E+04  0.10100000352E+00 0. -1.
</event>
<event>
 5   0  0.2224454E-04  0.1689309E+04  0.7818609E-02  0.8767485E-01
        2   -1    0    0  501    0  0.00000000000E+00  0.00000000000E+00  0.22004733176E+04  0.22004733176E+04  0.25500000920E-02 0.  1.
       -2   -1    0    0    0  501  0.00000000000E+00  0.00000000000E+00 -0.32422172143E+03  0.32422172144E+03  0.25500000920E-02 0. -1.
    10030    2    1    2    0    0  0.00000000000E+00  0.00000000000E+00  0.18762515961E+04  0.25246950390E+04  0.16893090268E+04 0.  0.
        2    1    3    3  502    0 -0.62149692500E+03 -0.54590753826E+03  0.68288417160E+03  0.10726622301E+04  0.25500000920E-02 0.  1.
       -2    1    3    3    0  502  0.62149692500E+03  0.54590753826E+03  0.11933674245E+04  0.14520328089E+04  0.25500000920E-02 0. -1.
</event>
<event>
 5   0  0.1215233E-04  0.1695535E+04  0.7818609E-02  0.8763915E-01
       -1   -1    0    0    0  501  0.00000000000E+00  0.00000000000E+00  0.72824348801E+03  0.72824348803E+03  0.50400001928E-02 0. -1.
        1   -1    0    0  501    0  0.00000000000E+00  0.00000000000E+00 -0.98690807974E+03  0.98690807975E+03  0.50400001928E-02 0.  1.
    10030    2    1    2    0    0  0.00000000000E+00  0.00000000000E+00 -0.25866459173E+03  0.17151515678E+04  0.16955345852E+04 0.  0.
        2    1    3    3  502    0  0.75998544613E+03 -0.65381688662E+01  0.25063135724E+03  0.80027289297E+03  0.25500000920E-02 0. -1.
       -2    1    3    3    0  502 -0.75998544613E+03  0.65381688662E+01 -0.50929594897E+03  0.91487867481E+03  0.25500000920E-02 0.  1.
</event>
<event>
 5   0  0.1126958E-04  0.1716279E+04  0.7818609E-02  0.8752134E-01
        1   -1    0    0  501    0  0.00000000000E+00  0.00000000000E+00  0.12260595251E+04  0.12260595251E+04  0.50400001928E-02 0.  1.
       -1   -1    0    0    0  501  0.00000000000E+00  0.00000000000E+00 -0.60062584171E+03  0.60062584173E+03  0.50400001928E-02 0. -1.
    10030    2    1    2    0    0  0.00000000000E+00  0.00000000000E+00  0.62543368343E+03  0.18266853669E+04  0.17162785721E+04 0.  0.
        4    1    3    3  502    0 -0.65535393479E+03  0.41888390076E+03  0.69859880487E+03  0.10454637274E+04  0.12699999809E+01 0.  1.
       -4    1    3    3    0  502  0.65535393479E+03 -0.41888390076E+03 -0.73165121440E+02  0.78122163952E+03  0.12699999809E+01 0. -1.
</event>
<event>
 5   0  0.1126958E-04  0.1712276E+04  0.7818609E-02  0.8754394E-01
        1   -1    0    0  501    0  0.00000000000E+00  0.00000000000E+00  0.11971803498E+04  0.11971803498E+04  0.50400001928E-02 0. -1.
       -1   -1    0    0    0  501  0.00000000000E+00  0.00000000000E+00 -0.61224875249E+03  0.61224875251E+03  0.50400001928E-02 0.  1.
    10030    2    1    2    0    0  0.00000000000E+00  0.00000000000E+00  0.58493159728E+03  0.18094291023E+04  0.17122758839E+04 0.  0.
        4    1    3    3  502    0  0.79291188915E+03  0.16512841260E+02  0.63323532348E+03  0.10148746355E+04  0.12699999809E+01 0. -1.
       -4    1    3    3    0  502 -0.79291188915E+03 -0.16512841260E+02 -0.48303726204E+02  0.79455446683E+03  0.12699999809E+01 0.  1.
</event>
<event>
 5   0  0.2224454E-04  0.1691722E+04  0.7818609E-02  0.8766100E-01
       -2   -1    0    0    0  501  0.00000000000E+00  0.00000000000E+00  0.11719760142E+04  0.11719760143E+04  0.25500000920E-02 0.  1.
        2   -1    0    0  501    0  0.00000000000E+00  0.00000000000E+00 -0.61049127469E+03  0.61049127470E+03  0.25500000920E-02 0. -1.
    10030    2    1    2    0    0  0.00000000000E+00  0.00000000000E+00  0.56148473956E+03  0.17824672889E+04  0.16917223541E+04 0.  0.
        2    1    3    3  502    0  0.49695146462E+03  0.22119490796E+03 -0.40176397594E+03  0.67624125715E+03  0.25500000920E-02 0. -1.
       -2    1    3    3    0  502 -0.49695146462E+03 -0.22119490796E+03  0.96324871550E+03  0.11062260318E+04  0.25500000920E-02 0.  1.
</event>
<event>
 5   0  0.1204741E-04  0.1699291E+04  0.7818609E-02  0.8761769E-01
       -1   -1    0    0    0  501  0.00000000000E+00  0.00000000000E+00  0.12772666164E+04  0.12772666164E+04  0.50400001928E-02 0. -1.
        1   -1    0    0  501    0  0.00000000000E+00  0.00000000000E+00 -0.56518965845E+03  0.56518965847E+03  0.50400001928E-02 0.  1.
    10030    2    1    2    0    0  0.00000000000E+00  0.00000000000E+00  0.71207695793E+03  0.18424562749E+04  0.16992914791E+04 0.  0.
        1    1    3    3  502    0 -0.69888743999E+03  0.15402297691E+03  0.85258595755E+03  0.11131350081E+04  0.50400001928E-02 0. -1.
       -1    1    3    3    0  502  0.69888743999E+03 -0.15402297691E+03 -0.14050899962E+03  0.72932126678E+03  0.50400001928E-02 0.  1.
</event>
<event>
 5   0  0.2224454E-04  0.1694141E+04  0.7818609E-02  0.8764713E-01
        2   -1    0    0  501    0  0.00000000000E+00  0.00000000000E+00  0.75292323993E+03  0.75292323994E+03  0.25500000920E-02 0.  1.
       -2   -1    0    0    0  501  0.00000000000E+00  0.00000000000E+00 -0.95299023713E+03  0.95299023713E+03  0.25500000920E-02 0. -1.
    10030    2    1    2    0    0  0.00000000000E+00  0.00000000000E+00 -0.20006699719E+03  0.17059134771E+04  0.16941410767E+04 0.  0.
        2    1    3    3  502    0 -0.13796665771E+03  0.13215404773E+03 -0.93101285000E+03  0.95041276183E+03  0.25500000920E-02 0. -1.
       -2    1    3    3    0  502  0.13796665771E+03 -0.13215404773E+03  0.73094585281E+03  0.75550071523E+03  0.25500000920E-02 0.  1.
</event>
<event>
 5   0  0.2224454E-04  0.1691043E+04  0.7818609E-02  0.8766489E-01
        2   -1    0    0  501    0  0.00000000000E+00  0.00000000000E+00  0.24870318678E+04  0.24870318678E+04  0.25500000920E-02 0. -1.
       -2   -1    0    0    0  501  0.00000000000E+00  0.00000000000E+00 -0.28745377079E+03  0.28745377080E+03  0.25500000920E-02 0.  1.
    10030    2    1    2    0    0  0.00000000000E+00  0.00000000000E+00  0.21995780970E+04  0.27744856386E+04  0.16910430964E+04 0.  0.
        2    1    3    3  502    0  0.29638531187E+03  0.20145793330E+03  0.23562625918E+04  0.23833595939E+04  0.25500000920E-02 0. -1.
       -2    1    3    3    0  502 -0.29638531187E+03 -0.20145793330E+03 -0.15668449479E+03  0.39112604477E+03  0.25500000920E-02 0.  1.
</event>
<event>
 5   0  0.2224454E-04  0.1697012E+04  0.7818609E-02  0.8763070E-01
       -2   -1    0    0    0  501  0.00000000000E+00  0.00000000000E+00  0.46993209202E+03  0.46993209203E+03  0.25500000920E-02 0.  1.
        2   -1    0    0  501    0  0.00000000000E+00  0.00000000000E+00 -0.15320564346E+04  0.15320564346E+04  0.25500000920E-02 0. -1.
    10030    2    1    2    0    0  0.00000000000E+00  0.00000000000E+00 -0.10621243426E+04  0.20019885267E+04  0.16970120629E+04 0.  0.
        2    1    3    3  502    0 -0.32564379543E+02 -0.80714978854E+03 -0.22476506441E+03  0.83849302570E+03  0.25500000920E-02 0.  1.
       -2    1    3    3    0  502  0.32564379543E+02  0.80714978854E+03 -0.83735927821E+03  0.11634955010E+04  0.25500000920E-02 0. -1.
</event>
<event>
 5   0  0.2234723E-04  0.1706189E+04  0.7818609E-02  0.8757843E-01
       -2   -1    0    0    0  501  0.00000000000E+00  0.00000000000E+00  0.86423675633E+03  0.86423675634E+03  0.25500000920E-02 0.  1.
        2   -1    0    0  501    0  0.00000000000E+00  0.00000000000E+00 -0.84209550303E+03  0.84209550304E+03  0.25500000920E-02 0. -1.
    10030    2    1    2    0    0  0.00000000000E+00  0.00000000000E+00  0.22141253301E+02  0.17063322594E+04  0.17061886016E+04 0.  0.
        1    1    3    3  502    0 -0.54950822887E+03 -0.61954831660E+03  0.21595484717E+03  0.85582469363E+03  0.50400001928E-02 0.  1.
       -1    1    3    3    0  502  0.54950822887E+03  0.61954831660E+03 -0.19381359387E+03  0.85050756574E+03  0.50400001928E-02 0. -1.
</event>
<event>
 5   0  0.1215233E-04  0.1720211E+04  0.7818609E-02  0.8749920E-01
        1   -1    0    0  501    0  0.00000000000E+00  0.00000000000E+00  0.37238100412E+03  0.37238100415E+03  0.50400001928E-02 0. -1.
       -1   -1    0    0    0  501  0.00000000000E+00  0.00000000000E+00 -0.19866254021E+04  0.19866254021E+04  0.50400001928E-02 0.  1.
    10030    2    1    2    0    0  0.00000000000E+00  0.00000000000E+00 -0.16142443980E+04  0.23590064063E+04  0.17202111058E+04 0.  0.
        2    1    3    3  502    0  0.65528628631E+03  0.32423477841E+03 -0.18583501056E+03  0.75436261818E+03  0.25500000920E-02 0. -1.
       -2    1    3    3    0  502 -0.65528628631E+03 -0.32423477841E+03 -0.14284093874E+04  0.16046437881E+04  0.25500000920E-02 0.  1.
</event>
<event>
 5   0  0.2242967E-04  0.1698520E+04  0.7818609E-02  0.8762209E-01
        2   -1    0    0  501    0  0.00000000000E+00  0.00000000000E+00  0.12485918305E+04  0.12485918305E+04  0.25500000920E-02 0. -1.
       -2   -1    0    0    0  501  0.00000000000E+00  0.00000000000E+00 -0.57764471460E+03  0.57764471460E+03  0.25500000920E-02 0.  1.
    10030    2    1    2    0    0  0.00000000000E+00  0.00000000000E+00  0.67094711592E+03  0.18262365451E+04  0.16985199105E+04 0.  0.
        4    1    3    3  502    0 -0.24981121467E+02 -0.68425353353E+03  0.87565918459E+03  0.11115788659E+04  0.12699999809E+01 0. -1.
       -4    1    3    3    0  502  0.24981121467E+02  0.68425353353E+03 -0.20471206867E+03  0.71465767927E+03  0.12699999809E+01 0.  1.
</event>
<event>
 5   0  0.2356829E-04  0.1709955E+04  0.7818609E-02  0.8755707E-01
       -2   -1    0    0    0  501  0.00000000000E+00  0.00000000000E+00  0.13355211752E+04  0.13355211752E+04  0.25500000920E-02 0.  1.
        2   -1    0    0  501    0  0.00000000000E+00  0.00000000000E+00 -0.54734161033E+03  0.54734161033E+03  0.25500000920E-02 0. -1.
    10030    2    1    2    0    0  0.00000000000E+00  0.00000000000E+00  0.78817956491E+03  0.18828627856E+04  0.17099547487E+04 0.  0.
        5    1    3    3  502    0  0.10259863286E+03  0.82940670267E+03  0.19551484631E+03  0.85830653209E+03  0.46999998093E+01 0. -1.
       -5    1    3    3    0  502 -0.10259863286E+03 -0.82940670267E+03  0.59266471860E+03  0.10245562535E+04  0.46999998093E+01 0.  1.
</event>
<event>
 5   0  0.1186302E-04  0.1728859E+04  0.7818609E-02  0.8745074E-01
        1   -1    0    0  501    0  0.00000000000E+00  0.00000000000E+00  0.78502367755E+03  0.78502367757E+03  0.50400001928E-02 0.  1.
       -1   -1    0    0    0  501  0.00000000000E+00  0.00000000000E+00 -0.95186726228E+03  0.95186726230E+03  0.50400001928E-02 0. -1.
    10030    2    1    2    0    0  0.00000000000E+00  0.00000000000E+00 -0.16684358473E+03  0.17368909399E+04  0.17288589749E+04 0.  0.
        3    1    3    3  502    0 -0.21320684562E+03  0.63858365395E+02 -0.92258872645E+03  0.94905480254E+03  0.10100000352E+00 0. -1.
       -3    1    3    3    0  502  0.21320684562E+03 -0.63858365395E+02  0.75574514172E+03  0.78783613733E+03  0.10100000352E+00 0.  1.
</event>
<event>
 5   0  0.2356829E-04  0.1709783E+04  0.7818609E-02  0.8755804E-01
        2   -1    0    0  501    0  0.00000000000E+00  0.00000000000E+00  0.35706761739E+03  0.35706761739E+03  0.25500000920E-02 0.  1.
       -2   -1    0    0    0  501  0.00000000000E+00  0.00000000000E+00 -0.20467826632E+04  0.20467826632E+04  0.25500000920E-02 0. -1.
    10030    2    1    2    0    0  0.00000000000E+00  0.00000000000E+00 -0.16897150458E+04  0.24038502806E+04  0.17097833885E+04 0.  0.
        5    1    3    3  502    0 -0.50652854198E+03  0.27221927254E+03  0.44495231339E+02  0.57678107787E+03  0.46999998093E+01 0.  1.
       -5    1    3    3    0  502  0.50652854198E+03 -0.27221927254E+03 -0.17342102772E+04  0.18270692027E+04  0.46999998093E+01 0. -1.
</event>
<event>
 5   0  0.1234158E-04  0.1700764E+04  0.7818609E-02  0.8760929E-01
        1   -1    0    0  501    0  0.00000000000E+00  0.00000000000E+00  0.11980274861E+04  0.11980274861E+04  0.50400001928E-02 0.  1.
       -1   -1    0    0    0  501  0.00000000000E+00  0.00000000000E+00 -0.60361665627E+03  0.60361665629E+03  0.50400001928E-02 0. -1.
    10030    2    1    2    0    0  0.00000000000E+00  0.00000000000E+00  0.59441082985E+03  0.18016441424E+04  0.17007637641E+04 0.  0.
        5    1    3    3  502    0  0.11743826619E+03  0.17458940704E+03 -0.57559154661E+03  0.61286289327E+03  0.46999998093E+01 0. -1.
       -5    1    3    3    0  502 -0.11743826619E+03 -0.17458940704E+03  0.11700023765E+04  0.11887812492E+04  0.46999998093E+01 0.  1.
</event>
<event>
 5   0  0.2356829E-04  0.1717449E+04  0.7818609E-02  0.8751475E-01
       -2   -1    0    0    0  501  0.00000000000E+00  0.00000000000E+00  0.57798931358E+03  0.57798931359E+03  0.25500000920E-02 0.  1.
        2   -1    0    0  501    0  0.00000000000E+00  0.00000000000E+00 -0.12758157443E+04  0.12758157443E+04  0.25500000920E-02 0. -1.
    10030    2    1    2    0    0  0.00000000000E+00  0.00000000000E+00 -0.69782643068E+03  0.18538050579E+04  0.17174491157E+04 0.  0.
        5    1    3    3  502    0 -0.23719535361E+03  0.24424212890E+03  0.50200974353E+03  0.60659024547E+03  0.46999998093E+01 0.  1.
       -5    1    3    3    0  502  0.23719535361E+03 -0.24424212890E+03 -0.11998361742E+04  0.12472148124E+04  0.46999998093E+01 0. -1.
</event>
<event>
 5   0  0.2224454E-04  0.1750000E+04  0.7818609E-02  0.8733350E-01
        2   -1    0    0  501    0  0.00000000000E+00  0.00000000000E+00  0.74871838415E+03  0.74871838416E+03  0.25500000920E-02 0. -1.
       -2   -1    0    0    0  501  0.00000000000E+00  0.00000000000E+00 -0.10225811292E+04  0.10225811292E+04  0.25500000920E-02 0.  1.
    10030    2    1    2    0    0  0.00000000000E+00  0.00000000000E+00 -0.27386274505E+03  0.17712995134E+04  0.17500003323E+04 0.  0.
        2    1    3    3  502    0 -0.41836971564E+03 -0.69670479950E+03 -0.46521587171E+03  0.93640621736E+03  0.25500000920E-02 0.  1.
       -2    1    3    3    0  502  0.41836971564E+03  0.69670479950E+03  0.19135312666E+03  0.83489329600E+03  0.25500000920E-02 0. -1.
</event>
<event>
 5   0  0.1204741E-04  0.1696837E+04  0.7818609E-02  0.8763170E-01
       -1   -1    0    0    0  501  0.00000000000E+00  0.00000000000E+00  0.75519181144E+03  0.75519181146E+03  0.50400001928E-02 0.  1.
        1   -1    0    0  501    0  0.00000000000E+00  0.00000000000E+00 -0.95315406964E+03  0.95315406965E+03  0.50400001928E-02 0. -1.
    10030    2    1    2    0    0  0.00000000000E+00  0.00000000000E+00 -0.19796225820E+03  0.17083458811E+04  0.16968372326E+04 0.  0.
        1    1    3    3  502    0  0.31929813379E+03 -0.72407540570E+03 -0.40696055390E+03  0.88986144081E+03  0.50400001928E-02 0. -1.
       -1    1    3    3    0  502 -0.31929813379E+03  0.72407540570E+03  0.20899829571E+03  0.81848444030E+03  0.50400001928E-02 0.  1.
</event>
<event>
 5   0  0.1186302E-04  0.1702985E+04  0.7818609E-02  0.8759663E-01
       -1   -1    0    0    0  501  0.00000000000E+00  0.00000000000E+00  0.58210579890E+03  0.58210579892E+03  0.50400001928E-02 0. -1.
        1   -1    0    0  501    0  0.00000000000E+00  0.00000000000E+00 -0.12455464827E+04  0.12455464827E+04  0.50400001928E-02 0.  1.
    10030    2    1    2    0    0  0.00000000000E+00  0.00000000000E+00 -0.66344068377E+03  0.18276522816E+04  0.17029854144E+04 0.  0.
        3    1    3    3  502    0 -0.40201239819E+03  0.72356872454E+03 -0.54602340507E+03  0.99161849343E+03  0.10100000352E+00 0.  1.
       -3    1    3    3    0  502  0.40201239819E+03 -0.72356872454E+03 -0.11741727870E+03  0.83603378817E+03  0.10100000352E+00 0. -1.
</event>
<event>
 5   0  0.2242967E-04  0.1688925E+04  0.7818609E-02  0.8767706E-01
        2   -1    0    0  501    0  0.00000000000E+00  0.00000000000E+00  0.16958265691E+04  0.16958265691E+04  0.25500000920E-02 0. -1.
       -2   -1    0    0    0  501  0.00000000000E+00  0.00000000000E+00 -0.42051283826E+03  0.42051283827E+03  0.25500000920E-02 0.  1.
    10030    2    1    2    0    0  0.00000000000E+00  0.00000000000E+00  0.12753137308E+04  0.21163394073E+04  0.16889249169E+04 0.  0.
        4    1    3    3  502    0  0.15320828561E+02 -0.13267385147E+03  0.16825076357E+04  0.16878005319E+04  0.12699999809E+01 0. -1.
       -4    1    3    3    0  502 -0.15320828561E+02  0.13267385147E+03 -0.40719390487E+03  0.42853887538E+03  0.12699999809E+01 0.  1.
</event>
<event>
 5   0  0.2242967E-04  0.1704770E+04  0.7818609E-02  0.8758649E-01
        2   -1    0    0  501    0  0.00000000000E+00  0.00000000000E+00  0.14105927640E+04  0.14105927640E+04  0.25500000920E-02 0.  1.
       -2   -1    0    0    0  501  0.00000000000E+00  0.00000000000E+00 -0.51507414775E+03  0.51507414776E+03  0.25500000920E-02 0. -1.
    10030    2    1    2    0    0  0.00000000000E+00  0.00000000000E+00  0.89551861621E+03  0.19256669117E+04  0.17047696217E+04 0.  0.
        4    1    3    3  502    0 -0.33823369136E+02 -0.70103151415E+02  0.14065689590E+04  0.14087215202E+04  0.12699999809E+01 0.  1.
       -4    1    3    3    0  502  0.33823369136E+02  0.70103151415E+02 -0.51105034275E+03  0.51694539157E+03  0.12699999809E+01 0. -1.
</event>
<event>
 5   0  0.2234723E-04  0.1729911E+04  0.7818609E-02  0.8744487E-01
       -2   -1    0    0    0  501  0.00000000000E+00  0.00000000000E+00  0.42410943074E+03  0.42410943075E+03  0.25500000920E-02 0. -1.
        2   -1    0    0  501    0  0.00000000000E+00  0.00000000000E+00 -0.17640447448E+04  0.17640447448E+04  0.25500000920E-02 0.  1.
    10030    2    1    2    0    0  0.00000000000E+00  0.00000000000E+00 -0.13399353141E+04  0.21881541756E+04  0.17299109949E+04 0.  0.
        1    1    3    3  502    0 -0.72550805703E+03  0.12754962144E+03 -0.96540560832E+02  0.74293399886E+03  0.50400001928E-02 0. -1.
       -1    1    3    3    0  502  0.72550805703E+03 -0.12754962144E+03 -0.12433947532E+04  0.14452201767E+04  0.50400001928E-02 0.  1.
</event>
<event>
 5   0  0.2356829E-04  0.1700077E+04  0.7818609E-02  0.8761321E-01
       -2   -1    0    0    0  501  0.00000000000E+00  0.00000000000E+00  0.67637314965E+03  0.67637314966E+03  0.25500000920E-02 0. -1.
        2   -1    0    0  501    0  0.00000000000E+00  0.00000000000E+00 -0.10682937783E+04  0.10682937783E+04  0.25500000920E-02 0.  1.
    10030    2    1    2    0    0  0.00000000000E+00  0.00000000000E+00 -0.39192062868E+03  0.17446669280E+04  0.17000767366E+04 0.  0.
        5    1    3    3  502    0  0.28991871188E+02 -0.47614727964E+02 -0.10664024781E+04  0.10678689181E+04  0.46999998093E+01 0.  1.
       -5    1    3    3    0  502 -0.28991871188E+02  0.47614727964E+02  0.67448184946E+03  0.67679800987E+03  0.46999998093E+01 0. -1.
</event>
<event>
 5   0  0.1186302E-04  0.1694556E+04  0.7818609E-02  0.8764475E-01
        1   -1    0    0  501    0  0.00000000000E+00  0.00000000000E+00  0.22816812827E+04  0.22816812827E+04  0.50400001928E-02 0. -1.
       -1   -1    0    0    0  501  0.00000000000E+00  0.00000000000E+00 -0.31462766533E+03  0.31462766537E+03  0.50400001928E-02 0.  1.
    10030    2    1    2    0    0  0.00000000000E+00  0.00000000000E+00  0.19670536173E+04  0.25963089480E+04  0.16945560540E+04 0.  0.
        3    1    3    3  502    0  0.74022037140E+03  0.37098344608E+03  0.70805918258E+03  0.10894506559E+04  0.10100000352E+00 0.  1.
       -3    1    3    3    0  502 -0.74022037140E+03 -0.37098344608E+03  0.12589944348E+04  0.15068582921E+04  0.10100000352E+00 0. -1.
</event>
<event>
 5   0  0.1204741E-04  0.1693023E+04  0.7818609E-02  0.8765353E-01
       -1   -1    0    0    0  501  0.00000000000E+00  0.00000000000E+00  0.84461895004E+03  0.84461895006E+03  0.50400001928E-02 0. -1.
        1   -1    0    0  501    0  0.00000000000E+00  0.00000000000E+00 -0.84840856770E+03  0.84840856772E+03  0.50400001928E-02 0.  1.
    10030    2    1    2    0    0  0.00000000000E+00  0.00000000000E+00 -0.37896176601E+01  0.16930275178E+04  0.16930232765E+04 0.  0.
        1    1    3    3  502    0  0.40035103668E+03  0.20002278324E+03  0.71664153267E+03  0.84490541054E+03  0.50400001928E-02 0. -1.
       -1    1    3    3    0  502 -0.40035103668E+03 -0.20002278324E+03 -0.72043115033E+03  0.84812210723E+03  0.50400001928E-02 0.  1.
</event>
<event>
 5   0  0.2224454E-04  0.1692956E+04  0.7818609E-02  0.8765392E-01
       -2   -1    0    0    0  501  0.00000000000E+00  0.00000000000E+00  0.47761447767E+03  0.47761447768E+03  0.25500000920E-02 0. -1.
        2   -1    0    0  501    0  0.00000000000E+00  0.00000000000E+00 -0.15002168137E+04  0.15002168137E+04  0.25500000920E-02 0.  1.
    10030    2    1    2    0    0  0.00000000000E+00  0.00000000000E+00 -0.10226023360E+04  0.19778312914E+04  0.16929563135E+04 0.  0.
        2    1    3    3  502    0  0.34951094445E+03  0.44005897740E+03  0.22823862030E+03  0.60654980973E+03  0.25500000920E-02 0. -1.
       -2    1    3    3    0  502 -0.34951094445E+03 -0.44005897740E+03 -0.12508409563E+04  0.13712814816E+04  0.25500000920E-02 0.  1.
</event>
<event>
 5   0  0.1234158E-04  0.1691261E+04  0.7818609E-02  0.8766364E-01
       -1   -1    0    0    0  501  0.00000000000E+00  0.00000000000E+00  0.58424082826E+03  0.58424082828E+03  0.50400001928E-02 0.  1.
        1   -1    0    0  501    0  0.00000000000E+00  0.00000000000E+00 -0.12239660378E+04  0.12239660379E+04  0.50400001928E-02 0. -1.
    10030    2    1    2    0    0  0.00000000000E+00  0.00000000000E+00 -0.63972520959E+03  0.18082068661E+04  0.16912609872E+04 0.  0.
        5    1    3    3  502    0  0.81562917304E+03 -0.98848050168E+02 -0.10590770207E+03  0.82840836325E+03  0.46999998093E+01 0.  1.
       -5    1    3    3    0  502 -0.81562917304E+03  0.98848050168E+02 -0.53381750752E+03  0.97979850289E+03  0.46999998093E+01 0. -1.
</event>
<event>
 5   0  0.1186302E-04  0.1695279E+04  0.7818609E-02  0.8764061E-01
       -1   -1    0    0    0  501  0.00000000000E+00  0.00000000000E+00  0.78452575757E+03  0.78452575759E+03  0.50400001928E-02 0.  1.
        1   -1    0    0  501    0  0.00000000000E+00  0.00000000000E+00 -0.91583113308E+03  0.91583113309E+03  0.50400001928E-02 0. -1.
    10030    2    1    2    0    0  0.00000000000E+00  0.00000000000E+00 -0.13130537551E+03  0.17003568907E+04  0.16952794619E+04 0.  0.
        3    1    3    3  502    0  0.40470445875E+03  0.56124733103E+03 -0.55671975330E+03  0.88809974633E+03  0.10100000352E+00 0. -1.
       -3    1    3    3    0  502 -0.40470445875E+03 -0.56124733103E+03  0.42541437779E+03  0.81225714435E+03  0.10100000352E+00 0.  1.
</event>
<event>
 5   0  0.1215233E-04  0.1700482E+04  0.7818609E-02  0.8761090E-01
       -1   -1    0    0    0  501  0.00000000000E+00  0.00000000000E+00  0.54812847827E+03  0.54812847829E+03  0.50400001928E-02 0. -1.
        1   -1    0    0  501    0  0.00000000000E+00  0.00000000000E+00 -0.13188685906E+04  0.13188685906E+04  0.50400001928E-02 0.  1.
    10030    2    1    2    0    0  0.00000000000E+00  0.00000000000E+00 -0.77074011231E+03  0.18669970689E+04  0.17004816184E+04 0.  0.
        2    1    3    3  502    0 -0.60429395995E+03  0.41124656530E+02 -0.10404968526E+04  0.12039502181E+04  0.25500000920E-02 0.  1.
       -2    1    3    3    0  502  0.60429395995E+03 -0.41124656530E+02  0.26975674027E+03  0.66304685078E+03  0.25500000920E-02 0. -1.
</event>
<event>
 5   0  0.2224454E-04  0.1682741E+04  0.7818609E-02  0.8771269E-01
       -2   -1    0    0    0  501  0.00000000000E+00  0.00000000000E+00  0.45167877752E+03  0.45167877753E+03  0.25500000920E-02 0.  1.
        2   -1    0    0  501    0  0.00000000000E+00  0.00000000000E+00 -0.15672743550E+04  0.15672743550E+04  0.25500000920E-02 0. -1.
    10030    2    1    2    0    0  0.00000000000E+00  0.00000000000E+00 -0.11155955775E+04  0.20189531326E+04  0.16827412929E+04 0.  0.
        2    1    3    3  502    0 -0.17177408801E+03  0.70776020486E+03 -0.10632451243E+04  0.12887672556E+04  0.25500000920E-02 0. -1.
       -2    1    3    3    0  502  0.17177408801E+03 -0.70776020486E+03 -0.52350453223E+02  0.73018587692E+03  0.25500000920E-02 0.  1.
</event>
<event>
 5   0  0.2288806E-04  0.1697205E+04  0.7818609E-02  0.8762960E-01
       -2   -1    0    0    0  501  0.00000000000E+00  0.00000000000E+00  0.49283219394E+03  0.49283219395E+03  0.25500000920E-02 0.  1.
        2   -1    0    0  501    0  0.00000000000E+00  0.00000000000E+00 -0.14612002543E+04  0.14612002543E+04  0.25500000920E-02 0. -1.
    10030    2    1    2    0    0  0.00000000000E+00  0.00000000000E+00 -0.96836806038E+03  0.19540324483E+04  0.16972053820E+04 0.  0.
        3    1    3    3  502    0  0.82300791739E+03 -0.79781140575E+02 -0.70390124691E+03  0.10859024073E+04  0.10100000352E+00 0. -1.
       -3    1    3    3    0  502 -0.82300791739E+03  0.79781140575E+02 -0.26446681347E+03  0.86813004102E+03  0.10100000352E+00 0.  1.
</event>
<event>
 5   0  0.1234158E-04  0.1698905E+04  0.7818609E-02  0.8761989E-01
        1   -1    0    0  501    0  0.00000000000E+00  0.00000000000E+00  0.73140112897E+03  0.73140112899E+03  0.50400001928E-02 0.  1.
       -1   -1    0    0    0  501  0.00000000000E+00  0.00000000000E+00 -0.98655786502E+03  0.98655786503E+03  0.50400001928E-02 0. -1.
    10030    2    1    2    0    0  0.00000000000E+00  0.00000000000E+00 -0.25515673604E+03  0.17179589940E+04  0.16989049842E+04 0.  0.
        5    1    3    3  502    0 -0.62840781799E+03 -0.34879077849E+03 -0.58542123565E+03  0.92697977649E+03  0.46999998093E+01 0. -1.
       -5    1    3    3    0  502  0.62840781799E+03  0.34879077849E+03  0.33026449960E+03  0.79097921753E+03  0.46999998093E+01 0.  1.
</event>
<event>
 5   0  0.1204741E-04  0.1614183E+04  0.7818609E-02  0.8811882E-01
       -1   -1    0    0    0  501  0.00000000000E+00  0.00000000000E+00  0.69974049007E+03  0.69974049009E+03  0.50400001928E-02 0. -1.
        1   -1    0    0  501    0  0.00000000000E+00  0.00000000000E+00 -0.93091191103E+03  0.93091191105E+03  0.50400001928E-02 0.  1.
    10030    2    1    2    0    0  0.00000000000E+00  0.00000000000E+00 -0.23117142096E+03  0.16306524011E+04  0.16141830836E+04 0.  0.
        1    1    3    3  502    0 -0.24615212884E+03 -0.13785778930E+03  0.64830477724E+03  0.70703233648E+03  0.50400001928E-02 0. -1.
       -1    1    3    3    0  502  0.24615212884E+03  0.13785778930E+03 -0.87947619820E+03  0.92362006466E+03  0.50400001928E-02 0.  1.
</event>
<event>
 5   0  0.1186302E-04  0.1702161E+04  0.7818609E-02  0.8760133E-01
       -1   -1    0    0    0  501  0.00000000000E+00  0.00000000000E+00  0.17035584895E+04  0.17035584895E+04  0.50400001928E-02 0.  1.
        1   -1    0    0  501    0  0.00000000000E+00  0.00000000000E+00 -0.42519091466E+03  0.42519091469E+03  0.50400001928E-02 0. -1.
    10030    2    1    2    0    0  0.00000000000E+00  0.00000000000E+00  0.12783675749E+04  0.21287494042E+04  0.17021605005E+04 0.  0.
        3    1    3    3  502    0 -0.10428299881E+03 -0.75776137808E+03  0.17248384794E+03  0.78410964664E+03  0.10100000352E+00 0. -1.
       -3    1    3    3    0  502  0.10428299881E+03  0.75776137808E+03  0.11058837269E+04  0.13446397576E+04  0.10100000352E+00 0.  1.
</event>
<event>
 5   0  0.2356829E-04  0.1680449E+04  0.7818609E-02  0.8772594E-01
       -2   -1    0    0    0  501  0.00000000000E+00  0.00000000000E+00  0.38827259964E+03  0.38827259964E+03  0.25500000920E-02 0. -1.
        2   -1    0    0  501    0  0.00000000000E+00  0.00000000000E+00 -0.18182510045E+04  0.18182510045E+04  0.25500000920E-02 0.  1.
    10030    2    1    2    0    0  0.00000000000E+00  0.00000000000E+00 -0.14299784048E+04  0.22065236041E+04  0.16804488023E+04 0.  0.
        5    1    3    3  502    0 -0.38354459201E+03  0.73727288729E+03 -0.55269424324E+03  0.99808355407E+03  0.46999998093E+01 0. -1.
       -5    1    3    3    0  502  0.38354459201E+03 -0.73727288729E+03 -0.87728416161E+03  0.12084400501E+04  0.46999998093E+01 0.  1.
</event>
<event>
 5   0  0.8372750E-05  0.1706807E+04  0.7818609E-02  0.8757492E-01
        3   -1    0    0  501    0  0.00000000000E+00  0.00000000000E+00  0.63990165498E+03  0.63990166295E+03  0.10100000352E+00 0. -1.
       -3   -1    0    0    0  501  0.00000000000E+00  0.00000000000E+00 -0.11381398467E+04  0.11381398512E+04  0.10100000352E+00 0.  1.
    10030    2    1    2    0    0  0.00000000000E+00  0.00000000000E+00 -0.49823819174E+03  0.17780415142E+04  0.17068070571E+04 0.  0.
        1    1    3    3  502    0 -0.54789084311E+03 -0.46287585618E+03  0.23263052707E+03  0.75402612445E+03  0.50400001928E-02 0. -1.
       -1    1    3    3    0  502  0.54789084311E+03  0.46287585618E+03 -0.73086871881E+03  0.10240153897E+04  0.50400001928E-02 0.  1.
</event>
<event>
 5   0  0.2224454E-04  0.1719958E+04  0.7818609E-02  0.8750063E-01
        2   -1    0    0  501    0  0.00000000000E+00  0.00000000000E+00  0.72857415735E+03  0.72857415736E+03  0.25500000920E-02 0.  1.
       -2   -1    0    0    0  501  0.00000000000E+00  0.00000000000E+00 -0.10150833806E+04  0.10150833806E+04  0.25500000920E-02 0. -1.
    10030    2    1    2    0    0  0.00000000000E+00  0.00000000000E+00 -0.28650922321E+03  0.17436575379E+04  0.17199575793E+04 0.  0.
        2    1    3    3  502    0  0.16213436776E+03 -0.74236413491E+03  0.26499959157E+03  0.80474644799E+03  0.25500000920E-02 0.  1.
       -2    1    3    3    0  502 -0.16213436776E+03  0.74236413491E+03 -0.55150881479E+03  0.93891108994E+03  0.25500000920E-02 0. -1.
</event>
<event>
 5   0  0.2224454E-04  0.1697935E+04  0.7818609E-02  0.8762543E-01
        2   -1    0    0  501    0  0.00000000000E+00  0.00000000000E+00  0.85105447505E+03  0.85105447505E+03  0.25500000920E-02 0. -1.
       -2   -1    0    0    0  501  0.00000000000E+00  0.00000000000E+00 -0.84688519094E+03  0.84688519095E+03  0.25500000920E-02 0.  1.
    10030    2    1    2    0    0  0.00000000000E+00  0.00000000000E+00  0.41692841005E+01  0.16979396660E+04  0.16979345472E+04 0.  0.
        2    1    3    3  502    0  0.83445190544E+03  0.15259135615E+03 -0.31846672086E+02  0.84888651479E+03  0.25500000920E-02 0.  1.
       -2    1    3    3    0  502 -0.83445190544E+03 -0.15259135615E+03  0.36015956187E+02  0.84905315121E+03  0.25500000920E-02 0. -1.
</event>
<event>
 5   0  0.2356829E-04  0.1691116E+04  0.7818609E-02  0.8766448E-01
       -2   -1    0    0    0  501  0.00000000000E+00  0.00000000000E+00  0.45410622416E+03  0.45410622416E+03  0.25500000920E-02 0. -1.
        2   -1    0    0  501    0  0.00000000000E+00  0.00000000000E+00 -0.15744517106E+04  0.15744517106E+04  0.25500000920E-02 0.  1.
    10030    2    1    2    0    0  0.00000000000E+00  0.00000000000E+00 -0.11203454864E+04  0.20285579348E+04  0.16911159882E+04 0.  0.
        5    1    3    3  502    0 -0.80729650350E+03 -0.24600231827E+03 -0.62251925895E+03  0.10487121163E+04  0.46999998093E+01 0.  1.
       -5    1    3    3    0  502  0.80729650350E+03  0.24600231827E+03 -0.49782622750E+03  0.97984581845E+03  0.46999998093E+01 0. -1.
</event>
<event>
 5   0  0.2234723E-04  0.1702225E+04  0.7818609E-02  0.8760096E-01
       -2   -1    0    0    0  501  0.00000000000E+00  0.00000000000E+00  0.13767307535E+04  0.13767307535E+04  0.25500000920E-02 0. -1.
        2   -1    0    0  501    0  0.00000000000E+00  0.00000000000E+00 -0.52616865158E+03  0.52616865158E+03  0.25500000920E-02 0.  1.
    10030    2    1    2    0    0  0.00000000000E+00  0.00000000000E+00  0.85056210190E+03  0.19028994051E+04  0.17022250899E+04 0.  0.
        1    1    3    3  502    0  0.65372725289E+03  0.53938357268E+03  0.33798108448E+03  0.91242817423E+03  0.50400001928E-02 0.  1.
       -1    1    3    3    0  502 -0.65372725289E+03 -0.53938357268E+03  0.51258101743E+03  0.99047123083E+03  0.50400001928E-02 0. -1.
</event>
<event>
 5   0  0.2224454E-04  0.1705273E+04  0.7818609E-02  0.8758362E-01
        2   -1    0    0  501    0  0.00000000000E+00  0.00000000000E+00  0.15447231369E+04  0.15447231369E+04  0.25500000920E-02 0. -1.
       -2   -1    0    0    0  501  0.00000000000E+00  0.00000000000E+00 -0.47062764149E+03  0.47062764150E+03  0.25500000920E-02 0.  1.
    10030    2    1    2    0    0  0.00000000000E+00  0.00000000000E+00  0.10740954954E+04  0.20153507784E+04  0.17052734757E+04 0.  0.
        2    1    3    3  502    0  0.80480457162E+03 -0.15762741302E+03  0.81277911691E+03  0.11546283786E+04  0.25500000920E-02 0. -1.
       -2    1    3    3    0  502 -0.80480457162E+03  0.15762741302E+03  0.26131637854E+03  0.86072239981E+03  0.25500000920E-02 0.  1.
</event>
<event>
 5   0  0.2234723E-04  0.1704624E+04  0.7818609E-02  0.8758732E-01
       -2   -1    0    0    0  501  0.00000000000E+00  0.00000000000E+00  0.41141181978E+03  0.41141181979E+03  0.25500000920E-02 0. -1.
        2   -1    0    0  501    0  0.00000000000E+00  0.00000000000E+00 -0.17657142459E+04  0.17657142459E+04  0.25500000920E-02 0.  1.
    10030    2    1    2    0    0  0.00000000000E+00  0.00000000000E+00 -0.13543024261E+04  0.21771260657E+04  0.17046239599E+04 0.  0.
        1    1    3    3  502    0 -0.67024332221E+03  0.48686511042E+03 -0.93313739544E+03  0.12478017252E+04  0.50400001928E-02 0.  1.
       -1    1    3    3    0  502  0.67024332221E+03 -0.48686511042E+03 -0.42116503070E+03  0.92932434048E+03  0.50400001928E-02 0. -1.
</event>
<event>
 5   0  0.1126958E-04  0.1723065E+04  0.7818609E-02  0.8748318E-01
       -1   -1    0    0    0  501  0.00000000000E+00  0.00000000000E+00  0.96510523121E+03  0.96510523122E+03  0.50400001928E-02 0.  1.
        1   -1    0    0  501    0  0.00000000000E+00  0.00000000000E+00 -0.76907457189E+03  0.76907457190E+03  0.50400001928E-02 0. -1.
    10030    2    1    2    0    0  0.00000000000E+00  0.00000000000E+00  0.19603065932E+03  0.17341798031E+04  0.17230645868E+04 0.  0.
        4    1    3    3  502    0  0.71669077028E+02 -0.37883834600E+03 -0.67739696685E+03  0.77943775415E+03  0.12699999809E+01 0. -1.
       -4    1    3    3    0  502 -0.71669077028E+02  0.37883834600E+03  0.87342762617E+03  0.95474204897E+03  0.12699999809E+01 0.  1.
</event>
<event>
 5   0  0.1126958E-04  0.1694584E+04  0.7818609E-02  0.8764460E-01
       -1   -1    0    0    0  501  0.00000000000E+00  0.00000000000E+00  0.77605954320E+03  0.77605954322E+03  0.50400001928E-02 0. -1.
        1   -1    0    0  501    0  0.00000000000E+00  0.00000000000E+00 -0.92506226657E+03  0.92506226658E+03  0.50400001928E-02 0.  1.
    10030    2    1    2    0    0  0.00000000000E+00  0.00000000000E+00 -0.14900272337E+03  0.17011218098E+04  0.16945836067E+04 0.  0.
        4    1    3    3  502    0 -0.46314819336E+03  0.32925136165E+03 -0.70540779498E+03  0.90582254237E+03  0.12699999809E+01 0.  1.
       -4    1    3    3    0  502  0.46314819336E+03 -0.32925136165E+03  0.55640507161E+03  0.79529926743E+03  0.12699999809E+01 0. -1.
</event>
<event>
 5   0  0.1126958E-04  0.1696628E+04  0.7818609E-02  0.8763290E-01
       -1   -1    0    0    0  501  0.00000000000E+00  0.00000000000E+00  0.66613678461E+03  0.66613678463E+03  0.50400001928E-02 0.  1.
        1   -1    0    0  501    0  0.00000000000E+00  0.00000000000E+00 -0.10803132909E+04  0.10803132910E+04  0.50400001928E-02 0. -1.
    10030    2    1    2    0    0  0.00000000000E+00  0.00000000000E+00 -0.41417650634E+03  0.17464500756E+04  0.16966277400E+04 0.  0.
        4    1    3    3  502    0 -0.62122127702E+03 -0.42805007716E+03  0.19223666688E+03  0.77852379062E+03  0.12699999809E+01 0.  1.
       -4    1    3    3    0  502  0.62122127702E+03  0.42805007716E+03 -0.60641317322E+03  0.96792628496E+03  0.12699999809E+01 0. -1.
</event>
<event>
 5   0  0.2242967E-04  0.1697882E+04  0.7818609E-02  0.8762573E-01
       -2   -1    0    0    0  501  0.00000000000E+00  0.00000000000E+00  0.81461758881E+03  0.81461758881E+03  0.25500000920E-02 0. -1.
        2   -1    0    0  501    0  0.00000000000E+00  0.00000000000E+00 -0.88471110883E+03  0.88471110884E+03  0.25500000920E-02 0.  1.
    10030    2    1    2    0    0  0.00000000000E+00  0.00000000000E+00 -0.70093520026E+02  0.16993286976E+04  0.16978824815E+04 0.  0.
        4    1    3    3  502    0  0.71561288696E+02  0.47973507974E+03  0.66227681282E+03  0.82090130617E+03  0.12699999809E+01 0. -1.
       -4    1    3    3    0  502 -0.71561288696E+02 -0.47973507974E+03 -0.73237033284E+03  0.87842739148E+03  0.12699999809E+01 0.  1.
</event>
<event>
 5   0  0.1234158E-04  0.1694718E+04  0.7818609E-02  0.8764383E-01
       -1   -1    0    0    0  501  0.00000000000E+00  0.00000000000E+00  0.69950435641E+03  0.69950435643E+03  0.50400001928E-02 0.  1.
        1   -1    0    0  501    0  0.00000000000E+00  0.00000000000E+00 -0.10264653268E+04  0.10264653268E+04  0.50400001928E-02 0. -1.
    10030    2    1    2    0    0  0.00000000000E+00  0.00000000000E+00 -0.32696097036E+03  0.17259696832E+04  0.16947176376E+04 0.  0.
        5    1    3    3  502    0 -0.69112466831E+03 -0.36796263002E+03 -0.49340671320E+03  0.92548478046E+03  0.46999998093E+01 0. -1.
       -5    1    3    3    0  502  0.69112466831E+03  0.36796263002E+03  0.16644574283E+03  0.80048490275E+03  0.46999998093E+01 0.  1.
</event>
<event>
 5   0  0.1215233E-04  0.1696945E+04  0.7818609E-02  0.8763109E-01
       -1   -1    0    0    0  501  0.00000000000E+00  0.00000000000E+00  0.54000583321E+03  0.54000583323E+03  0.50400001928E-02 0.  1.
        1   -1    0    0  501    0  0.00000000000E+00  0.00000000000E+00 -0.13331443458E+04  0.13331443458E+04  0.50400001928E-02 0. -1.
    10030    2    1    2    0    0  0.00000000000E+00  0.00000000000E+00 -0.79313851262E+03  0.18731501791E+04  0.16969451650E+04 0.  0.
        2    1    3    3  502    0  0.44568799297E+03 -0.59643103788E+03  0.52541627537E+02  0.74641033798E+03  0.25500000920E-02 0.  1.
       -2    1    3    3    0  502 -0.44568799297E+03  0.59643103788E+03 -0.84568014015E+03  0.11267398411E+04  0.25500000920E-02 0. -1.
</event>
<event>
 5   0  0.1126958E-04  0.1695539E+04  0.7818609E-02  0.8763913E-01
       -1   -1    0    0    0  501  0.00000000000E+00  0.00000000000E+00  0.78298950657E+03  0.78298950659E+03  0.50400001928E-02 0.  1.
        1   -1    0    0  501    0  0.00000000000E+00  0.00000000000E+00 -0.91790891603E+03  0.91790891604E+03  0.50400001928E-02 0. -1.
    10030    2    1    2    0    0  0.00000000000E+00  0.00000000000E+00 -0.13491940945E+03  0.17008984226E+04  0.16955389105E+04 0.  0.
        4    1    3    3  502    0  0.63383731028E+03 -0.55447726326E+03 -0.16532146164E+03  0.85821184445E+03  0.12699999809E+01 0. -1.
       -4    1    3    3    0  502 -0.63383731028E+03  0.55447726326E+03  0.30402052186E+02  0.84268657818E+03  0.12699999809E+01 0.  1.
</event>
<event>
 5   0  0.1126958E-04  0.1698309E+04  0.7818609E-02  0.8762329E-01
       -1   -1    0    0    0  501  0.00000000000E+00  0.00000000000E+00  0.44093164952E+03  0.44093164954E+03  0.50400001928E-02 0.  1.
        1   -1    0    0  501    0  0.00000000000E+00  0.00000000000E+00 -0.16353175352E+04  0.16353175352E+04  0.50400001928E-02 0. -1.
    10030    2    1    2    0    0  0.00000000000E+00  0.00000000000E+00 -0.11943858857E+04  0.20762491847E+04  0.16983088745E+04 0.  0.
        4    1    3    3  502    0  0.24344844004E+02  0.84445683433E+03 -0.49229915771E+03  0.97778325311E+03  0.12699999809E+01 0. -1.
       -4    1    3    3    0  502 -0.24344844004E+02 -0.84445683433E+03 -0.70208672795E+03  0.10984659316E+04  0.12699999809E+01 0.  1.
</event>
<event>
 5   0  0.2288806E-04  0.1704113E+04  0.7818609E-02  0.8759022E-01
        2   -1    0    0  501    0  0.00000000000E+00  0.00000000000E+00  0.18170906316E+04  0.18170906316E+04  0.25500000920E-02 0.  1.
       -2   -1    0    0    0  501  0.00000000000E+00  0.00000000000E+00 -0.39953983373E+03  0.39953983374E+03  0.25500000920E-02 0. -1.
    10030    2    1    2    0    0  0.00000000000E+00  0.00000000000E+00  0.14175507979E+04  0.22166304654E+04  0.17041127766E+04 0.  0.
        3    1    3    3  502    0 -0.21242245286E+03  0.72247069911E+03  0.12273061293E+04  0.14399192876E+04  0.10100000352E+00 0.  1.
       -3    1    3    3    0  502  0.21242245286E+03 -0.72247069911E+03  0.19024466860E+03  0.77671117778E+03  0.10100000352E+00 0. -1.
</event>
<event>
 5   0  0.1215233E-04  0.1692177E+04  0.7818609E-02  0.8765839E-01
        1   -1    0    0  501    0  0.00000000000E+00  0.00000000000E+00  0.37555226050E+03  0.37555226054E+03  0.50400001928E-02 0. -1.
       -1   -1    0    0    0  501  0.00000000000E+00  0.00000000000E+00 -0.19061677968E+04  0.19061677968E+04  0.50400001928E-02 0.  1.
    10030    2    1    2    0    0  0.00000000000E+00  0.00000000000E+00 -0.15306155363E+04  0.22817200573E+04  0.16921768525E+04 0.  0.
        2    1    3    3  502    0 -0.34270394283E+03  0.13714962931E+03  0.26125237737E+03  0.45222651176E+03  0.25500000920E-02 0. -1.
       -2    1    3    3    0  502  0.34270394283E+03 -0.13714962931E+03 -0.17918679137E+04  0.18294935456E+04  0.25500000920E-02 0.  1.
</event>
<event>
 5   0  0.2288806E-04  0.1690012E+04  0.7818609E-02  0.8767082E-01
       -2   -1    0    0    0  501  0.00000000000E+00  0.00000000000E+00  0.67760562211E+03  0.67760562211E+03  0.25500000920E-02 0. -1.
        2   -1    0    0  501    0  0.00000000000E+00  0.00000000000E+00 -0.10537616542E+04  0.10537616542E+04  0.25500000920E-02 0.  1.
    10030    2    1    2    0    0  0.00000000000E+00  0.00000000000E+00 -0.37615603211E+03  0.17313672763E+04  0.16900116228E+04 0.  0.
        3    1    3    3  502    0 -0.11270651679E+03  0.39000303645E+03 -0.94731352931E+03  0.10306347852E+04  0.10100000352E+00 0.  1.
       -3    1    3    3    0  502  0.11270651679E+03 -0.39000303645E+03  0.57115749721E+03  0.70073249117E+03  0.10100000352E+00 0. -1.
</event>
<event>
 5   0  0.1234158E-04  0.1698508E+04  0.7818609E-02  0.8762216E-01
       -1   -1    0    0    0  501  0.00000000000E+00  0.00000000000E+00  0.57888715207E+03  0.57888715209E+03  0.50400001928E-02 0. -1.
        1   -1    0    0  501    0  0.00000000000E+00  0.00000000000E+00 -0.12458938743E+04  0.12458938743E+04  0.50400001928E-02 0.  1.
    10030    2    1    2    0    0  0.00000000000E+00  0.00000000000E+00 -0.66700672226E+03  0.18247810264E+04  0.16985075292E+04 0.  0.
        5    1    3    3  502    0  0.38616655352E+03  0.13877543674E+03 -0.11323028179E+04  0.12043732770E+04  0.46999998093E+01 0.  1.
       -5    1    3    3    0  502 -0.38616655352E+03 -0.13877543674E+03  0.46529609566E+03  0.62040774942E+03  0.46999998093E+01 0. -1.
</event>
<event>
 5   0  0.2288806E-04  0.1720170E+04  0.7818609E-02  0.8749943E-01
        2   -1    0    0  501    0  0.00000000000E+00  0.00000000000E+00  0.83638105258E+03  0.83638105258E+03  0.25500000920E-02 0.  1.
       -2   -1    0    0    0  501  0.00000000000E+00  0.00000000000E+00 -0.88446091175E+03  0.88446091175E+03  0.25500000920E-02 0. -1.
    10030    2    1    2    0    0  0.00000000000E+00  0.00000000000E+00 -0.48079859171E+02  0.17208419643E+04  0.17201701641E+04 0.  0.
        3    1    3    3  502    0 -0.44124700417E+03 -0.73326239269E+03 -0.10994361702E+03  0.86282110796E+03  0.10100000352E+00 0. -1.
       -3    1    3    3    0  502  0.44124700417E+03  0.73326239269E+03  0.61863757846E+02  0.85802085637E+03  0.10100000352E+00 0.  1.
</event>
<event>
 5   0  0.1186302E-04  0.1691925E+04  0.7818609E-02  0.8765983E-01
        1   -1    0    0  501    0  0.00000000000E+00  0.00000000000E+00  0.92965889037E+03  0.92965889038E+03  0.50400001928E-02 0.  1.
       -1   -1    0    0    0  501  0.00000000000E+00  0.00000000000E+00 -0.76980093274E+03  0.76980093276E+03  0.50400001928E-02 0. -1.
    10030    2    1    2    0    0  0.00000000000E+00  0.00000000000E+00  0.15985795763E+03  0.16994598231E+04  0.16919246803E+04 0.  0.
        3    1    3    3  502    0 -0.46756662720E+02 -0.57105880952E+03 -0.54522370088E+03  0.79092556138E+03  0.10100000352E+00 0. -1.
       -3    1    3    3    0  502  0.46756662720E+02  0.57105880952E+03  0.70508165851E+03  0.90853426177E+03  0.10100000352E+00 0.  1.
</event>
<event>
 5   0  0.1234158E-04  0.1661159E+04  0.7818609E-02  0.8783832E-01
        1   -1    0    0  501    0  0.00000000000E+00  0.00000000000E+00  0.91795143725E+03  0.91795143726E+03  0.50400001928E-02 0. -1.
       -1   -1    0    0    0  501  0.00000000000E+00  0.00000000000E+00 -0.75152407966E+03  0.75152407967E+03  0.50400001928E-02 0.  1.
    10030    2    1    2    0    0  0.00000000000E+00  0.00000000000E+00  0.16642735759E+03  0.16694755169E+04  0.16611593651E+04 0.  0.
        5    1    3    3  502    0 -0.13013756016E+03 -0.41252654752E+03  0.79579540396E+03  0.90577389669E+03  0.46999998093E+01 0. -1.
       -5    1    3    3    0  502  0.13013756016E+03  0.41252654752E+03 -0.62936804636E+03  0.76370162024E+03  0.46999998093E+01 0.  1.
</event>
<event>
 5   0  0.2356829E-04  0.1685797E+04  0.7818609E-02  0.8769507E-01
        2   -1    0    0  501    0  0.00000000000E+00  0.00000000000E+00  0.13330991326E+04  0.13330991326E+04  0.25500000920E-02 0. -1.
       -2   -1    0    0    0  501  0.00000000000E+00  0.00000000000E+00 -0.53295204956E+03  0.53295204957E+03  0.25500000920E-02 0.  1.
    10030    2    1    2    0    0  0.00000000000E+00  0.00000000000E+00  0.80014708308E+03  0.18660511822E+04  0.16857970400E+04 0.  0.
        5    1    3    3  502    0 -0.17417812511E+03  0.70119878465E+03 -0.80436633407E+02  0.72698686155E+03  0.46999998093E+01 0.  1.
       -5    1    3    3    0  502  0.17417812511E+03 -0.70119878465E+03  0.88058371649E+03  0.11390643207E+04  0.46999998093E+01 0. -1.
</event>
<event>
 5   0  0.1186302E-04  0.1662506E+04  0.7818609E-02  0.8783042E-01
        1   -1    0    0  501    0  0.00000000000E+00  0.00000000000E+00  0.92067995275E+03  0.92067995276E+03  0.50400001928E-02 0. -1.
       -1   -1    0    0    0  501  0.00000000000E+00  0.00000000000E+00 -0.75051246915E+03  0.75051246916E+03  0.50400001928E-02 0.  1.
    10030    2    1    2    0    0  0.00000000000E+00  0.00000000000E+00  0.17016748360E+03  0.16711924219E+04  0.16625062823E+04 0.  0.
        3    1    3    3  502    0 -0.28876212301E+03 -0.26940750256E+03 -0.65018699468E+03  0.76072800946E+03  0.10100000352E+00 0.  1.
       -3    1    3    3    0  502  0.28876212301E+03  0.26940750256E+03  0.82035447829E+03  0.91046441246E+03  0.10100000352E+00 0. -1.
</event>
<event>
 5   0  0.1215233E-04  0.1699962E+04  0.7818609E-02  0.8761386E-01
       -1   -1    0    0    0  501  0.00000000000E+00  0.00000000000E+00  0.31847176254E+03  0.31847176258E+03  0.50400001928E-02 0.  1.
        1   -1    0    0  501    0  0.00000000000E+00  0.00000000000E+00 -0.22685456212E+04  0.22685456212E+04  0.50400001928E-02 0. -1.
    10030    2    1    2    0    0  0.00000000000E+00  0.00000000000E+00 -0.19500738587E+04  0.25870173838E+04  0.16999620260E+04 0.  0.
        2    1    3    3  502    0 -0.32819199976E+03 -0.53110760760E+03 -0.18527954779E+04  0.19551563524E+04  0.25500000920E-02 0. -1.
       -2    1    3    3    0  502  0.32819199976E+03  0.53110760760E+03 -0.97278380761E+02  0.63186103134E+03  0.25500000920E-02 0.  1.
</event>
<event>
 5   0  0.2224454E-04  0.1700705E+04  0.7818609E-02  0.8760962E-01
        2   -1    0    0  501    0  0.00000000000E+00  0.00000000000E+00  0.50516349940E+03  0.50516349940E+03  0.25500000920E-02 0. -1.
       -2   -1    0    0    0  501  0.00000000000E+00  0.00000000000E+00 -0.14314172261E+04  0.14314172261E+04  0.25500000920E-02 0.  1.
    10030    2    1    2    0    0  0.00000000000E+00  0.00000000000E+00 -0.92625372674E+03  0.19365807255E+04  0.17007054243E+04 0.  0.
        2    1    3    3  502    0 -0.35089982480E+03  0.75856183943E+03 -0.28470065502E+03  0.88295028980E+03  0.25500000920E-02 0.  1.
       -2    1    3    3    0  502  0.35089982480E+03 -0.75856183943E+03 -0.64155307173E+03  0.10536304357E+04  0.25500000920E-02 0. -1.
</event>
<event>
 5   0  0.2224454E-04  0.1688822E+04  0.7818609E-02  0.8767765E-01
        2   -1    0    0  501    0  0.00000000000E+00  0.00000000000E+00  0.12041514422E+04  0.12041514422E+04  0.25500000920E-02 0. -1.
       -2   -1    0    0    0  501  0.00000000000E+00  0.00000000000E+00 -0.59214311525E+03  0.59214311525E+03  0.25500000920E-02 0.  1.
    10030    2    1    2    0    0  0.00000000000E+00  0.00000000000E+00  0.61200832699E+03  0.17962945575E+04  0.16888220584E+04 0.  0.
        2    1    3    3  502    0 -0.28568558902E+03 -0.78283109059E+03  0.45102291955E+03  0.94755603852E+03  0.25500000920E-02 0. -1.
       -2    1    3    3    0  502  0.28568558902E+03  0.78283109059E+03  0.16098540744E+03  0.84873851897E+03  0.25500000920E-02 0.  1.
</event>
<event>
 5   0  0.2242967E-04  0.1687478E+04  0.7818609E-02  0.8768538E-01
        2   -1    0    0  501    0  0.00000000000E+00  0.00000000000E+00  0.62429171674E+03  0.62429171675E+03  0.25500000920E-02 0.  1.
       -2   -1    0    0    0  501  0.00000000000E+00  0.00000000000E+00 -0.11403254250E+04  0.11403254250E+04  0.25500000920E-02 0. -1.
    10030    2    1    2    0    0  0.00000000000E+00  0.00000000000E+00 -0.51603370826E+03  0.17646171417E+04  0.16874782573E+04 0.  0.
        4    1    3    3  502    0 -0.44735608985E+03 -0.29577852107E+03  0.42312796538E+03  0.68311879834E+03  0.12699999809E+01 0.  1.
       -4    1    3    3    0  502  0.44735608985E+03  0.29577852107E+03 -0.93916167364E+03  0.10814983434E+04  0.12699999809E+01 0. -1.
</event>
<event>
 5   0  0.2234723E-04  0.1700312E+04  0.7818609E-02  0.8761186E-01
       -2   -1    0    0    0  501  0.00000000000E+00  0.00000000000E+00  0.72434077329E+03  0.72434077329E+03  0.25500000920E-02 0. -1.
        2   -1    0    0  501    0  0.00000000000E+00  0.00000000000E+00 -0.99782517128E+03  0.99782517128E+03  0.25500000920E-02 0.  1.
    10030    2    1    2    0    0  0.00000000000E+00  0.00000000000E+00 -0.27348439799E+03  0.17221659446E+04  0.17003122727E+04 0.  0.
        1    1    3    3  502    0  0.23851591167E+03 -0.81139300494E+03 -0.22455721834E+03  0.87502822407E+03  0.50400001928E-02 0.  1.
       -1    1    3    3    0  502 -0.23851591167E+03  0.81139300494E+03 -0.48927179652E+02  0.84713772051E+03  0.50400001928E-02 0. -1.
</event>
<event>
 5   0  0.8372750E-05  0.1673899E+04  0.7818609E-02  0.8776392E-01
        4   -1    0    0  501    0  0.00000000000E+00  0.00000000000E+00  0.12077782478E+04  0.12077789155E+04  0.12699999809E+01 0.  1.
       -4   -1    0    0    0  501  0.00000000000E+00  0.00000000000E+00 -0.57997605885E+03  0.57997744933E+03  0.12699999809E+01 0. -1.
    10030    2    1    2    0    0  0.00000000000E+00  0.00000000000E+00  0.62780218894E+03  0.17877563648E+04  0.16738988116E+04 0.  0.
        4    1    3    3  502    0  0.31171584182E+03  0.31061830636E+03 -0.44644484286E+03  0.62686929172E+03  0.12699999809E+01 0. -1.
       -4    1    3    3    0  502 -0.31171584182E+03 -0.31061830636E+03  0.10742470318E+04  0.11608870731E+04  0.12699999809E+01 0.  1.
</event>
<event>
 5   0  0.2224454E-04  0.1688850E+04  0.7818609E-02  0.8767750E-01
        2   -1    0    0  501    0  0.00000000000E+00  0.00000000000E+00  0.17678073991E+04  0.17678073991E+04  0.25500000920E-02 0.  1.
       -2   -1    0    0    0  501  0.00000000000E+00  0.00000000000E+00 -0.40335456013E+03  0.40335456014E+03  0.25500000920E-02 0. -1.
    10030    2    1    2    0    0  0.00000000000E+00  0.00000000000E+00  0.13644528389E+04  0.21711619592E+04  0.16888495207E+04 0.  0.
        2    1    3    3  502    0 -0.63289562574E+03 -0.12334622606E+03  0.13831740653E+04  0.15260870419E+04  0.25500000920E-02 0.  1.
       -2    1    3    3    0  502  0.63289562574E+03  0.12334622606E+03 -0.18721226400E+02  0.64507491727E+03  0.25500000920E-02 0. -1.
</event>
<event>
 5   0  0.2234723E-04  0.1647427E+04  0.7818609E-02  0.8791930E-01
        2   -1    0    0  501    0  0.00000000000E+00  0.00000000000E+00  0.28120278322E+04  0.28120278322E+04  0.25500000920E-02 0.  1.
       -2   -1    0    0    0  501  0.00000000000E+00  0.00000000000E+00 -0.24128630668E+03  0.24128630669E+03  0.25500000920E-02 0. -1.
    10030    2    1    2    0    0  0.00000000000E+00  0.00000000000E+00  0.25707415255E+04  0.30533141388E+04  0.16474268541E+04 0.  0.
        1    1    3    3  502    0 -0.13458872431E+03 -0.77584986917E+03  0.83730143258E+03  0.11494045559E+04  0.50400001928E-02 0. -1.
       -1    1    3    3    0  502  0.13458872431E+03  0.77584986917E+03  0.17334400929E+04  0.19039095829E+04  0.50400001928E-02 0.  1.
</event>
<event>
 5   0  0.8372750E-05  0.1710216E+04  0.7818609E-02  0.8755559E-01
       -3   -1    0    0    0  501  0.00000000000E+00  0.00000000000E+00  0.24086620954E+04  0.24086620975E+04  0.10100000352E+00 0.  1.
        3   -1    0    0  501    0  0.00000000000E+00  0.00000000000E+00 -0.30357515314E+03  0.30357516994E+03  0.10100000352E+00 0. -1.
    10030    2    1    2    0    0  0.00000000000E+00  0.00000000000E+00  0.21050869422E+04  0.27122372674E+04  0.17102163490E+04 0.  0.
        3    1    3    3  502    0 -0.52389545174E+03  0.13389670934E+03  0.21030952438E+04  0.21714981897E+04  0.10100000352E+00 0. -1.
       -3    1    3    3    0  502  0.52389545174E+03 -0.13389670934E+03  0.19916984335E+01  0.54073907773E+03  0.10100000352E+00 0.  1.
</event>
<event>
 5   0  0.8372750E-05  0.1703877E+04  0.7818609E-02  0.8759156E-01
       -3   -1    0    0    0  501  0.00000000000E+00  0.00000000000E+00  0.13970512850E+04  0.13970512886E+04  0.10100000352E+00 0.  1.
        3   -1    0    0  501    0  0.00000000000E+00  0.00000000000E+00 -0.51952247946E+03  0.51952248928E+03  0.10100000352E+00 0. -1.
    10030    2    1    2    0    0  0.00000000000E+00  0.00000000000E+00  0.87752880551E+03  0.19165737779E+04  0.17038774139E+04 0.  0.
        3    1    3    3  502    0  0.43812780075E+03  0.68944815327E+03  0.71083589325E+03  0.10828584410E+04  0.10100000352E+00 0. -1.
       -3    1    3    3    0  502 -0.43812780075E+03 -0.68944815327E+03  0.16669291226E+03  0.83371533693E+03  0.10100000352E+00 0.  1.
</event>
<event>
 5   0  0.1186302E-04  0.1696248E+04  0.7818609E-02  0.8763507E-01
       -1   -1    0    0    0  501  0.00000000000E+00  0.00000000000E+00  0.10347104490E+04  0.10347104490E+04  0.50400001928E-02 0. -1.
        1   -1    0    0  501    0  0.00000000000E+00  0.00000000000E+00 -0.69518433121E+03  0.69518433123E+03  0.50400001928E-02 0.  1.
    10030    2    1    2    0    0  0.00000000000E+00  0.00000000000E+00  0.33952611781E+03  0.17298947803E+04  0.16962482030E+04 0.  0.
        3    1    3    3  502    0 -0.75463399545E+03  0.17744918354E+03 -0.18108687063E+03  0.79608614153E+03  0.10100000352E+00 0.  1.
       -3    1    3    3    0  502  0.75463399545E+03 -0.17744918354E+03  0.52061298844E+03  0.93380863872E+03  0.10100000352E+00 0. -1.
</event>
<event>
 5   0  0.2356829E-04  0.1701665E+04  0.7818609E-02  0.8760415E-01
       -2   -1    0    0    0  501  0.00000000000E+00  0.00000000000E+00  0.10164627860E+04  0.10164627860E+04  0.25500000920E-02 0. -1.
        2   -1    0    0  501    0  0.00000000000E+00  0.00000000000E+00 -0.71219125045E+03  0.71219125045E+03  0.25500000920E-02 0.  1.
    10030    2    1    2    0    0  0.00000000000E+00  0.00000000000E+00  0.30427153551E+03  0.17286540364E+04  0.17016649524E+04 0.  0.
        5    1    3    3  502    0 -0.67250171706E+03  0.86339152351E+02  0.67427299563E+03  0.95623175607E+03  0.46999998093E+01 0. -1.
       -5    1    3    3    0  502  0.67250171706E+03 -0.86339152351E+02 -0.37000146012E+03  0.77242228034E+03  0.46999998093E+01 0.  1.
</event>
<event>
 5   0  0.1126958E-04  0.1755916E+04  0.7818609E-02  0.8730100E-01
       -1   -1    0    0    0  501  0.00000000000E+00  0.00000000000E+00  0.57167403140E+03  0.57167403142E+03  0.50400001928E-02 0.  1.
        1   -1    0    0  501    0  0.00000000000E+00  0.00000000000E+00 -0.13483391503E+04  0.13483391503E+04  0.50400001928E-02 0. -1.
    10030    2    1    2    0    0  0.00000000000E+00  0.00000000000E+00 -0.77666511891E+03  0.19200131817E+04  0.17559162597E+04 0.  0.
        4    1    3    3  502    0 -0.59514564436E+03  0.10615584253E+03  0.30783042182E+03  0.67840149056E+03  0.12699999809E+01 0.  1.
       -4    1    3    3    0  502  0.59514564436E+03 -0.10615584253E+03 -0.10844955407E+04  0.12416116912E+04  0.12699999809E+01 0. -1.
</event>
<event>
 5   0  0.2234723E-04  0.1708658E+04  0.7818609E-02  0.8756442E-01
       -2   -1    0    0    0  501  0.00000000000E+00  0.00000000000E+00  0.10605721388E+04  0.10605721388E+04  0.25500000920E-02 0.  1.
        2   -1    0    0  501    0  0.00000000000E+00  0.00000000000E+00 -0.68819274403E+03  0.68819274403E+03  0.25500000920E-02 0. -1.
    10030    2    1    2    0    0  0.00000000000E+00  0.00000000000E+00  0.37237939474E+03  0.17487648828E+04  0.17086580119E+04 0.  0.
        1    1    3    3  502    0 -0.18994215496E+03  0.77471252763E+03 -0.12696708247E+03  0.80769930219E+03  0.50400001928E-02 0. -1.
       -1    1    3    3    0  502  0.18994215496E+03 -0.77471252763E+03  0.49934647721E+03  0.94106558062E+03  0.50400001928E-02 0.  1.
</event>
<event>
 5   0  0.2224454E-04  0.1714514E+04  0.7818609E-02  0.8753130E-01
       -2   -1    0    0    0  501  0.00000000000E+00  0.00000000000E+00  0.11748546129E+04  0.11748546129E+04  0.25500000920E-02 0.  1.
        2   -1    0    0  501    0  0.00000000000E+00  0.00000000000E+00 -0.62551504434E+03  0.62551504435E+03  0.25500000920E-02 0. -1.
    10030    2    1    2    0    0  0.00000000000E+00  0.00000000000E+00  0.54933956851E+03  0.18003696572E+04  0.17145136165E+04 0.  0.
        2    1    3    3  502    0  0.49961079756E+03 -0.68592458870E+03  0.40235551013E+03  0.93914506173E+03  0.25500000920E-02 0.  1.
       -2    1    3    3    0  502 -0.49961079756E+03  0.68592458870E+03  0.14698405837E+03  0.86122459547E+03  0.25500000920E-02 0. -1.
</event>
<event>
 5   0  0.1234158E-04  0.1694569E+04  0.7818609E-02  0.8764468E-01
        1   -1    0    0  501    0  0.00000000000E+00  0.00000000000E+00  0.58937651282E+03  0.58937651284E+03  0.50400001928E-02 0.  1.
       -1   -1    0    0    0  501  0.00000000000E+00  0.00000000000E+00 -0.12180516217E+04  0.12180516217E+04  0.50400001928E-02 0. -1.
    10030    2    1    2    0    0  0.00000000000E+00  0.00000000000E+00 -0.62867510892E+03  0.18074281346E+04  0.16945689921E+04 0.  0.
        5    1    3    3  502    0 -0.28722128458E+03 -0.16138990688E+03 -0.11469189356E+04  0.11933096426E+04  0.46999998093E+01 0. -1.
       -5    1    3    3    0  502  0.28722128458E+03  0.16138990688E+03  0.51824382664E+03  0.61411849199E+03  0.46999998093E+01 0.  1.
</event>
<event>
 5   0  0.2242967E-04  0.1609721E+04  0.7818609E-02  0.8814598E-01
        2   -1    0    0  501    0  0.00000000000E+00  0.00000000000E+00  0.22984232559E+04  0.22984232559E+04  0.25500000920E-02 0. -1.
       -2   -1    0    0    0  501  0.00000000000E+00  0.00000000000E+00 -0.28184570687E+03  0.28184570688E+03  0.25500000920E-02 0.  1.
    10030    2    1    2    0    0  0.00000000000E+00  0.00000000000E+00  0.20165775490E+04  0.25802689628E+04  0.16097213762E+04 0.  0.
        4    1    3    3  502    0  0.44847156767E+03 -0.55634108681E+03  0.16019288292E+04  0.17540865824E+04  0.12699999809E+01 0. -1.
       -4    1    3    3    0  502 -0.44847156767E+03  0.55634108681E+03  0.41464871985E+03  0.82618238039E+03  0.12699999809E+01 0.  1.
</event>
<event>
 5   0  0.2356829E-04  0.1498483E+04  0.7818609E-02  0.8885462E-01
        2   -1    0    0  501    0  0.00000000000E+00  0.00000000000E+00  0.15707512058E+04  0.15707512058E+04  0.25500000920E-02 0.  1.
       -2   -1    0    0    0  501  0.00000000000E+00  0.00000000000E+00 -0.35738517320E+03  0.35738517321E+03  0.25500000920E-02 0. -1.
    10030    2    1    2    0    0  0.00000000000E+00  0.00000000000E+00  0.12133660326E+04  0.19281363790E+04  0.14984834891E+04 0.  0.
        5    1    3    3  502    0 -0.25454183289E+02  0.56975464060E+03  0.12318683700E+04  0.13574940283E+04  0.46999998093E+01 0.  1.
       -5    1    3    3    0  502  0.25454183289E+02 -0.56975464060E+03 -0.18502337371E+02  0.57064235071E+03  0.46999998093E+01 0. -1.
</event>
<event>
 5   0  0.1126958E-04  0.1690382E+04  0.7818609E-02  0.8766869E-01
        1   -1    0    0  501    0  0.00000000000E+00  0.00000000000E+00  0.79861670456E+03  0.79861670457E+03  0.50400001928E-02 0. -1.
       -1   -1    0    0    0  501  0.00000000000E+00  0.00000000000E+00 -0.89448139278E+03  0.89448139279E+03  0.50400001928E-02 0.  1.
    10030    2    1    2    0    0  0.00000000000E+00  0.00000000000E+00 -0.95864688218E+02  0.16930980974E+04  0.16903819476E+04 0.  0.
        4    1    3    3  502    0  0.14560837576E+03 -0.66744838479E+03  0.45051880375E+03  0.81832631076E+03  0.12699999809E+01 0. -1.
       -4    1    3    3    0  502 -0.14560837576E+03  0.66744838479E+03 -0.54638349197E+03  0.87477178661E+03  0.12699999809E+01 0.  1.
</event>
<event>
 5   0  0.2234723E-04  0.1700416E+04  0.7818609E-02  0.8761127E-01
        2   -1    0    0  501    0  0.00000000000E+00  0.00000000000E+00  0.95726099467E+03  0.95726099467E+03  0.25500000920E-02 0.  1.
       -2   -1    0    0    0  501  0.00000000000E+00  0.00000000000E+00 -0.75512738114E+03  0.75512738115E+03  0.25500000920E-02 0. -1.
    10030    2    1    2    0    0  0.00000000000E+00  0.00000000000E+00  0.20213361353E+03  0.17123883758E+04  0.17004164054E+04 0.  0.
        1    1    3    3  502    0  0.62635700917E+03 -0.44491194889E+03 -0.26561802128E+03  0.81291000637E+03  0.50400001928E-02 0.  1.
       -1    1    3    3    0  502 -0.62635700917E+03  0.44491194889E+03  0.46775163481E+03  0.89947836944E+03  0.50400001928E-02 0. -1.
</event>
<event>
 5   0  0.1234158E-04  0.1702619E+04  0.7818609E-02  0.8759872E-01
       -1   -1    0    0    0  501  0.00000000000E+00  0.00000000000E+00  0.81259198707E+03  0.81259198709E+03  0.50400001928E-02 0.  1.
        1   -1    0    0  501    0  0.00000000000E+00  0.00000000000E+00 -0.89187128700E+03  0.89187128701E+03  0.50400001928E-02 0. -1.
    10030    2    1    2    0    0  0.00000000000E+00  0.00000000000E+00 -0.79279299926E+02  0.17044632741E+04  0.17026185261E+04 0.  0.
        5    1    3    3  502    0  0.85506163624E+02 -0.36586196660E+01  0.80826132003E+03  0.81279341839E+03  0.46999998093E+01 0.  1.
       -5    1    3    3    0  502 -0.85506163624E+02  0.36586196660E+01 -0.88754061996E+03  0.89166985571E+03  0.46999998093E+01 0. -1.
</event>
<event>
 5   0  0.1186302E-04  0.1702325E+04  0.7818609E-02  0.8760039E-01
       -1   -1    0    0    0  501  0.00000000000E+00  0.00000000000E+00  0.56638565423E+03  0.56638565426E+03  0.50400001928E-02 0.  1.
        1   -1    0    0  501    0  0.00000000000E+00  0.00000000000E+00 -0.12791249331E+04  0.12791249331E+04  0.50400001928E-02 0. -1.
    10030    2    1    2    0    0  0.00000000000E+00  0.00000000000E+00 -0.71273927890E+03  0.18455105874E+04  0.17023254825E+04 0.  0.
        3    1    3    3  502    0 -0.82201757429E+03  0.10549754267E+03 -0.14605375158E+03  0.84153094566E+03  0.10100000352E+00 0. -1.
       -3    1    3    3    0  502  0.82201757429E+03 -0.10549754267E+03 -0.56668552732E+03  0.10039796417E+04  0.10100000352E+00 0.  1.
</event>
<event>
 5   0  0.1186302E-04  0.1701050E+04  0.7818609E-02  0.8760766E-01
       -1   -1    0    0    0  501  0.00000000000E+00  0.00000000000E+00  0.42090200780E+03  0.42090200783E+03  0.50400001928E-02 0.  1.
        1   -1    0    0  501    0  0.00000000000E+00  0.00000000000E+00 -0.17186725810E+04  0.17186725810E+04  0.50400001928E-02 0. -1.
    10030    2    1    2    0    0  0.00000000000E+00  0.00000000000E+00 -0.12977705732E+04  0.21395745888E+04  0.17010499583E+04 0.  0.
        3    1    3    3  502    0 -0.35947417196E+03  0.68579132244E+03 -0.20621721358E+03  0.80128457344E+03  0.10100000352E+00 0.  1.
       -3    1    3    3    0  502  0.35947417196E+03 -0.68579132244E+03 -0.10915533596E+04  0.13382900154E+04  0.10100000352E+00 0. -1.
</event>
<event>
 5   0  0.1204741E-04  0.1708995E+04  0.7818609E-02  0.8756251E-01
        1   -1    0    0  501    0  0.00000000000E+00  0.00000000000E+00  0.10278850292E+04  0.10278850292E+04  0.50400001928E-02 0.  1.
       -1   -1    0    0    0  501  0.00000000000E+00  0.00000000000E+00 -0.71035743071E+03  0.71035743072E+03  0.50400001928E-02 0. -1.
    10030    2    1    2    0    0  0.00000000000E+00  0.00000000000E+00  0.31752759847E+03  0.17382424599E+04  0.17089947553E+04 0.  0.
        1    1    3    3  502    0  0.78814544840E+03  0.32962044141E+03  0.13992973856E+03  0.86568078123E+03  0.50400001928E-02 0. -1.
       -1    1    3    3    0  502 -0.78814544840E+03 -0.32962044141E+03  0.17759785991E+03  0.87256167868E+03  0.50400001928E-02 0.  1.
</event>
<event>
 5   0  0.2288806E-04  0.1709637E+04  0.7818609E-02  0.8755887E-01
       -2   -1    0    0    0  501  0.00000000000E+00  0.00000000000E+00  0.45493015019E+03  0.45493015020E+03  0.25500000920E-02 0. -1.
        2   -1    0    0  501    0  0.00000000000E+00  0.00000000000E+00 -0.16062124435E+04  0.16062124435E+04  0.25500000920E-02 0.  1.
    10030    2    1    2    0    0  0.00000000000E+00  0.00000000000E+00 -0.11512822933E+04  0.20611425937E+04  0.17096367663E+04 0.  0.
        3    1    3    3  502    0 -0.31303252962E+03  0.51721508849E+02 -0.15325965300E+04  0.15650931644E+04  0.10100000352E+00 0.  1.
       -3    1    3    3    0  502  0.31303252962E+03 -0.51721508849E+02  0.38131423669E+03  0.49604942937E+03  0.10100000352E+00 0. -1.
</event>
<event>
 5   0  0.8372750E-05  0.1701898E+04  0.7818609E-02  0.8760283E-01
       -3   -1    0    0    0  501  0.00000000000E+00  0.00000000000E+00  0.11129071122E+04  0.11129071168E+04  0.10100000352E+00 0. -1.
        3   -1    0    0  501    0  0.00000000000E+00  0.00000000000E+00 -0.65065115219E+03  0.65065116003E+03  0.10100000352E+00 0.  1.
    10030    2    1    2    0    0  0.00000000000E+00  0.00000000000E+00  0.46225595998E+03  0.17635582768E+04  0.17018981236E+04 0.  0.
        1    1    3    3  502    0 -0.72637394479E+03 -0.22539234970E+03  0.62665515243E+03  0.98545294107E+03  0.50400001928E-02 0. -1.
       -1    1    3    3    0  502  0.72637394479E+03  0.22539234970E+03 -0.16439919245E+03  0.77810533572E+03  0.50400001928E-02 0.  1.
</event>
<event>
 5   0  0.2288806E-04  0.1701106E+04  0.7818609E-02  0.8760734E-01
        2   -1    0    0  501    0  0.00000000000E+00  0.00000000000E+00  0.82789777333E+03  0.82789777334E+03  0.25500000920E-02 0.  1.
       -2   -1    0    0    0  501  0.00000000000E+00  0.00000000000E+00 -0.87382824603E+03  0.87382824603E+03  0.25500000920E-02 0. -1.
    10030    2    1    2    0    0  0.00000000000E+00  0.00000000000E+00 -0.45930472692E+02  0.17017260194E+04  0.17011060627E+04 0.  0.
        3    1    3    3  502    0  0.20974828308E+02 -0.33209315705E+03 -0.80601141723E+03  0.87199783445E+03  0.10100000352E+00 0. -1.
       -3    1    3    3    0  502 -0.20974828308E+02  0.33209315705E+03  0.76008094454E+03  0.82972818491E+03  0.10100000352E+00 0.  1.
</event>
<event>
 5   0  0.2356829E-04  0.1709503E+04  0.7818609E-02  0.8755963E-01
        2   -1    0    0  501    0  0.00000000000E+00  0.00000000000E+00  0.16661634532E+04  0.16661634532E+04  0.25500000920E-02 0. -1.
       -2   -1    0    0    0  501  0.00000000000E+00  0.00000000000E+00 -0.43849255885E+03  0.43849255886E+03  0.25500000920E-02 0.  1.
    10030    2    1    2    0    0  0.00000000000E+00  0.00000000000E+00  0.12276708944E+04  0.21046560121E+04  0.17095031747E+04 0.  0.
        5    1    3    3  502    0 -0.80491285892E+03 -0.24271102725E+03  0.42396329868E+03  0.94157332260E+03  0.46999998093E+01 0.  1.
       -5    1    3    3    0  502  0.80491285892E+03  0.24271102725E+03  0.80370759568E+03  0.11630826895E+04  0.46999998093E+01 0. -1.
</event>
<event>
 5   0  0.1215233E-04  0.1690378E+04  0.7818609E-02  0.8766871E-01
       -1   -1    0    0    0  501  0.00000000000E+00  0.00000000000E+00  0.18282321032E+04  0.18282321032E+04  0.50400001928E-02 0.  1.
        1   -1    0    0  501    0  0.00000000000E+00  0.00000000000E+00 -0.39072982108E+03  0.39072982111E+03  0.50400001928E-02 0. -1.
    10030    2    1    2    0    0  0.00000000000E+00  0.00000000000E+00  0.14375022821E+04  0.22189619243E+04  0.16903784223E+04 0.  0.
        2    1    3    3  502    0 -0.43209557556E+02 -0.35289339053E+03 -0.28779546344E+03  0.45741342320E+03  0.25500000920E-02 0. -1.
       -2    1    3    3    0  502  0.43209557556E+02  0.35289339053E+03  0.17252977456E+04  0.17615485011E+04  0.25500000920E-02 0.  1.
</event>
<event>
 5   0  0.1126958E-04  0.1687539E+04  0.7818609E-02  0.8768503E-01
       -1   -1    0    0    0  501  0.00000000000E+00  0.00000000000E+00  0.45886965037E+03  0.45886965040E+03  0.50400001928E-02 0.  1.
        1   -1    0    0  501    0  0.00000000000E+00  0.00000000000E+00 -0.15515241676E+04  0.15515241676E+04  0.50400001928E-02 0. -1.
    10030    2    1    2    0    0  0.00000000000E+00  0.00000000000E+00 -0.10926545172E+04  0.20103938180E+04  0.16875394542E+04 0.  0.
        4    1    3    3  502    0  0.38426308821E+03  0.33476312204E+03 -0.13474567101E+04  0.14406129485E+04  0.12699999809E+01 0. -1.
       -4    1    3    3    0  502 -0.38426308821E+03 -0.33476312204E+03  0.25480219290E+03  0.56978086950E+03  0.12699999809E+01 0.  1.
</event>
<event>
 5   0  0.2224454E-04  0.1702000E+04  0.7818609E-02  0.8760225E-01
       -2   -1    0    0    0  501  0.00000000000E+00  0.00000000000E+00  0.51758525960E+03  0.51758525961E+03  0.25500000920E-02 0.  1.
        2   -1    0    0  501    0  0.00000000000E+00  0.00000000000E+00 -0.13991916821E+04  0.13991916821E+04  0.25500000920E-02 0. -1.
    10030    2    1    2    0    0  0.00000000000E+00  0.00000000000E+00 -0.88160642246E+03  0.19167769417E+04  0.17019999883E+04 0.  0.
        2    1    3    3  502    0 -0.66905532311E+03 -0.87787160009E+02  0.14314538566E+03  0.68980592364E+03  0.25500000920E-02 0.  1.
       -2    1    3    3    0  502  0.66905532311E+03  0.87787160009E+02 -0.10247518081E+04  0.12269710180E+04  0.25500000920E-02 0. -1.
</event>
<event>
 5   0  0.2288806E-04  0.1697568E+04  0.7818609E-02  0.8762753E-01
        2   -1    0    0  501    0  0.00000000000E+00  0.00000000000E+00  0.14312139941E+04  0.14312139941E+04  0.25500000920E-02 0.  1.
       -2   -1    0    0    0  501  0.00000000000E+00  0.00000000000E+00 -0.50337265999E+03  0.50337266000E+03  0.25500000920E-02 0. -1.
    10030    2    1    2    0    0  0.00000000000E+00  0.00000000000E+00  0.92784133411E+03  0.19345866541E+04  0.16975676661E+04 0.  0.
        3    1    3    3  502    0  0.67287772569E+02  0.83992633347E+03  0.34753346554E+03  0.91147320852E+03  0.10100000352E+00 0.  1.
       -3    1    3    3    0  502 -0.67287772569E+02 -0.83992633347E+03  0.58030786857E+03  0.10231134456E+04  0.10100000352E+00 0. -1.
</event>
<event>
 5   0  0.1204741E-04  0.1487840E+04  0.7818609E-02  0.8892579E-01
       -1   -1    0    0    0  501  0.00000000000E+00  0.00000000000E+00  0.40989684013E+03  0.40989684016E+03  0.50400001928E-02 0. -1.
        1   -1    0    0  501    0  0.00000000000E+00  0.00000000000E+00 -0.13501378704E+04  0.13501378704E+04  0.50400001928E-02 0.  1.
    10030    2    1    2    0    0  0.00000000000E+00  0.00000000000E+00 -0.94024103024E+03  0.17600347106E+04  0.14878403770E+04 0.  0.
        1    1    3    3  502    0  0.15051797899E+03  0.70467508582E+02 -0.13278957359E+04  0.13382557369E+04  0.50400001928E-02 0.  1.
       -1    1    3    3    0  502 -0.15051797899E+03 -0.70467508582E+02  0.38765470569E+03  0.42177897367E+03  0.50400001928E-02 0. -1.
</event>
<event>
 5   0  0.2356829E-04  0.1702777E+04  0.7818609E-02  0.8759782E-01
       -2   -1    0    0    0  501  0.00000000000E+00  0.00000000000E+00  0.59849789108E+03  0.59849789109E+03  0.25500000920E-02 0. -1.
        2   -1    0    0  501    0  0.00000000000E+00  0.00000000000E+00 -0.12111357612E+04  0.12111357612E+04  0.25500000920E-02 0.  1.
    10030    2    1    2    0    0  0.00000000000E+00  0.00000000000E+00 -0.61263787014E+03  0.18096336523E+04  0.17027767897E+04 0.  0.
        5    1    3    3  502    0  0.37420070191E+03  0.14898864046E+03 -0.11034672058E+04  0.11746853811E+04  0.46999998093E+01 0.  1.
       -5    1    3    3    0  502 -0.37420070191E+03 -0.14898864046E+03  0.49082933570E+03  0.63494827118E+03  0.46999998093E+01 0. -1.
</event>
<event>
 5   0  0.1126958E-04  0.1690411E+04  0.7818609E-02  0.8766852E-01
        1   -1    0    0  501    0  0.00000000000E+00  0.00000000000E+00  0.10385685715E+04  0.10385685715E+04  0.50400001928E-02 0.  1.
       -1   -1    0    0    0  501  0.00000000000E+00  0.00000000000E+00 -0.68784332246E+03  0.68784332248E+03  0.50400001928E-02 0. -1.
    10030    2    1    2    0    0  0.00000000000E+00  0.00000000000E+00  0.35072524906E+03  0.17264118940E+04  0.16904111416E+04 0.  0.
        4    1    3    3  502    0  0.41128098888E+03  0.46744382806E+03  0.75912573816E+03  0.98179900359E+03  0.12699999809E+01 0.  1.
       -4    1    3    3    0  502 -0.41128098888E+03 -0.46744382806E+03 -0.40840048910E+03  0.74461289043E+03  0.12699999809E+01 0. -1.
</event>
<event>
 5   0  0.1234158E-04  0.1745054E+04  0.7818609E-02  0.8736077E-01
        1   -1    0    0  501    0  0.00000000000E+00  0.00000000000E+00  0.15504490356E+04  0.15504490356E+04  0.50400001928E-02 0.  1.
       -1   -1    0    0    0  501  0.00000000000E+00  0.00000000000E+00 -0.49102122391E+03  0.49102122394E+03  0.50400001928E-02 0. -1.
    10030    2    1    2    0    0  0.00000000000E+00  0.00000000000E+00  0.10594278116E+04  0.20414702595E+04  0.17450540199E+04 0.  0.
        5    1    3    3  502    0  0.24693836071E+02  0.15854670187E+03 -0.47359736596E+03  0.50006339324E+03  0.46999998093E+01 0. -1.
       -5    1    3    3    0  502 -0.24693836071E+02 -0.15854670187E+03  0.15330251776E+04  0.15414068663E+04  0.46999998093E+01 0.  1.
</event>
<event>
 5   0  0.2224454E-04  0.1696198E+04  0.7818609E-02  0.8763536E-01
       -2   -1    0    0    0  501  0.00000000000E+00  0.00000000000E+00  0.37089934634E+03  0.37089934635E+03  0.25500000920E-02 0.  1.
        2   -1    0    0  501    0  0.00000000000E+00  0.00000000000E+00 -0.19392651876E+04  0.19392651876E+04  0.25500000920E-02 0. -1.
    10030    2    1    2    0    0  0.00000000000E+00  0.00000000000E+00 -0.15683658413E+04  0.23101645340E+04  0.16961983262E+04 0.  0.
        2    1    3    3  502    0  0.24633832768E+03 -0.79061570014E+03 -0.53484106845E+03  0.98580460817E+03  0.25500000920E-02 0.  1.
       -2    1    3    3    0  502 -0.24633832768E+03  0.79061570014E+03 -0.10335247728E+04  0.13243599258E+04  0.25500000920E-02 0. -1.
</event>
<event>
 5   0  0.1204741E-04  0.1704174E+04  0.7818609E-02  0.8758988E-01
       -1   -1    0    0    0  501  0.00000000000E+00  0.00000000000E+00  0.89069729043E+03  0.89069729044E+03  0.50400001928E-02 0.  1.
        1   -1    0    0  501    0  0.00000000000E+00  0.00000000000E+00 -0.81515006495E+03  0.81515006497E+03  0.50400001928E-02 0. -1.
    10030    2    1    2    0    0  0.00000000000E+00  0.00000000000E+00  0.75547225476E+02  0.17058473554E+04  0.17041736463E+04 0.  0.
        1    1    3    3  502    0  0.58505639676E+03 -0.52626889287E+03  0.36490035840E+03  0.86741120962E+03  0.50400001928E-02 0.  1.
       -1    1    3    3    0  502 -0.58505639676E+03  0.52626889287E+03 -0.28935313292E+03  0.83843614578E+03  0.50400001928E-02 0. -1.
</event>
<event>
 5   0  0.1215233E-04  0.1814032E+04  0.7818609E-02  0.8698873E-01
       -1   -1    0    0    0  501  0.00000000000E+00  0.00000000000E+00  0.11748288942E+04  0.11748288942E+04  0.50400001928E-02 0.  1.
        1   -1    0    0  501    0  0.00000000000E+00  0.00000000000E+00 -0.70025351358E+03  0.70025351360E+03  0.50400001928E-02 0. -1.
    10030    2    1    2    0    0  0.00000000000E+00  0.00000000000E+00  0.47457538057E+03  0.18750824078E+04  0.18140320405E+04 0.  0.
        2    1    3    3  502    0 -0.17247115650E+03  0.27955434299E+03 -0.63661272394E+03  0.71636072673E+03  0.25500000920E-02 0. -1.
       -2    1    3    3    0  502  0.17247115650E+03 -0.27955434299E+03  0.11111881045E+04  0.11587216810E+04  0.25500000920E-02 0.  1.
</event>
<event>
 5   0  0.2356829E-04  0.1703064E+04  0.7818609E-02  0.8759619E-01
       -2   -1    0    0    0  501  0.00000000000E+00  0.00000000000E+00  0.38763416406E+03  0.38763416407E+03  0.25500000920E-02 0. -1.
        2   -1    0    0  501    0  0.00000000000E+00  0.00000000000E+00 -0.18705952064E+04  0.18705952064E+04  0.25500000920E-02 0.  1.
    10030    2    1    2    0    0  0.00000000000E+00  0.00000000000E+00 -0.14829610423E+04  0.22582293705E+04  0.17030638381E+04 0.  0.
        5    1    3    3  502    0  0.31777751895E+03  0.36408957919E+03 -0.16711249824E+04  0.17396047166E+04  0.46999998093E+01 0.  1.
       -5    1    3    3    0  502 -0.31777751895E+03 -0.36408957919E+03  0.18816394009E+03  0.51862465385E+03  0.46999998093E+01 0. -1.
</event>
<event>
 5   0  0.2242967E-04  0.1697241E+04  0.7818609E-02  0.8762939E-01
        2   -1    0    0  501    0  0.00000000000E+00  0.00000000000E+00  0.11132465431E+04  0.11132465431E+04  0.25500000920E-02 0.  1.
       -2   -1    0    0    0  501  0.00000000000E+00  0.00000000000E+00 -0.64689807628E+03  0.64689807628E+03  0.25500000920E-02 0. -1.
    10030    2    1    2    0    0  0.00000000000E+00  0.00000000000E+00  0.46634846680E+03  0.17601446194E+04  0.16972413466E+04 0.  0.
        4    1    3    3  502    0  0.15669801157E+03  0.26329153244E+03 -0.58753360744E+03  0.66262662990E+03  0.12699999809E+01 0. -1.
       -4    1    3    3    0  502 -0.15669801157E+03 -0.26329153244E+03  0.10538820742E+04  0.10975179895E+04  0.12699999809E+01 0.  1.
</event>
<event>
 5   0  0.1215233E-04  0.1694625E+04  0.7818609E-02  0.8764436E-01
       -1   -1    0    0    0  501  0.00000000000E+00  0.00000000000E+00  0.10350405999E+04  0.10350405999E+04  0.50400001928E-02 0. -1.
        1   -1    0    0  501    0  0.00000000000E+00  0.00000000000E+00 -0.69363312807E+03  0.69363312809E+03  0.50400001928E-02 0.  1.
    10030    2    1    2    0    0  0.00000000000E+00  0.00000000000E+00  0.34140747184E+03  0.17286737280E+04  0.16946249721E+04 0.  0.
        2    1    3    3  502    0 -0.31387343740E+03  0.30394061182E+03 -0.56985933280E+03  0.71807805245E+03  0.25500000920E-02 0.  1.
       -2    1    3    3    0  502  0.31387343740E+03 -0.30394061182E+03  0.91126680465E+03  0.10105956756E+04  0.25500000920E-02 0. -1.
</event>
<event>
 5   0  0.1186302E-04  0.1698515E+04  0.7818609E-02  0.8762212E-01
        1   -1    0    0  501    0  0.00000000000E+00  0.00000000000E+00  0.58775770382E+03  0.58775770384E+03  0.50400001928E-02 0. -1.
       -1   -1    0    0    0  501  0.00000000000E+00  0.00000000000E+00 -0.12271006863E+04  0.12271006863E+04  0.50400001928E-02 0.  1.
    10030    2    1    2    0    0  0.00000000000E+00  0.00000000000E+00 -0.63934298245E+03  0.18148583901E+04  0.16985145060E+04 0.  0.
        3    1    3    3  502    0 -0.10615896572E+03 -0.46853323393E+03  0.42861607709E+03  0.64382052549E+03  0.10100000352E+00 0. -1.
       -3    1    3    3    0  502  0.10615896572E+03  0.46853323393E+03 -0.10679590595E+04  0.11710378646E+04  0.10100000352E+00 0.  1.
</event>
<event>
 5   0  0.1215233E-04  0.1701180E+04  0.7818609E-02  0.8760691E-01
        1   -1    0    0  501    0  0.00000000000E+00  0.00000000000E+00  0.10232837678E+04  0.10232837678E+04  0.50400001928E-02 0.  1.
       -1   -1    0    0    0  501  0.00000000000E+00  0.00000000000E+00 -0.70704103563E+03  0.70704103565E+03  0.50400001928E-02 0. -1.
    10030    2    1    2    0    0  0.00000000000E+00  0.00000000000E+00  0.31624273217E+03  0.17303248035E+04  0.17011803137E+04 0.  0.
        2    1    3    3  502    0 -0.50902132633E+03 -0.82216821834E+02 -0.52996014670E+03  0.73940521607E+03  0.25500000920E-02 0. -1.
       -2    1    3    3    0  502  0.50902132633E+03  0.82216821834E+02  0.84620287887E+03  0.99091958738E+03  0.25500000920E-02 0.  1.
</event>
<event>
 5   0  0.2288806E-04  0.1698452E+04  0.7818609E-02  0.8762247E-01
        2   -1    0    0  501    0  0.00000000000E+00  0.00000000000E+00  0.12169863245E+04  0.12169863245E+04  0.25500000920E-02 0.  1.
       -2   -1    0    0    0  501  0.00000000000E+00  0.00000000000E+00 -0.59259926132E+03  0.59259926132E+03  0.25500000920E-02 0. -1.
    10030    2    1    2    0    0  0.00000000000E+00  0.00000000000E+00  0.62438706318E+03  0.18095855858E+04  0.16984524685E+04 0.  0.
        3    1    3    3  502    0  0.62459131817E+03  0.27728725366E+03  0.84934736950E+03  0.10901346247E+04  0.10100000352E+00 0. -1.
       -3    1    3    3    0  502 -0.62459131817E+03 -0.27728725366E+03 -0.22496030632E+03  0.71945096108E+03  0.10100000352E+00 0.  1.
</event>
<event>
 5   0  0.8372750E-05  0.1707192E+04  0.7818609E-02  0.8757273E-01
        3   -1    0    0  501    0  0.00000000000E+00  0.00000000000E+00  0.21386493817E+04  0.21386493841E+04  0.10100000352E+00 0. -1.
       -3   -1    0    0    0  501  0.00000000000E+00  0.00000000000E+00 -0.34069446885E+03  0.34069448382E+03  0.10100000352E+00 0.  1.
    10030    2    1    2    0    0  0.00000000000E+00  0.00000000000E+00  0.17979549129E+04  0.24793438679E+04  0.17071918892E+04 0.  0.
        2    1    3    3  502    0  0.16845856671E+03  0.82515237881E+03  0.11011088667E+04  0.13862523123E+04  0.25500000920E-02 0.  1.
       -2    1    3    3    0  502 -0.16845856671E+03 -0.82515237881E+03  0.69684604618E+03  0.10930915557E+04  0.25500000920E-02 0. -1.
</event>
<event>
 5   0  0.1126958E-04  0.1703616E+04  0.7818609E-02  0.8759305E-01
        1   -1    0    0  501    0  0.00000000000E+00  0.00000000000E+00  0.67549455094E+03  0.67549455096E+03  0.50400001928E-02 0.  1.
       -1   -1    0    0    0  501  0.00000000000E+00  0.00000000000E+00 -0.10741419909E+04  0.10741419909E+04  0.50400001928E-02 0. -1.
    10030    2    1    2    0    0  0.00000000000E+00  0.00000000000E+00 -0.39864743994E+03  0.17496365419E+04  0.17036162265E+04 0.  0.
        4    1    3    3  502    0 -0.77946509941E+03  0.25706612980E+03 -0.43335347012E+03  0.92814098027E+03  0.12699999809E+01 0.  1.
       -4    1    3    3    0  502  0.77946509941E+03 -0.25706612980E+03  0.34706030173E+02  0.82149556159E+03  0.12699999809E+01 0. -1.
</event>
<event>
 5   0  0.1186302E-04  0.1704802E+04  0.7818609E-02  0.8758631E-01
        1   -1    0    0  501    0  0.00000000000E+00  0.00000000000E+00  0.21708667302E+04  0.21708667302E+04  0.50400001928E-02 0.  1.
       -1   -1    0    0    0  501  0.00000000000E+00  0.00000000000E+00 -0.33469906348E+03  0.33469906352E+03  0.50400001928E-02 0. -1.
    10030    2    1    2    0    0  0.00000000000E+00  0.00000000000E+00  0.18361676667E+04  0.25055657937E+04  0.17048015270E+04 0.  0.
        3    1    3    3  502    0  0.79180025726E+03 -0.12503317183E+03  0.49210558552E+03  0.94061089668E+03  0.10100000352E+00 0.  1.
       -3    1    3    3    0  502 -0.79180025726E+03  0.12503317183E+03  0.13440620812E+04  0.15649548970E+04  0.10100000352E+00 0. -1.
</event>
<event>
 5   0  0.2234723E-04  0.1702780E+04  0.7818609E-02  0.8759781E-01
        2   -1    0    0  501    0  0.00000000000E+00  0.00000000000E+00  0.14182022639E+04  0.14182022639E+04  0.25500000920E-02 0.  1.
       -2   -1    0    0    0  501  0.00000000000E+00  0.00000000000E+00 -0.51111519046E+03  0.51111519047E+03  0.25500000920E-02 0. -1.
    10030    2    1    2    0    0  0.00000000000E+00  0.00000000000E+00  0.90708707344E+03  0.19293174544E+04  0.17027797512E+04 0.  0.
        1    1    3    3  502    0  0.83352379050E+03 -0.16765740796E+03  0.40295099538E+03  0.94087215948E+03  0.50400001928E-02 0. -1.
       -1    1    3    3    0  502 -0.83352379050E+03  0.16765740796E+03  0.50413607806E+03  0.98844529490E+03  0.50400001928E-02 0.  1.
</event>
<event>
 5   0  0.1204741E-04  0.1694739E+04  0.7818609E-02  0.8764370E-01
        1   -1    0    0  501    0  0.00000000000E+00  0.00000000000E+00  0.51756496542E+03  0.51756496544E+03  0.50400001928E-02 0. -1.
       -1   -1    0    0    0  501  0.00000000000E+00  0.00000000000E+00 -0.13873337860E+04  0.13873337860E+04  0.50400001928E-02 0.  1.
    10030    2    1    2    0    0  0.00000000000E+00  0.00000000000E+00 -0.86976882056E+03  0.19048987514E+04  0.16947393463E+04 0.  0.
        1    1    3    3  502    0  0.52763644590E+03 -0.66259151039E+03 -0.40717737101E+03  0.93979845721E+03  0.50400001928E-02 0.  1.
       -1    1    3    3    0  502 -0.52763644590E+03  0.66259151039E+03 -0.46259144955E+03  0.96510029422E+03  0.50400001928E-02 0. -1.
</event>
<event>
 5   0  0.2288806E-04  0.1697617E+04  0.7818609E-02  0.8762724E-01
        2   -1    0    0  501    0  0.00000000000E+00  0.00000000000E+00  0.64458045829E+03  0.64458045830E+03  0.25500000920E-02 0.  1.
       -2   -1    0    0    0  501  0.00000000000E+00  0.00000000000E+00 -0.11177445208E+04  0.11177445208E+04  0.25500000920E-02 0. -1.
    10030    2    1    2    0    0  0.00000000000E+00  0.00000000000E+00 -0.47316406250E+03  0.17623249791E+04  0.16976174781E+04 0.  0.
        3    1    3    3  502    0  0.27214600769E+02  0.74189654408E+03  0.19059401500E+03  0.76647061611E+03  0.10100000352E+00 0.  1.
       -3    1    3    3    0  502 -0.27214600769E+02 -0.74189654408E+03 -0.66375807750E+03  0.99585436297E+03  0.10100000352E+00 0. -1.
</event>
<event>
 5   0  0.2288806E-04  0.1733818E+04  0.7818609E-02  0.8742309E-01
       -2   -1    0    0    0  501  0.00000000000E+00  0.00000000000E+00  0.78467781623E+03  0.78467781623E+03  0.25500000920E-02 0.  1.
        2   -1    0    0  501    0  0.00000000000E+00  0.00000000000E+00 -0.95775719106E+03  0.95775719107E+03  0.25500000920E-02 0. -1.
    10030    2    1    2    0    0  0.00000000000E+00  0.00000000000E+00 -0.17307937484E+03  0.17424350073E+04  0.17338175465E+04 0.  0.
        3    1    3    3  502    0 -0.70013463454E+03  0.18235223043E+03  0.39342168533E+03  0.82354202996E+03  0.10100000352E+00 0.  1.
       -3    1    3    3    0  502  0.70013463454E+03 -0.18235223043E+03 -0.56650106017E+03  0.91889297734E+03  0.10100000352E+00 0. -1.
</event>
<event>
 5   0  0.2242967E-04  0.1698498E+04  0.7818609E-02  0.8762221E-01
       -2   -1    0    0    0  501  0.00000000000E+00  0.00000000000E+00  0.65993399271E+03  0.65993399272E+03  0.25500000920E-02 0.  1.
        2   -1    0    0  501    0  0.00000000000E+00  0.00000000000E+00 -0.10928728147E+04  0.10928728147E+04  0.25500000920E-02 0. -1.
    10030    2    1    2    0    0  0.00000000000E+00  0.00000000000E+00 -0.43293882203E+03  0.17528068075E+04  0.16984980661E+04 0.  0.
        4    1    3    3  502    0 -0.70647352849E+03 -0.28926561887E+03 -0.60044558756E+03  0.97124454245E+03  0.12699999809E+01 0. -1.
       -4    1    3    3    0  502  0.70647352849E+03  0.28926561887E+03  0.16750676553E+03  0.78156226502E+03  0.12699999809E+01 0.  1.
</event>
<event>
 5   0  0.1186302E-04  0.1690750E+04  0.7818609E-02  0.8766658E-01
       -1   -1    0    0    0  501  0.00000000000E+00  0.00000000000E+00  0.42057360775E+03  0.42057360778E+03  0.50400001928E-02 0.  1.
        1   -1    0    0  501    0  0.00000000000E+00  0.00000000000E+00 -0.16992472352E+04  0.16992472352E+04  0.50400001928E-02 0. -1.
    10030    2    1    2    0    0  0.00000000000E+00  0.00000000000E+00 -0.12786736275E+04  0.21198208430E+04  0.16907495855E+04 0.  0.
        3    1    3    3  502    0  0.33900849006E+03 -0.45009753709E+03  0.15078465201E+03  0.58331001252E+03  0.10100000352E+00 0.  1.
       -3    1    3    3    0  502 -0.33900849006E+03  0.45009753709E+03 -0.14294582795E+04  0.15365108305E+04  0.10100000352E+00 0. -1.
</event>
<event>
 5   0  0.2242967E-04  0.1697948E+04  0.7818609E-02  0.8762536E-01
        2   -1    0    0  501    0  0.00000000000E+00  0.00000000000E+00  0.11621642617E+04  0.11621642617E+04  0.25500000920E-02 0. -1.
       -2   -1    0    0    0  501  0.00000000000E+00  0.00000000000E+00 -0.62018488449E+03  0.62018488450E+03  0.25500000920E-02 0.  1.
    10030    2    1    2    0    0  0.00000000000E+00  0.00000000000E+00  0.54197937725E+03  0.17823491462E+04  0.16979478301E+04 0.  0.
        4    1    3    3  502    0 -0.69934567180E+03  0.38247194442E+03 -0.35744099759E+02  0.79790250689E+03  0.12699999809E+01 0.  1.
       -4    1    3    3    0  502  0.69934567180E+03 -0.38247194442E+03  0.57772347701E+03  0.98444663935E+03  0.12699999809E+01 0. -1.
</event>
<event>
 5   0  0.1234158E-04  0.1700929E+04  0.7818609E-02  0.8760834E-01
       -1   -1    0    0    0  501  0.00000000000E+00  0.00000000000E+00  0.60090324747E+03  0.60090324749E+03  0.50400001928E-02 0.  1.
        1   -1    0    0  501    0  0.00000000000E+00  0.00000000000E+00 -0.12036717948E+04  0.12036717948E+04  0.50400001928E-02 0. -1.
    10030    2    1    2    0    0  0.00000000000E+00  0.00000000000E+00 -0.60276854730E+03  0.18045750423E+04  0.17009294993E+04 0.  0.
        5    1    3    3  502    0 -0.82295769803E+03  0.16471910952E+03 -0.15562079999E+03  0.85359925093E+03  0.46999998093E+01 0. -1.
       -5    1    3    3    0  502  0.82295769803E+03 -0.16471910952E+03 -0.44714774731E+03  0.95097579134E+03  0.46999998093E+01 0.  1.
</event>
<event>
 5   0  0.2234723E-04  0.1702102E+04  0.7818609E-02  0.8760167E-01
       -2   -1    0    0    0  501  0.00000000000E+00  0.00000000000E+00  0.10648624394E+04  0.10648624394E+04  0.25500000920E-02 0.  1.
        2   -1    0    0  501    0  0.00000000000E+00  0.00000000000E+00 -0.68016992361E+03  0.68016992362E+03  0.25500000920E-02 0. -1.
    10030    2    1    2    0    0  0.00000000000E+00  0.00000000000E+00  0.38469251576E+03  0.17450323630E+04  0.17021015293E+04 0.  0.
        1    1    3    3  502    0  0.86622639552E+02  0.70459153254E+03  0.67358376425E+03  0.97860502599E+03  0.50400001928E-02 0.  1.
       -1    1    3    3    0  502 -0.86622639552E+02 -0.70459153254E+03 -0.28889124850E+03  0.76642733699E+03  0.50400001928E-02 0. -1.
</event>
<event>
 5   0  0.1215233E-04  0.1711154E+04  0.7818609E-02  0.8755029E-01
        1   -1    0    0  501    0  0.00000000000E+00  0.00000000000E+00  0.17657247812E+04  0.17657247812E+04  0.50400001928E-02 0.  1.
       -1   -1    0    0    0  501  0.00000000000E+00  0.00000000000E+00 -0.41456720962E+03  0.41456720965E+03  0.50400001928E-02 0. -1.
    10030    2    1    2    0    0  0.00000000000E+00  0.00000000000E+00  0.13511575715E+04  0.21802919908E+04  0.17111535238E+04 0.  0.
        2    1    3    3  502    0 -0.36704489459E+03  0.35122085470E+03  0.15527500810E+04  0.16337413680E+04  0.25500000920E-02 0.  1.
       -2    1    3    3    0  502  0.36704489459E+03 -0.35122085470E+03 -0.20159250948E+03  0.54655062282E+03  0.25500000920E-02 0. -1.
</event>
<event>
 5   0  0.2356829E-04  0.1700379E+04  0.7818609E-02  0.8761148E-01
        2   -1    0    0  501    0  0.00000000000E+00  0.00000000000E+00  0.11898259479E+04  0.11898259479E+04  0.25500000920E-02 0. -1.
       -2   -1    0    0    0  501  0.00000000000E+00  0.00000000000E+00 -0.60750279560E+03  0.60750279560E+03  0.25500000920E-02 0.  1.
    10030    2    1    2    0    0  0.00000000000E+00  0.00000000000E+00  0.58232315228E+03  0.17973287435E+04  0.17003794748E+04 0.  0.
        5    1    3    3  502    0 -0.72844851070E+03  0.27728478700E+03 -0.67720603879E+02  0.78238881385E+03  0.46999998093E+01 0.  1.
       -5    1    3    3    0  502  0.72844851070E+03 -0.27728478700E+03  0.65004375615E+03  0.10149399296E+04  0.46999998093E+01 0. -1.
</event>
<event>
 5   0  0.1186302E-04  0.1692193E+04  0.7818609E-02  0.8765830E-01
       -1   -1    0    0    0  501  0.00000000000E+00  0.00000000000E+00  0.11826087922E+04  0.11826087922E+04  0.50400001928E-02 0. -1.
        1   -1    0    0  501    0  0.00000000000E+00  0.00000000000E+00 -0.60533906729E+03  0.60533906731E+03  0.50400001928E-02 0.  1.
    10030    2    1    2    0    0  0.00000000000E+00  0.00000000000E+00  0.57726972495E+03  0.17879478596E+04  0.16921930189E+04 0.  0.
        3    1    3    3  502    0 -0.32295657561E+03 -0.76814108059E+03  0.13357341180E+03  0.84390967287E+03  0.10100000352E+00 0.  1.
       -3    1    3    3    0  502  0.32295657561E+03  0.76814108059E+03  0.44369631315E+03  0.94403818669E+03  0.10100000352E+00 0. -1.
</event>
<event>
 5   0  0.1186302E-04  0.1692964E+04  0.7818609E-02  0.8765388E-01
       -1   -1    0    0    0  501  0.00000000000E+00  0.00000000000E+00  0.12668247144E+04  0.12668247144E+04  0.50400001928E-02 0. -1.
        1   -1    0    0  501    0  0.00000000000E+00  0.00000000000E+00 -0.56561226425E+03  0.56561226427E+03  0.50400001928E-02 0.  1.
    10030    2    1    2    0    0  0.00000000000E+00  0.00000000000E+00  0.70121245016E+03  0.18324369787E+04  0.16929637860E+04 0.  0.
        3    1    3    3  502    0 -0.74075336049E+03 -0.36236506587E+03  0.14379550909E+03  0.83707893336E+03  0.10100000352E+00 0.  1.
       -3    1    3    3    0  502  0.74075336049E+03  0.36236506587E+03  0.55741694108E+03  0.99535804535E+03  0.10100000352E+00 0. -1.
</event>
<event>
 5   0  0.8372750E-05  0.1690230E+04  0.7818609E-02  0.8766956E-01
        3   -1    0    0  501    0  0.00000000000E+00  0.00000000000E+00  0.15590892521E+04  0.15590892553E+04  0.10100000352E+00 0.  1.
       -3   -1    0    0    0  501  0.00000000000E+00  0.00000000000E+00 -0.45810033365E+03  0.45810034478E+03  0.10100000352E+00 0. -1.
    10030    2    1    2    0    0  0.00000000000E+00  0.00000000000E+00  0.11009889184E+04  0.20171896001E+04  0.16902299501E+04 0.  0.
        3    1    3    3  502    0 -0.31706488042E+03  0.75361876031E+03  0.29523215642E+03  0.86927177031E+03  0.10100000352E+00 0. -1.
       -3    1    3    3    0  502  0.31706488042E+03 -0.75361876031E+03  0.80575676200E+03  0.11479178298E+04  0.10100000352E+00 0.  1.
</event>
<event>
 5   0  0.1204741E-04  0.1701056E+04  0.7818609E-02  0.8760762E-01
        1   -1    0    0  501    0  0.00000000000E+00  0.00000000000E+00  0.55760201925E+03  0.55760201928E+03  0.50400001928E-02 0.  1.
       -1   -1    0    0    0  501  0.00000000000E+00  0.00000000000E+00 -0.12973379231E+04  0.12973379231E+04  0.50400001928E-02 0. -1.
    10030    2    1    2    0    0  0.00000000000E+00  0.00000000000E+00 -0.73973590388E+03  0.18549399424E+04  0.17010564313E+04 0.  0.
        1    1    3    3  502    0  0.65058887148E+03  0.42689660572E+03  0.45465503390E+01  0.77815632286E+03  0.50400001928E-02 0.  1.
       -1    1    3    3    0  502 -0.65058887148E+03 -0.42689660572E+03 -0.74428245422E+03  0.10767836196E+04  0.50400001928E-02 0. -1.
</event>
<event>
 5   0  0.1215233E-04  0.1685441E+04  0.7818609E-02  0.8769712E-01
       -1   -1    0    0    0  501  0.00000000000E+00  0.00000000000E+00  0.59686482693E+03  0.59686482695E+03  0.50400001928E-02 0. -1.
        1   -1    0    0  501    0  0.00000000000E+00  0.00000000000E+00 -0.11898474110E+04  0.11898474110E+04  0.50400001928E-02 0.  1.
    10030    2    1    2    0    0  0.00000000000E+00  0.00000000000E+00 -0.59298258403E+03  0.17867122379E+04  0.16854412705E+04 0.  0.
        2    1    3    3  502    0 -0.44172678966E+03  0.54949466769E+03 -0.78586884648E+03  0.10557730771E+04  0.25500000920E-02 0.  1.
       -2    1    3    3    0  502  0.44172678966E+03 -0.54949466769E+03  0.19288626245E+03  0.73093916078E+03  0.25500000920E-02 0. -1.
</event>
<event>
 5   0  0.1234158E-04  0.1682055E+04  0.7818609E-02  0.8771666E-01
       -1   -1    0    0    0  501  0.00000000000E+00  0.00000000000E+00  0.58060058539E+03  0.58060058541E+03  0.50400001928E-02 0. -1.
        1   -1    0    0  501    0  0.00000000000E+00  0.00000000000E+00 -0.12182680304E+04  0.12182680304E+04  0.50400001928E-02 0.  1.
    10030    2    1    2    0    0  0.00000000000E+00  0.00000000000E+00 -0.63766744504E+03  0.17988686159E+04  0.16820548524E+04 0.  0.
        5    1    3    3  502    0  0.70833143228E+03 -0.44782865867E+03 -0.39461456447E+03  0.92629729027E+03  0.46999998093E+01 0.  1.
       -5    1    3    3    0  502 -0.70833143228E+03  0.44782865867E+03 -0.24305288057E+03  0.87257132558E+03  0.46999998093E+01 0. -1.
</event>
<event>
 5   0  0.2356829E-04  0.1697354E+04  0.7818609E-02  0.8762875E-01
       -2   -1    0    0    0  501  0.00000000000E+00  0.00000000000E+00  0.62501283217E+03  0.62501283217E+03  0.25500000920E-02 0. -1.
        2   -1    0    0  501    0  0.00000000000E+00  0.00000000000E+00 -0.11523805191E+04  0.11523805191E+04  0.25500000920E-02 0.  1.
    10030    2    1    2    0    0  0.00000000000E+00  0.00000000000E+00 -0.52736768694E+03  0.17773933513E+04  0.16973539548E+04 0.  0.
        5    1    3    3  502    0 -0.37414029286E+02  0.73480562989E+03  0.17921634437E+03  0.75728443229E+03  0.46999998093E+01 0. -1.
       -5    1    3    3    0  502  0.37414029286E+02 -0.73480562989E+03 -0.70658403130E+03  0.10201089190E+04  0.46999998093E+01 0.  1.
</event>
<event>
 5   0  0.8372750E-05  0.1686259E+04  0.7818609E-02  0.8769240E-01
       -3   -1    0    0    0  501  0.00000000000E+00  0.00000000000E+00  0.11270799714E+04  0.11270799760E+04  0.10100000352E+00 0. -1.
        3   -1    0    0  501    0  0.00000000000E+00  0.00000000000E+00 -0.63071581058E+03  0.63071581867E+03  0.10100000352E+00 0.  1.
    10030    2    1    2    0    0  0.00000000000E+00  0.00000000000E+00  0.49636416086E+03  0.17577957946E+04  0.16862587807E+04 0.  0.
        2    1    3    3  502    0 -0.30480930664E+03  0.76757794407E+03  0.42503363034E+03  0.92883701506E+03  0.25500000920E-02 0.  1.
       -2    1    3    3    0  502  0.30480930664E+03 -0.76757794407E+03  0.71330530521E+02  0.82895877957E+03  0.25500000920E-02 0. -1.
</event>
<event>
 5   0  0.2234723E-04  0.1690844E+04  0.7818609E-02  0.8766604E-01
       -2   -1    0    0    0  501  0.00000000000E+00  0.00000000000E+00  0.75614588839E+03  0.75614588839E+03  0.25500000920E-02 0. -1.
        2   -1    0    0  501    0  0.00000000000E+00  0.00000000000E+00 -0.94523846476E+03  0.94523846476E+03  0.25500000920E-02 0.  1.
    10030    2    1    2    0    0  0.00000000000E+00  0.00000000000E+00 -0.18909257637E+03  0.17013843532E+04  0.16908437878E+04 0.  0.
        1    1    3    3  502    0 -0.14813859962E+03  0.23639946301E+03 -0.89758678329E+03  0.93994243673E+03  0.50400001928E-02 0.  1.
       -1    1    3    3    0  502  0.14813859962E+03 -0.23639946301E+03  0.70849420692E+03  0.76144191642E+03  0.50400001928E-02 0. -1.
</event>
<event>
 5   0  0.1204741E-04  0.1690226E+04  0.7818609E-02  0.8766958E-01
        1   -1    0    0  501    0  0.00000000000E+00  0.00000000000E+00  0.69501284844E+03  0.69501284846E+03  0.50400001928E-02 0.  1.
       -1   -1    0    0    0  501  0.00000000000E+00  0.00000000000E+00 -0.10276303178E+04  0.10276303178E+04  0.50400001928E-02 0. -1.
    10030    2    1    2    0    0  0.00000000000E+00  0.00000000000E+00 -0.33261746938E+03  0.17226431663E+04  0.16902263450E+04 0.  0.
        1    1    3    3  502    0 -0.32881188918E+03 -0.63469889313E+03  0.29317749422E+03  0.77260144094E+03  0.50400001928E-02 0.  1.
       -1    1    3    3    0  502  0.32881188918E+03  0.63469889313E+03 -0.62579496360E+03  0.95004172535E+03  0.50400001928E-02 0. -1.
</event>
<event>
 5   0  0.2242967E-04  0.1708298E+04  0.7818609E-02  0.8756646E-01
        2   -1    0    0  501    0  0.00000000000E+00  0.00000000000E+00  0.13988714186E+04  0.13988714186E+04  0.25500000920E-02 0.  1.
       -2   -1    0    0    0  501  0.00000000000E+00  0.00000000000E+00 -0.52154219917E+03  0.52154219917E+03  0.25500000920E-02 0. -1.
    10030    2    1    2    0    0  0.00000000000E+00  0.00000000000E+00  0.87732921939E+03  0.19204136177E+04  0.17082979553E+04 0.  0.
        4    1    3    3  502    0 -0.47837965976E+03  0.70761696133E+03  0.43868294723E+03  0.96021518626E+03  0.12699999809E+01 0.  1.
       -4    1    3    3    0  502  0.47837965976E+03 -0.70761696133E+03  0.43864627216E+03  0.96019843148E+03  0.12699999809E+01 0. -1.
</event>
<event>
 5   0  0.2288806E-04  0.1703489E+04  0.7818609E-02  0.8759377E-01
        2   -1    0    0  501    0  0.00000000000E+00  0.00000000000E+00  0.14110030984E+04  0.14110030984E+04  0.25500000920E-02 0.  1.
       -2   -1    0    0    0  501  0.00000000000E+00  0.00000000000E+00 -0.51415121181E+03  0.51415121182E+03  0.25500000920E-02 0. -1.
    10030    2    1    2    0    0  0.00000000000E+00  0.00000000000E+00  0.89685188660E+03  0.19251543102E+04  0.17034893048E+04 0.  0.
        3    1    3    3  502    0 -0.44169850427E+03 -0.61459406035E+03  0.68878691725E+01  0.75688234266E+03  0.10100000352E+00 0.  1.
       -3    1    3    3    0  502  0.44169850427E+03  0.61459406035E+03  0.88996401743E+03  0.11682719676E+04  0.10100000352E+00 0. -1.
</event>
<event>
 5   0  0.1186302E-04  0.1680381E+04  0.7818609E-02  0.8772633E-01
       -1   -1    0    0    0  501  0.00000000000E+00  0.00000000000E+00  0.17303818418E+04  0.17303818418E+04  0.50400001928E-02 0. -1.
        1   -1    0    0  501    0  0.00000000000E+00  0.00000000000E+00 -0.40795631649E+03  0.40795631653E+03  0.50400001928E-02 0.  1.
    10030    2    1    2    0    0  0.00000000000E+00  0.00000000000E+00  0.13224255253E+04  0.21383381584E+04  0.16803811501E+04 0.  0.
        3    1    3    3  502    0 -0.48875954777E+03 -0.12377717859E+03 -0.19405110175E+03  0.54024302472E+03  0.10100000352E+00 0.  1.
       -3    1    3    3    0  502  0.48875954777E+03  0.12377717859E+03  0.15164766271E+04  0.15980951336E+04  0.10100000352E+00 0. -1.
</event>
<event>
 5   0  0.1234158E-04  0.1701793E+04  0.7818609E-02  0.8760342E-01
        1   -1    0    0  501    0  0.00000000000E+00  0.00000000000E+00  0.12934351303E+04  0.12934351303E+04  0.50400001928E-02 0.  1.
       -1   -1    0    0    0  501  0.00000000000E+00  0.00000000000E+00 -0.55976923482E+03  0.55976923485E+03  0.50400001928E-02 0. -1.
    10030    2    1    2    0    0  0.00000000000E+00  0.00000000000E+00  0.73366589548E+03  0.18532043652E+04  0.17017933990E+04 0.  0.
        5    1    3    3  502    0 -0.27438871378E+03 -0.35202933776E+03 -0.42204344190E+03  0.61429355990E+03  0.46999998093E+01 0. -1.
       -5    1    3    3    0  502  0.27438871378E+03  0.35202933776E+03  0.11557093374E+04  0.12389108053E+04  0.46999998093E+01 0.  1.
</event>
<event>
 5   0  0.8372750E-05  0.1693582E+04  0.7818609E-02  0.8765033E-01
       -3   -1    0    0    0  501  0.00000000000E+00  0.00000000000E+00  0.94275555465E+03  0.94275556006E+03  0.10100000352E+00 0. -1.
        3   -1    0    0  501    0  0.00000000000E+00  0.00000000000E+00 -0.76059491415E+03  0.76059492086E+03  0.10100000352E+00 0.  1.
    10030    2    1    2    0    0  0.00000000000E+00  0.00000000000E+00  0.18216064050E+03  0.17033504809E+04  0.16935821096E+04 0.  0.
        5    1    3    3  502    0  0.73431046518E+03  0.21349226449E+03 -0.27466837327E+03  0.81256114326E+03  0.46999998093E+01 0.  1.
       -5    1    3    3    0  502 -0.73431046518E+03 -0.21349226449E+03  0.45682901377E+03  0.89078933766E+03  0.46999998093E+01 0. -1.
</event>
<event>
 5   0  0.1126958E-04  0.1698609E+04  0.7818609E-02  0.8762158E-01
        1   -1    0    0  501    0  0.00000000000E+00  0.00000000000E+00  0.79889535702E+03  0.79889535703E+03  0.50400001928E-02 0.  1.
       -1   -1    0    0    0  501  0.00000000000E+00  0.00000000000E+00 -0.90289479190E+03  0.90289479192E+03  0.50400001928E-02 0. -1.
    10030    2    1    2    0    0  0.00000000000E+00  0.00000000000E+00 -0.10399943489E+03  0.17017901489E+04  0.16986093808E+04 0.  0.
        4    1    3    3  502    0 -0.71885683582E+03  0.11358458723E+03 -0.49060968379E+03  0.87769931274E+03  0.12699999809E+01 0. -1.
       -4    1    3    3    0  502  0.71885683582E+03 -0.11358458723E+03  0.38661024891E+03  0.82409083620E+03  0.12699999809E+01 0.  1.
</event>
<event>
 5   0  0.2288806E-04  0.1791960E+04  0.7818609E-02  0.8710587E-01
        2   -1    0    0  501    0  0.00000000000E+00  0.00000000000E+00  0.67114111514E+03  0.67114111515E+03  0.25500000920E-02 0.  1.
       -2   -1    0    0    0  501  0.00000000000E+00  0.00000000000E+00 -0.11961425140E+04  0.11961425140E+04  0.25500000920E-02 0. -1.
    10030    2    1    2    0    0  0.00000000000E+00  0.00000000000E+00 -0.52500139885E+03  0.18672836291E+04  0.17919602905E+04 0.  0.
        3    1    3    3  502    0  0.29113303440E+03  0.81932063255E+03 -0.37229259603E+02  0.87030498712E+03  0.10100000352E+00 0.  1.
       -3    1    3    3    0  502 -0.29113303440E+03 -0.81932063255E+03 -0.48777213925E+03  0.99697864203E+03  0.10100000352E+00 0. -1.
</event>
<event>
 5   0  0.2224454E-04  0.1692430E+04  0.7818609E-02  0.8765693E-01
        2   -1    0    0  501    0  0.00000000000E+00  0.00000000000E+00  0.85591437934E+03  0.85591437934E+03  0.25500000920E-02 0.  1.
       -2   -1    0    0    0  501  0.00000000000E+00  0.00000000000E+00 -0.83662593213E+03  0.83662593213E+03  0.25500000920E-02 0. -1.
    10030    2    1    2    0    0  0.00000000000E+00  0.00000000000E+00  0.19288447210E+02  0.16925403115E+04  0.16924304009E+04 0.  0.
        2    1    3    3  502    0  0.35620511826E+03 -0.72264183580E+03 -0.24919077629E+03  0.84332043265E+03  0.25500000920E-02 0.  1.
       -2    1    3    3    0  502 -0.35620511826E+03  0.72264183580E+03  0.26847922350E+03  0.84921987882E+03  0.25500000920E-02 0. -1.
</event>
<event>
 5   0  0.2288806E-04  0.1709927E+04  0.7818609E-02  0.8755723E-01
        2   -1    0    0  501    0  0.00000000000E+00  0.00000000000E+00  0.64441311979E+03  0.64441311980E+03  0.25500000920E-02 0.  1.
       -2   -1    0    0    0  501  0.00000000000E+00  0.00000000000E+00 -0.11343068016E+04  0.11343068016E+04  0.25500000920E-02 0. -1.
    10030    2    1    2    0    0  0.00000000000E+00  0.00000000000E+00 -0.48989368178E+03  0.17787199214E+04  0.17099265304E+04 0.  0.
        3    1    3    3  502    0  0.98249187127E+02  0.84200903130E+03 -0.12943865391E+03  0.85754678408E+03  0.10100000352E+00 0. -1.
       -3    1    3    3    0  502 -0.98249187127E+02 -0.84200903130E+03 -0.36045502788E+03  0.92117313730E+03  0.10100000352E+00 0.  1.
</event>
<event>
 5   0  0.2224454E-04  0.1738067E+04  0.7818609E-02  0.8739946E-01
       -2   -1    0    0    0  501  0.00000000000E+00  0.00000000000E+00  0.41830213925E+03  0.41830213926E+03  0.25500000920E-02 0. -1.
        2   -1    0    0  501    0  0.00000000000E+00  0.00000000000E+00 -0.18054398212E+04  0.18054398212E+04  0.25500000920E-02 0.  1.
    10030    2    1    2    0    0  0.00000000000E+00  0.00000000000E+00 -0.13871376819E+04  0.22237419604E+04  0.17380671328E+04 0.  0.
        2    1    3    3  502    0 -0.50090829382E+03  0.14019390118E+03 -0.15842752798E+04  0.16674806179E+04  0.25500000920E-02 0.  1.
       -2    1    3    3    0  502  0.50090829382E+03 -0.14019390118E+03  0.19713759787E+03  0.55626134258E+03  0.25500000920E-02 0. -1.
</event>
<event>
 5   0  0.2288806E-04  0.1699835E+04  0.7818609E-02  0.8761458E-01
        2   -1    0    0  501    0  0.00000000000E+00  0.00000000000E+00  0.78581724048E+03  0.78581724048E+03  0.25500000920E-02 0. -1.
       -2   -1    0    0    0  501  0.00000000000E+00  0.00000000000E+00 -0.91924668647E+03  0.91924668647E+03  0.25500000920E-02 0.  1.
    10030    2    1    2    0    0  0.00000000000E+00  0.00000000000E+00 -0.13342944599E+03  0.17050639269E+04  0.16998351620E+04 0.  0.
        3    1    3    3  502    0  0.53146050422E+03  0.63993829753E+03  0.10814474292E+03  0.83884836998E+03  0.10100000352E+00 0. -1.
       -3    1    3    3    0  502 -0.53146050422E+03 -0.63993829753E+03 -0.24157418891E+03  0.86621555697E+03  0.10100000352E+00 0.  1.
</event>
<event>
 5   0  0.2356829E-04  0.1635719E+04  0.7818609E-02  0.8798900E-01
        2   -1    0    0  501    0  0.00000000000E+00  0.00000000000E+00  0.75086622668E+03  0.75086622669E+03  0.25500000920E-02 0.  1.
       -2   -1    0    0    0  501  0.00000000000E+00  0.00000000000E+00 -0.89082978750E+03  0.89082978750E+03  0.25500000920E-02 0. -1.
    10030    2    1    2    0    0  0.00000000000E+00  0.00000000000E+00 -0.13996356082E+03  0.16416960142E+04  0.16357188037E+04 0.  0.
        5    1    3    3  502    0  0.41046991052E+03 -0.61269313310E+03 -0.42481787603E+03  0.85109972423E+03  0.46999998093E+01 0. -1.
       -5    1    3    3    0  502 -0.41046991052E+03  0.61269313310E+03  0.28485431521E+03  0.79059628995E+03  0.46999998093E+01 0.  1.
</event>
<event>
 5   0  0.2242967E-04  0.1693850E+04  0.7818609E-02  0.8764880E-01
        2   -1    0    0  501    0  0.00000000000E+00  0.00000000000E+00  0.62797370725E+03  0.62797370725E+03  0.25500000920E-02 0.  1.
       -2   -1    0    0    0  501  0.00000000000E+00  0.00000000000E+00 -0.11422160413E+04  0.11422160413E+04  0.25500000920E-02 0. -1.
    10030    2    1    2    0    0  0.00000000000E+00  0.00000000000E+00 -0.51424233406E+03  0.17701897486E+04  0.16938496296E+04 0.  0.
        4    1    3    3  502    0  0.48875567687E+03  0.61913281062E+03  0.65113587769E+02  0.79148527534E+03  0.12699999809E+01 0.  1.
       -4    1    3    3    0  502 -0.48875567687E+03 -0.61913281062E+03 -0.57935592183E+03  0.97870447323E+03  0.12699999809E+01 0. -1.
</event>
<event>
 5   0  0.2242967E-04  0.1707639E+04  0.7818609E-02  0.8757020E-01
        2   -1    0    0  501    0  0.00000000000E+00  0.00000000000E+00  0.94608446680E+03  0.94608446680E+03  0.25500000920E-02 0. -1.
       -2   -1    0    0    0  501  0.00000000000E+00  0.00000000000E+00 -0.77055221379E+03  0.77055221379E+03  0.25500000920E-02 0.  1.
    10030    2    1    2    0    0  0.00000000000E+00  0.00000000000E+00  0.17553225301E+03  0.17166366806E+04  0.17076386975E+04 0.  0.
        4    1    3    3  502    0 -0.96481651302E+02  0.58305835454E+03  0.70724377079E+03  0.92166214963E+03  0.12699999809E+01 0. -1.
       -4    1    3    3    0  502  0.96481651302E+02 -0.58305835454E+03 -0.53171151778E+03  0.79497453096E+03  0.12699999809E+01 0.  1.
</event>
<event>
 5   0  0.1204741E-04  0.1710865E+04  0.7818609E-02  0.8755192E-01
        1   -1    0    0  501    0  0.00000000000E+00  0.00000000000E+00  0.61132734803E+03  0.61132734805E+03  0.50400001928E-02 0.  1.
       -1   -1    0    0    0  501  0.00000000000E+00  0.00000000000E+00 -0.11970095183E+04  0.11970095183E+04  0.50400001928E-02 0. -1.
    10030    2    1    2    0    0  0.00000000000E+00  0.00000000000E+00 -0.58568217024E+03  0.18083368663E+04  0.17108648741E+04 0.  0.
        1    1    3    3  502    0 -0.18839514434E+03 -0.49236320994E+03  0.41922448065E+03  0.67354541503E+03  0.50400001928E-02 0.  1.
       -1    1    3    3    0  502  0.18839514434E+03  0.49236320994E+03 -0.10049066509E+04  0.11347914513E+04  0.50400001928E-02 0. -1.
</event>
<event>
 5   0  0.2224454E-04  0.1703829E+04  0.7818609E-02  0.8759183E-01
        2   -1    0    0  501    0  0.00000000000E+00  0.00000000000E+00  0.11322163341E+04  0.11322163341E+04  0.25500000920E-02 0.  1.
       -2   -1    0    0    0  501  0.00000000000E+00  0.00000000000E+00 -0.64100712424E+03  0.64100712424E+03  0.25500000920E-02 0. -1.
    10030    2    1    2    0    0  0.00000000000E+00  0.00000000000E+00  0.49120920990E+03  0.17732234584E+04  0.17038294943E+04 0.  0.
        2    1    3    3  502    0  0.15661982980E+03 -0.35892336233E+03 -0.54178246947E+03  0.66849382596E+03  0.25500000920E-02 0. -1.
       -2    1    3    3    0  502 -0.15661982980E+03  0.35892336233E+03  0.10329916794E+04  0.11047296324E+04  0.25500000920E-02 0.  1.
</event>
<event>
 5   0  0.1234158E-04  0.1717488E+04  0.7818609E-02  0.8751453E-01
        1   -1    0    0  501    0  0.00000000000E+00  0.00000000000E+00  0.97379307291E+03  0.97379307292E+03  0.50400001928E-02 0.  1.
       -1   -1    0    0    0  501  0.00000000000E+00  0.00000000000E+00 -0.75728746473E+03  0.75728746474E+03  0.50400001928E-02 0. -1.
    10030    2    1    2    0    0  0.00000000000E+00  0.00000000000E+00  0.21650560818E+03  0.17310805377E+04  0.17174880347E+04 0.  0.
        5    1    3    3  502    0 -0.24119346949E+03  0.27833116007E+03 -0.67362921899E+03  0.76775057087E+03  0.46999998093E+01 0. -1.
       -5    1    3    3    0  502  0.24119346949E+03 -0.27833116007E+03  0.89013482717E+03  0.96332996680E+03  0.46999998093E+01 0.  1.
</event>
<event>
 5   0  0.1126958E-04  0.1694013E+04  0.7818609E-02  0.8764786E-01
        1   -1    0    0  501    0  0.00000000000E+00  0.00000000000E+00  0.53816560355E+03  0.53816560358E+03  0.50400001928E-02 0.  1.
       -1   -1    0    0    0  501  0.00000000000E+00  0.00000000000E+00 -0.13330841209E+04  0.13330841209E+04  0.50400001928E-02 0. -1.
    10030    2    1    2    0    0  0.00000000000E+00  0.00000000000E+00 -0.79491851738E+03  0.18712497245E+04  0.16940130112E+04 0.  0.
        4    1    3    3  502    0 -0.93378580198E+02 -0.27910582986E+03  0.47986559270E+03  0.56293181066E+03  0.12699999809E+01 0.  1.
       -4    1    3    3    0  502  0.93378580198E+02  0.27910582986E+03 -0.12747841101E+04  0.13083179139E+04  0.12699999809E+01 0. -1.
</event>
<event>
 5   0  0.1234158E-04  0.1691259E+04  0.7818609E-02  0.8766366E-01
        1   -1    0    0  501    0  0.00000000000E+00  0.00000000000E+00  0.68390588552E+03  0.68390588554E+03  0.50400001928E-02 0. -1.
       -1   -1    0    0    0  501  0.00000000000E+00  0.00000000000E+00 -0.10455955321E+04  0.10455955321E+04  0.50400001928E-02 0.  1.
    10030    2    1    2    0    0  0.00000000000E+00  0.00000000000E+00 -0.36168964659E+03  0.17295014177E+04  0.16912586299E+04 0.  0.
        5    1    3    3  502    0 -0.42693639365E+03 -0.47521952338E+03  0.38572152707E+03  0.74626501061E+03  0.46999998093E+01 0. -1.
       -5    1    3    3    0  502  0.42693639365E+03  0.47521952338E+03 -0.74741117365E+03  0.98323640704E+03  0.46999998093E+01 0.  1.
</event>
<event>
 5   0  0.2234723E-04  0.1725623E+04  0.7818609E-02  0.8746884E-01
       -2   -1    0    0    0  501  0.00000000000E+00  0.00000000000E+00  0.41685555748E+03  0.41685555749E+03  0.25500000920E-02 0. -1.
        2   -1    0    0  501    0  0.00000000000E+00  0.00000000000E+00 -0.17858543305E+04  0.17858543305E+04  0.25500000920E-02 0.  1.
    10030    2    1    2    0    0  0.00000000000E+00  0.00000000000E+00 -0.13689987730E+04  0.22027098880E+04  0.17256225573E+04 0.  0.
        1    1    3    3  502    0  0.27727560989E+03 -0.48821871205E+03 -0.15207633580E+04  0.16210985367E+04  0.50400001928E-02 0.  1.
       -1    1    3    3    0  502 -0.27727560989E+03  0.48821871205E+03  0.15176458500E+03  0.58161135127E+03  0.50400001928E-02 0. -1.
</event>
<event>
 5   0  0.2288806E-04  0.1680563E+04  0.7818609E-02  0.8772529E-01
        2   -1    0    0  501    0  0.00000000000E+00  0.00000000000E+00  0.90918053982E+03  0.90918053982E+03  0.25500000920E-02 0.  1.
       -2   -1    0    0    0  501  0.00000000000E+00  0.00000000000E+00 -0.77660332709E+03  0.77660332709E+03  0.25500000920E-02 0. -1.
    10030    2    1    2    0    0  0.00000000000E+00  0.00000000000E+00  0.13257721273E+03  0.16857838669E+04  0.16805625631E+04 0.  0.
        3    1    3    3  502    0  0.36404080074E+03  0.70193243952E+03 -0.21891457427E+03  0.82046234240E+03  0.10100000352E+00 0. -1.
       -3    1    3    3    0  502 -0.36404080074E+03 -0.70193243952E+03  0.35149178700E+03  0.86532152452E+03  0.10100000352E+00 0.  1.
</event>
<event>
 5   0  0.2356829E-04  0.1698143E+04  0.7818609E-02  0.8762424E-01
       -2   -1    0    0    0  501  0.00000000000E+00  0.00000000000E+00  0.63233230844E+03  0.63233230845E+03  0.25500000920E-02 0.  1.
        2   -1    0    0  501    0  0.00000000000E+00  0.00000000000E+00 -0.11401001203E+04  0.11401001203E+04  0.25500000920E-02 0. -1.
    10030    2    1    2    0    0  0.00000000000E+00  0.00000000000E+00 -0.50776781190E+03  0.17724324288E+04  0.16981426806E+04 0.  0.
        5    1    3    3  502    0 -0.76079788170E+03  0.37256918617E+03 -0.19411774832E+03  0.86909435937E+03  0.46999998093E+01 0.  1.
       -5    1    3    3    0  502  0.76079788170E+03 -0.37256918617E+03 -0.31365006358E+03  0.90333806942E+03  0.46999998093E+01 0. -1.
</event>
<event>
 5   0  0.1234158E-04  0.1696309E+04  0.7818609E-02  0.8763472E-01
       -1   -1    0    0    0  501  0.00000000000E+00  0.00000000000E+00  0.10916186798E+04  0.10916186798E+04  0.50400001928E-02 0. -1.
        1   -1    0    0  501    0  0.00000000000E+00  0.00000000000E+00 -0.65899055192E+03  0.65899055194E+03  0.50400001928E-02 0.  1.
    10030    2    1    2    0    0  0.00000000000E+00  0.00000000000E+00  0.43262812789E+03  0.17506092318E+04  0.16963094014E+04 0.  0.
        5    1    3    3  502    0  0.10469886328E+02 -0.49891537671E+03  0.92406427521E+03  0.10502109533E+04  0.46999998093E+01 0. -1.
       -5    1    3    3    0  502 -0.10469886328E+02  0.49891537671E+03 -0.49143614732E+03  0.70039827850E+03  0.46999998093E+01 0.  1.
</event>
<event>
 5   0  0.2288806E-04  0.1699281E+04  0.7818609E-02  0.8761775E-01
       -2   -1    0    0    0  501  0.00000000000E+00  0.00000000000E+00  0.59262471604E+03  0.59262471605E+03  0.25500000920E-02 0.  1.
        2   -1    0    0  501    0  0.00000000000E+00  0.00000000000E+00 -0.12181209832E+04  0.12181209832E+04  0.25500000920E-02 0. -1.
    10030    2    1    2    0    0  0.00000000000E+00  0.00000000000E+00 -0.62549626719E+03  0.18107456993E+04  0.16992805558E+04 0.  0.
        3    1    3    3  502    0  0.54704748977E+02  0.30219469886E+03  0.53141224733E+03  0.61376969002E+03  0.10100000352E+00 0.  1.
       -3    1    3    3    0  502 -0.54704748977E+02 -0.30219469886E+03 -0.11569085145E+04  0.11969760093E+04  0.10100000352E+00 0. -1.
</event>
<event>
 5   0  0.2242967E-04  0.1690336E+04  0.7818609E-02  0.8766895E-01
        2   -1    0    0  501    0  0.00000000000E+00  0.00000000000E+00  0.30599973334E+03  0.30599973335E+03  0.25500000920E-02 0.  1.
       -2   -1    0    0    0  501  0.00000000000E+00  0.00000000000E+00 -0.23343454618E+04  0.23343454618E+04  0.25500000920E-02 0. -1.
    10030    2    1    2    0    0  0.00000000000E+00  0.00000000000E+00 -0.20283457284E+04  0.26403451951E+04  0.16903361664E+04 0.  0.
        4    1    3    3  502    0 -0.74069627292E+03  0.36503362718E+03 -0.12954540811E+04  0.15362562959E+04  0.12699999809E+01 0. -1.
       -4    1    3    3    0  502  0.74069627292E+03 -0.36503362718E+03 -0.73289164736E+03  0.11040888992E+04  0.12699999809E+01 0.  1.
</event>
<event>
 5   0  0.2356829E-04  0.1818467E+04  0.7818609E-02  0.8696540E-01
       -2   -1    0    0    0  501  0.00000000000E+00  0.00000000000E+00  0.74747428197E+03  0.74747428198E+03  0.25500000920E-02 0. -1.
        2   -1    0    0  501    0  0.00000000000E+00  0.00000000000E+00 -0.11059990157E+04  0.11059990157E+04  0.25500000920E-02 0.  1.
    10030    2    1    2    0    0  0.00000000000E+00  0.00000000000E+00 -0.35852473375E+03  0.18534732977E+04  0.18184672888E+04 0.  0.
        5    1    3    3  502    0  0.24927263617E+03 -0.49318757459E+03  0.55665673535E+03  0.78438488122E+03  0.46999998093E+01 0. -1.
       -5    1    3    3    0  502 -0.24927263617E+03  0.49318757459E+03 -0.91518146911E+03  0.10690884165E+04  0.46999998093E+01 0.  1.
</event>
<event>
 5   0  0.1234158E-04  0.1699158E+04  0.7818609E-02  0.8761845E-01
       -1   -1    0    0    0  501  0.00000000000E+00  0.00000000000E+00  0.54684672851E+03  0.54684672854E+03  0.50400001928E-02 0.  1.
        1   -1    0    0  501    0  0.00000000000E+00  0.00000000000E+00 -0.13199030774E+04  0.13199030774E+04  0.50400001928E-02 0. -1.
    10030    2    1    2    0    0  0.00000000000E+00  0.00000000000E+00 -0.77305634890E+03  0.18667498060E+04  0.16991582385E+04 0.  0.
        5    1    3    3  502    0 -0.81961804211E+03  0.18283481931E+03 -0.24514876071E+03  0.87482701775E+03  0.46999998093E+01 0. -1.
       -5    1    3    3    0  502  0.81961804211E+03 -0.18283481931E+03 -0.52790758819E+03  0.99192278821E+03  0.46999998093E+01 0.  1.
</event>
<event>
 5   0  0.2288806E-04  0.1692619E+04  0.7818609E-02  0.8765585E-01
        2   -1    0    0  501    0  0.00000000000E+00  0.00000000000E+00  0.19173188039E+04  0.19173188039E+04  0.25500000920E-02 0.  1.
       -2   -1    0    0    0  501  0.00000000000E+00  0.00000000000E+00 -0.37356317125E+03  0.37356317126E+03  0.25500000920E-02 0. -1.
    10030    2    1    2    0    0  0.00000000000E+00  0.00000000000E+00  0.15437556327E+04  0.22908819752E+04  0.16926189089E+04 0.  0.
        3    1    3    3  502    0 -0.20975523445E+02 -0.11729617778E+03 -0.36215301735E+03  0.38125212666E+03  0.10100000352E+00 0. -1.
       -3    1    3    3    0  502  0.20975523445E+02  0.11729617778E+03  0.19059086500E+04  0.19096298485E+04  0.10100000352E+00 0.  1.
</event>
<event>
 5   0  0.2234723E-04  0.1706102E+04  0.7818609E-02  0.8757892E-01
        2   -1    0    0  501    0  0.00000000000E+00  0.00000000000E+00  0.92699610778E+03  0.92699610778E+03  0.25500000920E-02 0.  1.
       -2   -1    0    0    0  501  0.00000000000E+00  0.00000000000E+00 -0.78500401778E+03  0.78500401779E+03  0.25500000920E-02 0. -1.
    10030    2    1    2    0    0  0.00000000000E+00  0.00000000000E+00  0.14199209000E+03  0.17120001256E+04  0.17061016020E+04 0.  0.
        1    1    3    3  502    0 -0.85038640368E+03 -0.62358465317E+02  0.96580375042E+02  0.85812200918E+03  0.50400001928E-02 0.  1.
       -1    1    3    3    0  502  0.85038640368E+03  0.62358465317E+02  0.45411714955E+02  0.85387811639E+03  0.50400001928E-02 0. -1.
</event>
<event>
 5   0  0.2242967E-04  0.1742588E+04  0.7818609E-02  0.8737441E-01
        2   -1    0    0  501    0  0.00000000000E+00  0.00000000000E+00  0.19112053116E+04  0.19112053116E+04  0.25500000920E-02 0. -1.
       -2   -1    0    0    0  501  0.00000000000E+00  0.00000000000E+00 -0.39721159824E+03  0.39721159824E+03  0.25500000920E-02 0.  1.
    10030    2    1    2    0    0  0.00000000000E+00  0.00000000000E+00  0.15139937134E+04  0.23084169099E+04  0.17425876350E+04 0.  0.
        4    1    3    3  502    0  0.68394002577E+03  0.52655863417E+03  0.91437146643E+03  0.12574238528E+04  0.12699999809E+01 0.  1.
       -4    1    3    3    0  502 -0.68394002577E+03 -0.52655863417E+03  0.59962224696E+03  0.10509930571E+04  0.12699999809E+01 0. -1.
</event>
<event>
 5   0  0.2234723E-04  0.1694012E+04  0.7818609E-02  0.8764787E-01
       -2   -1    0    0    0  501  0.00000000000E+00  0.00000000000E+00  0.85219130424E+03  0.85219130424E+03  0.25500000920E-02 0.  1.
        2   -1    0    0  501    0  0.00000000000E+00  0.00000000000E+00 -0.84185217874E+03  0.84185217875E+03  0.25500000920E-02 0. -1.
    10030    2    1    2    0    0  0.00000000000E+00  0.00000000000E+00  0.10339125493E+02  0.16940434830E+04  0.16940119317E+04 0.  0.
        1    1    3    3  502    0 -0.37805631763E+03  0.16898032977E+02 -0.75260901505E+03  0.84239684969E+03  0.50400001928E-02 0. -1.
       -1    1    3    3    0  502  0.37805631763E+03 -0.16898032977E+02  0.76294814054E+03  0.85164663329E+03  0.50400001928E-02 0.  1.
</event>
<event>
 5   0  0.2288806E-04  0.1696026E+04  0.7818609E-02  0.8763634E-01
        2   -1    0    0  501    0  0.00000000000E+00  0.00000000000E+00  0.14878393648E+04  0.14878393648E+04  0.25500000920E-02 0. -1.
       -2   -1    0    0    0  501  0.00000000000E+00  0.00000000000E+00 -0.48333556759E+03  0.48333556760E+03  0.25500000920E-02 0.  1.
    10030    2    1    2    0    0  0.00000000000E+00  0.00000000000E+00  0.10045037972E+04  0.19711749324E+04  0.16960255704E+04 0.  0.
        3    1    3    3  502    0 -0.44054543175E+03  0.70597930526E+03  0.69194372016E+03  0.10822537498E+04  0.10100000352E+00 0. -1.
       -3    1    3    3    0  502  0.44054543175E+03 -0.70597930526E+03  0.31256007704E+03  0.88892118259E+03  0.10100000352E+00 0.  1.
</event>
<event>
 5   0  0.2224454E-04  0.1699892E+04  0.7818609E-02  0.8761426E-01
       -2   -1    0    0    0  501  0.00000000000E+00  0.00000000000E+00  0.36084163476E+03  0.36084163477E+03  0.25500000920E-02 0.  1.
        2   -1    0    0  501    0  0.00000000000E+00  0.00000000000E+00 -0.20020087288E+04  0.20020087288E+04  0.25500000920E-02 0. -1.
    10030    2    1    2    0    0  0.00000000000E+00  0.00000000000E+00 -0.16411670940E+04  0.23628503635E+04  0.16998918819E+04 0.  0.
        2    1    3    3  502    0  0.69337475246E+03 -0.55443113410E+02 -0.14166316873E+03  0.70986684636E+03  0.25500000920E-02 0.  1.
       -2    1    3    3    0  502 -0.69337475246E+03  0.55443113410E+02 -0.14995039253E+04  0.16529835172E+04  0.25500000920E-02 0. -1.
</event>
<event>
 5   0  0.2234723E-04  0.1703740E+04  0.7818609E-02  0.8759234E-01
        2   -1    0    0  501    0  0.00000000000E+00  0.00000000000E+00  0.21620699287E+04  0.21620699287E+04  0.25500000920E-02 0.  1.
       -2   -1    0    0    0  501  0.00000000000E+00  0.00000000000E+00 -0.33564246801E+03  0.33564246802E+03  0.25500000920E-02 0. -1.
    10030    2    1    2    0    0  0.00000000000E+00  0.00000000000E+00  0.18264274607E+04  0.24977123968E+04  0.17037399883E+04 0.  0.
        1    1    3    3  502    0  0.42967148792E+03  0.64340771266E+03  0.39058025976E+03  0.86668564750E+03  0.50400001928E-02 0. -1.
       -1    1    3    3    0  502 -0.42967148792E+03 -0.64340771266E+03  0.14358472010E+04  0.16310267493E+04  0.50400001928E-02 0.  1.
</event>
<event>
 5   0  0.2224454E-04  0.1706323E+04  0.7818609E-02  0.8757766E-01
       -2   -1    0    0    0  501  0.00000000000E+00  0.00000000000E+00  0.12625466453E+04  0.12625466453E+04  0.25500000920E-02 0.  1.
        2   -1    0    0  501    0  0.00000000000E+00  0.00000000000E+00 -0.57652099392E+03  0.57652099392E+03  0.25500000920E-02 0. -1.
    10030    2    1    2    0    0  0.00000000000E+00  0.00000000000E+00  0.68602565134E+03  0.18390676392E+04  0.17063231192E+04 0.  0.
        2    1    3    3  502    0  0.64401089076E+01 -0.55563860466E+03 -0.35473722335E+03  0.65925278280E+03  0.25500000920E-02 0. -1.
       -2    1    3    3    0  502 -0.64401089076E+01  0.55563860466E+03  0.10407628747E+04  0.11798148564E+04  0.25500000920E-02 0.  1.
</event>
<event>
 5   0  0.1204741E-04  0.1700219E+04  0.7818609E-02  0.8761239E-01
        1   -1    0    0  501    0  0.00000000000E+00  0.00000000000E+00  0.12620856313E+04  0.12620856314E+04  0.50400001928E-02 0. -1.
       -1   -1    0    0    0  501  0.00000000000E+00  0.00000000000E+00 -0.57261282337E+03  0.57261282339E+03  0.50400001928E-02 0.  1.
    10030    2    1    2    0    0  0.00000000000E+00  0.00000000000E+00  0.68947280797E+03  0.18346984547E+04  0.17002192997E+04 0.  0.
        1    1    3    3  502    0  0.44817552677E+02  0.22256932495E+03  0.12287654641E+04  0.12495640373E+04  0.50400001928E-02 0. -1.
       -1    1    3    3    0  502 -0.44817552677E+02 -0.22256932495E+03 -0.53929265617E+03  0.58513441743E+03  0.50400001928E-02 0.  1.
</event>
<event>
 5   0  0.1215233E-04  0.1761508E+04  0.7818609E-02  0.8727041E-01
       -1   -1    0    0    0  501  0.00000000000E+00  0.00000000000E+00  0.76127667939E+03  0.76127667941E+03  0.50400001928E-02 0.  1.
        1   -1    0    0  501    0  0.00000000000E+00  0.00000000000E+00 -0.10189828934E+04  0.10189828934E+04  0.50400001928E-02 0. -1.
    10030    2    1    2    0    0  0.00000000000E+00  0.00000000000E+00 -0.25770621403E+03  0.17802595728E+04  0.17615083463E+04 0.  0.
        2    1    3    3  502    0  0.85306279585E+03 -0.20238305625E+03 -0.43977709500E+02  0.87784342229E+03  0.25500000920E-02 0.  1.
       -2    1    3    3    0  502 -0.85306279585E+03  0.20238305625E+03 -0.21372850453E+03  0.90241615055E+03  0.25500000920E-02 0. -1.
</event>
<event>
 5   0  0.1126958E-04  0.1702779E+04  0.7818609E-02  0.8759781E-01
       -1   -1    0    0    0  501  0.00000000000E+00  0.00000000000E+00  0.55507833650E+03  0.55507833652E+03  0.50400001928E-02 0. -1.
        1   -1    0    0  501    0  0.00000000000E+00  0.00000000000E+00 -0.13058771497E+04  0.13058771497E+04  0.50400001928E-02 0.  1.
    10030    2    1    2    0    0  0.00000000000E+00  0.00000000000E+00 -0.75079881316E+03  0.18609554862E+04  0.17027790414E+04 0.  0.
        4    1    3    3  502    0 -0.73080449697E+03 -0.19927630133E+03  0.49392057533E+02  0.75909646640E+03  0.12699999809E+01 0. -1.
       -4    1    3    3    0  502  0.73080449697E+03  0.19927630133E+03 -0.80019087069E+03  0.11018590198E+04  0.12699999809E+01 0.  1.
</event>
<event>
 5   0  0.1234158E-04  0.1692154E+04  0.7818609E-02  0.8765852E-01
        1   -1    0    0  501    0  0.00000000000E+00  0.00000000000E+00  0.11850489742E+04  0.11850489743E+04  0.50400001928E-02 0.  1.
       -1   -1    0    0    0  501  0.00000000000E+00  0.00000000000E+00 -0.60406484463E+03  0.60406484465E+03  0.50400001928E-02 0. -1.
    10030    2    1    2    0    0  0.00000000000E+00  0.00000000000E+00  0.58098412962E+03  0.17891138189E+04  0.16921541591E+04 0.  0.
        5    1    3    3  502    0 -0.33277420755E+02  0.74275034281E+03  0.71740924363E+03  0.10331909656E+04  0.46999998093E+01 0.  1.
       -5    1    3    3    0  502  0.33277420755E+02 -0.74275034281E+03 -0.13642511402E+03  0.75592285334E+03  0.46999998093E+01 0. -1.
</event>
<event>
 5   0  0.2288806E-04  0.1699611E+04  0.7818609E-02  0.8761586E-01
       -2   -1    0    0    0  501  0.00000000000E+00  0.00000000000E+00  0.93142969675E+03  0.93142969675E+03  0.25500000920E-02 0.  1.
        2   -1    0    0  501    0  0.00000000000E+00  0.00000000000E+00 -0.77533465618E+03  0.77533465619E+03  0.25500000920E-02 0. -1.
    10030    2    1    2    0    0  0.00000000000E+00  0.00000000000E+00  0.15609504056E+03  0.17067643529E+04  0.16996113952E+04 0.  0.
        3    1    3    3  502    0 -0.21541205351E+03  0.66330369216E+03  0.56567902067E+03  0.89797934579E+03  0.10100000352E+00 0.  1.
       -3    1    3    3    0  502  0.21541205351E+03 -0.66330369216E+03 -0.40958398011E+03  0.80878500715E+03  0.10100000352E+00 0. -1.
</event>
<event>
 5   0  0.2288806E-04  0.1700396E+04  0.7818609E-02  0.8761138E-01
       -2   -1    0    0    0  501  0.00000000000E+00  0.00000000000E+00  0.71859204562E+03  0.71859204563E+03  0.25500000920E-02 0. -1.
        2   -1    0    0  501    0  0.00000000000E+00  0.00000000000E+00 -0.10059069376E+04  0.10059069376E+04  0.25500000920E-02 0.  1.
    10030    2    1    2    0    0  0.00000000000E+00  0.00000000000E+00 -0.28731489199E+03  0.17244989832E+04  0.17003960998E+04 0.  0.
        3    1    3    3  502    0  0.65622843166E+03 -0.53491482960E+03 -0.64661853714E+02  0.84908821389E+03  0.10100000352E+00 0. -1.
       -3    1    3    3    0  502 -0.65622843166E+03  0.53491482960E+03 -0.22265303828E+03  0.87541076935E+03  0.10100000352E+00 0.  1.
</event>
<event>
 5   0  0.1186302E-04  0.1701002E+04  0.7818609E-02  0.8760793E-01
        1   -1    0    0  501    0  0.00000000000E+00  0.00000000000E+00  0.20560294278E+04  0.20560294278E+04  0.50400001928E-02 0.  1.
       -1   -1    0    0    0  501  0.00000000000E+00  0.00000000000E+00 -0.35181965790E+03  0.35181965794E+03  0.50400001928E-02 0. -1.
    10030    2    1    2    0    0  0.00000000000E+00  0.00000000000E+00  0.17042097699E+04  0.24078490857E+04  0.17010015520E+04 0.  0.
        3    1    3    3  502    0  0.13832321568E+03 -0.54429682400E+03 -0.52029378080E+02  0.56400302392E+03  0.10100000352E+00 0. -1.
       -3    1    3    3    0  502 -0.13832321568E+03  0.54429682400E+03  0.17562391479E+04  0.18438460618E+04  0.10100000352E+00 0.  1.
</event>
<event>
 5   0  0.1126958E-04  0.1701396E+04  0.7818609E-02  0.8760569E-01
        1   -1    0    0  501    0  0.00000000000E+00  0.00000000000E+00  0.57492585587E+03  0.57492585589E+03  0.50400001928E-02 0.  1.
       -1   -1    0    0    0  501  0.00000000000E+00  0.00000000000E+00 -0.12587486911E+04  0.12587486911E+04  0.50400001928E-02 0. -1.
    10030    2    1    2    0    0  0.00000000000E+00  0.00000000000E+00 -0.68382283518E+03  0.18336745470E+04  0.17013960956E+04 0.  0.
        4    1    3    3  502    0  0.14946815316E+03 -0.74741197612E+03  0.65243321400E+02  0.76499914689E+03  0.12699999809E+01 0.  1.
       -4    1    3    3    0  502 -0.14946815316E+03  0.74741197612E+03 -0.74906615658E+03  0.10686754001E+04  0.12699999809E+01 0. -1.
</event>
<event>
 5   0  0.1234158E-04  0.1686391E+04  0.7818609E-02  0.8769164E-01
        1   -1    0    0  501    0  0.00000000000E+00  0.00000000000E+00  0.11206378073E+04  0.11206378073E+04  0.50400001928E-02 0. -1.
       -1   -1    0    0    0  501  0.00000000000E+00  0.00000000000E+00 -0.63444112737E+03  0.63444112739E+03  0.50400001928E-02 0.  1.
    10030    2    1    2    0    0  0.00000000000E+00  0.00000000000E+00  0.48619667989E+03  0.17550789347E+04  0.16863910743E+04 0.  0.
        5    1    3    3  502    0  0.17515285918E+03  0.35251348720E+03  0.10191320274E+04  0.10925184035E+04  0.46999998093E+01 0. -1.
       -5    1    3    3    0  502 -0.17515285918E+03 -0.35251348720E+03 -0.53293534754E+03  0.66256053112E+03  0.46999998093E+01 0.  1.
</event>
<event>
 5   0  0.2242967E-04  0.1674662E+04  0.7818609E-02  0.8775949E-01
        2   -1    0    0  501    0  0.00000000000E+00  0.00000000000E+00  0.53877941967E+03  0.53877941968E+03  0.25500000920E-02 0. -1.
       -2   -1    0    0    0  501  0.00000000000E+00  0.00000000000E+00 -0.13013172304E+04  0.13013172304E+04  0.25500000920E-02 0.  1.
    10030    2    1    2    0    0  0.00000000000E+00  0.00000000000E+00 -0.76253781073E+03  0.18400966501E+04  0.16746616879E+04 0.  0.
        4    1    3    3  502    0  0.18564336873E+03 -0.43448915576E+03 -0.11408456039E+04  0.12348176350E+04  0.12699999809E+01 0.  1.
       -4    1    3    3    0  502 -0.18564336873E+03  0.43448915576E+03  0.37830779318E+03  0.60527901509E+03  0.12699999809E+01 0. -1.
</event>
<event>
 5   0  0.2242967E-04  0.1693893E+04  0.7818609E-02  0.8764855E-01
       -2   -1    0    0    0  501  0.00000000000E+00  0.00000000000E+00  0.10795487973E+04  0.10795487973E+04  0.25500000920E-02 0.  1.
        2   -1    0    0  501    0  0.00000000000E+00  0.00000000000E+00 -0.66446110762E+03  0.66446110762E+03  0.25500000920E-02 0. -1.
    10030    2    1    2    0    0  0.00000000000E+00  0.00000000000E+00  0.41508768969E+03  0.17440099049E+04  0.16938927824E+04 0.  0.
        4    1    3    3  502    0  0.22459402884E+03  0.75009597627E+03 -0.12485511760E+03  0.79289145833E+03  0.12699999809E+01 0. -1.
       -4    1    3    3    0  502 -0.22459402884E+03 -0.75009597627E+03  0.53994280729E+03  0.95111844660E+03  0.12699999809E+01 0.  1.
</event>
<event>
 5   0  0.2288806E-04  0.1694477E+04  0.7818609E-02  0.8764520E-01
        2   -1    0    0  501    0  0.00000000000E+00  0.00000000000E+00  0.51939287600E+03  0.51939287600E+03  0.25500000920E-02 0.  1.
       -2   -1    0    0    0  501  0.00000000000E+00  0.00000000000E+00 -0.13820241109E+04  0.13820241109E+04  0.25500000920E-02 0. -1.
    10030    2    1    2    0    0  0.00000000000E+00  0.00000000000E+00 -0.86263123494E+03  0.19014169869E+04  0.16944774743E+04 0.  0.
        3    1    3    3  502    0 -0.83766294273E+03 -0.97099879363E+02 -0.52320584060E+03  0.99239707478E+03  0.10100000352E+00 0. -1.
       -3    1    3    3    0  502  0.83766294273E+03  0.97099879363E+02 -0.33942539434E+03  0.90901991217E+03  0.10100000352E+00 0.  1.
</event>
<event>
 5   0  0.1204741E-04  0.1698159E+04  0.7818609E-02  0.8762415E-01
       -1   -1    0    0    0  501  0.00000000000E+00  0.00000000000E+00  0.65803497148E+03  0.65803497150E+03  0.50400001928E-02 0.  1.
        1   -1    0    0  501    0  0.00000000000E+00  0.00000000000E+00 -0.10955893821E+04  0.10955893821E+04  0.50400001928E-02 0. -1.
    10030    2    1    2    0    0  0.00000000000E+00  0.00000000000E+00 -0.43755441065E+03  0.17536243536E+04  0.16981591537E+04 0.  0.
        1    1    3    3  502    0  0.15695233923E+03 -0.19069929028E+03 -0.10576749861E+04  0.10861291969E+04  0.50400001928E-02 0. -1.
       -1    1    3    3    0  502 -0.15695233923E+03  0.19069929028E+03  0.62012057548E+03  0.66749515673E+03  0.50400001928E-02 0.  1.
</event>
<event>
 5   0  0.2242967E-04  0.1641641E+04  0.7818609E-02  0.8795367E-01
       -2   -1    0    0    0  501  0.00000000000E+00  0.00000000000E+00  0.55745081024E+03  0.55745081025E+03  0.25500000920E-02 0. -1.
        2   -1    0    0  501    0  0.00000000000E+00  0.00000000000E+00 -0.12086208292E+04  0.12086208292E+04  0.25500000920E-02 0.  1.
    10030    2    1    2    0    0  0.00000000000E+00  0.00000000000E+00 -0.65117001899E+03  0.17660716395E+04  0.16416414475E+04 0.  0.
        4    1    3    3  502    0  0.70621232177E+03 -0.17711010552E+03  0.82142057045E+02  0.73270237022E+03  0.12699999809E+01 0. -1.
       -4    1    3    3    0  502 -0.70621232177E+03  0.17711010552E+03 -0.73331207604E+03  0.10333692693E+04  0.12699999809E+01 0.  1.
</event>
<event>
 5   0  0.1126958E-04  0.1702654E+04  0.7818609E-02  0.8759852E-01
        1   -1    0    0  501    0  0.00000000000E+00  0.00000000000E+00  0.12060039889E+04  0.12060039889E+04  0.50400001928E-02 0.  1.
       -1   -1    0    0    0  501  0.00000000000E+00  0.00000000000E+00 -0.60095790745E+03  0.60095790747E+03  0.50400001928E-02 0. -1.
    10030    2    1    2    0    0  0.00000000000E+00  0.00000000000E+00  0.60504608142E+03  0.18069618963E+04  0.17026539678E+04 0.  0.
        4    1    3    3  502    0  0.27739333145E+03 -0.65552998330E+03 -0.19308675312E+03  0.73753015293E+03  0.12699999809E+01 0. -1.
       -4    1    3    3    0  502 -0.27739333145E+03  0.65552998330E+03  0.79813283455E+03  0.10694317434E+04  0.12699999809E+01 0.  1.
</event>
<event>
 5   0  0.2234723E-04  0.1691887E+04  0.7818609E-02  0.8766005E-01
        2   -1    0    0  501    0  0.00000000000E+00  0.00000000000E+00  0.34952962257E+03  0.34952962258E+03  0.25500000920E-02 0. -1.
       -2   -1    0    0    0  501  0.00000000000E+00  0.00000000000E+00 -0.20473807108E+04  0.20473807108E+04  0.25500000920E-02 0.  1.
    10030    2    1    2    0    0  0.00000000000E+00  0.00000000000E+00 -0.16978510882E+04  0.23969103334E+04  0.16918867659E+04 0.  0.
        1    1    3    3  502    0 -0.63398596974E+02 -0.23390765077E+03  0.29929726666E+03  0.38511170463E+03  0.50400001928E-02 0. -1.
       -1    1    3    3    0  502  0.63398596974E+02  0.23390765077E+03 -0.19971483549E+04  0.20117986288E+04  0.50400001928E-02 0.  1.
</event>
<event>
 5   0  0.2356829E-04  0.1696060E+04  0.7818609E-02  0.8763615E-01
       -2   -1    0    0    0  501  0.00000000000E+00  0.00000000000E+00  0.12503175740E+04  0.12503175740E+04  0.25500000920E-02 0. -1.
        2   -1    0    0  501    0  0.00000000000E+00  0.00000000000E+00 -0.57517759547E+03  0.57517759548E+03  0.25500000920E-02 0.  1.
    10030    2    1    2    0    0  0.00000000000E+00  0.00000000000E+00  0.67513997850E+03  0.18254951695E+04  0.16960597345E+04 0.  0.
        5    1    3    3  502    0 -0.14391070199E+03  0.52831347583E+03  0.10345264954E+04  0.11705095380E+04  0.46999998093E+01 0. -1.
       -5    1    3    3    0  502  0.14391070199E+03 -0.52831347583E+03 -0.35938651689E+03  0.65498563145E+03  0.46999998093E+01 0.  1.
</event>
<event>
 5   0  0.1126958E-04  0.1701731E+04  0.7818609E-02  0.8760378E-01
       -1   -1    0    0    0  501  0.00000000000E+00  0.00000000000E+00  0.83071838039E+03  0.83071838041E+03  0.50400001928E-02 0.  1.
        1   -1    0    0  501    0  0.00000000000E+00  0.00000000000E+00 -0.87150108443E+03  0.87150108444E+03  0.50400001928E-02 0. -1.
    10030    2    1    2    0    0  0.00000000000E+00  0.00000000000E+00 -0.40782704035E+02  0.17022194649E+04  0.17017308476E+04 0.  0.
        4    1    3    3  502    0  0.58496944872E+03  0.42342033911E+03  0.42973376287E+03  0.84032538897E+03  0.12699999809E+01 0.  1.
       -4    1    3    3    0  502 -0.58496944872E+03 -0.42342033911E+03 -0.47051646690E+03  0.86189407588E+03  0.12699999809E+01 0. -1.
</event>
<event>
 5   0  0.1204741E-04  0.1720052E+04  0.7818609E-02  0.8750010E-01
        1   -1    0    0  501    0  0.00000000000E+00  0.00000000000E+00  0.11466265503E+04  0.11466265503E+04  0.50400001928E-02 0.  1.
       -1   -1    0    0    0  501  0.00000000000E+00  0.00000000000E+00 -0.64506140368E+03  0.64506140370E+03  0.50400001928E-02 0. -1.
    10030    2    1    2    0    0  0.00000000000E+00  0.00000000000E+00  0.50156514660E+03  0.17916879540E+04  0.17200517807E+04 0.  0.
        1    1    3    3  502    0 -0.67052379507E+03  0.94712687247E+01 -0.31011609228E+03  0.73882599805E+03  0.50400001928E-02 0. -1.
       -1    1    3    3    0  502  0.67052379507E+03 -0.94712687247E+01  0.81168123887E+03  0.10528619559E+04  0.50400001928E-02 0.  1.
</event>
<event>
 5   0  0.1126958E-04  0.1709173E+04  0.7818609E-02  0.8756150E-01
       -1   -1    0    0    0  501  0.00000000000E+00  0.00000000000E+00  0.62414170750E+03  0.62414170752E+03  0.50400001928E-02 0.  1.
        1   -1    0    0  501    0  0.00000000000E+00  0.00000000000E+00 -0.11701160793E+04  0.11701160793E+04  0.50400001928E-02 0. -1.
    10030    2    1    2    0    0  0.00000000000E+00  0.00000000000E+00 -0.54597437180E+03  0.17942577868E+04  0.17091731893E+04 0.  0.
        4    1    3    3  502    0  0.28661395448E+03  0.63976731557E+02  0.56950783783E+03  0.64076623767E+03  0.12699999809E+01 0.  1.
       -4    1    3    3    0  502 -0.28661395448E+03 -0.63976731557E+02 -0.11154822096E+04  0.11534915492E+04  0.12699999809E+01 0. -1.
</event>
<event>
 5   0  0.2242967E-04  0.1705822E+04  0.7818609E-02  0.8758051E-01
        2   -1    0    0  501    0  0.00000000000E+00  0.00000000000E+00  0.16555271773E+04  0.16555271773E+04  0.25500000920E-02 0. -1.
       -2   -1    0    0    0  501  0.00000000000E+00  0.00000000000E+00 -0.43941126224E+03  0.43941126224E+03  0.25500000920E-02 0.  1.
    10030    2    1    2    0    0  0.00000000000E+00  0.00000000000E+00  0.12161159151E+04  0.20949384395E+04  0.17058221322E+04 0.  0.
        4    1    3    3  502    0 -0.34058988220E+03 -0.13776347639E+03 -0.33724864953E+03  0.49871686135E+03  0.12699999809E+01 0.  1.
       -4    1    3    3    0  502  0.34058988220E+03  0.13776347639E+03  0.15533645646E+04  0.15962215782E+04  0.12699999809E+01 0. -1.
</event>
<event>
 5   0  0.1204741E-04  0.1719162E+04  0.7818609E-02  0.8750510E-01
        1   -1    0    0  501    0  0.00000000000E+00  0.00000000000E+00  0.12574680837E+04  0.12574680837E+04  0.50400001928E-02 0. -1.
       -1   -1    0    0    0  501  0.00000000000E+00  0.00000000000E+00 -0.58759322288E+03  0.58759322290E+03  0.50400001928E-02 0.  1.
    10030    2    1    2    0    0  0.00000000000E+00  0.00000000000E+00  0.66987486079E+03  0.18450613066E+04  0.17191622657E+04 0.  0.
        1    1    3    3  502    0 -0.12824623363E+03  0.48016930325E+03 -0.41775773829E+03  0.64925432933E+03  0.50400001928E-02 0.  1.
       -1    1    3    3    0  502  0.12824623363E+03 -0.48016930325E+03  0.10876325991E+04  0.11958069772E+04  0.50400001928E-02 0. -1.
</event>
<event>
 5   0  0.2234723E-04  0.1664695E+04  0.7818609E-02  0.8781760E-01
        2   -1    0    0  501    0  0.00000000000E+00  0.00000000000E+00  0.12746202170E+04  0.12746202170E+04  0.25500000920E-02 0.  1.
       -2   -1    0    0    0  501  0.00000000000E+00  0.00000000000E+00 -0.54353654653E+03  0.54353654653E+03  0.25500000920E-02 0. -1.
    10030    2    1    2    0    0  0.00000000000E+00  0.00000000000E+00  0.73108367047E+03  0.18181567635E+04  0.16646953726E+04 0.  0.
        1    1    3    3  502    0 -0.71140158851E+02  0.58413184507E+03  0.10084783043E+04  0.11676041388E+04  0.50400001928E-02 0.  1.
       -1    1    3    3    0  502  0.71140158851E+02 -0.58413184507E+03 -0.27739463386E+03  0.65055262473E+03  0.50400001928E-02 0. -1.
</event>
<event>
 5   0  0.8372750E-05  0.1697605E+04  0.7818609E-02  0.8762731E-01
        3   -1    0    0  501    0  0.00000000000E+00  0.00000000000E+00  0.20710596669E+04  0.20710596694E+04  0.10100000352E+00 0.  1.
       -3   -1    0    0    0  501  0.00000000000E+00  0.00000000000E+00 -0.34787315606E+03  0.34787317072E+03  0.10100000352E+00 0. -1.
    10030    2    1    2    0    0  0.00000000000E+00  0.00000000000E+00  0.17231865109E+04  0.24189328401E+04  0.16976054706E+04 0.  0.
        3    1    3    3  502    0 -0.67882838920E+02  0.18370042391E+03 -0.31524001129E+03  0.37112019682E+03  0.10100000352E+00 0. -1.
       -3    1    3    3    0  502  0.67882838920E+02 -0.18370042391E+03  0.20384265222E+04  0.20478126433E+04  0.10100000352E+00 0.  1.
</event>
<event>
 5   0  0.1234158E-04  0.1675328E+04  0.7818609E-02  0.8775562E-01
        1   -1    0    0  501    0  0.00000000000E+00  0.00000000000E+00  0.18900476988E+04  0.18900476988E+04  0.50400001928E-02 0. -1.
       -1   -1    0    0    0  501  0.00000000000E+00  0.00000000000E+00 -0.37125062536E+03  0.37125062540E+03  0.50400001928E-02 0.  1.
    10030    2    1    2    0    0  0.00000000000E+00  0.00000000000E+00  0.15187970735E+04  0.22612983242E+04  0.16753284934E+04 0.  0.
        5    1    3    3  502    0 -0.39781927385E+03  0.42985231528E+03 -0.48913117159E+02  0.58774805030E+03  0.46999998093E+01 0.  1.
       -5    1    3    3    0  502  0.39781927385E+03 -0.42985231528E+03  0.15677101906E+04  0.16735502739E+04  0.46999998093E+01 0. -1.
</event>
<event>
 5   0  0.2288806E-04  0.1902293E+04  0.7818609E-02  0.8653716E-01
        2   -1    0    0  501    0  0.00000000000E+00  0.00000000000E+00  0.11396088269E+04  0.11396088269E+04  0.25500000920E-02 0.  1.
       -2   -1    0    0    0  501  0.00000000000E+00  0.00000000000E+00 -0.79385064559E+03  0.79385064560E+03  0.25500000920E-02 0. -1.
    10030    2    1    2    0    0  0.00000000000E+00  0.00000000000E+00  0.34575818133E+03  0.19334594725E+04  0.19022925148E+04 0.  0.
        3    1    3    3  502    0 -0.63983548278E+03 -0.24561139231E+03 -0.49744499790E+03  0.84685650330E+03  0.10100000352E+00 0. -1.
       -3    1    3    3    0  502  0.63983548278E+03  0.24561139231E+03  0.84320317923E+03  0.10866029692E+04  0.10100000352E+00 0.  1.
</event>
<event>
 5   0  0.1204741E-04  0.1720501E+04  0.7818609E-02  0.8749758E-01
       -1   -1    0    0    0  501  0.00000000000E+00  0.00000000000E+00  0.88166710057E+03  0.88166710058E+03  0.50400001928E-02 0.  1.
        1   -1    0    0  501    0  0.00000000000E+00  0.00000000000E+00 -0.83935374909E+03  0.83935374911E+03  0.50400001928E-02 0. -1.
    10030    2    1    2    0    0  0.00000000000E+00  0.00000000000E+00  0.42313351475E+02  0.17210208497E+04  0.17205006089E+04 0.  0.
        1    1    3    3  502    0  0.60168669427E+03 -0.50086183704E+03  0.37783304070E+03  0.86927973894E+03  0.50400001928E-02 0. -1.
       -1    1    3    3    0  502 -0.60168669427E+03  0.50086183704E+03 -0.33551968922E+03  0.85174111075E+03  0.50400001928E-02 0.  1.
</event>
<event>
 5   0  0.1234158E-04  0.1784622E+04  0.7818609E-02  0.8714520E-01
        1   -1    0    0  501    0  0.00000000000E+00  0.00000000000E+00  0.10340160342E+04  0.10340160342E+04  0.50400001928E-02 0. -1.
       -1   -1    0    0    0  501  0.00000000000E+00  0.00000000000E+00 -0.77002601147E+03  0.77002601149E+03  0.50400001928E-02 0.  1.
    10030    2    1    2    0    0  0.00000000000E+00  0.00000000000E+00  0.26399002273E+03  0.18040420457E+04  0.17846223608E+04 0.  0.
        5    1    3    3  502    0 -0.40411273754E+03 -0.41000396837E+03 -0.55717633867E+03  0.80117284097E+03  0.46999998093E+01 0.  1.
       -5    1    3    3    0  502  0.40411273754E+03  0.41000396837E+03  0.82116636141E+03  0.10028692047E+04  0.46999998093E+01 0. -1.
</event>
<event>
 5   0  0.2356829E-04  0.1721527E+04  0.7818609E-02  0.8749181E-01
        2   -1    0    0  501    0  0.00000000000E+00  0.00000000000E+00  0.76889402493E+03  0.76889402494E+03  0.25500000920E-02 0.  1.
       -2   -1    0    0    0  501  0.00000000000E+00  0.00000000000E+00 -0.96361032641E+03  0.96361032642E+03  0.25500000920E-02 0. -1.
    10030    2    1    2    0    0  0.00000000000E+00  0.00000000000E+00 -0.19471630148E+03  0.17325043514E+04  0.17215274873E+04 0.  0.
        5    1    3    3  502    0  0.39379184810E+03 -0.74091809052E+03  0.95856902627E+02  0.84453672050E+03  0.46999998093E+01 0.  1.
       -5    1    3    3    0  502 -0.39379184810E+03  0.74091809052E+03 -0.29057320411E+03  0.88796763085E+03  0.46999998093E+01 0. -1.
</event>
<event>
 5   0  0.1204741E-04  0.1681036E+04  0.7818609E-02  0.8772255E-01
        1   -1    0    0  501    0  0.00000000000E+00  0.00000000000E+00  0.12712588880E+04  0.12712588880E+04  0.50400001928E-02 0.  1.
       -1   -1    0    0    0  501  0.00000000000E+00  0.00000000000E+00 -0.55572534523E+03  0.55572534525E+03  0.50400001928E-02 0. -1.
    10030    2    1    2    0    0  0.00000000000E+00  0.00000000000E+00  0.71553354277E+03  0.18269842333E+04  0.16810363285E+04 0.  0.
        1    1    3    3  502    0 -0.49454959448E+03  0.64722367341E+03  0.58311625836E+03  0.10017496472E+04  0.50400001928E-02 0.  1.
       -1    1    3    3    0  502  0.49454959448E+03 -0.64722367341E+03  0.13241728441E+03  0.82523458608E+03  0.50400001928E-02 0. -1.
</event>
<event>
 5   0  0.1234158E-04  0.1676904E+04  0.7818609E-02  0.8774648E-01
        1   -1    0    0  501    0  0.00000000000E+00  0.00000000000E+00  0.24029892005E+04  0.24029892005E+04  0.50400001928E-02 0. -1.
       -1   -1    0    0    0  501  0.00000000000E+00  0.00000000000E+00 -0.29255301375E+03  0.29255301380E+03  0.50400001928E-02 0.  1.
    10030    2    1    2    0    0  0.00000000000E+00  0.00000000000E+00  0.21104361868E+04  0.26955422143E+04  0.16769039719E+04 0.  0.
        5    1    3    3  502    0  0.50097079639E+03 -0.42228525480E+03  0.21428409972E+03  0.68937387581E+03  0.46999998093E+01 0.  1.
       -5    1    3    3    0  502 -0.50097079639E+03  0.42228525480E+03  0.18961520871E+04  0.20061683385E+04  0.46999998093E+01 0. -1.
</event>
<event>
 5   0  0.1186302E-04  0.1769086E+04  0.7818609E-02  0.8722914E-01
        1   -1    0    0  501    0  0.00000000000E+00  0.00000000000E+00  0.15158796073E+04  0.15158796073E+04  0.50400001928E-02 0. -1.
       -1   -1    0    0    0  501  0.00000000000E+00  0.00000000000E+00 -0.51614680662E+03  0.51614680665E+03  0.50400001928E-02 0.  1.
    10030    2    1    2    0    0  0.00000000000E+00  0.00000000000E+00  0.99973280068E+03  0.20320264140E+04  0.17690861127E+04 0.  0.
        3    1    3    3  502    0  0.12942608319E+03  0.35385579267E+03 -0.41936204907E+03  0.56376375496E+03  0.10100000352E+00 0.  1.
       -3    1    3    3    0  502 -0.12942608319E+03 -0.35385579267E+03  0.14190948497E+04  0.14682626590E+04  0.10100000352E+00 0. -1.
</event>
<event>
 5   0  0.2242967E-04  0.1701127E+04  0.7818609E-02  0.8760722E-01
        2   -1    0    0  501    0  0.00000000000E+00  0.00000000000E+00  0.83444826441E+03  0.83444826441E+03  0.25500000920E-02 0.  1.
       -2   -1    0    0    0  501  0.00000000000E+00  0.00000000000E+00 -0.86698972819E+03  0.86698972820E+03  0.25500000920E-02 0. -1.
    10030    2    1    2    0    0  0.00000000000E+00  0.00000000000E+00 -0.32541463788E+02  0.17014379926E+04  0.17011267724E+04 0.  0.
        4    1    3    3  502    0 -0.65286637608E+03  0.54517859966E+03 -0.14770283921E+02  0.85069029895E+03  0.12699999809E+01 0.  1.
       -4    1    3    3    0  502  0.65286637608E+03 -0.54517859966E+03 -0.17771179866E+02  0.85074769366E+03  0.12699999809E+01 0. -1.
</event>
<event>
 5   0  0.1215233E-04  0.1548750E+04  0.7818609E-02  0.8852667E-01
       -1   -1    0    0    0  501  0.00000000000E+00  0.00000000000E+00  0.30278395942E+03  0.30278395946E+03  0.50400001928E-02 0.  1.
        1   -1    0    0  501    0  0.00000000000E+00  0.00000000000E+00 -0.19804767853E+04  0.19804767853E+04  0.50400001928E-02 0. -1.
    10030    2    1    2    0    0  0.00000000000E+00  0.00000000000E+00 -0.16776928259E+04  0.22832607448E+04  0.15487499510E+04 0.  0.
        2    1    3    3  502    0  0.51545567454E+03 -0.27986092774E+03 -0.15842449457E+04  0.16893338152E+04  0.25500000920E-02 0. -1.
       -2    1    3    3    0  502 -0.51545567454E+03  0.27986092774E+03 -0.93447880145E+02  0.59392692951E+03  0.25500000920E-02 0.  1.
</event>
<event>
 5   0  0.8372750E-05  0.1694652E+04  0.7818609E-02  0.8764421E-01
        3   -1    0    0  501    0  0.00000000000E+00  0.00000000000E+00  0.14286375661E+04  0.14286375697E+04  0.10100000352E+00 0.  1.
       -3   -1    0    0    0  501  0.00000000000E+00  0.00000000000E+00 -0.50254953789E+03  0.50254954804E+03  0.10100000352E+00 0. -1.
    10030    2    1    2    0    0  0.00000000000E+00  0.00000000000E+00  0.92608802824E+03  0.19311871177E+04  0.16946517777E+04 0.  0.
        1    1    3    3  502    0 -0.43257023028E+03  0.46754962343E+03 -0.17373567365E+03  0.66023006506E+03  0.50400001928E-02 0. -1.
       -1    1    3    3    0  502  0.43257023028E+03 -0.46754962343E+03  0.10998237019E+04  0.12709570527E+04  0.50400001928E-02 0.  1.
</event>
<event>
 5   0  0.2234723E-04  0.1704638E+04  0.7818609E-02  0.8758724E-01
       -2   -1    0    0    0  501  0.00000000000E+00  0.00000000000E+00  0.34341467645E+03  0.34341467646E+03  0.25500000920E-02 0. -1.
        2   -1    0    0  501    0  0.00000000000E+00  0.00000000000E+00 -0.21153650679E+04  0.21153650679E+04  0.25500000920E-02 0.  1.
    10030    2    1    2    0    0  0.00000000000E+00  0.00000000000E+00 -0.17719503914E+04  0.24587797444E+04  0.17046376863E+04 0.  0.
        1    1    3    3  502    0 -0.16832631215E+03  0.65699099827E+03 -0.14138555165E+03  0.69279202754E+03  0.50400001928E-02 0.  1.
       -1    1    3    3    0  502  0.16832631215E+03 -0.65699099827E+03 -0.16305648398E+04  0.17659877168E+04  0.50400001928E-02 0. -1.
</event>
<event>
 5   0  0.2242967E-04  0.1699238E+04  0.7818609E-02  0.8761799E-01
       -2   -1    0    0    0  501  0.00000000000E+00  0.00000000000E+00  0.69886793090E+03  0.69886793091E+03  0.25500000920E-02 0. -1.
        2   -1    0    0  501    0  0.00000000000E+00  0.00000000000E+00 -0.10328881603E+04  0.10328881603E+04  0.25500000920E-02 0.  1.
    10030    2    1    2    0    0  0.00000000000E+00  0.00000000000E+00 -0.33402022939E+03  0.17317560912E+04  0.16992379603E+04 0.  0.
        4    1    3    3  502    0 -0.45588088426E+03  0.71677548782E+03 -0.18332642841E+03  0.86902512785E+03  0.12699999809E+01 0.  1.
       -4    1    3    3    0  502  0.45588088426E+03 -0.71677548782E+03 -0.15069380097E+03  0.86273096335E+03  0.12699999809E+01 0. -1.
</event>
<event>
 5   0  0.2242967E-04  0.1703656E+04  0.7818609E-02  0.8759282E-01
        2   -1    0    0  501    0  0.00000000000E+00  0.00000000000E+00  0.79248637388E+03  0.79248637389E+03  0.25500000920E-02 0. -1.
       -2   -1    0    0    0  501  0.00000000000E+00  0.00000000000E+00 -0.91561283400E+03  0.91561283401E+03  0.25500000920E-02 0.  1.
    10030    2    1    2    0    0  0.00000000000E+00  0.00000000000E+00 -0.12312646012E+03  0.17080992079E+04  0.17036557102E+04 0.  0.
        4    1    3    3  502    0 -0.39025294351E+03  0.52392791995E+01  0.69756697435E+03  0.79932853481E+03  0.12699999809E+01 0. -1.
       -4    1    3    3    0  502  0.39025294351E+03 -0.52392791995E+01 -0.82069343447E+03  0.90877067308E+03  0.12699999809E+01 0.  1.
</event>
<event>
 5   0  0.2224454E-04  0.1709897E+04  0.7818609E-02  0.8755740E-01
        2   -1    0    0  501    0  0.00000000000E+00  0.00000000000E+00  0.81697371002E+03  0.81697371003E+03  0.25500000920E-02 0.  1.
       -2   -1    0    0    0  501  0.00000000000E+00  0.00000000000E+00 -0.89468812244E+03  0.89468812244E+03  0.25500000920E-02 0. -1.
    10030    2    1    2    0    0  0.00000000000E+00  0.00000000000E+00 -0.77714412414E+02  0.17116618325E+04  0.17098966924E+04 0.  0.
        2    1    3    3  502    0  0.56653550589E+03 -0.56568023885E+03  0.26141922111E+03  0.84219749539E+03  0.25500000920E-02 0.  1.
       -2    1    3    3    0  502 -0.56653550589E+03  0.56568023885E+03 -0.33913363353E+03  0.86946433708E+03  0.25500000920E-02 0. -1.
</event>
<event>
 5   0  0.2288806E-04  0.1716222E+04  0.7818609E-02  0.8752166E-01
        2   -1    0    0  501    0  0.00000000000E+00  0.00000000000E+00  0.81606171236E+03  0.81606171236E+03  0.25500000920E-02 0. -1.
       -2   -1    0    0    0  501  0.00000000000E+00  0.00000000000E+00 -0.90232665623E+03  0.90232665624E+03  0.25500000920E-02 0.  1.
    10030    2    1    2    0    0  0.00000000000E+00  0.00000000000E+00 -0.86264943877E+02  0.17183883686E+04  0.17162217062E+04 0.  0.
        3    1    3    3  502    0  0.59462127312E+03  0.61340131037E+03  0.37707303739E+02  0.85513594063E+03  0.10100000352E+00 0.  1.
       -3    1    3    3    0  502 -0.59462127312E+03 -0.61340131037E+03 -0.12397224762E+03  0.86325242796E+03  0.10100000352E+00 0. -1.
</event>
<event>
 5   0  0.1186302E-04  0.1695305E+04  0.7818609E-02  0.8764047E-01
        1   -1    0    0  501    0  0.00000000000E+00  0.00000000000E+00  0.12877307602E+04  0.12877307602E+04  0.50400001928E-02 0. -1.
       -1   -1    0    0    0  501  0.00000000000E+00  0.00000000000E+00 -0.55796965284E+03  0.55796965286E+03  0.50400001928E-02 0.  1.
    10030    2    1    2    0    0  0.00000000000E+00  0.00000000000E+00  0.72976110734E+03  0.18457004130E+04  0.16953049109E+04 0.  0.
        3    1    3    3  502    0  0.51464967038E+03 -0.54515138792E+03 -0.65760616057E+02  0.75258141606E+03  0.10100000352E+00 0.  1.
       -3    1    3    3    0  502 -0.51464967038E+03  0.54515138792E+03  0.79552172339E+03  0.10931189970E+04  0.10100000352E+00 0. -1.
</event>
<event>
 5   0  0.1126958E-04  0.1715019E+04  0.7818609E-02  0.8752845E-01
        1   -1    0    0  501    0  0.00000000000E+00  0.00000000000E+00  0.83453011735E+03  0.83453011737E+03  0.50400001928E-02 0.  1.
       -1   -1    0    0    0  501  0.00000000000E+00  0.00000000000E+00 -0.88112128525E+03  0.88112128526E+03  0.50400001928E-02 0. -1.
    10030    2    1    2    0    0  0.00000000000E+00  0.00000000000E+00 -0.46591167892E+02  0.17156514026E+04  0.17150186583E+04 0.  0.
        4    1    3    3  502    0  0.25024079790E+03 -0.31889381751E+03 -0.77922436946E+03  0.87835411688E+03  0.12699999809E+01 0. -1.
       -4    1    3    3    0  502 -0.25024079790E+03  0.31889381751E+03  0.73263320157E+03  0.83729728575E+03  0.12699999809E+01 0.  1.
</event>
<event>
 5   0  0.2288806E-04  0.1725104E+04  0.7818609E-02  0.8747175E-01
       -2   -1    0    0    0  501  0.00000000000E+00  0.00000000000E+00  0.16354252759E+04  0.16354252759E+04  0.25500000920E-02 0. -1.
        2   -1    0    0  501    0  0.00000000000E+00  0.00000000000E+00 -0.45492502635E+03  0.45492502636E+03  0.25500000920E-02 0.  1.
    10030    2    1    2    0    0  0.00000000000E+00  0.00000000000E+00  0.11805002496E+04  0.20903503023E+04  0.17251039235E+04 0.  0.
        3    1    3    3  502    0  0.68743789154E+02  0.82335740842E+03  0.89038800533E+03  0.12146744176E+04  0.10100000352E+00 0. -1.
       -3    1    3    3    0  502 -0.68743789154E+02 -0.82335740842E+03  0.29011224423E+03  0.87567588468E+03  0.10100000352E+00 0.  1.
</event>
<event>
 5   0  0.2224454E-04  0.1690397E+04  0.7818609E-02  0.8766860E-01
        2   -1    0    0  501    0  0.00000000000E+00  0.00000000000E+00  0.77537474898E+03  0.77537474898E+03  0.25500000920E-02 0. -1.
       -2   -1    0    0    0  501  0.00000000000E+00  0.00000000000E+00 -0.92131018919E+03  0.92131018919E+03  0.25500000920E-02 0.  1.
    10030    2    1    2    0    0  0.00000000000E+00  0.00000000000E+00 -0.14593544021E+03  0.16966849382E+04  0.16903971802E+04 0.  0.
        2    1    3    3  502    0  0.29946352320E+03  0.77711050310E+03 -0.21766191553E+03  0.86078792117E+03  0.25500000920E-02 0.  1.
       -2    1    3    3    0  502 -0.29946352320E+03 -0.77711050310E+03  0.71726475315E+02  0.83589701700E+03  0.25500000920E-02 0. -1.
</event>
<event>
 5   0  0.1204741E-04  0.1695822E+04  0.7818609E-02  0.8763751E-01
       -1   -1    0    0    0  501  0.00000000000E+00  0.00000000000E+00  0.10939463337E+04  0.10939463337E+04  0.50400001928E-02 0.  1.
        1   -1    0    0  501    0  0.00000000000E+00  0.00000000000E+00 -0.65721043738E+03  0.65721043740E+03  0.50400001928E-02 0. -1.
    10030    2    1    2    0    0  0.00000000000E+00  0.00000000000E+00  0.43673589630E+03  0.17511567711E+04  0.16958218638E+04 0.  0.
        1    1    3    3  502    0  0.82179397082E+03 -0.67203720188E+02  0.14201331588E+02  0.82465953479E+03  0.50400001928E-02 0.  1.
       -1    1    3    3    0  502 -0.82179397082E+03  0.67203720188E+02  0.42253456471E+03  0.92649723630E+03  0.50400001928E-02 0. -1.
</event>
<event>
 5   0  0.2234723E-04  0.1702337E+04  0.7818609E-02  0.8760032E-01
        2   -1    0    0  501    0  0.00000000000E+00  0.00000000000E+00  0.57550913869E+03  0.57550913869E+03  0.25500000920E-02 0. -1.
       -2   -1    0    0    0  501  0.00000000000E+00  0.00000000000E+00 -0.12588646177E+04  0.12588646177E+04  0.25500000920E-02 0.  1.
    10030    2    1    2    0    0  0.00000000000E+00  0.00000000000E+00 -0.68335547897E+03  0.18343737564E+04  0.17023373248E+04 0.  0.
        1    1    3    3  502    0  0.70612794270E+03 -0.19323456982E+03  0.12620232240E+03  0.74288848196E+03  0.50400001928E-02 0. -1.
       -1    1    3    3    0  502 -0.70612794270E+03  0.19323456982E+03 -0.80955780137E+03  0.10914852744E+04  0.50400001928E-02 0.  1.
</event>
<event>
 5   0  0.1215233E-04  0.1695425E+04  0.7818609E-02  0.8763978E-01
       -1   -1    0    0    0  501  0.00000000000E+00  0.00000000000E+00  0.10702217435E+04  0.10702217435E+04  0.50400001928E-02 0. -1.
        1   -1    0    0  501    0  0.00000000000E+00  0.00000000000E+00 -0.67146475751E+03  0.67146475753E+03  0.50400001928E-02 0.  1.
    10030    2    1    2    0    0  0.00000000000E+00  0.00000000000E+00  0.39875698596E+03  0.17416865010E+04  0.16954246471E+04 0.  0.
        2    1    3    3  502    0  0.79152722482E+03  0.18842117410E+03 -0.45016990321E+02  0.81488920468E+03  0.25500000920E-02 0.  1.
       -2    1    3    3    0  502 -0.79152722482E+03 -0.18842117410E+03  0.44377397628E+03  0.92679729634E+03  0.25500000920E-02 0. -1.
</event>
<event>
 5   0  0.2356829E-04  0.1697778E+04  0.7818609E-02  0.8762633E-01
        2   -1    0    0  501    0  0.00000000000E+00  0.00000000000E+00  0.24477709789E+04  0.24477709789E+04  0.25500000920E-02 0. -1.
       -2   -1    0    0    0  501  0.00000000000E+00  0.00000000000E+00 -0.29439524197E+03  0.29439524199E+03  0.25500000920E-02 0.  1.
    10030    2    1    2    0    0  0.00000000000E+00  0.00000000000E+00  0.21533757370E+04  0.27421662209E+04  0.16977775233E+04 0.  0.
        5    1    3    3  502    0 -0.30245879829E+03  0.67602901942E+03  0.40665639200E+03  0.84491897299E+03  0.46999998093E+01 0. -1.
       -5    1    3    3    0  502  0.30245879829E+03 -0.67602901942E+03  0.17467193450E+04  0.18972472479E+04  0.46999998093E+01 0.  1.
</event>
<event>
 5   0  0.1215233E-04  0.1708831E+04  0.7818609E-02  0.8756344E-01
       -1   -1    0    0    0  501  0.00000000000E+00  0.00000000000E+00  0.83323986944E+03  0.83323986946E+03  0.50400001928E-02 0. -1.
        1   -1    0    0  501    0  0.00000000000E+00  0.00000000000E+00 -0.87612912732E+03  0.87612912733E+03  0.50400001928E-02 0.  1.
    10030    2    1    2    0    0  0.00000000000E+00  0.00000000000E+00 -0.42889257880E+02  0.17093689968E+04  0.17088308514E+04 0.  0.
        2    1    3    3  502    0  0.45621048956E+03 -0.31902506641E+03  0.62692668950E+03  0.83841641074E+03  0.25500000920E-02 0. -1.
       -2    1    3    3    0  502 -0.45621048956E+03  0.31902506641E+03 -0.66981594738E+03  0.87095258605E+03  0.25500000920E-02 0.  1.
</event>
<event>
 5   0  0.1186302E-04  0.1694623E+04  0.7818609E-02  0.8764437E-01
       -1   -1    0    0    0  501  0.00000000000E+00  0.00000000000E+00  0.45164972798E+03  0.45164972801E+03  0.50400001928E-02 0.  1.
        1   -1    0    0  501    0  0.00000000000E+00  0.00000000000E+00 -0.15895882767E+04  0.15895882767E+04  0.50400001928E-02 0. -1.
    10030    2    1    2    0    0  0.00000000000E+00  0.00000000000E+00 -0.11379385487E+04  0.20412380047E+04  0.16946233951E+04 0.  0.
        3    1    3    3  502    0  0.75630952676E+03  0.30899374279E+03 -0.83953718886E+03  0.11714537699E+04  0.10100000352E+00 0. -1.
       -3    1    3    3    0  502 -0.75630952676E+03 -0.30899374279E+03 -0.29840135985E+03  0.86978423481E+03  0.10100000352E+00 0.  1.
</event>
<event>
 5   0  0.1234158E-04  0.1709489E+04  0.7818609E-02  0.8755971E-01
        1   -1    0    0  501    0  0.00000000000E+00  0.00000000000E+00  0.10003670189E+04  0.10003670189E+04  0.50400001928E-02 0.  1.
       -1   -1    0    0    0  501  0.00000000000E+00  0.00000000000E+00 -0.73031984152E+03  0.73031984154E+03  0.50400001928E-02 0. -1.
    10030    2    1    2    0    0  0.00000000000E+00  0.00000000000E+00  0.27004717738E+03  0.17306868605E+04  0.17094886753E+04 0.  0.
        5    1    3    3  502    0  0.45511180692E+03  0.35653051570E+03  0.77237362882E+03  0.96479214234E+03  0.46999998093E+01 0.  1.
       -5    1    3    3    0  502 -0.45511180692E+03 -0.35653051570E+03 -0.50232645144E+03  0.76589471812E+03  0.46999998093E+01 0. -1.
</event>
<event>
 5   0  0.2234723E-04  0.1700918E+04  0.7818609E-02  0.8760841E-01
        2   -1    0    0  501    0  0.00000000000E+00  0.00000000000E+00  0.46865168484E+03  0.46865168485E+03  0.25500000920E-02 0. -1.
       -2   -1    0    0    0  501  0.00000000000E+00  0.00000000000E+00 -0.15433213790E+04  0.15433213790E+04  0.25500000920E-02 0.  1.
    10030    2    1    2    0    0  0.00000000000E+00  0.00000000000E+00 -0.10746696941E+04  0.20119730638E+04  0.17009175930E+04 0.  0.
        1    1    3    3  502    0  0.51828764737E+03 -0.54500681456E+03 -0.10069610665E+04  0.12568313741E+04  0.50400001928E-02 0.  1.
       -1    1    3    3    0  502 -0.51828764737E+03  0.54500681456E+03 -0.67708627622E+02  0.75514168976E+03  0.50400001928E-02 0. -1.
</event>
<event>
 5   0  0.1186302E-04  0.1694515E+04  0.7818609E-02  0.8764499E-01
       -1   -1    0    0    0  501  0.00000000000E+00  0.00000000000E+00  0.23225575807E+04  0.23225575807E+04  0.50400001928E-02 0. -1.
        1   -1    0    0  501    0  0.00000000000E+00  0.00000000000E+00 -0.30907541295E+03  0.30907541299E+03  0.50400001928E-02 0.  1.
    10030    2    1    2    0    0  0.00000000000E+00  0.00000000000E+00  0.20134821677E+04  0.26316329936E+04  0.16945152031E+04 0.  0.
        3    1    3    3  502    0  0.61103501246E+03 -0.30540962980E+03  0.17851277358E+04  0.19113659701E+04  0.10100000352E+00 0.  1.
       -3    1    3    3    0  502 -0.61103501246E+03  0.30540962980E+03  0.22835443194E+03  0.72026702355E+03  0.10100000352E+00 0. -1.
</event>
<event>
 5   0  0.2224454E-04  0.1703976E+04  0.7818609E-02  0.8759100E-01
       -2   -1    0    0    0  501  0.00000000000E+00  0.00000000000E+00  0.35255075539E+03  0.35255075540E+03  0.25500000920E-02 0.  1.
        2   -1    0    0  501    0  0.00000000000E+00  0.00000000000E+00 -0.20589469886E+04  0.20589469886E+04  0.25500000920E-02 0. -1.
    10030    2    1    2    0    0  0.00000000000E+00  0.00000000000E+00 -0.17063962332E+04  0.24114977440E+04  0.17039757230E+04 0.  0.
        2    1    3    3  502    0 -0.12827652356E+03 -0.45283658650E+03 -0.18582696984E+04  0.19169460380E+04  0.25500000920E-02 0. -1.
       -2    1    3    3    0  502  0.12827652356E+03  0.45283658650E+03  0.15187346513E+03  0.49455170608E+03  0.25500000920E-02 0.  1.
</event>
<event>
 5   0  0.1126958E-04  0.1715740E+04  0.7818609E-02  0.8752438E-01
        1   -1    0    0  501    0  0.00000000000E+00  0.00000000000E+00  0.26660044135E+04  0.26660044135E+04  0.50400001928E-02 0.  1.
       -1   -1    0    0    0  501  0.00000000000E+00  0.00000000000E+00 -0.27604628386E+03  0.27604628390E+03  0.50400001928E-02 0. -1.
    10030    2    1    2    0    0  0.00000000000E+00  0.00000000000E+00  0.23899581296E+04  0.29420506974E+04  0.17157396203E+04 0.  0.
        4    1    3    3  502    0 -0.83947279383E+03  0.15938769566E+03  0.10641633677E+04  0.13647579621E+04  0.12699999809E+01 0. -1.
       -4    1    3    3    0  502  0.83947279383E+03 -0.15938769566E+03  0.13257947619E+04  0.15772927353E+04  0.12699999809E+01 0.  1.
</event>
<event>
 5   0  0.1234158E-04  0.1701195E+04  0.7818609E-02  0.8760683E-01
        1   -1    0    0  501    0  0.00000000000E+00  0.00000000000E+00  0.58955265842E+03  0.58955265844E+03  0.50400001928E-02 0.  1.
       -1   -1    0    0    0  501  0.00000000000E+00  0.00000000000E+00 -0.12272285889E+04  0.12272285889E+04  0.50400001928E-02 0. -1.
    10030    2    1    2    0    0  0.00000000000E+00  0.00000000000E+00 -0.63767593051E+03  0.18167812474E+04  0.17011947297E+04 0.  0.
        5    1    3    3  502    0 -0.78967528307E+03 -0.28437534440E+03 -0.17148719719E+03  0.85667166288E+03  0.46999998093E+01 0. -1.
       -5    1    3    3    0  502  0.78967528307E+03  0.28437534440E+03 -0.46618873332E+03  0.96010958450E+03  0.46999998093E+01 0.  1.
</event>
<event>
 5   0  0.2356829E-04  0.1685860E+04  0.7818609E-02  0.8769470E-01
       -2   -1    0    0    0  501  0.00000000000E+00  0.00000000000E+00  0.11155083538E+04  0.11155083538E+04  0.25500000920E-02 0.  1.
        2   -1    0    0  501    0  0.00000000000E+00  0.00000000000E+00 -0.63695724765E+03  0.63695724766E+03  0.25500000920E-02 0. -1.
    10030    2    1    2    0    0  0.00000000000E+00  0.00000000000E+00  0.47855110615E+03  0.17524656015E+04  0.16858601731E+04 0.  0.
        5    1    3    3  502    0 -0.49575740142E+03 -0.34454270315E+02  0.94701699155E+03  0.10694979056E+04  0.46999998093E+01 0.  1.
       -5    1    3    3    0  502  0.49575740142E+03  0.34454270315E+02 -0.46846588540E+03  0.68296769586E+03  0.46999998093E+01 0. -1.
</event>
<event>
 5   0  0.1234158E-04  0.1683097E+04  0.7818609E-02  0.8771064E-01
       -1   -1    0    0    0  501  0.00000000000E+00  0.00000000000E+00  0.58880035307E+03  0.58880035309E+03  0.50400001928E-02 0.  1.
        1   -1    0    0  501    0  0.00000000000E+00  0.00000000000E+00 -0.12027905681E+04  0.12027905682E+04  0.50400001928E-02 0. -1.
    10030    2    1    2    0    0  0.00000000000E+00  0.00000000000E+00 -0.61399021507E+03  0.17915909212E+04  0.16830965643E+04 0.  0.
        5    1    3    3  502    0 -0.54691099472E+03  0.50688733767E+03 -0.72218273781E+03  0.10380830439E+04  0.46999998093E+01 0. -1.
       -5    1    3    3    0  502  0.54691099472E+03 -0.50688733767E+03  0.10819252275E+03  0.75350787734E+03  0.46999998093E+01 0.  1.
</event>
<event>
 5   0  0.1215233E-04  0.1711607E+04  0.7818609E-02  0.8754772E-01
        1   -1    0    0  501    0  0.00000000000E+00  0.00000000000E+00  0.11277233617E+04  0.11277233617E+04  0.50400001928E-02 0. -1.
       -1   -1    0    0    0  501  0.00000000000E+00  0.00000000000E+00 -0.64944945302E+03  0.64944945304E+03  0.50400001928E-02 0.  1.
    10030    2    1    2    0    0  0.00000000000E+00  0.00000000000E+00  0.47827390864E+03  0.17771728147E+04  0.17116066375E+04 0.  0.
        2    1    3    3  502    0  0.20327076336E+03  0.82811623711E+03  0.16351987769E+03  0.86823629031E+03  0.25500000920E-02 0. -1.
       -2    1    3    3    0  502 -0.20327076336E+03 -0.82811623711E+03  0.31475403095E+03  0.90893652441E+03  0.25500000920E-02 0.  1.
</event>
<event>
 5   0  0.2234723E-04  0.1671503E+04  0.7818609E-02  0.8777786E-01
        2   -1    0    0  501    0  0.00000000000E+00  0.00000000000E+00  0.65146009888E+03  0.65146009888E+03  0.25500000920E-02 0. -1.
       -2   -1    0    0    0  501  0.00000000000E+00  0.00000000000E+00 -0.10721765636E+04  0.10721765636E+04  0.25500000920E-02 0.  1.
    10030    2    1    2    0    0  0.00000000000E+00  0.00000000000E+00 -0.42071646469E+03  0.17236366625E+04  0.16715026176E+04 0.  0.
        1    1    3    3  502    0  0.67936642360E+03  0.47089995417E+03 -0.33746988957E+03  0.89284457255E+03  0.50400001928E-02 0. -1.
       -1    1    3    3    0  502 -0.67936642360E+03 -0.47089995417E+03 -0.83246575126E+02  0.83079208990E+03  0.50400001928E-02 0.  1.
</event>
<event>
 5   0  0.1126958E-04  0.1781738E+04  0.7818609E-02  0.8716071E-01
        1   -1    0    0  501    0  0.00000000000E+00  0.00000000000E+00  0.14002131418E+04  0.14002131418E+04  0.50400001928E-02 0.  1.
       -1   -1    0    0    0  501  0.00000000000E+00  0.00000000000E+00 -0.56680511283E+03  0.56680511285E+03  0.50400001928E-02 0. -1.
    10030    2    1    2    0    0  0.00000000000E+00  0.00000000000E+00  0.83340802897E+03  0.19670182547E+04  0.17817384408E+04 0.  0.
        4    1    3    3  502    0 -0.75012100423E+02 -0.36457667817E+03 -0.47684702074E+03  0.60491955132E+03  0.12699999809E+01 0. -1.
       -4    1    3    3    0  502  0.75012100423E+02  0.36457667817E+03  0.13102550497E+04  0.13620987033E+04  0.12699999809E+01 0.  1.
</event>
<event>
 5   0  0.2234723E-04  0.1700238E+04  0.7818609E-02  0.8761229E-01
        2   -1    0    0  501    0  0.00000000000E+00  0.00000000000E+00  0.59334050552E+03  0.59334050552E+03  0.25500000920E-02 0.  1.
       -2   -1    0    0    0  501  0.00000000000E+00  0.00000000000E+00 -0.12180222942E+04  0.12180222942E+04  0.25500000920E-02 0. -1.
    10030    2    1    2    0    0  0.00000000000E+00  0.00000000000E+00 -0.62468178865E+03  0.18113627997E+04  0.17002375878E+04 0.  0.
        1    1    3    3  502    0 -0.22063585719E+03 -0.25885417603E+02  0.56187122029E+03  0.60419326753E+03  0.50400001928E-02 0.  1.
       -1    1    3    3    0  502  0.22063585719E+03  0.25885417603E+02 -0.11865530089E+04  0.12071695322E+04  0.50400001928E-02 0. -1.
</event>
<event>
 5   0  0.2234723E-04  0.1713542E+04  0.7818609E-02  0.8753678E-01
       -2   -1    0    0    0  501  0.00000000000E+00  0.00000000000E+00  0.74575648403E+03  0.74575648404E+03  0.25500000920E-02 0.  1.
        2   -1    0    0  501    0  0.00000000000E+00  0.00000000000E+00 -0.98431153362E+03  0.98431153362E+03  0.25500000920E-02 0. -1.
    10030    2    1    2    0    0  0.00000000000E+00  0.00000000000E+00 -0.23855504959E+03  0.17300680177E+04  0.17135421892E+04 0.  0.
        1    1    3    3  502    0  0.57992329430E+03  0.63039359708E+03 -0.10039976967E+03  0.86243099914E+03  0.50400001928E-02 0. -1.
       -1    1    3    3    0  502 -0.57992329430E+03 -0.63039359708E+03 -0.13815527992E+03  0.86763701852E+03  0.50400001928E-02 0.  1.
</event>
<event>
 5   0  0.1126958E-04  0.1698103E+04  0.7818609E-02  0.8762447E-01
       -1   -1    0    0    0  501  0.00000000000E+00  0.00000000000E+00  0.96840988213E+03  0.96840988214E+03  0.50400001928E-02 0.  1.
        1   -1    0    0  501    0  0.00000000000E+00  0.00000000000E+00 -0.74440403078E+03  0.74440403079E+03  0.50400001928E-02 0. -1.
    10030    2    1    2    0    0  0.00000000000E+00  0.00000000000E+00  0.22400585135E+03  0.17128139129E+04  0.16981027292E+04 0.  0.
        4    1    3    3  502    0 -0.60934310423E+03  0.13913718369E+03 -0.46763054199E+03  0.78060112174E+03  0.12699999809E+01 0. -1.
       -4    1    3    3    0  502  0.60934310423E+03 -0.13913718369E+03  0.69163639335E+03  0.93221279119E+03  0.12699999809E+01 0.  1.
</event>
<event>
 5   0  0.1186302E-04  0.1688754E+04  0.7818609E-02  0.8767805E-01
        1   -1    0    0  501    0  0.00000000000E+00  0.00000000000E+00  0.12778016866E+04  0.12778016867E+04  0.50400001928E-02 0.  1.
       -1   -1    0    0    0  501  0.00000000000E+00  0.00000000000E+00 -0.55796778863E+03  0.55796778865E+03  0.50400001928E-02 0. -1.
    10030    2    1    2    0    0  0.00000000000E+00  0.00000000000E+00  0.71983389801E+03  0.18357694753E+04  0.16887536012E+04 0.  0.
        3    1    3    3  502    0  0.40022727701E+03 -0.48821691374E+03 -0.24964378229E+03  0.67886644958E+03  0.10100000352E+00 0. -1.
       -3    1    3    3    0  502 -0.40022727701E+03  0.48821691374E+03  0.96947768031E+03  0.11569030257E+04  0.10100000352E+00 0.  1.
</event>
<event>
 5   0  0.2242967E-04  0.1698069E+04  0.7818609E-02  0.8762466E-01
        2   -1    0    0  501    0  0.00000000000E+00  0.00000000000E+00  0.14344735673E+04  0.14344735673E+04  0.25500000920E-02 0.  1.
       -2   -1    0    0    0  501  0.00000000000E+00  0.00000000000E+00 -0.50252557101E+03  0.50252557102E+03  0.25500000920E-02 0. -1.
    10030    2    1    2    0    0  0.00000000000E+00  0.00000000000E+00  0.93194799624E+03  0.19369991383E+04  0.16980690781E+04 0.  0.
        4    1    3    3  502    0  0.44521077396E+03 -0.61387869066E+03  0.30411593544E+02  0.75893751918E+03  0.12699999809E+01 0. -1.
       -4    1    3    3    0  502 -0.44521077396E+03  0.61387869066E+03  0.90153640270E+03  0.11780616191E+04  0.12699999809E+01 0.  1.
</event>
<event>
 5   0  0.1126958E-04  0.1660386E+04  0.7818609E-02  0.8784286E-01
        1   -1    0    0  501    0  0.00000000000E+00  0.00000000000E+00  0.11292098349E+04  0.11292098349E+04  0.50400001928E-02 0. -1.
       -1   -1    0    0    0  501  0.00000000000E+00  0.00000000000E+00 -0.61035669500E+03  0.61035669502E+03  0.50400001928E-02 0.  1.
    10030    2    1    2    0    0  0.00000000000E+00  0.00000000000E+00  0.51885313993E+03  0.17395665300E+04  0.16603864404E+04 0.  0.
        4    1    3    3  502    0 -0.16474589683E+03 -0.26500649566E+03 -0.54657801753E+03  0.62937969098E+03  0.12699999809E+01 0.  1.
       -4    1    3    3    0  502  0.16474589683E+03  0.26500649566E+03  0.10654311575E+04  0.11101868390E+04  0.12699999809E+01 0. -1.
</event>
<event>
 5   0  0.1204741E-04  0.1727929E+04  0.7818609E-02  0.8745594E-01
       -1   -1    0    0    0  501  0.00000000000E+00  0.00000000000E+00  0.55958019085E+03  0.55958019087E+03  0.50400001928E-02 0.  1.
        1   -1    0    0  501    0  0.00000000000E+00  0.00000000000E+00 -0.13339192358E+04  0.13339192358E+04  0.50400001928E-02 0. -1.
    10030    2    1    2    0    0  0.00000000000E+00  0.00000000000E+00 -0.77433904494E+03  0.18934994267E+04  0.17279291427E+04 0.  0.
        1    1    3    3  502    0 -0.20463484095E+03  0.58190219187E+03 -0.10500720128E+04  0.12178410451E+04  0.50400001928E-02 0. -1.
       -1    1    3    3    0  502  0.20463484095E+03 -0.58190219187E+03  0.27573296784E+03  0.67565838159E+03  0.50400001928E-02 0.  1.
</event>
<event>
 5   0  0.1234158E-04  0.1685468E+04  0.7818609E-02  0.8769696E-01
       -1   -1    0    0    0  501  0.00000000000E+00  0.00000000000E+00  0.93674659436E+03  0.93674659438E+03  0.50400001928E-02 0.  1.
        1   -1    0    0  501    0  0.00000000000E+00  0.00000000000E+00 -0.75815696931E+03  0.75815696933E+03  0.50400001928E-02 0. -1.
    10030    2    1    2    0    0  0.00000000000E+00  0.00000000000E+00  0.17858962505E+03  0.16949035637E+04  0.16854684322E+04 0.  0.
        5    1    3    3  502    0  0.66140797378E+02  0.34512985451E+03 -0.68094964583E+03  0.76629219734E+03  0.46999998093E+01 0. -1.
       -5    1    3    3    0  502 -0.66140797378E+02 -0.34512985451E+03  0.85953927088E+03  0.92861136636E+03  0.46999998093E+01 0.  1.
</event>
<event>
 5   0  0.2242967E-04  0.1721274E+04  0.7818609E-02  0.8749323E-01
        2   -1    0    0  501    0  0.00000000000E+00  0.00000000000E+00  0.14406815493E+04  0.14406815493E+04  0.25500000920E-02 0.  1.
       -2   -1    0    0    0  501  0.00000000000E+00  0.00000000000E+00 -0.51412900853E+03  0.51412900853E+03  0.25500000920E-02 0. -1.
    10030    2    1    2    0    0  0.00000000000E+00  0.00000000000E+00  0.92655254081E+03  0.19548105579E+04  0.17212741520E+04 0.  0.
        4    1    3    3  502    0 -0.73105644655E+03 -0.40115310565E+03  0.22148858504E+03  0.86280133775E+03  0.12699999809E+01 0. -1.
       -4    1    3    3    0  502  0.73105644655E+03  0.40115310565E+03  0.70506395576E+03  0.10920092201E+04  0.12699999809E+01 0.  1.
</event>
<event>
 5   0  0.2224454E-04  0.1679876E+04  0.7818609E-02  0.8772926E-01
       -2   -1    0    0    0  501  0.00000000000E+00  0.00000000000E+00  0.95202495125E+03  0.95202495125E+03  0.25500000920E-02 0.  1.
        2   -1    0    0  501    0  0.00000000000E+00  0.00000000000E+00 -0.74104771389E+03  0.74104771389E+03  0.25500000920E-02 0. -1.
    10030    2    1    2    0    0  0.00000000000E+00  0.00000000000E+00  0.21097723736E+03  0.16930726651E+04  0.16798760832E+04 0.  0.
        2    1    3    3  502    0 -0.37712990630E+03 -0.51906181289E+02  0.86008565648E+03  0.94056820825E+03  0.25500000920E-02 0.  1.
       -2    1    3    3    0  502  0.37712990630E+03  0.51906181289E+02 -0.64910841912E+03  0.75250445690E+03  0.25500000920E-02 0. -1.
</event>
<event>
 5   0  0.1234158E-04  0.1697305E+04  0.7818609E-02  0.8762903E-01
        1   -1    0    0  501    0  0.00000000000E+00  0.00000000000E+00  0.49000780053E+03  0.49000780055E+03  0.50400001928E-02 0. -1.
       -1   -1    0    0    0  501  0.00000000000E+00  0.00000000000E+00 -0.14697949747E+04  0.14697949747E+04  0.50400001928E-02 0.  1.
    10030    2    1    2    0    0  0.00000000000E+00  0.00000000000E+00 -0.97978717419E+03  0.19598027753E+04  0.16973049258E+04 0.  0.
        5    1    3    3  502    0 -0.55920634912E+03 -0.60607991375E+03 -0.72124091942E+03  0.10955615713E+04  0.46999998093E+01 0.  1.
       -5    1    3    3    0  502  0.55920634912E+03  0.60607991375E+03 -0.25854625477E+03  0.86424120395E+03  0.46999998093E+01 0. -1.
</event>
<event>
 5   0  0.1204741E-04  0.1634671E+04  0.7818609E-02  0.8799527E-01
       -1   -1    0    0    0  501  0.00000000000E+00  0.00000000000E+00  0.70045651080E+03  0.70045651082E+03  0.50400001928E-02 0. -1.
        1   -1    0    0  501    0  0.00000000000E+00  0.00000000000E+00 -0.95371708429E+03  0.95371708430E+03  0.50400001928E-02 0.  1.
    10030    2    1    2    0    0  0.00000000000E+00  0.00000000000E+00 -0.25326057349E+03  0.16541735951E+04  0.16346710264E+04 0.  0.
        1    1    3    3  502    0 -0.87530769142E+02  0.78108557472E+03 -0.35353985226E+03  0.86182755685E+03  0.50400001928E-02 0.  1.
       -1    1    3    3    0  502  0.87530769142E+02 -0.78108557472E+03  0.10027927878E+03  0.79234603827E+03  0.50400001928E-02 0. -1.
</event>
<event>
 5   0  0.2288806E-04  0.1740310E+04  0.7818609E-02  0.8738702E-01
        2   -1    0    0  501    0  0.00000000000E+00  0.00000000000E+00  0.11051963708E+04  0.11051963708E+04  0.25500000920E-02 0.  1.
       -2   -1    0    0    0  501  0.00000000000E+00  0.00000000000E+00 -0.68509970515E+03  0.68509970515E+03  0.25500000920E-02 0. -1.
    10030    2    1    2    0    0  0.00000000000E+00  0.00000000000E+00  0.42009666566E+03  0.17902960760E+04  0.17403099813E+04 0.  0.
        3    1    3    3  502    0 -0.36800189019E+03 -0.49336739681E+03  0.84280293687E+03  0.10436252105E+04  0.10100000352E+00 0.  1.
       -3    1    3    3    0  502  0.36800189019E+03  0.49336739681E+03 -0.42270627120E+03  0.74667086546E+03  0.10100000352E+00 0. -1.
</event>
<event>
 5   0  0.2242967E-04  0.1708052E+04  0.7818609E-02  0.8756785E-01
       -2   -1    0    0    0  501  0.00000000000E+00  0.00000000000E+00  0.52540679166E+03  0.52540679166E+03  0.25500000920E-02 0.  1.
        2   -1    0    0  501    0  0.00000000000E+00  0.00000000000E+00 -0.13881820606E+04  0.13881820606E+04  0.25500000920E-02 0. -1.
    10030    2    1    2    0    0  0.00000000000E+00  0.00000000000E+00 -0.86277526896E+03  0.19135888523E+04  0.17080518525E+04 0.  0.
        4    1    3    3  502    0 -0.35737277690E+03  0.74567893510E+03 -0.19213321300E+03  0.84892235237E+03  0.12699999809E+01 0. -1.
       -4    1    3    3    0  502  0.35737277690E+03 -0.74567893510E+03 -0.67064205596E+03  0.10646664999E+04  0.12699999809E+01 0.  1.
</event>
<event>
 5   0  0.2242967E-04  0.1697340E+04  0.7818609E-02  0.8762883E-01
       -2   -1    0    0    0  501  0.00000000000E+00  0.00000000000E+00  0.59968115549E+03  0.59968115549E+03  0.25500000920E-02 0. -1.
        2   -1    0    0  501    0  0.00000000000E+00  0.00000000000E+00 -0.12010399639E+04  0.12010399639E+04  0.25500000920E-02 0.  1.
    10030    2    1    2    0    0  0.00000000000E+00  0.00000000000E+00 -0.60135880845E+03  0.18007211194E+04  0.16973403116E+04 0.  0.
        4    1    3    3  502    0  0.29765860080E+03  0.11844706803E+03 -0.11344265592E+04  0.11787941218E+04  0.12699999809E+01 0.  1.
       -4    1    3    3    0  502 -0.29765860080E+03 -0.11844706803E+03  0.53306775075E+03  0.62192699760E+03  0.12699999809E+01 0. -1.
</event>
<event>
 5   0  0.1186302E-04  0.1686603E+04  0.7818609E-02  0.8769042E-01
        1   -1    0    0  501    0  0.00000000000E+00  0.00000000000E+00  0.39897762042E+03  0.39897762045E+03  0.50400001928E-02 0.  1.
       -1   -1    0    0    0  501  0.00000000000E+00  0.00000000000E+00 -0.17824503719E+04  0.17824503719E+04  0.50400001928E-02 0. -1.
    10030    2    1    2    0    0  0.00000000000E+00  0.00000000000E+00 -0.13834727515E+04  0.21814279923E+04  0.16866034601E+04 0.  0.
        3    1    3    3  502    0 -0.47145964287E+03 -0.66535027215E+03 -0.96971678135E+03  0.12670105863E+04  0.10100000352E+00 0. -1.
       -3    1    3    3    0  502  0.47145964287E+03  0.66535027215E+03 -0.41375597010E+03  0.91441740605E+03  0.10100000352E+00 0.  1.
</event>
<event>
 5   0  0.1186302E-04  0.1691146E+04  0.7818609E-02  0.8766430E-01
        1   -1    0    0  501    0  0.00000000000E+00  0.00000000000E+00  0.71044008508E+03  0.71044008510E+03  0.50400001928E-02 0. -1.
       -1   -1    0    0    0  501  0.00000000000E+00  0.00000000000E+00 -0.10064099678E+04  0.10064099679E+04  0.50400001928E-02 0.  1.
    10030    2    1    2    0    0  0.00000000000E+00  0.00000000000E+00 -0.29596988276E+03  0.17168500530E+04  0.16911463369E+04 0.  0.
        3    1    3    3  502    0 -0.26627148841E+03  0.75974955031E+03 -0.41051565195E+03  0.90368301712E+03  0.10100000352E+00 0.  1.
       -3    1    3    3    0  502  0.26627148841E+03 -0.75974955031E+03  0.11454576919E+03  0.81316703584E+03  0.10100000352E+00 0. -1.
</event>
<event>
 5   0  0.1204741E-04  0.1690139E+04  0.7818609E-02  0.8767008E-01
       -1   -1    0    0    0  501  0.00000000000E+00  0.00000000000E+00  0.30928174290E+03  0.30928174294E+03  0.50400001928E-02 0.  1.
        1   -1    0    0  501    0  0.00000000000E+00  0.00000000000E+00 -0.23090356665E+04  0.23090356665E+04  0.50400001928E-02 0. -1.
    10030    2    1    2    0    0  0.00000000000E+00  0.00000000000E+00 -0.19997539236E+04  0.26183174094E+04  0.16901391368E+04 0.  0.
        1    1    3    3  502    0 -0.60527776168E+03 -0.42105515742E+03 -0.16395445348E+04  0.17977082344E+04  0.50400001928E-02 0. -1.
       -1    1    3    3    0  502  0.60527776168E+03  0.42105515742E+03 -0.36020938880E+03  0.82060917505E+03  0.50400001928E-02 0.  1.
</event>
<event>
 5   0  0.1215233E-04  0.1709475E+04  0.7818609E-02  0.8755979E-01
       -1   -1    0    0    0  501  0.00000000000E+00  0.00000000000E+00  0.30309491214E+03  0.30309491218E+03  0.50400001928E-02 0. -1.
        1   -1    0    0  501    0  0.00000000000E+00  0.00000000000E+00 -0.24103868419E+04  0.24103868419E+04  0.50400001928E-02 0.  1.
    10030    2    1    2    0    0  0.00000000000E+00  0.00000000000E+00 -0.21072919297E+04  0.27134817540E+04  0.17094747592E+04 0.  0.
        2    1    3    3  502    0 -0.39699286971E+03  0.10001042925E+03  0.13734113239E+03  0.43181941968E+03  0.25500000920E-02 0. -1.
       -2    1    3    3    0  502  0.39699286971E+03 -0.10001042925E+03 -0.22446330621E+04  0.22816623344E+04  0.25500000920E-02 0.  1.
</event>
<event>
 5   0  0.2288806E-04  0.1696140E+04  0.7818609E-02  0.8763569E-01
        2   -1    0    0  501    0  0.00000000000E+00  0.00000000000E+00  0.23428406691E+04  0.23428406691E+04  0.25500000920E-02 0. -1.
       -2   -1    0    0    0  501  0.00000000000E+00  0.00000000000E+00 -0.30698752879E+03  0.30698752880E+03  0.25500000920E-02 0.  1.
    10030    2    1    2    0    0  0.00000000000E+00  0.00000000000E+00  0.20358531403E+04  0.26498281979E+04  0.16961401680E+04 0.  0.
        3    1    3    3  502    0 -0.22648250442E+03  0.51924126090E+03  0.20039118333E+04  0.20824429063E+04  0.10100000352E+00 0. -1.
       -3    1    3    3    0  502  0.22648250442E+03 -0.51924126090E+03  0.31941306925E+02  0.56738529160E+03  0.10100000352E+00 0.  1.
</event>
<event>
 5   0  0.2288806E-04  0.1654374E+04  0.7818609E-02  0.8787823E-01
       -2   -1    0    0    0  501  0.00000000000E+00  0.00000000000E+00  0.32714059774E+03  0.32714059775E+03  0.25500000920E-02 0. -1.
        2   -1    0    0  501    0  0.00000000000E+00  0.00000000000E+00 -0.20915720097E+04  0.20915720097E+04  0.25500000920E-02 0.  1.
    10030    2    1    2    0    0  0.00000000000E+00  0.00000000000E+00 -0.17644314120E+04  0.24187126075E+04  0.16543737395E+04 0.  0.
        3    1    3    3  502    0 -0.73851511043E+03 -0.35638871035E+03 -0.10411694935E+04  0.13253118145E+04  0.10100000352E+00 0.  1.
       -3    1    3    3    0  502  0.73851511043E+03  0.35638871035E+03 -0.72326191843E+03  0.10934007930E+04  0.10100000352E+00 0. -1.
</event>
<event>
 5   0  0.1186302E-04  0.1704812E+04  0.7818609E-02  0.8758625E-01
       -1   -1    0    0    0  501  0.00000000000E+00  0.00000000000E+00  0.79594876293E+03  0.79594876295E+03  0.50400001928E-02 0.  1.
        1   -1    0    0  501    0  0.00000000000E+00  0.00000000000E+00 -0.91286795929E+03  0.91286795931E+03  0.50400001928E-02 0. -1.
    10030    2    1    2    0    0  0.00000000000E+00  0.00000000000E+00 -0.11691919636E+03  0.17088167223E+04  0.17048121573E+04 0.  0.
        3    1    3    3  502    0  0.12745518061E+02  0.48955360567E+03  0.64086896923E+03  0.80655949997E+03  0.10100000352E+00 0.  1.
       -3    1    3    3    0  502 -0.12745518061E+02 -0.48955360567E+03 -0.75778816559E+03  0.90225722229E+03  0.10100000352E+00 0. -1.
</event>
<event>
 5   0  0.2224454E-04  0.1707635E+04  0.7818609E-02  0.8757022E-01
       -2   -1    0    0    0  501  0.00000000000E+00  0.00000000000E+00  0.43955406818E+03  0.43955406819E+03  0.25500000920E-02 0.  1.
        2   -1    0    0  501    0  0.00000000000E+00  0.00000000000E+00 -0.16585085978E+04  0.16585085978E+04  0.25500000920E-02 0. -1.
    10030    2    1    2    0    0  0.00000000000E+00  0.00000000000E+00 -0.12189545296E+04  0.20980626659E+04  0.17076348571E+04 0.  0.
        2    1    3    3  502    0 -0.84494369937E+03  0.10483883528E+03 -0.53096782154E+03  0.10034180903E+04  0.25500000920E-02 0.  1.
       -2    1    3    3    0  502  0.84494369937E+03 -0.10483883528E+03 -0.68798670803E+03  0.10946445756E+04  0.25500000920E-02 0. -1.
</event>
<event>
 5   0  0.2234723E-04  0.1702310E+04  0.7818609E-02  0.8760048E-01
        2   -1    0    0  501    0  0.00000000000E+00  0.00000000000E+00  0.17776378464E+04  0.17776378464E+04  0.25500000920E-02 0. -1.
       -2   -1    0    0    0  501  0.00000000000E+00  0.00000000000E+00 -0.40754358583E+03  0.40754358584E+03  0.25500000920E-02 0.  1.
    10030    2    1    2    0    0  0.00000000000E+00  0.00000000000E+00  0.13700942606E+04  0.21851814322E+04  0.17023100801E+04 0.  0.
        1    1    3    3  502    0  0.70039629132E+03  0.39192878462E+03  0.10488041446E+04  0.13206639508E+04  0.50400001928E-02 0. -1.
       -1    1    3    3    0  502 -0.70039629132E+03 -0.39192878462E+03  0.32129011596E+03  0.86451748146E+03  0.50400001928E-02 0.  1.
</event>
<event>
 5   0  0.2242967E-04  0.1707412E+04  0.7818609E-02  0.8757148E-01
        2   -1    0    0  501    0  0.00000000000E+00  0.00000000000E+00  0.10284933625E+04  0.10284933625E+04  0.25500000920E-02 0.  1.
       -2   -1    0    0    0  501  0.00000000000E+00  0.00000000000E+00 -0.70862276903E+03  0.70862276903E+03  0.25500000920E-02 0. -1.
    10030    2    1    2    0    0  0.00000000000E+00  0.00000000000E+00  0.31987059343E+03  0.17371161315E+04  0.17074118594E+04 0.  0.
        4    1    3    3  502    0 -0.26342852694E+02 -0.83649090668E+03  0.33139380765E+03  0.90013024140E+03  0.12699999809E+01 0.  1.
       -4    1    3    3    0  502  0.26342852694E+02  0.83649090668E+03 -0.11523214224E+02  0.83698589009E+03  0.12699999809E+01 0. -1.
</event>
<event>
 5   0  0.1234158E-04  0.1696515E+04  0.7818609E-02  0.8763354E-01
        1   -1    0    0  501    0  0.00000000000E+00  0.00000000000E+00  0.13371182551E+04  0.13371182551E+04  0.50400001928E-02 0.  1.
       -1   -1    0    0    0  501  0.00000000000E+00  0.00000000000E+00 -0.53812815175E+03  0.53812815178E+03  0.50400001928E-02 0. -1.
    10030    2    1    2    0    0  0.00000000000E+00  0.00000000000E+00  0.79899010335E+03  0.18752464069E+04  0.16965152228E+04 0.  0.
        5    1    3    3  502    0 -0.61412868706E+03  0.57475708912E+03  0.27831333806E+03  0.88599106085E+03  0.46999998093E+01 0. -1.
       -5    1    3    3    0  502  0.61412868706E+03 -0.57475708912E+03  0.52067676529E+03  0.98925534604E+03  0.46999998093E+01 0.  1.
</event>
<event>
 5   0  0.2234723E-04  0.1706126E+04  0.7818609E-02  0.8757878E-01
        2   -1    0    0  501    0  0.00000000000E+00  0.00000000000E+00  0.24383254768E+04  0.24383254768E+04  0.25500000920E-02 0.  1.
       -2   -1    0    0    0  501  0.00000000000E+00  0.00000000000E+00 -0.29844940397E+03  0.29844940398E+03  0.25500000920E-02 0. -1.
    10030    2    1    2    0    0  0.00000000000E+00  0.00000000000E+00  0.21398760729E+04  0.27367748808E+04  0.17061263555E+04 0.  0.
        1    1    3    3  502    0  0.30816984646E+03  0.76055824633E+03  0.69615039482E+03  0.10761240043E+04  0.50400001928E-02 0. -1.
       -1    1    3    3    0  502 -0.30816984646E+03 -0.76055824633E+03  0.14437256780E+04  0.16606508765E+04  0.50400001928E-02 0.  1.
</event>
<event>
 5   0  0.2288806E-04  0.1682444E+04  0.7818609E-02  0.8771441E-01
       -2   -1    0    0    0  501  0.00000000000E+00  0.00000000000E+00  0.75067924662E+03  0.75067924663E+03  0.25500000920E-02 0.  1.
        2   -1    0    0  501    0  0.00000000000E+00  0.00000000000E+00 -0.94268552451E+03  0.94268552451E+03  0.25500000920E-02 0. -1.
    10030    2    1    2    0    0  0.00000000000E+00  0.00000000000E+00 -0.19200627789E+03  0.16933647711E+04  0.16824440072E+04 0.  0.
        3    1    3    3  502    0 -0.42452875094E+03  0.24085703279E+03 -0.78559102168E+03  0.92487298272E+03  0.10100000352E+00 0. -1.
       -3    1    3    3    0  502  0.42452875094E+03 -0.24085703279E+03  0.59358474379E+03  0.76849178842E+03  0.10100000352E+00 0.  1.
</event>
<event>
 5   0  0.1126958E-04  0.1692688E+04  0.7818609E-02  0.8765545E-01
        1   -1    0    0  501    0  0.00000000000E+00  0.00000000000E+00  0.13748755337E+04  0.13748755337E+04  0.50400001928E-02 0.  1.
       -1   -1    0    0    0  501  0.00000000000E+00  0.00000000000E+00 -0.52099153362E+03  0.52099153364E+03  0.50400001928E-02 0. -1.
    10030    2    1    2    0    0  0.00000000000E+00  0.00000000000E+00  0.85388400009E+03  0.18958670674E+04  0.16926884094E+04 0.  0.
        4    1    3    3  502    0  0.25491929160E+03  0.32158095409E+03 -0.40210855598E+03  0.57453551583E+03  0.12699999809E+01 0. -1.
       -4    1    3    3    0  502 -0.25491929160E+03 -0.32158095409E+03  0.12559925561E+04  0.13213315515E+04  0.12699999809E+01 0.  1.
</event>
<event>
 5   0  0.2356829E-04  0.1700736E+04  0.7818609E-02  0.8760945E-01
       -2   -1    0    0    0  501  0.00000000000E+00  0.00000000000E+00  0.10028115679E+04  0.10028115679E+04  0.25500000920E-02 0. -1.
        2   -1    0    0  501    0  0.00000000000E+00  0.00000000000E+00 -0.72109803362E+03  0.72109803363E+03  0.25500000920E-02 0.  1.
    10030    2    1    2    0    0  0.00000000000E+00  0.00000000000E+00  0.28171353426E+03  0.17239096015E+04  0.17007356640E+04 0.  0.
        5    1    3    3  502    0 -0.20340516433E+03 -0.70905952044E+03  0.56966278044E+03  0.93202834604E+03  0.46999998093E+01 0.  1.
       -5    1    3    3    0  502  0.20340516433E+03  0.70905952044E+03 -0.28794924618E+03  0.79188125548E+03  0.46999998093E+01 0. -1.
</event>
<event>
 5   0  0.2224454E-04  0.1740677E+04  0.7818609E-02  0.8738499E-01
       -2   -1    0    0    0  501  0.00000000000E+00  0.00000000000E+00  0.60047997482E+03  0.60047997483E+03  0.25500000920E-02 0.  1.
        2   -1    0    0  501    0  0.00000000000E+00  0.00000000000E+00 -0.12614724146E+04  0.12614724146E+04  0.25500000920E-02 0. -1.
    10030    2    1    2    0    0  0.00000000000E+00  0.00000000000E+00 -0.66099243978E+03  0.18619523894E+04  0.17406767923E+04 0.  0.
        2    1    3    3  502    0 -0.15257582998E+03 -0.27269418949E+03  0.53840857499E+03  0.62251529982E+03  0.25500000920E-02 0.  1.
       -2    1    3    3    0  502  0.15257582998E+03  0.27269418949E+03 -0.11994010148E+04  0.12394370896E+04  0.25500000920E-02 0. -1.
</event>
<event>
 5   0  0.2224454E-04  0.1696007E+04  0.7818609E-02  0.8763645E-01
        2   -1    0    0  501    0  0.00000000000E+00  0.00000000000E+00  0.87230156232E+03  0.87230156232E+03  0.25500000920E-02 0.  1.
       -2   -1    0    0    0  501  0.00000000000E+00  0.00000000000E+00 -0.82438255533E+03  0.82438255534E+03  0.25500000920E-02 0. -1.
    10030    2    1    2    0    0  0.00000000000E+00  0.00000000000E+00  0.47919006983E+02  0.16966841177E+04  0.16960073007E+04 0.  0.
        2    1    3    3  502    0  0.78286019377E+03  0.30261187161E+03 -0.97192760130E+02  0.84492038705E+03  0.25500000920E-02 0.  1.
       -2    1    3    3    0  502 -0.78286019377E+03 -0.30261187161E+03  0.14511176711E+03  0.85176373061E+03  0.25500000920E-02 0. -1.
</event>
<event>
 5   0  0.1186302E-04  0.1697313E+04  0.7818609E-02  0.8762898E-01
       -1   -1    0    0    0  501  0.00000000000E+00  0.00000000000E+00  0.17061224359E+04  0.17061224359E+04  0.50400001928E-02 0.  1.
        1   -1    0    0  501    0  0.00000000000E+00  0.00000000000E+00 -0.42213724446E+03  0.42213724449E+03  0.50400001928E-02 0. -1.
    10030    2    1    2    0    0  0.00000000000E+00  0.00000000000E+00  0.12839851914E+04  0.21282596804E+04  0.16973129633E+04 0.  0.
        3    1    3    3  502    0  0.32314233994E+03  0.13413344797E+03  0.16114806955E+04  0.16490248015E+04  0.10100000352E+00 0.  1.
       -3    1    3    3    0  502 -0.32314233994E+03 -0.13413344797E+03 -0.32749550409E+03  0.47923487888E+03  0.10100000352E+00 0. -1.
</event>
<event>
 5   0  0.1215233E-04  0.1692925E+04  0.7818609E-02  0.8765410E-01
       -1   -1    0    0    0  501  0.00000000000E+00  0.00000000000E+00  0.85640945361E+03  0.85640945362E+03  0.50400001928E-02 0.  1.
        1   -1    0    0  501    0  0.00000000000E+00  0.00000000000E+00 -0.83663061117E+03  0.83663061118E+03  0.50400001928E-02 0. -1.
    10030    2    1    2    0    0  0.00000000000E+00  0.00000000000E+00  0.19778842443E+02  0.16930400648E+04  0.16929245283E+04 0.  0.
        2    1    3    3  502    0 -0.30327960480E+03 -0.24909654990E+03 -0.74014226539E+03  0.83775783069E+03  0.25500000920E-02 0. -1.
       -2    1    3    3    0  502  0.30327960480E+03  0.24909654990E+03  0.75992110783E+03  0.85528223411E+03  0.25500000920E-02 0.  1.
</event>
<event>
 5   0  0.2234723E-04  0.1704252E+04  0.7818609E-02  0.8758943E-01
       -2   -1    0    0    0  501  0.00000000000E+00  0.00000000000E+00  0.63461355752E+03  0.63461355753E+03  0.25500000920E-02 0.  1.
        2   -1    0    0  501    0  0.00000000000E+00  0.00000000000E+00 -0.11441907666E+04  0.11441907666E+04  0.25500000920E-02 0. -1.
    10030    2    1    2    0    0  0.00000000000E+00  0.00000000000E+00 -0.50957720911E+03  0.17788043242E+04  0.17042522969E+04 0.  0.
        1    1    3    3  502    0  0.79980105322E+03 -0.92131459144E+02  0.36618194619E+02  0.80592234284E+03  0.50400001928E-02 0.  1.
       -1    1    3    3    0  502 -0.79980105322E+03  0.92131459144E+02 -0.54619540373E+03  0.97288198132E+03  0.50400001928E-02 0. -1.
</event>
<event>
 5   0  0.8372750E-05  0.1690944E+04  0.7818609E-02  0.8766546E-01
        4   -1    0    0  501    0  0.00000000000E+00  0.00000000000E+00  0.51959471072E+03  0.51959626279E+03  0.12699999809E+01 0.  1.
       -4   -1    0    0    0  501  0.00000000000E+00  0.00000000000E+00 -0.13757283093E+04  0.13757288955E+04  0.12699999809E+01 0. -1.
    10030    2    1    2    0    0  0.00000000000E+00  0.00000000000E+00 -0.85613359862E+03  0.18953251583E+04  0.16909443270E+04 0.  0.
        5    1    3    3  502    0  0.35434523373E+03 -0.52992786557E+03  0.19441058006E+03  0.66648454672E+03  0.46999998093E+01 0.  1.
       -5    1    3    3    0  502 -0.35434523373E+03  0.52992786557E+03 -0.10505441787E+04  0.12288406116E+04  0.46999998093E+01 0. -1.
</event>
<event>
 5   0  0.1234158E-04  0.1680509E+04  0.7818609E-02  0.8772560E-01
       -1   -1    0    0    0  501  0.00000000000E+00  0.00000000000E+00  0.36968866181E+03  0.36968866184E+03  0.50400001928E-02 0.  1.
        1   -1    0    0  501    0  0.00000000000E+00  0.00000000000E+00 -0.19097889769E+04  0.19097889770E+04  0.50400001928E-02 0. -1.
    10030    2    1    2    0    0  0.00000000000E+00  0.00000000000E+00 -0.15401003151E+04  0.22794776388E+04  0.16805086507E+04 0.  0.
        5    1    3    3  502    0 -0.53102952574E+03  0.49114535724E+03 -0.13499723884E+04  0.15315559600E+04  0.46999998093E+01 0. -1.
       -5    1    3    3    0  502  0.53102952574E+03 -0.49114535724E+03 -0.19012792678E+03  0.74792167885E+03  0.46999998093E+01 0.  1.
</event>
<event>
 5   0  0.2356829E-04  0.1705968E+04  0.7818609E-02  0.8757968E-01
        2   -1    0    0  501    0  0.00000000000E+00  0.00000000000E+00  0.67662611077E+03  0.67662611078E+03  0.25500000920E-02 0. -1.
       -2   -1    0    0    0  501  0.00000000000E+00  0.00000000000E+00 -0.10753078243E+04  0.10753078243E+04  0.25500000920E-02 0.  1.
    10030    2    1    2    0    0  0.00000000000E+00  0.00000000000E+00 -0.39868171350E+03  0.17519339350E+04  0.17059675859E+04 0.  0.
        5    1    3    3  502    0 -0.36864906603E+03  0.45288858006E+03 -0.83782374341E+03  0.10212643707E+04  0.46999998093E+01 0.  1.
       -5    1    3    3    0  502  0.36864906603E+03 -0.45288858006E+03  0.43914202992E+03  0.73066956435E+03  0.46999998093E+01 0. -1.
</event>
<event>
 5   0  0.1215233E-04  0.1650146E+04  0.7818609E-02  0.8790320E-01
        1   -1    0    0  501    0  0.00000000000E+00  0.00000000000E+00  0.89507258856E+03  0.89507258857E+03  0.50400001928E-02 0. -1.
       -1   -1    0    0    0  501  0.00000000000E+00  0.00000000000E+00 -0.76054735881E+03  0.76054735883E+03  0.50400001928E-02 0.  1.
    10030    2    1    2    0    0  0.00000000000E+00  0.00000000000E+00  0.13452522975E+03  0.16556199474E+04  0.16501455611E+04 0.  0.
        2    1    3    3  502    0 -0.38502113864E+03 -0.57346894905E+03  0.52002144845E+03  0.86459829955E+03  0.25500000920E-02 0. -1.
       -2    1    3    3    0  502  0.38502113864E+03  0.57346894905E+03 -0.38549621870E+03  0.79102164785E+03  0.25500000920E-02 0.  1.
</event>
<event>
 5   0  0.1186302E-04  0.1691646E+04  0.7818609E-02  0.8766143E-01
        1   -1    0    0  501    0  0.00000000000E+00  0.00000000000E+00  0.90966211092E+03  0.90966211093E+03  0.50400001928E-02 0. -1.
       -1   -1    0    0    0  501  0.00000000000E+00  0.00000000000E+00 -0.78646446818E+03  0.78646446819E+03  0.50400001928E-02 0.  1.
    10030    2    1    2    0    0  0.00000000000E+00  0.00000000000E+00  0.12319764274E+03  0.16961265791E+04  0.16916464504E+04 0.  0.
        3    1    3    3  502    0 -0.24574201948E+03  0.41467854080E+03  0.75847153614E+03  0.89868042911E+03  0.10100000352E+00 0. -1.
       -3    1    3    3    0  502  0.24574201948E+03 -0.41467854080E+03 -0.63527389340E+03  0.79744615001E+03  0.10100000352E+00 0.  1.
</event>
<event>
 5   0  0.1234158E-04  0.1657987E+04  0.7818609E-02  0.8785695E-01
        1   -1    0    0  501    0  0.00000000000E+00  0.00000000000E+00  0.13529043663E+04  0.13529043663E+04  0.50400001928E-02 0.  1.
       -1   -1    0    0    0  501  0.00000000000E+00  0.00000000000E+00 -0.50796660649E+03  0.50796660652E+03  0.50400001928E-02 0. -1.
    10030    2    1    2    0    0  0.00000000000E+00  0.00000000000E+00  0.84493775984E+03  0.18608709729E+04  0.16579870203E+04 0.  0.
        5    1    3    3  502    0  0.37821790602E+03  0.13847545157E+03 -0.39075127506E+03  0.56118881322E+03  0.46999998093E+01 0. -1.
       -5    1    3    3    0  502 -0.37821790602E+03 -0.13847545157E+03  0.12356890349E+04  0.12996821596E+04  0.46999998093E+01 0.  1.
</event>
<event>
 5   0  0.2224454E-04  0.1677920E+04  0.7818609E-02  0.8774058E-01
       -2   -1    0    0    0  501  0.00000000000E+00  0.00000000000E+00  0.13593286930E+04  0.13593286930E+04  0.25500000920E-02 0. -1.
        2   -1    0    0  501    0  0.00000000000E+00  0.00000000000E+00 -0.51779528165E+03  0.51779528166E+03  0.25500000920E-02 0.  1.
    10030    2    1    2    0    0  0.00000000000E+00  0.00000000000E+00  0.84153341134E+03  0.18771239746E+04  0.16779201214E+04 0.  0.
        2    1    3    3  502    0  0.30562032569E+03  0.87572208206E+02  0.12893301816E+04  0.13279476618E+04  0.25500000920E-02 0. -1.
       -2    1    3    3    0  502 -0.30562032569E+03 -0.87572208206E+02 -0.44779677030E+03  0.54917631287E+03  0.25500000920E-02 0.  1.
</event>
<event>
 5   0  0.2234723E-04  0.1701085E+04  0.7818609E-02  0.8760746E-01
       -2   -1    0    0    0  501  0.00000000000E+00  0.00000000000E+00  0.80654949100E+03  0.80654949101E+03  0.25500000920E-02 0.  1.
        2   -1    0    0  501    0  0.00000000000E+00  0.00000000000E+00 -0.89693462830E+03  0.89693462830E+03  0.25500000920E-02 0. -1.
    10030    2    1    2    0    0  0.00000000000E+00  0.00000000000E+00 -0.90385137293E+02  0.17034841193E+04  0.17010845575E+04 0.  0.
        1    1    3    3  502    0 -0.77882101050E+02 -0.67833350062E+03  0.46269166349E+03  0.82479423811E+03  0.50400001928E-02 0.  1.
       -1    1    3    3    0  502  0.77882101050E+02  0.67833350062E+03 -0.55307680078E+03  0.87868988120E+03  0.50400001928E-02 0. -1.
</event>
<event>
 5   0  0.1186302E-04  0.1682024E+04  0.7818609E-02  0.8771684E-01
        1   -1    0    0  501    0  0.00000000000E+00  0.00000000000E+00  0.17169941668E+04  0.17169941668E+04  0.50400001928E-02 0. -1.
       -1   -1    0    0    0  501  0.00000000000E+00  0.00000000000E+00 -0.41194151324E+03  0.41194151327E+03  0.50400001928E-02 0.  1.
    10030    2    1    2    0    0  0.00000000000E+00  0.00000000000E+00  0.13050526536E+04  0.21289356801E+04  0.16820239895E+04 0.  0.
        3    1    3    3  502    0  0.38616444687E+03 -0.32655322501E+03  0.15030355647E+04  0.15858360280E+04  0.10100000352E+00 0. -1.
       -3    1    3    3    0  502 -0.38616444687E+03  0.32655322501E+03 -0.19798291113E+03  0.54309965208E+03  0.10100000352E+00 0.  1.
</event>
<event>
 5   0  0.2234723E-04  0.1704594E+04  0.7818609E-02  0.8758748E-01
       -2   -1    0    0    0  501  0.00000000000E+00  0.00000000000E+00  0.85036278194E+03  0.85036278194E+03  0.25500000920E-02 0. -1.
        2   -1    0    0  501    0  0.00000000000E+00  0.00000000000E+00 -0.85423590697E+03  0.85423590697E+03  0.25500000920E-02 0.  1.
    10030    2    1    2    0    0  0.00000000000E+00  0.00000000000E+00 -0.38731250318E+01  0.17045986889E+04  0.17045942887E+04 0.  0.
        1    1    3    3  502    0  0.62064702562E+03  0.23096371673E+03 -0.53846702724E+03  0.85351842880E+03  0.50400001928E-02 0.  1.
       -1    1    3    3    0  502 -0.62064702562E+03 -0.23096371673E+03  0.53459390221E+03  0.85108026012E+03  0.50400001928E-02 0. -1.
</event>
<event>
 5   0  0.2234723E-04  0.1699786E+04  0.7818609E-02  0.8761487E-01
        2   -1    0    0  501    0  0.00000000000E+00  0.00000000000E+00  0.61722095809E+03  0.61722095810E+03  0.25500000920E-02 0.  1.
       -2   -1    0    0    0  501  0.00000000000E+00  0.00000000000E+00 -0.11702742781E+04  0.11702742781E+04  0.25500000920E-02 0. -1.
    10030    2    1    2    0    0  0.00000000000E+00  0.00000000000E+00 -0.55305331998E+03  0.17874952362E+04  0.16997856467E+04 0.  0.
        1    1    3    3  502    0  0.94234917632E+02  0.78003113577E+03 -0.61726631046E+03  0.99917290321E+03  0.50400001928E-02 0. -1.
       -1    1    3    3    0  502 -0.94234917632E+02 -0.78003113577E+03  0.64212990478E+02  0.78832233296E+03  0.50400001928E-02 0.  1.
</event>
<event>
 5   0  0.2356829E-04  0.1673363E+04  0.7818609E-02  0.8776704E-01
        2   -1    0    0  501    0  0.00000000000E+00  0.00000000000E+00  0.12633317640E+04  0.12633317640E+04  0.25500000920E-02 0.  1.
       -2   -1    0    0    0  501  0.00000000000E+00  0.00000000000E+00 -0.55411865184E+03  0.55411865185E+03  0.25500000920E-02 0. -1.
    10030    2    1    2    0    0  0.00000000000E+00  0.00000000000E+00  0.70921311219E+03  0.18174504159E+04  0.16733627149E+04 0.  0.
        5    1    3    3  502    0  0.78070405941E+03  0.28406425529E+03  0.46224775214E+03  0.95072940623E+03  0.46999998093E+01 0.  1.
       -5    1    3    3    0  502 -0.78070405941E+03 -0.28406425529E+03  0.24696536005E+03  0.86672100965E+03  0.46999998093E+01 0. -1.
</event>
<event>
 5   0  0.2234723E-04  0.1704794E+04  0.7818609E-02  0.8758635E-01
       -2   -1    0    0    0  501  0.00000000000E+00  0.00000000000E+00  0.14275946938E+04  0.14275946938E+04  0.25500000920E-02 0. -1.
        2   -1    0    0  501    0  0.00000000000E+00  0.00000000000E+00 -0.50895438668E+03  0.50895438669E+03  0.25500000920E-02 0.  1.
    10030    2    1    2    0    0  0.00000000000E+00  0.00000000000E+00  0.91864030708E+03  0.19365490804E+04  0.17047939251E+04 0.  0.
        1    1    3    3  502    0 -0.31232562678E+03  0.67776009502E+03 -0.85926803530E+01  0.74631084524E+03  0.50400001928E-02 0.  1.
       -1    1    3    3    0  502  0.31232562678E+03 -0.67776009502E+03  0.92723298743E+03  0.11902382352E+04  0.50400001928E-02 0. -1.
</event>
<event>
 5   0  0.1204741E-04  0.1697591E+04  0.7818609E-02  0.8762739E-01
        1   -1    0    0  501    0  0.00000000000E+00  0.00000000000E+00  0.53370141407E+03  0.53370141409E+03  0.50400001928E-02 0. -1.
       -1   -1    0    0    0  501  0.00000000000E+00  0.00000000000E+00 -0.13499194358E+04  0.13499194359E+04  0.50400001928E-02 0.  1.
    10030    2    1    2    0    0  0.00000000000E+00  0.00000000000E+00 -0.81621802178E+03  0.18836208499E+04  0.16975911308E+04 0.  0.
        1    1    3    3  502    0  0.76830184728E+03 -0.34138138337E+03 -0.27859176507E+03  0.88568750078E+03  0.50400001928E-02 0. -1.
       -1    1    3    3    0  502 -0.76830184728E+03  0.34138138337E+03 -0.53762625671E+03  0.99793334917E+03  0.50400001928E-02 0.  1.
</event>
<event>
 5   0  0.1204741E-04  0.1686448E+04  0.7818609E-02  0.8769131E-01
       -1   -1    0    0    0  501  0.00000000000E+00  0.00000000000E+00  0.80770975184E+03  0.80770975185E+03  0.50400001928E-02 0. -1.
        1   -1    0    0  501    0  0.00000000000E+00  0.00000000000E+00 -0.88030003506E+03  0.88030003507E+03  0.50400001928E-02 0.  1.
    10030    2    1    2    0    0  0.00000000000E+00  0.00000000000E+00 -0.72590283222E+02  0.16880097869E+04  0.16864482475E+04 0.  0.
        1    1    3    3  502    0 -0.43544304678E+03  0.56227858749E+03 -0.48976989781E+03  0.86350588288E+03  0.50400001928E-02 0.  1.
       -1    1    3    3    0  502  0.43544304678E+03 -0.56227858749E+03  0.41717961459E+03  0.82450390405E+03  0.50400001928E-02 0. -1.
</event>
<event>
 5   0  0.1204741E-04  0.1680256E+04  0.7818609E-02  0.8772706E-01
       -1   -1    0    0    0  501  0.00000000000E+00  0.00000000000E+00  0.77067384480E+03  0.77067384482E+03  0.50400001928E-02 0. -1.
        1   -1    0    0  501    0  0.00000000000E+00  0.00000000000E+00 -0.91584157309E+03  0.91584157310E+03  0.50400001928E-02 0.  1.
    10030    2    1    2    0    0  0.00000000000E+00  0.00000000000E+00 -0.14516772829E+03  0.16865154179E+04  0.16802561071E+04 0.  0.
        1    1    3    3  502    0  0.73396456947E+03  0.38384429109E+03 -0.21373031924E+03  0.85540696655E+03  0.50400001928E-02 0. -1.
       -1    1    3    3    0  502 -0.73396456947E+03 -0.38384429109E+03  0.68562590949E+02  0.83110845137E+03  0.50400001928E-02 0.  1.
</event>
<event>
 5   0  0.2356829E-04  0.1730596E+04  0.7818609E-02  0.8744104E-01
        2   -1    0    0  501    0  0.00000000000E+00  0.00000000000E+00  0.75498445004E+03  0.75498445004E+03  0.25500000920E-02 0.  1.
       -2   -1    0    0    0  501  0.00000000000E+00  0.00000000000E+00 -0.99172940053E+03  0.99172940054E+03  0.25500000920E-02 0. -1.
    10030    2    1    2    0    0  0.00000000000E+00  0.00000000000E+00 -0.23674495049E+03  0.17467138506E+04  0.17305955923E+04 0.  0.
        5    1    3    3  502    0 -0.55887564545E+03 -0.39789554419E+03  0.41384825530E+03  0.80122114274E+03  0.46999998093E+01 0.  1.
       -5    1    3    3    0  502  0.55887564545E+03  0.39789554419E+03 -0.65059320579E+03  0.94549270784E+03  0.46999998093E+01 0. -1.
</event>
<event>
 5   0  0.2234723E-04  0.1714389E+04  0.7818609E-02  0.8753200E-01
       -2   -1    0    0    0  501  0.00000000000E+00  0.00000000000E+00  0.11467740903E+04  0.11467740903E+04  0.25500000920E-02 0. -1.
        2   -1    0    0  501    0  0.00000000000E+00  0.00000000000E+00 -0.64073864603E+03  0.64073864603E+03  0.25500000920E-02 0.  1.
    10030    2    1    2    0    0  0.00000000000E+00  0.00000000000E+00  0.50603544425E+03  0.17875127363E+04  0.17143890783E+04 0.  0.
        1    1    3    3  502    0  0.53548011143E+03  0.23018742424E+02 -0.44448017806E+03  0.69629838500E+03  0.50400001928E-02 0.  1.
       -1    1    3    3    0  502 -0.53548011143E+03 -0.23018742424E+02  0.95051562230E+03  0.10912143513E+04  0.50400001928E-02 0. -1.
</event>
<event>
 5   0  0.1234158E-04  0.1690149E+04  0.7818609E-02  0.8767003E-01
        1   -1    0    0  501    0  0.00000000000E+00  0.00000000000E+00  0.14416784674E+04  0.14416784674E+04  0.50400001928E-02 0. -1.
       -1   -1    0    0    0  501  0.00000000000E+00  0.00000000000E+00 -0.49536064772E+03  0.49536064774E+03  0.50400001928E-02 0.  1.
    10030    2    1    2    0    0  0.00000000000E+00  0.00000000000E+00  0.94631781971E+03  0.19370391152E+04  0.16901488449E+04 0.  0.
        5    1    3    3  502    0 -0.40090198192E+03 -0.30750948760E+03  0.12494883635E+04  0.13477862385E+04  0.46999998093E+01 0. -1.
       -5    1    3    3    0  502  0.40090198192E+03  0.30750948760E+03 -0.30317054381E+03  0.58925287670E+03  0.46999998093E+01 0.  1.
</event>
<event>
 5   0  0.1186302E-04  0.1663814E+04  0.7818609E-02  0.8782276E-01
       -1   -1    0    0    0  501  0.00000000000E+00  0.00000000000E+00  0.35414315709E+03  0.35414315713E+03  0.50400001928E-02 0. -1.
        1   -1    0    0  501    0  0.00000000000E+00  0.00000000000E+00 -0.19542070551E+04  0.19542070551E+04  0.50400001928E-02 0.  1.
    10030    2    1    2    0    0  0.00000000000E+00  0.00000000000E+00 -0.16000638980E+04  0.23083502122E+04  0.16638137590E+04 0.  0.
        3    1    3    3  502    0 -0.38757910690E+03 -0.52349684430E+03 -0.15179986954E+04  0.16518433823E+04  0.10100000352E+00 0.  1.
       -3    1    3    3    0  502  0.38757910690E+03  0.52349684430E+03 -0.82065202579E+02  0.65650682995E+03  0.10100000352E+00 0. -1.
</event>
<event>
 5   0  0.2234723E-04  0.1702660E+04  0.7818609E-02  0.8759849E-01
       -2   -1    0    0    0  501  0.00000000000E+00  0.00000000000E+00  0.49340456545E+03  0.49340456546E+03  0.25500000920E-02 0. -1.
        2   -1    0    0  501    0  0.00000000000E+00  0.00000000000E+00 -0.14689020902E+04  0.14689020902E+04  0.25500000920E-02 0.  1.
    10030    2    1    2    0    0  0.00000000000E+00  0.00000000000E+00 -0.97549752472E+03  0.19623066556E+04  0.17026602685E+04 0.  0.
        1    1    3    3  502    0  0.83162087315E+03  0.28435703282E+02 -0.28042421558E+03  0.87808860976E+03  0.50400001928E-02 0. -1.
       -1    1    3    3    0  502 -0.83162087315E+03 -0.28435703282E+02 -0.69507330915E+03  0.10842180459E+04  0.50400001928E-02 0.  1.
</event>
<event>
 5   0  0.1204741E-04  0.1722282E+04  0.7818609E-02  0.8748757E-01
       -1   -1    0    0    0  501  0.00000000000E+00  0.00000000000E+00  0.14970198030E+04  0.14970198030E+04  0.50400001928E-02 0. -1.
        1   -1    0    0  501    0  0.00000000000E+00  0.00000000000E+00 -0.49536015247E+03  0.49536015249E+03  0.50400001928E-02 0.  1.
    10030    2    1    2    0    0  0.00000000000E+00  0.00000000000E+00  0.10016596506E+04  0.19923799555E+04  0.17222821580E+04 0.  0.
        1    1    3    3  502    0  0.10761957139E+03  0.66886031044E+03  0.11158084032E+04  0.13053675650E+04  0.50400001928E-02 0. -1.
       -1    1    3    3    0  502 -0.10761957139E+03 -0.66886031044E+03 -0.11414875262E+03  0.68701239056E+03  0.50400001928E-02 0.  1.
</event>
<event>
 5   0  0.1215233E-04  0.1698456E+04  0.7818609E-02  0.8762245E-01
        1   -1    0    0  501    0  0.00000000000E+00  0.00000000000E+00  0.11009002626E+04  0.11009002626E+04  0.50400001928E-02 0. -1.
       -1   -1    0    0    0  501  0.00000000000E+00  0.00000000000E+00 -0.65508943294E+03  0.65508943296E+03  0.50400001928E-02 0.  1.
    10030    2    1    2    0    0  0.00000000000E+00  0.00000000000E+00  0.44581082969E+03  0.17559896956E+04  0.16984559209E+04 0.  0.
        2    1    3    3  502    0 -0.33816416603E+03 -0.65546513372E+03 -0.21230352354E+03  0.76750396144E+03  0.25500000920E-02 0.  1.
       -2    1    3    3    0  502  0.33816416603E+03  0.65546513372E+03  0.65811435323E+03  0.98848573416E+03  0.25500000920E-02 0. -1.
</event>
<event>
 5   0  0.1126958E-04  0.1706409E+04  0.7818609E-02  0.8757718E-01
        1   -1    0    0  501    0  0.00000000000E+00  0.00000000000E+00  0.58190581287E+03  0.58190581289E+03  0.50400001928E-02 0. -1.
       -1   -1    0    0    0  501  0.00000000000E+00  0.00000000000E+00 -0.12509889495E+04  0.12509889495E+04  0.50400001928E-02 0.  1.
    10030    2    1    2    0    0  0.00000000000E+00  0.00000000000E+00 -0.66908313663E+03  0.18328947624E+04  0.17064087923E+04 0.  0.
        4    1    3    3  502    0 -0.24247061900E+01  0.85245201919E+03 -0.37290756682E+03  0.93045257296E+03  0.12699999809E+01 0.  1.
       -4    1    3    3    0  502  0.24247061900E+01 -0.85245201919E+03 -0.29617556981E+03  0.90244218944E+03  0.12699999809E+01 0. -1.
</event>
<event>
 5   0  0.1126958E-04  0.1693164E+04  0.7818609E-02  0.8765273E-01
        1   -1    0    0  501    0  0.00000000000E+00  0.00000000000E+00  0.99550253722E+03  0.99550253723E+03  0.50400001928E-02 0. -1.
       -1   -1    0    0    0  501  0.00000000000E+00  0.00000000000E+00 -0.71993893674E+03  0.71993893676E+03  0.50400001928E-02 0.  1.
    10030    2    1    2    0    0  0.00000000000E+00  0.00000000000E+00  0.27556360048E+03  0.17154414740E+04  0.16931639474E+04 0.  0.
        4    1    3    3  502    0  0.28507542189E+03  0.43802315474E+03  0.81255306305E+03  0.96611405819E+03  0.12699999809E+01 0. -1.
       -4    1    3    3    0  502 -0.28507542189E+03 -0.43802315474E+03 -0.53698946257E+03  0.74932741580E+03  0.12699999809E+01 0.  1.
</event>
<event>
 5   0  0.1204741E-04  0.1656511E+04  0.7818609E-02  0.8786564E-01
        1   -1    0    0  501    0  0.00000000000E+00  0.00000000000E+00  0.10414440606E+04  0.10414440606E+04  0.50400001928E-02 0.  1.
       -1   -1    0    0    0  501  0.00000000000E+00  0.00000000000E+00 -0.65870726500E+03  0.65870726502E+03  0.50400001928E-02 0. -1.
    10030    2    1    2    0    0  0.00000000000E+00  0.00000000000E+00  0.38273679559E+03  0.17001513256E+04  0.16565105117E+04 0.  0.
        1    1    3    3  502    0  0.14033944379E+03 -0.73693408034E+03 -0.16893538589E+03  0.76896434435E+03  0.50400001928E-02 0. -1.
       -1    1    3    3    0  502 -0.14033944379E+03  0.73693408034E+03  0.55167218148E+03  0.93118698127E+03  0.50400001928E-02 0.  1.
</event>
<event>
 5   0  0.1186302E-04  0.1698509E+04  0.7818609E-02  0.8762215E-01
        1   -1    0    0  501    0  0.00000000000E+00  0.00000000000E+00  0.67003594316E+03  0.67003594318E+03  0.50400001928E-02 0. -1.
       -1   -1    0    0    0  501  0.00000000000E+00  0.00000000000E+00 -0.10764102905E+04  0.10764102905E+04  0.50400001928E-02 0.  1.
    10030    2    1    2    0    0  0.00000000000E+00  0.00000000000E+00 -0.40637434736E+03  0.17464462337E+04  0.16985094457E+04 0.  0.
        3    1    3    3  502    0  0.22277191150E+02  0.55852673605E+03  0.45422058912E+03  0.72025324845E+03  0.10100000352E+00 0. -1.
       -3    1    3    3    0  502 -0.22277191150E+02 -0.55852673605E+03 -0.86059493648E+03  0.10261929853E+04  0.10100000352E+00 0.  1.
</event>
<event>
 5   0  0.1126958E-04  0.1720436E+04  0.7818609E-02  0.8749794E-01
       -1   -1    0    0    0  501  0.00000000000E+00  0.00000000000E+00  0.67332023128E+03  0.67332023130E+03  0.50400001928E-02 0.  1.
        1   -1    0    0  501    0  0.00000000000E+00  0.00000000000E+00 -0.10989940075E+04  0.10989940076E+04  0.50400001928E-02 0. -1.
    10030    2    1    2    0    0  0.00000000000E+00  0.00000000000E+00 -0.42567377626E+03  0.17723142388E+04  0.17204358743E+04 0.  0.
        4    1    3    3  502    0  0.11309587524E+02  0.13671358408E+03 -0.10876524072E+04  0.10962699862E+04  0.12699999809E+01 0. -1.
       -4    1    3    3    0  502 -0.11309587524E+02 -0.13671358408E+03  0.66197863093E+03  0.67604425266E+03  0.12699999809E+01 0.  1.
</event>
<event>
 5   0  0.2288806E-04  0.1712755E+04  0.7818609E-02  0.8754123E-01
       -2   -1    0    0    0  501  0.00000000000E+00  0.00000000000E+00  0.79598371351E+03  0.79598371352E+03  0.25500000920E-02 0. -1.
        2   -1    0    0  501    0  0.00000000000E+00  0.00000000000E+00 -0.92135369128E+03  0.92135369129E+03  0.25500000920E-02 0.  1.
    10030    2    1    2    0    0  0.00000000000E+00  0.00000000000E+00 -0.12536997777E+03  0.17173374048E+04  0.17127551286E+04 0.  0.
        3    1    3    3  502    0 -0.61852370509E+03 -0.26127835122E+03  0.47028632760E+03  0.81976044715E+03  0.10100000352E+00 0. -1.
       -3    1    3    3    0  502  0.61852370509E+03  0.26127835122E+03 -0.59565630537E+03  0.89757695765E+03  0.10100000352E+00 0.  1.
</event>
<event>
 5   0  0.1215233E-04  0.1890013E+04  0.7818609E-02  0.8659844E-01
       -1   -1    0    0    0  501  0.00000000000E+00  0.00000000000E+00  0.63801292860E+03  0.63801292862E+03  0.50400001928E-02 0.  1.
        1   -1    0    0  501    0  0.00000000000E+00  0.00000000000E+00 -0.13997165934E+04  0.13997165934E+04  0.50400001928E-02 0. -1.
    10030    2    1    2    0    0  0.00000000000E+00  0.00000000000E+00 -0.76170366480E+03  0.20377295220E+04  0.18900129978E+04 0.  0.
        2    1    3    3  502    0  0.93049412870E+02  0.93254025174E+03 -0.24992010296E+03  0.96992245681E+03  0.25500000920E-02 0. -1.
       -2    1    3    3    0  502 -0.93049412870E+02 -0.93254025174E+03 -0.51178356184E+03  0.10678070652E+04  0.25500000920E-02 0.  1.
</event>
<event>
 5   0  0.1186302E-04  0.1725296E+04  0.7818609E-02  0.8747067E-01
       -1   -1    0    0    0  501  0.00000000000E+00  0.00000000000E+00  0.15010997746E+04  0.15010997746E+04  0.50400001928E-02 0. -1.
        1   -1    0    0  501    0  0.00000000000E+00  0.00000000000E+00 -0.49574441373E+03  0.49574441376E+03  0.50400001928E-02 0.  1.
    10030    2    1    2    0    0  0.00000000000E+00  0.00000000000E+00  0.10053553609E+04  0.19968441884E+04  0.17252962966E+04 0.  0.
        3    1    3    3  502    0 -0.54905178971E+03  0.64496143194E+03  0.69189871633E+03  0.10936896088E+04  0.10100000352E+00 0.  1.
       -3    1    3    3    0  502  0.54905178971E+03 -0.64496143194E+03  0.31345664457E+03  0.90315457963E+03  0.10100000352E+00 0. -1.
</event>
<event>
 5   0  0.1215233E-04  0.1659951E+04  0.7818609E-02  0.8784541E-01
       -1   -1    0    0    0  501  0.00000000000E+00  0.00000000000E+00  0.45107699250E+03  0.45107699253E+03  0.50400001928E-02 0. -1.
        1   -1    0    0  501    0  0.00000000000E+00  0.00000000000E+00 -0.15271437483E+04  0.15271437483E+04  0.50400001928E-02 0.  1.
    10030    2    1    2    0    0  0.00000000000E+00  0.00000000000E+00 -0.10760667558E+04  0.19782207408E+04  0.16599510946E+04 0.  0.
        2    1    3    3  502    0 -0.22372450750E+03 -0.56710693566E+03  0.13315377589E+03  0.62401350929E+03  0.25500000920E-02 0. -1.
       -2    1    3    3    0  502  0.22372450750E+03  0.56710693566E+03 -0.12092205317E+04  0.13542072316E+04  0.25500000920E-02 0.  1.
</event>
<event>
 5   0  0.2234723E-04  0.1704624E+04  0.7818609E-02  0.8758731E-01
       -2   -1    0    0    0  501  0.00000000000E+00  0.00000000000E+00  0.43964409177E+03  0.43964409178E+03  0.25500000920E-02 0.  1.
        2   -1    0    0  501    0  0.00000000000E+00  0.00000000000E+00 -0.16523274790E+04  0.16523274790E+04  0.25500000920E-02 0. -1.
    10030    2    1    2    0    0  0.00000000000E+00  0.00000000000E+00 -0.12126833872E+04  0.20919715708E+04  0.17046243150E+04 0.  0.
        1    1    3    3  502    0  0.69383101997E+02 -0.26323433098E+02 -0.16483552523E+04  0.16500248409E+04  0.50400001928E-02 0. -1.
       -1    1    3    3    0  502 -0.69383101997E+02  0.26323433098E+02  0.43567186506E+03  0.44194672983E+03  0.50400001928E-02 0.  1.
</event>
<event>
 5   0  0.1204741E-04  0.1696288E+04  0.7818609E-02  0.8763484E-01
        1   -1    0    0  501    0  0.00000000000E+00  0.00000000000E+00  0.68865007415E+03  0.68865007417E+03  0.50400001928E-02 0.  1.
       -1   -1    0    0    0  501  0.00000000000E+00  0.00000000000E+00 -0.10445770620E+04  0.10445770621E+04  0.50400001928E-02 0. -1.
    10030    2    1    2    0    0  0.00000000000E+00  0.00000000000E+00 -0.35592698789E+03  0.17332271362E+04  0.16962877955E+04 0.  0.
        1    1    3    3  502    0  0.48195312144E+03  0.20304614839E+03  0.50429067581E+03  0.72650921218E+03  0.50400001928E-02 0.  1.
       -1    1    3    3    0  502 -0.48195312144E+03 -0.20304614839E+03 -0.86021766369E+03  0.10067179241E+04  0.50400001928E-02 0. -1.
</event>
<event>
 5   0  0.2224454E-04  0.1702717E+04  0.7818609E-02  0.8759816E-01
       -2   -1    0    0    0  501  0.00000000000E+00  0.00000000000E+00  0.25708183782E+04  0.25708183782E+04  0.25500000920E-02 0.  1.
        2   -1    0    0  501    0  0.00000000000E+00  0.00000000000E+00 -0.28193799079E+03  0.28193799080E+03  0.25500000920E-02 0. -1.
    10030    2    1    2    0    0  0.00000000000E+00  0.00000000000E+00  0.22888803874E+04  0.28527563690E+04  0.17027170854E+04 0.  0.
        2    1    3    3  502    0  0.31844988112E+03  0.24904792629E+03  0.23997449580E+04  0.24335593397E+04  0.25500000920E-02 0.  1.
       -2    1    3    3    0  502 -0.31844988112E+03 -0.24904792629E+03 -0.11086457058E+03  0.41919702932E+03  0.25500000920E-02 0. -1.
</event>
<event>
 5   0  0.8372750E-05  0.1696775E+04  0.7818609E-02  0.8763206E-01
       -3   -1    0    0    0  501  0.00000000000E+00  0.00000000000E+00  0.34439393128E+03  0.34439394609E+03  0.10100000352E+00 0.  1.
        3   -1    0    0  501    0  0.00000000000E+00  0.00000000000E+00 -0.20899349301E+04  0.20899349325E+04  0.10100000352E+00 0. -1.
    10030    2    1    2    0    0  0.00000000000E+00  0.00000000000E+00 -0.17455409988E+04  0.24343288786E+04  0.16967745020E+04 0.  0.
        2    1    3    3  502    0 -0.39573404766E+03 -0.74334838875E+03 -0.10204008696E+04  0.13230231284E+04  0.25500000920E-02 0.  1.
       -2    1    3    3    0  502  0.39573404766E+03  0.74334838875E+03 -0.72514012919E+03  0.11113057502E+04  0.25500000920E-02 0. -1.
</event>
<event>
 5   0  0.1126958E-04  0.1701220E+04  0.7818609E-02  0.8760669E-01
       -1   -1    0    0    0  501  0.00000000000E+00  0.00000000000E+00  0.95004707083E+03  0.95004707085E+03  0.50400001928E-02 0. -1.
        1   -1    0    0  501    0  0.00000000000E+00  0.00000000000E+00 -0.76158025268E+03  0.76158025270E+03  0.50400001928E-02 0.  1.
    10030    2    1    2    0    0  0.00000000000E+00  0.00000000000E+00  0.18846681815E+03  0.17116273235E+04  0.17012196663E+04 0.  0.
        4    1    3    3  502    0  0.51293563747E+03 -0.63757294518E+03 -0.13942267770E+03  0.83008585373E+03  0.12699999809E+01 0. -1.
       -4    1    3    3    0  502 -0.51293563747E+03  0.63757294518E+03  0.32788949585E+03  0.88154146981E+03  0.12699999809E+01 0.  1.
</event>
<event>
 5   0  0.1186302E-04  0.1672580E+04  0.7818609E-02  0.8777159E-01
        1   -1    0    0  501    0  0.00000000000E+00  0.00000000000E+00  0.17521651403E+04  0.17521651403E+04  0.50400001928E-02 0. -1.
       -1   -1    0    0    0  501  0.00000000000E+00  0.00000000000E+00 -0.39915258700E+03  0.39915258703E+03  0.50400001928E-02 0.  1.
    10030    2    1    2    0    0  0.00000000000E+00  0.00000000000E+00  0.13530125533E+04  0.21513177274E+04  0.16725803403E+04 0.  0.
        3    1    3    3  502    0 -0.34941737481E+03  0.83327358742E+02 -0.29486777310E+03  0.46473967374E+03  0.10100000352E+00 0.  1.
       -3    1    3    3    0  502  0.34941737481E+03 -0.83327358742E+02  0.16478803264E+04  0.16865780536E+04  0.10100000352E+00 0. -1.
</event>
<event>
 5   0  0.2288806E-04  0.1706742E+04  0.7818609E-02  0.8757528E-01
        2   -1    0    0  501    0  0.00000000000E+00  0.00000000000E+00  0.11170060542E+04  0.11170060542E+04  0.25500000920E-02 0.  1.
       -2   -1    0    0    0  501  0.00000000000E+00  0.00000000000E+00 -0.65195909411E+03  0.65195909412E+03  0.25500000920E-02 0. -1.
    10030    2    1    2    0    0  0.00000000000E+00  0.00000000000E+00  0.46504696011E+03  0.17689651483E+04  0.17067422245E+04 0.  0.
        3    1    3    3  502    0  0.24535254738E+01  0.79569661705E+03 -0.87107394806E+02  0.80045414272E+03  0.10100000352E+00 0.  1.
       -3    1    3    3    0  502 -0.24535254738E+01 -0.79569661705E+03  0.55215435491E+03  0.96851100562E+03  0.10100000352E+00 0. -1.
</event>
<event>
 5   0  0.2242967E-04  0.1699175E+04  0.7818609E-02  0.8761835E-01
        2   -1    0    0  501    0  0.00000000000E+00  0.00000000000E+00  0.10224290103E+04  0.10224290103E+04  0.25500000920E-02 0. -1.
       -2   -1    0    0    0  501  0.00000000000E+00  0.00000000000E+00 -0.70596470444E+03  0.70596470445E+03  0.25500000920E-02 0.  1.
    10030    2    1    2    0    0  0.00000000000E+00  0.00000000000E+00  0.31646430589E+03  0.17283937148E+04  0.16991748516E+04 0.  0.
        4    1    3    3  502    0  0.23693404010E+03 -0.32830435894E+03 -0.60152242392E+03  0.72508780905E+03  0.12699999809E+01 0.  1.
       -4    1    3    3    0  502 -0.23693404010E+03  0.32830435894E+03  0.91798672981E+03  0.10033059057E+04  0.12699999809E+01 0. -1.
</event>
<event>
 5   0  0.1126958E-04  0.1683555E+04  0.7818609E-02  0.8770799E-01
        1   -1    0    0  501    0  0.00000000000E+00  0.00000000000E+00  0.46091491722E+03  0.46091491725E+03  0.50400001928E-02 0.  1.
       -1   -1    0    0    0  501  0.00000000000E+00  0.00000000000E+00 -0.15373546000E+04  0.15373546000E+04  0.50400001928E-02 0. -1.
    10030    2    1    2    0    0  0.00000000000E+00  0.00000000000E+00 -0.10764396828E+04  0.19982695173E+04  0.16835553668E+04 0.  0.
        4    1    3    3  502    0 -0.17212466443E+03  0.75501354645E+03 -0.92993637554E+03  0.12101469460E+04  0.12699999809E+01 0. -1.
       -4    1    3    3    0  502  0.17212466443E+03 -0.75501354645E+03 -0.14650330726E+03  0.78812257128E+03  0.12699999809E+01 0.  1.
</event>
<event>
 5   0  0.1234158E-04  0.1692251E+04  0.7818609E-02  0.8765796E-01
        1   -1    0    0  501    0  0.00000000000E+00  0.00000000000E+00  0.15458453167E+04  0.15458453168E+04  0.50400001928E-02 0.  1.
       -1   -1    0    0    0  501  0.00000000000E+00  0.00000000000E+00 -0.46313058320E+03  0.46313058323E+03  0.50400001928E-02 0. -1.
    10030    2    1    2    0    0  0.00000000000E+00  0.00000000000E+00  0.10827147335E+04  0.20089759000E+04  0.16922508598E+04 0.  0.
        5    1    3    3  502    0  0.56990388077E+03 -0.54367478158E+03  0.17442356708E+03  0.80673314807E+03  0.46999998093E+01 0. -1.
       -5    1    3    3    0  502 -0.56990388077E+03  0.54367478158E+03  0.90829116647E+03  0.12022427519E+04  0.46999998093E+01 0.  1.
</event>
<event>
 5   0  0.2288806E-04  0.1705305E+04  0.7818609E-02  0.8758344E-01
        2   -1    0    0  501    0  0.00000000000E+00  0.00000000000E+00  0.93191906920E+03  0.93191906921E+03  0.25500000920E-02 0. -1.
       -2   -1    0    0    0  501  0.00000000000E+00  0.00000000000E+00 -0.78012814699E+03  0.78012814700E+03  0.25500000920E-02 0.  1.
    10030    2    1    2    0    0  0.00000000000E+00  0.00000000000E+00  0.15179092221E+03  0.17120472162E+04  0.17053050127E+04 0.  0.
        3    1    3    3  502    0  0.75974004229E+03 -0.45578924455E+02  0.46177679793E+03  0.89023603135E+03  0.10100000352E+00 0.  1.
       -3    1    3    3    0  502 -0.75974004229E+03  0.45578924455E+02 -0.30998587572E+03  0.82181118486E+03  0.10100000352E+00 0. -1.
</event>
<event>
 5   0  0.1126958E-04  0.1697169E+04  0.7818609E-02  0.8762981E-01
        1   -1    0    0  501    0  0.00000000000E+00  0.00000000000E+00  0.11560666838E+04  0.11560666838E+04  0.50400001928E-02 0.  1.
       -1   -1    0    0    0  501  0.00000000000E+00  0.00000000000E+00 -0.62288385630E+03  0.62288385632E+03  0.50400001928E-02 0. -1.
    10030    2    1    2    0    0  0.00000000000E+00  0.00000000000E+00  0.53318282746E+03  0.17789505401E+04  0.16971685528E+04 0.  0.
        4    1    3    3  502    0  0.58115083613E+03  0.58745774951E+03  0.64286485160E+02  0.82884091771E+03  0.12699999809E+01 0. -1.
       -4    1    3    3    0  502 -0.58115083613E+03 -0.58745774951E+03  0.46889634230E+03  0.95010962237E+03  0.12699999809E+01 0.  1.
</event>
<event>
 5   0  0.2288806E-04  0.1708986E+04  0.7818609E-02  0.8756256E-01
       -2   -1    0    0    0  501  0.00000000000E+00  0.00000000000E+00  0.30037268209E+03  0.30037268210E+03  0.25500000920E-02 0.  1.
        2   -1    0    0  501    0  0.00000000000E+00  0.00000000000E+00 -0.24308397861E+04  0.24308397861E+04  0.25500000920E-02 0. -1.
    10030    2    1    2    0    0  0.00000000000E+00  0.00000000000E+00 -0.21304671041E+04  0.27312124682E+04  0.17089855076E+04 0.  0.
        3    1    3    3  502    0 -0.39798847539E+02  0.44391426091E+03 -0.22303637961E+04  0.22744596045E+04  0.10100000352E+00 0. -1.
       -3    1    3    3    0  502  0.39798847539E+02 -0.44391426091E+03  0.99896692009E+02  0.45675286379E+03  0.10100000352E+00 0.  1.
</event>
<event>
 5   0  0.1234158E-04  0.1705273E+04  0.7818609E-02  0.8758363E-01
        1   -1    0    0  501    0  0.00000000000E+00  0.00000000000E+00  0.93861337419E+03  0.93861337420E+03  0.50400001928E-02 0.  1.
       -1   -1    0    0    0  501  0.00000000000E+00  0.00000000000E+00 -0.77453483541E+03  0.77453483542E+03  0.50400001928E-02 0. -1.
    10030    2    1    2    0    0  0.00000000000E+00  0.00000000000E+00  0.16407853878E+03  0.17131482096E+04  0.17052727117E+04 0.  0.
        5    1    3    3  502    0  0.16876436548E+03  0.76352278752E+03  0.42348863834E+03  0.88927677071E+03  0.46999998093E+01 0.  1.
       -5    1    3    3    0  502 -0.16876436548E+03 -0.76352278752E+03 -0.25941009956E+03  0.82387143892E+03  0.46999998093E+01 0. -1.
</event>
<event>
 5   0  0.1215233E-04  0.1730140E+04  0.7818609E-02  0.8744359E-01
        1   -1    0    0  501    0  0.00000000000E+00  0.00000000000E+00  0.12555500088E+04  0.12555500088E+04  0.50400001928E-02 0.  1.
       -1   -1    0    0    0  501  0.00000000000E+00  0.00000000000E+00 -0.59603038825E+03  0.59603038827E+03  0.50400001928E-02 0. -1.
    10030    2    1    2    0    0  0.00000000000E+00  0.00000000000E+00  0.65951962058E+03  0.18515803971E+04  0.17301398316E+04 0.  0.
        2    1    3    3  502    0  0.86297683984E+02  0.95412944697E+02  0.12452550702E+04  0.12518830257E+04  0.25500000920E-02 0.  1.
       -2    1    3    3    0  502 -0.86297683984E+02 -0.95412944697E+02 -0.58573544962E+03  0.59969737136E+03  0.25500000920E-02 0. -1.
</event>
<event>
 5   0  0.2356829E-04  0.1641914E+04  0.7818609E-02  0.8795205E-01
       -2   -1    0    0    0  501  0.00000000000E+00  0.00000000000E+00  0.11340352639E+04  0.11340352639E+04  0.25500000920E-02 0.  1.
        2   -1    0    0  501    0  0.00000000000E+00  0.00000000000E+00 -0.59431145296E+03  0.59431145297E+03  0.25500000920E-02 0. -1.
    10030    2    1    2    0    0  0.00000000000E+00  0.00000000000E+00  0.53972381090E+03  0.17283467168E+04  0.16419136949E+04 0.  0.
        5    1    3    3  502    0 -0.75365989802E+03 -0.19198579417E+03  0.54654104176E+03  0.95057403045E+03  0.46999998093E+01 0.  1.
       -5    1    3    3    0  502  0.75365989802E+03  0.19198579417E+03 -0.68172308631E+01  0.77777268638E+03  0.46999998093E+01 0. -1.
</event>
<event>
 5   0  0.1204741E-04  0.1678724E+04  0.7818609E-02  0.8773593E-01
       -1   -1    0    0    0  501  0.00000000000E+00  0.00000000000E+00  0.90595491222E+03  0.90595491224E+03  0.50400001928E-02 0. -1.
        1   -1    0    0  501    0  0.00000000000E+00  0.00000000000E+00 -0.77766361493E+03  0.77766361494E+03  0.50400001928E-02 0.  1.
    10030    2    1    2    0    0  0.00000000000E+00  0.00000000000E+00  0.12829129730E+03  0.16836185272E+04  0.16787235294E+04 0.  0.
        1    1    3    3  502    0  0.60508494124E+03 -0.41164383148E+03  0.47637915175E+03  0.87322135014E+03  0.50400001928E-02 0. -1.
       -1    1    3    3    0  502 -0.60508494124E+03  0.41164383148E+03 -0.34808785445E+03  0.81039717703E+03  0.50400001928E-02 0.  1.
</event>
<event>
 5   0  0.1204741E-04  0.1690883E+04  0.7818609E-02  0.8766582E-01
        1   -1    0    0  501    0  0.00000000000E+00  0.00000000000E+00  0.88838532250E+03  0.88838532251E+03  0.50400001928E-02 0.  1.
       -1   -1    0    0    0  501  0.00000000000E+00  0.00000000000E+00 -0.80457312293E+03  0.80457312295E+03  0.50400001928E-02 0. -1.
    10030    2    1    2    0    0  0.00000000000E+00  0.00000000000E+00  0.83812199565E+02  0.16929584455E+04  0.16908825545E+04 0.  0.
        1    1    3    3  502    0 -0.35364713844E+03 -0.50238028799E+03  0.62341057916E+03  0.87526738915E+03  0.50400001928E-02 0. -1.
       -1    1    3    3    0  502  0.35364713844E+03  0.50238028799E+03 -0.53959837959E+03  0.81769105631E+03  0.50400001928E-02 0.  1.
</event>
<event>
 5   0  0.2288806E-04  0.1708824E+04  0.7818609E-02  0.8756348E-01
       -2   -1    0    0    0  501  0.00000000000E+00  0.00000000000E+00  0.58698054641E+03  0.58698054641E+03  0.25500000920E-02 0.  1.
        2   -1    0    0  501    0  0.00000000000E+00  0.00000000000E+00 -0.12436865957E+04  0.12436865957E+04  0.25500000920E-02 0. -1.
    10030    2    1    2    0    0  0.00000000000E+00  0.00000000000E+00 -0.65670604932E+03  0.18306671421E+04  0.17088239670E+04 0.  0.
        3    1    3    3  502    0  0.44928173254E+03  0.29827972464E+03  0.38161817705E+03  0.66064915998E+03  0.10100000352E+00 0.  1.
       -3    1    3    3    0  502 -0.44928173254E+03 -0.29827972464E+03 -0.10383242264E+04  0.11700179822E+04  0.10100000352E+00 0. -1.
</event>
<event>
 5   0  0.1126958E-04  0.1698938E+04  0.7818609E-02  0.8761970E-01
       -1   -1    0    0    0  501  0.00000000000E+00  0.00000000000E+00  0.46543283449E+03  0.46543283452E+03  0.50400001928E-02 0. -1.
        1   -1    0    0  501    0  0.00000000000E+00  0.00000000000E+00 -0.15503804324E+04  0.15503804325E+04  0.50400001928E-02 0.  1.
    10030    2    1    2    0    0  0.00000000000E+00  0.00000000000E+00 -0.10849475980E+04  0.20158132670E+04  0.16989384441E+04 0.  0.
        4    1    3    3  502    0  0.23454294122E+03 -0.22845530430E+02 -0.15108199885E+04  0.15290882774E+04  0.12699999809E+01 0.  1.
       -4    1    3    3    0  502 -0.23454294122E+03  0.22845530430E+02  0.42587239055E+03  0.48672498957E+03  0.12699999809E+01 0. -1.
</event>
<event>
 5   0  0.1204741E-04  0.1734747E+04  0.7818609E-02  0.8741792E-01
       -1   -1    0    0    0  501  0.00000000000E+00  0.00000000000E+00  0.10320629930E+04  0.10320629930E+04  0.50400001928E-02 0. -1.
        1   -1    0    0  501    0  0.00000000000E+00  0.00000000000E+00 -0.72896367405E+03  0.72896367406E+03  0.50400001928E-02 0.  1.
    10030    2    1    2    0    0  0.00000000000E+00  0.00000000000E+00  0.30309931892E+03  0.17610266670E+04  0.17347465881E+04 0.  0.
        1    1    3    3  502    0  0.44166673398E+03  0.60187478361E+03  0.59984313751E+03  0.95767142001E+03  0.50400001928E-02 0. -1.
       -1    1    3    3    0  502 -0.44166673398E+03 -0.60187478361E+03 -0.29674381859E+03  0.80335524704E+03  0.50400001928E-02 0.  1.
</event>
<event>
 5   0  0.2356829E-04  0.1704491E+04  0.7818609E-02  0.8758807E-01
       -2   -1    0    0    0  501  0.00000000000E+00  0.00000000000E+00  0.75688736671E+03  0.75688736672E+03  0.25500000920E-02 0. -1.
        2   -1    0    0  501    0  0.00000000000E+00  0.00000000000E+00 -0.95961753095E+03  0.95961753096E+03  0.25500000920E-02 0.  1.
    10030    2    1    2    0    0  0.00000000000E+00  0.00000000000E+00 -0.20273016424E+03  0.17165048977E+04  0.17044909927E+04 0.  0.
        5    1    3    3  502    0 -0.55311650438E+03 -0.64822278439E+03 -0.88248284147E+02  0.85670327143E+03  0.46999998093E+01 0. -1.
       -5    1    3    3    0  502  0.55311650438E+03  0.64822278439E+03 -0.11448188009E+03  0.85980162624E+03  0.46999998093E+01 0.  1.
</event>
<event>
 5   0  0.1234158E-04  0.1699054E+04  0.7818609E-02  0.8761904E-01
        1   -1    0    0  501    0  0.00000000000E+00  0.00000000000E+00  0.12502047891E+04  0.12502047891E+04  0.50400001928E-02 0.  1.
       -1   -1    0    0    0  501  0.00000000000E+00  0.00000000000E+00 -0.57726248179E+03  0.57726248181E+03  0.50400001928E-02 0. -1.
    10030    2    1    2    0    0  0.00000000000E+00  0.00000000000E+00  0.67294230734E+03  0.18274672710E+04  0.16990542303E+04 0.  0.
        5    1    3    3  502    0 -0.60650289998E+03  0.39480554597E+03  0.81502173184E+03  0.10899539899E+04  0.46999998093E+01 0.  1.
       -5    1    3    3    0  502  0.60650289998E+03 -0.39480554597E+03 -0.14207942449E+03  0.73751328102E+03  0.46999998093E+01 0. -1.
</event>
<event>
 5   0  0.2288806E-04  0.1604037E+04  0.7818609E-02  0.8818072E-01
       -2   -1    0    0    0  501  0.00000000000E+00  0.00000000000E+00  0.23928545072E+03  0.23928545073E+03  0.25500000920E-02 0.  1.
        2   -1    0    0  501    0  0.00000000000E+00  0.00000000000E+00 -0.26881438461E+04  0.26881438461E+04  0.25500000920E-02 0. -1.
    10030    2    1    2    0    0  0.00000000000E+00  0.00000000000E+00 -0.24488583954E+04  0.29274292968E+04  0.16040370467E+04 0.  0.
        3    1    3    3  502    0 -0.26376773882E+03  0.23328464584E+03 -0.25395192325E+04  0.25638161183E+04  0.10100000352E+00 0. -1.
       -3    1    3    3    0  502  0.26376773882E+03 -0.23328464584E+03  0.90660837100E+02  0.36361317855E+03  0.10100000352E+00 0.  1.
</event>
<event>
 5   0  0.1215233E-04  0.1710692E+04  0.7818609E-02  0.8755289E-01
       -1   -1    0    0    0  501  0.00000000000E+00  0.00000000000E+00  0.10647562144E+04  0.10647562144E+04  0.50400001928E-02 0. -1.
        1   -1    0    0  501    0  0.00000000000E+00  0.00000000000E+00 -0.68712179259E+03  0.68712179261E+03  0.50400001928E-02 0.  1.
    10030    2    1    2    0    0  0.00000000000E+00  0.00000000000E+00  0.37763442183E+03  0.17518780070E+04  0.17106924899E+04 0.  0.
        2    1    3    3  502    0  0.39551215815E+03  0.66180658316E+03  0.56813916832E+03  0.95770555775E+03  0.25500000920E-02 0. -1.
       -2    1    3    3    0  502 -0.39551215815E+03 -0.66180658316E+03 -0.19050474649E+03  0.79417244929E+03  0.25500000920E-02 0.  1.
</event>
<event>
 5   0  0.1126958E-04  0.1869646E+04  0.7818609E-02  0.8670115E-01
        1   -1    0    0  501    0  0.00000000000E+00  0.00000000000E+00  0.68527235530E+03  0.68527235531E+03  0.50400001928E-02 0. -1.
       -1   -1    0    0    0  501  0.00000000000E+00  0.00000000000E+00 -0.12752513401E+04  0.12752513401E+04  0.50400001928E-02 0.  1.
    10030    2    1    2    0    0  0.00000000000E+00  0.00000000000E+00 -0.58997898477E+03  0.19605236954E+04  0.18696464793E+04 0.  0.
        4    1    3    3  502    0  0.52620973506E+03  0.67453494019E+03 -0.69013308626E+03  0.10991721250E+04  0.12699999809E+01 0.  1.
       -4    1    3    3    0  502 -0.52620973506E+03 -0.67453494019E+03  0.10015410149E+03  0.86135157036E+03  0.12699999809E+01 0. -1.
</event>
<event>
 5   0  0.1204741E-04  0.1700105E+04  0.7818609E-02  0.8761304E-01
        1   -1    0    0  501    0  0.00000000000E+00  0.00000000000E+00  0.90352427329E+03  0.90352427331E+03  0.50400001928E-02 0.  1.
       -1   -1    0    0    0  501  0.00000000000E+00  0.00000000000E+00 -0.79974560056E+03  0.79974560058E+03  0.50400001928E-02 0. -1.
    10030    2    1    2    0    0  0.00000000000E+00  0.00000000000E+00  0.10377867273E+03  0.17032698739E+04  0.17001053645E+04 0.  0.
        1    1    3    3  502    0  0.41361487723E+03 -0.28015586032E+03  0.74093764309E+03  0.89361801891E+03  0.50400001928E-02 0.  1.
       -1    1    3    3    0  502 -0.41361487723E+03  0.28015586032E+03 -0.63715897036E+03  0.80965185498E+03  0.50400001928E-02 0. -1.
</event>
<event>
 5   0  0.1126958E-04  0.1672595E+04  0.7818609E-02  0.8777150E-01
        1   -1    0    0  501    0  0.00000000000E+00  0.00000000000E+00  0.13418667709E+04  0.13418667709E+04  0.50400001928E-02 0. -1.
       -1   -1    0    0    0  501  0.00000000000E+00  0.00000000000E+00 -0.52120953552E+03  0.52120953555E+03  0.50400001928E-02 0.  1.
    10030    2    1    2    0    0  0.00000000000E+00  0.00000000000E+00  0.82065723537E+03  0.18630763065E+04  0.16725952964E+04 0.  0.
        4    1    3    3  502    0  0.33370469849E+03 -0.49138896107E+03  0.10660742163E+04  0.12203842773E+04  0.12699999809E+01 0. -1.
       -4    1    3    3    0  502 -0.33370469849E+03  0.49138896107E+03 -0.24541698092E+03  0.64269202910E+03  0.12699999809E+01 0.  1.
</event>
<event>
 5   0  0.2224454E-04  0.1716790E+04  0.7818609E-02  0.8751846E-01
        2   -1    0    0  501    0  0.00000000000E+00  0.00000000000E+00  0.13341363682E+04  0.13341363682E+04  0.25500000920E-02 0. -1.
       -2   -1    0    0    0  501  0.00000000000E+00  0.00000000000E+00 -0.55229909482E+03  0.55229909483E+03  0.25500000920E-02 0.  1.
    10030    2    1    2    0    0  0.00000000000E+00  0.00000000000E+00  0.78183727338E+03  0.18864354630E+04  0.17167903874E+04 0.  0.
        2    1    3    3  502    0  0.18428818593E+03  0.55284558412E+03 -0.30163309979E+03  0.65618816070E+03  0.25500000920E-02 0.  1.
       -2    1    3    3    0  502 -0.18428818593E+03 -0.55284558412E+03  0.10834703732E+04  0.12302473023E+04  0.25500000920E-02 0. -1.
</event>
<event>
 5   0  0.2234723E-04  0.1703095E+04  0.7818609E-02  0.8759601E-01
       -2   -1    0    0    0  501  0.00000000000E+00  0.00000000000E+00  0.51424862787E+03  0.51424862788E+03  0.25500000920E-02 0.  1.
        2   -1    0    0  501    0  0.00000000000E+00  0.00000000000E+00 -0.14100822067E+04  0.14100822067E+04  0.25500000920E-02 0. -1.
    10030    2    1    2    0    0  0.00000000000E+00  0.00000000000E+00 -0.89583357879E+03  0.19243308345E+04  0.17030946421E+04 0.  0.
        1    1    3    3  502    0 -0.26567732891E+03  0.55467634239E+02 -0.13599039965E+04  0.13867227485E+04  0.50400001928E-02 0. -1.
       -1    1    3    3    0  502  0.26567732891E+03 -0.55467634239E+02  0.46407041771E+03  0.53760808603E+03  0.50400001928E-02 0.  1.
</event>
<event>
 5   0  0.2288806E-04  0.1696322E+04  0.7818609E-02  0.8763465E-01
        2   -1    0    0  501    0  0.00000000000E+00  0.00000000000E+00  0.76773633951E+03  0.76773633951E+03  0.25500000920E-02 0.  1.
       -2   -1    0    0    0  501  0.00000000000E+00  0.00000000000E+00 -0.93701064210E+03  0.93701064211E+03  0.25500000920E-02 0. -1.
    10030    2    1    2    0    0  0.00000000000E+00  0.00000000000E+00 -0.16927430259E+03  0.17047469816E+04  0.16963220454E+04 0.  0.
        3    1    3    3  502    0  0.80517307754E+03 -0.16147876079E+03  0.12854380196E+03  0.83120550660E+03  0.10100000352E+00 0.  1.
       -3    1    3    3    0  502 -0.80517307754E+03  0.16147876079E+03 -0.29781810456E+03  0.87354147502E+03  0.10100000352E+00 0. -1.
</event>
<event>
 5   0  0.2234723E-04  0.1704629E+04  0.7818609E-02  0.8758729E-01
        2   -1    0    0  501    0  0.00000000000E+00  0.00000000000E+00  0.17220235951E+04  0.17220235951E+04  0.25500000920E-02 0. -1.
       -2   -1    0    0    0  501  0.00000000000E+00  0.00000000000E+00 -0.42185259172E+03  0.42185259173E+03  0.25500000920E-02 0.  1.
    10030    2    1    2    0    0  0.00000000000E+00  0.00000000000E+00  0.13001710034E+04  0.21438761868E+04  0.17046291287E+04 0.  0.
        1    1    3    3  502    0 -0.36990623263E+03 -0.75669378808E+03  0.81418251861E+03  0.11714560527E+04  0.50400001928E-02 0. -1.
       -1    1    3    3    0  502  0.36990623263E+03  0.75669378808E+03  0.48598848478E+03  0.97242013411E+03  0.50400001928E-02 0.  1.
</event>
<event>
 5   0  0.2242967E-04  0.1703511E+04  0.7818609E-02  0.8759364E-01
        2   -1    0    0  501    0  0.00000000000E+00  0.00000000000E+00  0.21555626268E+04  0.21555626268E+04  0.25500000920E-02 0.  1.
       -2   -1    0    0    0  501  0.00000000000E+00  0.00000000000E+00 -0.33656537016E+03  0.33656537017E+03  0.25500000920E-02 0. -1.
    10030    2    1    2    0    0  0.00000000000E+00  0.00000000000E+00  0.18189972567E+04  0.24921279970E+04  0.17035113541E+04 0.  0.
        4    1    3    3  502    0  0.56756850711E+03 -0.63149777914E+03  0.81068095769E+03  0.11739372570E+04  0.12699999809E+01 0.  1.
       -4    1    3    3    0  502 -0.56756850711E+03  0.63149777914E+03  0.10083162990E+04  0.13181907400E+04  0.12699999809E+01 0. -1.
</event>
<event>
 5   0  0.1186302E-04  0.1685980E+04  0.7818609E-02  0.8769401E-01
       -1   -1    0    0    0  501  0.00000000000E+00  0.00000000000E+00  0.52510748426E+03  0.52510748429E+03  0.50400001928E-02 0. -1.
        1   -1    0    0  501    0  0.00000000000E+00  0.00000000000E+00 -0.13533079868E+04  0.13533079868E+04  0.50400001928E-02 0.  1.
    10030    2    1    2    0    0  0.00000000000E+00  0.00000000000E+00 -0.82820050253E+03  0.18784154711E+04  0.16859800146E+04 0.  0.
        3    1    3    3  502    0 -0.74371909156E+03  0.38858499191E+03 -0.50403380277E+03  0.97885977935E+03  0.10100000352E+00 0.  1.
       -3    1    3    3    0  502  0.74371909156E+03 -0.38858499191E+03 -0.32416669976E+03  0.89955569173E+03  0.10100000352E+00 0. -1.
</event>
<event>
 5   0  0.1204741E-04  0.1688369E+04  0.7818609E-02  0.8768026E-01
       -1   -1    0    0    0  501  0.00000000000E+00  0.00000000000E+00  0.83538497913E+03  0.83538497915E+03  0.50400001928E-02 0.  1.
        1   -1    0    0  501    0  0.00000000000E+00  0.00000000000E+00 -0.85307647586E+03  0.85307647588E+03  0.50400001928E-02 0. -1.
    10030    2    1    2    0    0  0.00000000000E+00  0.00000000000E+00 -0.17691496728E+02  0.16884614550E+04  0.16883687678E+04 0.  0.
        1    1    3    3  502    0 -0.51967132010E+03 -0.27239324774E+03  0.59813972118E+03  0.83787080652E+03  0.50400001928E-02 0.  1.
       -1    1    3    3    0  502  0.51967132010E+03  0.27239324774E+03 -0.61583121790E+03  0.85059064850E+03  0.50400001928E-02 0. -1.
</event>
<event>
 5   0  0.8372750E-05  0.1701106E+04  0.7818609E-02  0.8760734E-01
        3   -1    0    0  501    0  0.00000000000E+00  0.00000000000E+00  0.40585521410E+03  0.40585522666E+03  0.10100000352E+00 0.  1.
       -3   -1    0    0    0  501  0.00000000000E+00  0.00000000000E+00 -0.17825093865E+04  0.17825093893E+04  0.10100000352E+00 0. -1.
    10030    2    1    2    0    0  0.00000000000E+00  0.00000000000E+00 -0.13766541724E+04  0.21883646160E+04  0.17011063994E+04 0.  0.
        2    1    3    3  502    0 -0.59557971951E+03 -0.43294508077E+02 -0.14674987238E+04  0.15843428041E+04  0.25500000920E-02 0. -1.
       -2    1    3    3    0  502  0.59557971951E+03  0.43294508077E+02  0.90844551375E+02  0.60402181189E+03  0.25500000920E-02 0.  1.
</event>
<event>
 5   0  0.1204741E-04  0.1687844E+04  0.7818609E-02  0.8768328E-01
        1   -1    0    0  501    0  0.00000000000E+00  0.00000000000E+00  0.10268467691E+04  0.10268467691E+04  0.50400001928E-02 0. -1.
       -1   -1    0    0    0  501  0.00000000000E+00  0.00000000000E+00 -0.69358350068E+03  0.69358350070E+03  0.50400001928E-02 0.  1.
    10030    2    1    2    0    0  0.00000000000E+00  0.00000000000E+00  0.33326326840E+03  0.17204302698E+04  0.16878435671E+04 0.  0.
        1    1    3    3  502    0 -0.51571420571E+03  0.18600767131E+03  0.82061359193E+03  0.98689749369E+03  0.50400001928E-02 0. -1.
       -1    1    3    3    0  502  0.51571420571E+03 -0.18600767131E+03 -0.48735032352E+03  0.73353277611E+03  0.50400001928E-02 0.  1.
</event>
<event>
 5   0  0.1126958E-04  0.1702178E+04  0.7818609E-02  0.8760123E-01
       -1   -1    0    0    0  501  0.00000000000E+00  0.00000000000E+00  0.98107106717E+03  0.98107106718E+03  0.50400001928E-02 0. -1.
        1   -1    0    0  501    0  0.00000000000E+00  0.00000000000E+00 -0.73832797487E+03  0.73832797489E+03  0.50400001928E-02 0.  1.
    10030    2    1    2    0    0  0.00000000000E+00  0.00000000000E+00  0.24274309230E+03  0.17193990421E+04  0.17021776808E+04 0.  0.
        4    1    3    3  502    0  0.50264374535E+03  0.51452564184E+03 -0.33816323327E+03  0.79482284573E+03  0.12699999809E+01 0. -1.
       -4    1    3    3    0  502 -0.50264374535E+03 -0.51452564184E+03  0.58090632557E+03  0.92457619634E+03  0.12699999809E+01 0.  1.
</event>
<event>
 5   0  0.1186302E-04  0.1689329E+04  0.7818609E-02  0.8767474E-01
        1   -1    0    0  501    0  0.00000000000E+00  0.00000000000E+00  0.64204847961E+03  0.64204847963E+03  0.50400001928E-02 0. -1.
       -1   -1    0    0    0  501  0.00000000000E+00  0.00000000000E+00 -0.11112213838E+04  0.11112213838E+04  0.50400001928E-02 0.  1.
    10030    2    1    2    0    0  0.00000000000E+00  0.00000000000E+00 -0.46917290416E+03  0.17532698634E+04  0.16893288608E+04 0.  0.
        3    1    3    3  502    0 -0.83054506738E+03 -0.46300533151E+02 -0.82375429293E+02  0.83590344531E+03  0.10100000352E+00 0. -1.
       -3    1    3    3    0  502  0.83054506738E+03  0.46300533151E+02 -0.38679747487E+03  0.91736641812E+03  0.10100000352E+00 0.  1.
</event>
<event>
 5   0  0.2242967E-04  0.1711836E+04  0.7818609E-02  0.8754643E-01
       -2   -1    0    0    0  501  0.00000000000E+00  0.00000000000E+00  0.44274442180E+03  0.44274442180E+03  0.25500000920E-02 0.  1.
        2   -1    0    0  501    0  0.00000000000E+00  0.00000000000E+00 -0.16546688180E+04  0.16546688180E+04  0.25500000920E-02 0. -1.
    10030    2    1    2    0    0  0.00000000000E+00  0.00000000000E+00 -0.12119243962E+04  0.20974132398E+04  0.17118357270E+04 0.  0.
        4    1    3    3  502    0 -0.54994923474E+03 -0.17981958034E+03  0.16682913341E+03  0.60217340934E+03  0.12699999809E+01 0.  1.
       -4    1    3    3    0  502  0.54994923474E+03  0.17981958034E+03 -0.13787535296E+04  0.14952398304E+04  0.12699999809E+01 0. -1.
</event>
<event>
 5   0  0.1215233E-04  0.1710109E+04  0.7818609E-02  0.8755620E-01
        1   -1    0    0  501    0  0.00000000000E+00  0.00000000000E+00  0.42076058700E+03  0.42076058703E+03  0.50400001928E-02 0. -1.
       -1   -1    0    0    0  501  0.00000000000E+00  0.00000000000E+00 -0.17376111372E+04  0.17376111372E+04  0.50400001928E-02 0.  1.
    10030    2    1    2    0    0  0.00000000000E+00  0.00000000000E+00 -0.13168505502E+04  0.21583717242E+04  0.17101090984E+04 0.  0.
        2    1    3    3  502    0 -0.67257418521E+01 -0.48212590743E+02 -0.17358607973E+04  0.17365432322E+04  0.25500000920E-02 0.  1.
       -2    1    3    3    0  502  0.67257418521E+01  0.48212590743E+02  0.41901024712E+03  0.42182849206E+03  0.25500000920E-02 0. -1.
</event>
<event>
 5   0  0.1186302E-04  0.1705149E+04  0.7818609E-02  0.8758433E-01
       -1   -1    0    0    0  501  0.00000000000E+00  0.00000000000E+00  0.44136441475E+03  0.44136441478E+03  0.50400001928E-02 0. -1.
        1   -1    0    0  501    0  0.00000000000E+00  0.00000000000E+00 -0.16469002756E+04  0.16469002756E+04  0.50400001928E-02 0.  1.
    10030    2    1    2    0    0  0.00000000000E+00  0.00000000000E+00 -0.12055358609E+04  0.20882646904E+04  0.17051488807E+04 0.  0.
        3    1    3    3  502    0  0.39950078718E+03 -0.21705405339E+02 -0.15247923814E+04  0.15764085195E+04  0.10100000352E+00 0.  1.
       -3    1    3    3    0  502 -0.39950078718E+03  0.21705405339E+02  0.31925652058E+03  0.51185617092E+03  0.10100000352E+00 0. -1.
</event>
<event>
 5   0  0.2356829E-04  0.1732414E+04  0.7818609E-02  0.8743091E-01
        2   -1    0    0  501    0  0.00000000000E+00  0.00000000000E+00  0.18606108944E+04  0.18606108944E+04  0.25500000920E-02 0. -1.
       -2   -1    0    0    0  501  0.00000000000E+00  0.00000000000E+00 -0.40326228852E+03  0.40326228853E+03  0.25500000920E-02 0.  1.
    10030    2    1    2    0    0  0.00000000000E+00  0.00000000000E+00  0.14573486059E+04  0.22638731829E+04  0.17324135849E+04 0.  0.
        5    1    3    3  502    0  0.42579984534E+03 -0.66578133014E+03  0.26532783110E+03  0.83366134359E+03  0.46999998093E+01 0.  1.
       -5    1    3    3    0  502 -0.42579984534E+03  0.66578133014E+03  0.11920207748E+04  0.14302118393E+04  0.46999998093E+01 0. -1.
</event>
<event>
 5   0  0.1215233E-04  0.1691740E+04  0.7818609E-02  0.8766090E-01
       -1   -1    0    0    0  501  0.00000000000E+00  0.00000000000E+00  0.10520127627E+04  0.10520127627E+04  0.50400001928E-02 0. -1.
        1   -1    0    0  501    0  0.00000000000E+00  0.00000000000E+00 -0.68012082951E+03  0.68012082953E+03  0.50400001928E-02 0.  1.
    10030    2    1    2    0    0  0.00000000000E+00  0.00000000000E+00  0.37189193316E+03  0.17321335922E+04  0.16917396878E+04 0.  0.
        2    1    3    3  502    0 -0.69002990495E+01 -0.81433734272E+03  0.42010483494E+03  0.91634109054E+03  0.25500000920E-02 0. -1.
       -2    1    3    3    0  502  0.69002990495E+01  0.81433734272E+03 -0.48212901784E+02  0.81579250167E+03  0.25500000920E-02 0.  1.
</event>
<event>
 5   0  0.1234158E-04  0.1688661E+04  0.7818609E-02  0.8767858E-01
        1   -1    0    0  501    0  0.00000000000E+00  0.00000000000E+00  0.70348534730E+03  0.70348534731E+03  0.50400001928E-02 0. -1.
       -1   -1    0    0    0  501  0.00000000000E+00  0.00000000000E+00 -0.10133737515E+04  0.10133737515E+04  0.50400001928E-02 0.  1.
    10030    2    1    2    0    0  0.00000000000E+00  0.00000000000E+00 -0.30988840418E+03  0.17168590988E+04  0.16886605171E+04 0.  0.
        5    1    3    3  502    0 -0.47077731780E+03  0.35263666280E+02  0.55674254218E+03  0.72997202507E+03  0.46999998093E+01 0. -1.
       -5    1    3    3    0  502  0.47077731780E+03 -0.35263666280E+02 -0.86663094636E+03  0.98688707373E+03  0.46999998093E+01 0.  1.
</event>
<event>
 5   0  0.1234158E-04  0.1704161E+04  0.7818609E-02  0.8758995E-01
       -1   -1    0    0    0  501  0.00000000000E+00  0.00000000000E+00  0.49455279131E+03  0.49455279133E+03  0.50400001928E-02 0.  1.
        1   -1    0    0  501    0  0.00000000000E+00  0.00000000000E+00 -0.14680759699E+04  0.14680759699E+04  0.50400001928E-02 0. -1.
    10030    2    1    2    0    0  0.00000000000E+00  0.00000000000E+00 -0.97352317858E+03  0.19626287612E+04  0.17041608713E+04 0.  0.
        5    1    3    3  502    0 -0.41734609681E+03 -0.37098190882E+03 -0.12279690230E+04  0.13489756679E+04  0.46999998093E+01 0. -1.
       -5    1    3    3    0  502  0.41734609681E+03  0.37098190882E+03  0.25444584441E+03  0.61365309331E+03  0.46999998093E+01 0.  1.
</event>
<event>
 5   0  0.2224454E-04  0.1694469E+04  0.7818609E-02  0.8764525E-01
        2   -1    0    0  501    0  0.00000000000E+00  0.00000000000E+00  0.12353587013E+04  0.12353587013E+04  0.25500000920E-02 0. -1.
       -2   -1    0    0    0  501  0.00000000000E+00  0.00000000000E+00 -0.58105122379E+03  0.58105122380E+03  0.25500000920E-02 0.  1.
    10030    2    1    2    0    0  0.00000000000E+00  0.00000000000E+00  0.65430747751E+03  0.18164099251E+04  0.16944694571E+04 0.  0.
        2    1    3    3  502    0 -0.56191904948E+03  0.61375650511E+03  0.15645677433E+03  0.84671647437E+03  0.25500000920E-02 0. -1.
       -2    1    3    3    0  502  0.56191904948E+03 -0.61375650511E+03  0.49785070318E+03  0.96969345073E+03  0.25500000920E-02 0.  1.
</event>
<event>
 5   0  0.2224454E-04  0.1697842E+04  0.7818609E-02  0.8762596E-01
        2   -1    0    0  501    0  0.00000000000E+00  0.00000000000E+00  0.11606432015E+04  0.11606432015E+04  0.25500000920E-02 0.  1.
       -2   -1    0    0    0  501  0.00000000000E+00  0.00000000000E+00 -0.62092001431E+03  0.62092001431E+03  0.25500000920E-02 0. -1.
    10030    2    1    2    0    0  0.00000000000E+00  0.00000000000E+00  0.53972318715E+03  0.17815632158E+04  0.16978416808E+04 0.  0.
        2    1    3    3  502    0 -0.82376585805E+03 -0.16076999506E+03  0.40353821261E+03  0.93127883539E+03  0.25500000920E-02 0. -1.
       -2    1    3    3    0  502  0.82376585805E+03  0.16076999506E+03  0.13618497454E+03  0.85028438037E+03  0.25500000920E-02 0.  1.
</event>
<event>
 5   0  0.2288806E-04  0.1701545E+04  0.7818609E-02  0.8760483E-01
       -2   -1    0    0    0  501  0.00000000000E+00  0.00000000000E+00  0.16285345706E+04  0.16285345706E+04  0.25500000920E-02 0.  1.
        2   -1    0    0  501    0  0.00000000000E+00  0.00000000000E+00 -0.44445739951E+03  0.44445739952E+03  0.25500000920E-02 0. -1.
    10030    2    1    2    0    0  0.00000000000E+00  0.00000000000E+00  0.11840771711E+04  0.20729919702E+04  0.17015454626E+04 0.  0.
        3    1    3    3  502    0  0.33545656191E+03 -0.75028003242E+03  0.32411517038E+03  0.88346017785E+03  0.10100000352E+00 0.  1.
       -3    1    3    3    0  502 -0.33545656191E+03  0.75028003242E+03  0.85996200075E+03  0.11895317923E+04  0.10100000352E+00 0. -1.
</event>
<event>
 5   0  0.2242967E-04  0.1732162E+04  0.7818609E-02  0.8743231E-01
        2   -1    0    0  501    0  0.00000000000E+00  0.00000000000E+00  0.96599636354E+03  0.96599636355E+03  0.25500000920E-02 0. -1.
       -2   -1    0    0    0  501  0.00000000000E+00  0.00000000000E+00 -0.77649971958E+03  0.77649971958E+03  0.25500000920E-02 0.  1.
    10030    2    1    2    0    0  0.00000000000E+00  0.00000000000E+00  0.18949664396E+03  0.17424960831E+04  0.17321615461E+04 0.  0.
        4    1    3    3  502    0  0.71060936725E+03 -0.79489986787E+02 -0.39684914556E+03  0.81778676198E+03  0.12699999809E+01 0.  1.
       -4    1    3    3    0  502 -0.71060936725E+03  0.79489986787E+02  0.58634578953E+03  0.92470932115E+03  0.12699999809E+01 0. -1.
</event>
<event>
 5   0  0.1204741E-04  0.1694377E+04  0.7818609E-02  0.8764578E-01
       -1   -1    0    0    0  501  0.00000000000E+00  0.00000000000E+00  0.66121469632E+03  0.66121469634E+03  0.50400001928E-02 0. -1.
        1   -1    0    0  501    0  0.00000000000E+00  0.00000000000E+00 -0.10854693505E+04  0.10854693505E+04  0.50400001928E-02 0.  1.
    10030    2    1    2    0    0  0.00000000000E+00  0.00000000000E+00 -0.42425465418E+03  0.17466840469E+04  0.16943769203E+04 0.  0.
        1    1    3    3  502    0 -0.65363728939E+03  0.53358694736E+03 -0.29044334125E+03  0.89236431516E+03  0.50400001928E-02 0.  1.
       -1    1    3    3    0  502  0.65363728939E+03 -0.53358694736E+03 -0.13381131294E+03  0.85431973170E+03  0.50400001928E-02 0. -1.
</event>
<event>
 5   0  0.2242967E-04  0.1731130E+04  0.7818609E-02  0.8743806E-01
        2   -1    0    0  501    0  0.00000000000E+00  0.00000000000E+00  0.13774698002E+04  0.13774698002E+04  0.25500000920E-02 0.  1.
       -2   -1    0    0    0  501  0.00000000000E+00  0.00000000000E+00 -0.54389762000E+03  0.54389762001E+03  0.25500000920E-02 0. -1.
    10030    2    1    2    0    0  0.00000000000E+00  0.00000000000E+00  0.83357218021E+03  0.19213674202E+04  0.17311297421E+04 0.  0.
        4    1    3    3  502    0 -0.26336873493E+03  0.82366824100E+03  0.45843990711E+03  0.97875493516E+03  0.12699999809E+01 0.  1.
       -4    1    3    3    0  502  0.26336873493E+03 -0.82366824100E+03  0.37513227310E+03  0.94261248506E+03  0.12699999809E+01 0. -1.
</event>
<event>
 5   0  0.1126958E-04  0.1710347E+04  0.7818609E-02  0.8755485E-01
        1   -1    0    0  501    0  0.00000000000E+00  0.00000000000E+00  0.88849534973E+03  0.88849534975E+03  0.50400001928E-02 0. -1.
       -1   -1    0    0    0  501  0.00000000000E+00  0.00000000000E+00 -0.82310166016E+03  0.82310166017E+03  0.50400001928E-02 0.  1.
    10030    2    1    2    0    0  0.00000000000E+00  0.00000000000E+00  0.65393689575E+02  0.17115970099E+04  0.17103473301E+04 0.  0.
        4    1    3    3  502    0 -0.66054457538E+03  0.31902137262E+03 -0.40719982576E+03  0.83899170631E+03  0.12699999809E+01 0.  1.
       -4    1    3    3    0  502  0.66054457538E+03 -0.31902137262E+03  0.47259351534E+03  0.87260530361E+03  0.12699999809E+01 0. -1.
</event>
<event>
 5   0  0.2234723E-04  0.1708006E+04  0.7818609E-02  0.8756812E-01
        2   -1    0    0  501    0  0.00000000000E+00  0.00000000000E+00  0.62232028383E+03  0.62232028383E+03  0.25500000920E-02 0. -1.
       -2   -1    0    0    0  501  0.00000000000E+00  0.00000000000E+00 -0.11719380346E+04  0.11719380346E+04  0.25500000920E-02 0.  1.
    10030    2    1    2    0    0  0.00000000000E+00  0.00000000000E+00 -0.54961775080E+03  0.17942583185E+04  0.17080056327E+04 0.  0.
        1    1    3    3  502    0  0.14255596641E+03 -0.46938069687E+03 -0.10091673583E+04  0.11220780718E+04  0.50400001928E-02 0.  1.
       -1    1    3    3    0  502 -0.14255596641E+03  0.46938069687E+03  0.45954960753E+03  0.67218024663E+03  0.50400001928E-02 0. -1.
</event>
<event>
 5   0  0.1186302E-04  0.1712406E+04  0.7818609E-02  0.8754320E-01
        1   -1    0    0  501    0  0.00000000000E+00  0.00000000000E+00  0.17722651312E+04  0.17722651313E+04  0.50400001928E-02 0. -1.
       -1   -1    0    0    0  501  0.00000000000E+00  0.00000000000E+00 -0.41364217398E+03  0.41364217402E+03  0.50400001928E-02 0.  1.
    10030    2    1    2    0    0  0.00000000000E+00  0.00000000000E+00  0.13586229573E+04  0.21859073053E+04  0.17124060287E+04 0.  0.
        3    1    3    3  502    0 -0.20398488018E+03  0.69366390970E+03  0.93916618284E+02  0.72910890294E+03  0.10100000352E+00 0.  1.
       -3    1    3    3    0  502  0.20398488018E+03 -0.69366390970E+03  0.12647063390E+04  0.14567984023E+04  0.10100000352E+00 0. -1.
</event>
<event>
 5   0  0.2288806E-04  0.1706926E+04  0.7818609E-02  0.8757424E-01
       -2   -1    0    0    0  501  0.00000000000E+00  0.00000000000E+00  0.78761314312E+03  0.78761314313E+03  0.25500000920E-02 0.  1.
        2   -1    0    0  501    0  0.00000000000E+00  0.00000000000E+00 -0.92481860275E+03  0.92481860276E+03  0.25500000920E-02 0. -1.
    10030    2    1    2    0    0  0.00000000000E+00  0.00000000000E+00 -0.13720545963E+03  0.17124317459E+04  0.17069262275E+04 0.  0.
        3    1    3    3  502    0  0.50187836649E+03 -0.33020873107E+03  0.53955344674E+03  0.80748847231E+03  0.10100000352E+00 0.  1.
       -3    1    3    3    0  502 -0.50187836649E+03  0.33020873107E+03 -0.67675890637E+03  0.90494327357E+03  0.10100000352E+00 0. -1.
</event>
<event>
 5   0  0.1234158E-04  0.1702151E+04  0.7818609E-02  0.8760139E-01
       -1   -1    0    0    0  501  0.00000000000E+00  0.00000000000E+00  0.67453638280E+03  0.67453638282E+03  0.50400001928E-02 0.  1.
        1   -1    0    0  501    0  0.00000000000E+00  0.00000000000E+00 -0.10738177698E+04  0.10738177698E+04  0.50400001928E-02 0. -1.
    10030    2    1    2    0    0  0.00000000000E+00  0.00000000000E+00 -0.39928138702E+03  0.17483541526E+04  0.17021505859E+04 0.  0.
        5    1    3    3  502    0  0.63470984585E+03  0.76744090767E+02 -0.77663691480E+03  0.10059489208E+04  0.46999998093E+01 0. -1.
       -5    1    3    3    0  502 -0.63470984585E+03 -0.76744090767E+02  0.37735552779E+03  0.74240523182E+03  0.46999998093E+01 0.  1.
</event>
<event>
 5   0  0.2234723E-04  0.1704557E+04  0.7818609E-02  0.8758770E-01
       -2   -1    0    0    0  501  0.00000000000E+00  0.00000000000E+00  0.40824847752E+03  0.40824847753E+03  0.25500000920E-02 0.  1.
        2   -1    0    0  501    0  0.00000000000E+00  0.00000000000E+00 -0.17792552106E+04  0.17792552106E+04  0.25500000920E-02 0. -1.
    10030    2    1    2    0    0  0.00000000000E+00  0.00000000000E+00 -0.13710067330E+04  0.21875036881E+04  0.17045565181E+04 0.  0.
        1    1    3    3  502    0  0.41493703534E+03  0.23614780441E+03 -0.15915357114E+04  0.16616029759E+04  0.50400001928E-02 0. -1.
       -1    1    3    3    0  502 -0.41493703534E+03 -0.23614780441E+03  0.22052897832E+03  0.52590071224E+03  0.50400001928E-02 0.  1.
</event>
<event>
 5   0  0.2288806E-04  0.1701464E+04  0.7818609E-02  0.8760530E-01
       -2   -1    0    0    0  501  0.00000000000E+00  0.00000000000E+00  0.62458460827E+03  0.62458460828E+03  0.25500000920E-02 0.  1.
        2   -1    0    0  501    0  0.00000000000E+00  0.00000000000E+00 -0.11587623943E+04  0.11587623943E+04  0.25500000920E-02 0. -1.
    10030    2    1    2    0    0  0.00000000000E+00  0.00000000000E+00 -0.53417778606E+03  0.17833470026E+04  0.17014642590E+04 0.  0.
        3    1    3    3  502    0  0.43668328888E+02  0.65791325835E+03  0.29635828262E+03  0.72290042214E+03  0.10100000352E+00 0.  1.
       -3    1    3    3    0  502 -0.43668328888E+02 -0.65791325835E+03 -0.83053606868E+03  0.10604465805E+04  0.10100000352E+00 0. -1.
</event>
<event>
 5   0  0.8372750E-05  0.1695471E+04  0.7818609E-02  0.8763951E-01
        3   -1    0    0  501    0  0.00000000000E+00  0.00000000000E+00  0.92095175921E+03  0.92095176474E+03  0.10100000352E+00 0. -1.
       -3   -1    0    0    0  501  0.00000000000E+00  0.00000000000E+00 -0.78034033980E+03  0.78034034634E+03  0.10100000352E+00 0.  1.
    10030    2    1    2    0    0  0.00000000000E+00  0.00000000000E+00  0.14061141940E+03  0.17012921111E+04  0.16954714023E+04 0.  0.
        2    1    3    3  502    0 -0.11857873971E+03 -0.76835970490E+03 -0.26881647344E+03  0.82261768157E+03  0.25500000920E-02 0.  1.
       -2    1    3    3    0  502  0.11857873971E+03  0.76835970490E+03  0.40942789285E+03  0.87867442951E+03  0.25500000920E-02 0. -1.
</event>
<event>
 5   0  0.1126958E-04  0.1688957E+04  0.7818609E-02  0.8767688E-01
        1   -1    0    0  501    0  0.00000000000E+00  0.00000000000E+00  0.12553748918E+04  0.12553748919E+04  0.50400001928E-02 0. -1.
       -1   -1    0    0    0  501  0.00000000000E+00  0.00000000000E+00 -0.56807259733E+03  0.56807259735E+03  0.50400001928E-02 0.  1.
    10030    2    1    2    0    0  0.00000000000E+00  0.00000000000E+00  0.68730229451E+03  0.18234474892E+04  0.16889571640E+04 0.  0.
        4    1    3    3  502    0  0.28698766912E+01  0.29244694490E+03  0.11989526034E+04  0.12341079409E+04  0.12699999809E+01 0. -1.
       -4    1    3    3    0  502 -0.28698766912E+01 -0.29244694490E+03 -0.51165030884E+03  0.58933954832E+03  0.12699999809E+01 0.  1.
</event>
<event>
 5   0  0.1215233E-04  0.1700777E+04  0.7818609E-02  0.8760921E-01
        1   -1    0    0  501    0  0.00000000000E+00  0.00000000000E+00  0.13168649007E+04  0.13168649007E+04  0.50400001928E-02 0.  1.
       -1   -1    0    0    0  501  0.00000000000E+00  0.00000000000E+00 -0.54915315196E+03  0.54915315198E+03  0.50400001928E-02 0. -1.
    10030    2    1    2    0    0  0.00000000000E+00  0.00000000000E+00  0.76771174873E+03  0.18660180527E+04  0.17007768942E+04 0.  0.
        2    1    3    3  502    0  0.60436472087E+03  0.59333368989E+03  0.29987554800E+03  0.89845808343E+03  0.25500000920E-02 0. -1.
       -2    1    3    3    0  502 -0.60436472087E+03 -0.59333368989E+03  0.46783620073E+03  0.96755996925E+03  0.25500000920E-02 0.  1.
</event>
<event>
 5   0  0.2242967E-04  0.1653981E+04  0.7818609E-02  0.8788055E-01
        2   -1    0    0  501    0  0.00000000000E+00  0.00000000000E+00  0.13441257518E+04  0.13441257518E+04  0.25500000920E-02 0. -1.
       -2   -1    0    0    0  501  0.00000000000E+00  0.00000000000E+00 -0.50881640701E+03  0.50881640702E+03  0.25500000920E-02 0.  1.
    10030    2    1    2    0    0  0.00000000000E+00  0.00000000000E+00  0.83530934482E+03  0.18529421588E+04  0.16539809378E+04 0.  0.
        4    1    3    3  502    0 -0.15350851773E+03 -0.60133897791E+03 -0.19466291870E+03  0.65043731150E+03  0.12699999809E+01 0.  1.
       -4    1    3    3    0  502  0.15350851773E+03  0.60133897791E+03  0.10299722635E+04  0.12025048473E+04  0.12699999809E+01 0. -1.
</event>
<event>
 5   0  0.2234723E-04  0.1665452E+04  0.7818609E-02  0.8781317E-01
       -2   -1    0    0    0  501  0.00000000000E+00  0.00000000000E+00  0.11716036477E+04  0.11716036477E+04  0.25500000920E-02 0.  1.
        2   -1    0    0  501    0  0.00000000000E+00  0.00000000000E+00 -0.59186646158E+03  0.59186646158E+03  0.25500000920E-02 0. -1.
    10030    2    1    2    0    0  0.00000000000E+00  0.00000000000E+00  0.57973718612E+03  0.17634701093E+04  0.16654523774E+04 0.  0.
        1    1    3    3  502    0  0.19993234197E+03  0.24333957076E+02  0.11454247404E+04  0.11629973856E+04  0.50400001928E-02 0.  1.
       -1    1    3    3    0  502 -0.19993234197E+03 -0.24333957076E+02 -0.56568755429E+03  0.60047272373E+03  0.50400001928E-02 0. -1.
</event>
<event>
 5   0  0.1204741E-04  0.1692952E+04  0.7818609E-02  0.8765394E-01
        1   -1    0    0  501    0  0.00000000000E+00  0.00000000000E+00  0.85565721431E+03  0.85565721433E+03  0.50400001928E-02 0. -1.
       -1   -1    0    0    0  501  0.00000000000E+00  0.00000000000E+00 -0.83739309329E+03  0.83739309331E+03  0.50400001928E-02 0.  1.
    10030    2    1    2    0    0  0.00000000000E+00  0.00000000000E+00  0.18264121022E+02  0.16930503076E+04  0.16929517908E+04 0.  0.
        1    1    3    3  502    0 -0.80834684400E+02  0.49926008220E+02 -0.83204386217E+03  0.83745079921E+03  0.50400001928E-02 0.  1.
       -1    1    3    3    0  502  0.80834684400E+02 -0.49926008220E+02  0.85030798320E+03  0.85559950842E+03  0.50400001928E-02 0. -1.
</event>
<event>
 5   0  0.2356829E-04  0.1697667E+04  0.7818609E-02  0.8762696E-01
        2   -1    0    0  501    0  0.00000000000E+00  0.00000000000E+00  0.94447995190E+03  0.94447995190E+03  0.25500000920E-02 0. -1.
       -2   -1    0    0    0  501  0.00000000000E+00  0.00000000000E+00 -0.76287331870E+03  0.76287331870E+03  0.25500000920E-02 0.  1.
    10030    2    1    2    0    0  0.00000000000E+00  0.00000000000E+00  0.18160663320E+03  0.17073532706E+04  0.16976672882E+04 0.  0.
        5    1    3    3  502    0 -0.64362839670E+03 -0.54457402463E+03 -0.81352249802E+01  0.84315280538E+03  0.46999998093E+01 0.  1.
       -5    1    3    3    0  502  0.64362839670E+03  0.54457402463E+03  0.18974185818E+03  0.86420046522E+03  0.46999998093E+01 0. -1.
</event>
<event>
 5   0  0.1126958E-04  0.1697729E+04  0.7818609E-02  0.8762661E-01
       -1   -1    0    0    0  501  0.00000000000E+00  0.00000000000E+00  0.73576180032E+03  0.73576180034E+03  0.50400001928E-02 0.  1.
        1   -1    0    0  501    0  0.00000000000E+00  0.00000000000E+00 -0.97935349263E+03  0.97935349264E+03  0.50400001928E-02 0. -1.
    10030    2    1    2    0    0  0.00000000000E+00  0.00000000000E+00 -0.24359169231E+03  0.17151152930E+04  0.16977289406E+04 0.  0.
        4    1    3    3  502    0 -0.34513623597E+03  0.41463506340E+03 -0.78389146912E+03  0.95159272036E+03  0.12699999809E+01 0. -1.
       -4    1    3    3    0  502  0.34513623597E+03 -0.41463506340E+03  0.54029977681E+03  0.76352257262E+03  0.12699999809E+01 0.  1.
</event>
<event>
 5   0  0.1186302E-04  0.1680142E+04  0.7818609E-02  0.8772772E-01
        1   -1    0    0  501    0  0.00000000000E+00  0.00000000000E+00  0.11222556563E+04  0.11222556563E+04  0.50400001928E-02 0.  1.
       -1   -1    0    0    0  501  0.00000000000E+00  0.00000000000E+00 -0.62883980585E+03  0.62883980587E+03  0.50400001928E-02 0. -1.
    10030    2    1    2    0    0  0.00000000000E+00  0.00000000000E+00  0.49341585042E+03  0.17510954622E+04  0.16801416953E+04 0.  0.
        3    1    3    3  502    0  0.37618325592E+03  0.70501702330E+03 -0.23381067199E+02  0.79944326233E+03  0.10100000352E+00 0. -1.
       -3    1    3    3    0  502 -0.37618325592E+03 -0.70501702330E+03  0.51679691762E+03  0.95165219983E+03  0.10100000352E+00 0.  1.
</event>
<event>
 5   0  0.1215233E-04  0.1645824E+04  0.7818609E-02  0.8792881E-01
       -1   -1    0    0    0  501  0.00000000000E+00  0.00000000000E+00  0.81658463813E+03  0.81658463815E+03  0.50400001928E-02 0. -1.
        1   -1    0    0  501    0  0.00000000000E+00  0.00000000000E+00 -0.82928811786E+03  0.82928811787E+03  0.50400001928E-02 0.  1.
    10030    2    1    2    0    0  0.00000000000E+00  0.00000000000E+00 -0.12703479727E+02  0.16458727560E+04  0.16458237301E+04 0.  0.
        2    1    3    3  502    0 -0.22075139207E+02 -0.44321447441E+03  0.68667507626E+03  0.81758733017E+03  0.25500000920E-02 0. -1.
       -2    1    3    3    0  502  0.22075139207E+02  0.44321447441E+03 -0.69937855599E+03  0.82828542585E+03  0.25500000920E-02 0.  1.
</event>
<event>
 5   0  0.2242967E-04  0.1705088E+04  0.7818609E-02  0.8758468E-01
       -2   -1    0    0    0  501  0.00000000000E+00  0.00000000000E+00  0.59902089481E+03  0.59902089482E+03  0.25500000920E-02 0. -1.
        2   -1    0    0  501    0  0.00000000000E+00  0.00000000000E+00 -0.12133661116E+04  0.12133661116E+04  0.25500000920E-02 0.  1.
    10030    2    1    2    0    0  0.00000000000E+00  0.00000000000E+00 -0.61434521679E+03  0.18123870064E+04  0.17050884480E+04 0.  0.
        4    1    3    3  502    0 -0.45315555265E+03 -0.39923138981E+01  0.46039432141E+03  0.64601117448E+03  0.12699999809E+01 0. -1.
       -4    1    3    3    0  502  0.45315555265E+03  0.39923138981E+01 -0.10747395382E+04  0.11663758319E+04  0.12699999809E+01 0.  1.
</event>
<event>
 5   0  0.1204741E-04  0.1727309E+04  0.7818609E-02  0.8745941E-01
       -1   -1    0    0    0  501  0.00000000000E+00  0.00000000000E+00  0.94105022812E+03  0.94105022814E+03  0.50400001928E-02 0. -1.
        1   -1    0    0  501    0  0.00000000000E+00  0.00000000000E+00 -0.79262384814E+03  0.79262384815E+03  0.50400001928E-02 0.  1.
    10030    2    1    2    0    0  0.00000000000E+00  0.00000000000E+00  0.14842637999E+03  0.17336740763E+04  0.17273087195E+04 0.  0.
        1    1    3    3  502    0 -0.56711708395E+03 -0.60343489903E+03  0.32035842753E+03  0.88791046080E+03  0.50400001928E-02 0. -1.
       -1    1    3    3    0  502  0.56711708395E+03  0.60343489903E+03 -0.17193204754E+03  0.84576361549E+03  0.50400001928E-02 0.  1.
</event>
<event>
 5   0  0.1186302E-04  0.1701548E+04  0.7818609E-02  0.8760482E-01
       -1   -1    0    0    0  501  0.00000000000E+00  0.00000000000E+00  0.81158214764E+03  0.81158214766E+03  0.50400001928E-02 0. -1.
        1   -1    0    0  501    0  0.00000000000E+00  0.00000000000E+00 -0.89185853256E+03  0.89185853257E+03  0.50400001928E-02 0.  1.
    10030    2    1    2    0    0  0.00000000000E+00  0.00000000000E+00 -0.80276384912E+02  0.17034406802E+04  0.17015480755E+04 0.  0.
        3    1    3    3  502    0  0.27668842317E+03 -0.79610407716E+03  0.76086881765E+02  0.84624311458E+03  0.10100000352E+00 0. -1.
       -3    1    3    3    0  502 -0.27668842317E+03  0.79610407716E+03 -0.15636326668E+03  0.85719756565E+03  0.10100000352E+00 0.  1.
</event>
<event>
 5   0  0.2224454E-04  0.1695557E+04  0.7818609E-02  0.8763903E-01
       -2   -1    0    0    0  501  0.00000000000E+00  0.00000000000E+00  0.81789434003E+03  0.81789434003E+03  0.25500000920E-02 0.  1.
        2   -1    0    0  501    0  0.00000000000E+00  0.00000000000E+00 -0.87875406801E+03  0.87875406801E+03  0.25500000920E-02 0. -1.
    10030    2    1    2    0    0  0.00000000000E+00  0.00000000000E+00 -0.60859727977E+02  0.16966484080E+04  0.16955565204E+04 0.  0.
        2    1    3    3  502    0 -0.63895831955E+03  0.13450288226E+03  0.51063010895E+03  0.82891607997E+03  0.25500000920E-02 0.  1.
       -2    1    3    3    0  502  0.63895831955E+03 -0.13450288226E+03 -0.57148983693E+03  0.86773232807E+03  0.25500000920E-02 0. -1.
</event>
<event>
 5   0  0.2242967E-04  0.1700985E+04  0.7818609E-02  0.8760803E-01
        2   -1    0    0  501    0  0.00000000000E+00  0.00000000000E+00  0.60149281215E+03  0.60149281215E+03  0.25500000920E-02 0.  1.
       -2   -1    0    0    0  501  0.00000000000E+00  0.00000000000E+00 -0.12025706866E+04  0.12025706866E+04  0.25500000920E-02 0. -1.
    10030    2    1    2    0    0  0.00000000000E+00  0.00000000000E+00 -0.60107787446E+03  0.18040634988E+04  0.17009851547E+04 0.  0.
        4    1    3    3  502    0  0.57227829575E+03  0.26033026196E+03  0.30693699169E+03  0.69963292007E+03  0.12699999809E+01 0.  1.
       -4    1    3    3    0  502 -0.57227829575E+03 -0.26033026196E+03 -0.90801486615E+03  0.11044305787E+04  0.12699999809E+01 0. -1.
</event>
<event>
 5   0  0.1234158E-04  0.1717283E+04  0.7818609E-02  0.8751568E-01
        1   -1    0    0  501    0  0.00000000000E+00  0.00000000000E+00  0.76954770446E+03  0.76954770447E+03  0.50400001928E-02 0. -1.
       -1   -1    0    0    0  501  0.00000000000E+00  0.00000000000E+00 -0.95805050061E+03  0.95805050062E+03  0.50400001928E-02 0.  1.
    10030    2    1    2    0    0  0.00000000000E+00  0.00000000000E+00 -0.18850279615E+03  0.17275982051E+04  0.17172833936E+04 0.  0.
        5    1    3    3  502    0  0.24885086523E+03  0.19829221864E+03 -0.89653567109E+03  0.95133845535E+03  0.46999998093E+01 0.  1.
       -5    1    3    3    0  502 -0.24885086523E+03 -0.19829221864E+03  0.70803287493E+03  0.77625974975E+03  0.46999998093E+01 0. -1.
</event>
<event>
 5   0  0.2242967E-04  0.1709483E+04  0.7818609E-02  0.8755974E-01
        2   -1    0    0  501    0  0.00000000000E+00  0.00000000000E+00  0.18167489424E+04  0.18167489424E+04  0.25500000920E-02 0.  1.
       -2   -1    0    0    0  501  0.00000000000E+00  0.00000000000E+00 -0.40213740344E+03  0.40213740345E+03  0.25500000920E-02 0. -1.
    10030    2    1    2    0    0  0.00000000000E+00  0.00000000000E+00  0.14146115390E+04  0.22188863458E+04  0.17094826146E+04 0.  0.
        4    1    3    3  502    0 -0.47786465931E+03 -0.22758086320E+03  0.15784411770E+04  0.16648200636E+04  0.12699999809E+01 0.  1.
       -4    1    3    3    0  502  0.47786465931E+03  0.22758086320E+03 -0.16382963807E+03  0.55406628225E+03  0.12699999809E+01 0. -1.
</event>
<event>
 5   0  0.1215233E-04  0.1706463E+04  0.7818609E-02  0.8757687E-01
        1   -1    0    0  501    0  0.00000000000E+00  0.00000000000E+00  0.12624821316E+04  0.12624821316E+04  0.50400001928E-02 0.  1.
       -1   -1    0    0    0  501  0.00000000000E+00  0.00000000000E+00 -0.57664467637E+03  0.57664467639E+03  0.50400001928E-02 0. -1.
    10030    2    1    2    0    0  0.00000000000E+00  0.00000000000E+00  0.68583745526E+03  0.18391268080E+04  0.17064625402E+04 0.  0.
        2    1    3    3  502    0  0.29947131964E+03  0.79867994855E+03  0.32054762399E+03  0.91122089021E+03  0.25500000920E-02 0. -1.
       -2    1    3    3    0  502 -0.29947131964E+03 -0.79867994855E+03  0.36528983127E+03  0.92790591783E+03  0.25500000920E-02 0.  1.
</event>
<event>
 5   0  0.2356829E-04  0.1747966E+04  0.7818609E-02  0.8734471E-01
        2   -1    0    0  501    0  0.00000000000E+00  0.00000000000E+00  0.37666961115E+03  0.37666961116E+03  0.25500000920E-02 0.  1.
       -2   -1    0    0    0  501  0.00000000000E+00  0.00000000000E+00 -0.20278939023E+04  0.20278939024E+04  0.25500000920E-02 0. -1.
    10030    2    1    2    0    0  0.00000000000E+00  0.00000000000E+00 -0.16512242912E+04  0.24045635135E+04  0.17479656835E+04 0.  0.
        5    1    3    3  502    0  0.20856222132E+03 -0.37413007232E+02 -0.19920065864E+04  0.20032499254E+04  0.46999998093E+01 0. -1.
       -5    1    3    3    0  502 -0.20856222132E+03  0.37413007232E+02  0.34078229522E+03  0.40131358812E+03  0.46999998093E+01 0.  1.
</event>
<event>
 5   0  0.1126958E-04  0.1686267E+04  0.7818609E-02  0.8769236E-01
        1   -1    0    0  501    0  0.00000000000E+00  0.00000000000E+00  0.20327988275E+04  0.20327988275E+04  0.50400001928E-02 0.  1.
       -1   -1    0    0    0  501  0.00000000000E+00  0.00000000000E+00 -0.34970212468E+03  0.34970212471E+03  0.50400001928E-02 0. -1.
    10030    2    1    2    0    0  0.00000000000E+00  0.00000000000E+00  0.16830967029E+04  0.23825009523E+04  0.16862669647E+04 0.  0.
        4    1    3    3  502    0 -0.50695767194E+03 -0.33616462177E+03  0.16664356068E+04  0.17739847741E+04  0.12699999809E+01 0.  1.
       -4    1    3    3    0  502  0.50695767194E+03  0.33616462177E+03  0.16661096018E+02  0.60851617816E+03  0.12699999809E+01 0. -1.
</event>
<event>
 5   0  0.2288806E-04  0.1739329E+04  0.7818609E-02  0.8739246E-01
       -2   -1    0    0    0  501  0.00000000000E+00  0.00000000000E+00  0.50642577832E+03  0.50642577833E+03  0.25500000920E-02 0.  1.
        2   -1    0    0  501    0  0.00000000000E+00  0.00000000000E+00 -0.14934388743E+04  0.14934388743E+04  0.25500000920E-02 0. -1.
    10030    2    1    2    0    0  0.00000000000E+00  0.00000000000E+00 -0.98701309595E+03  0.19998646526E+04  0.17393285420E+04 0.  0.
        3    1    3    3  502    0  0.24261322611E+03 -0.77571796981E+03 -0.13778339652E+03  0.82436874075E+03  0.10100000352E+00 0.  1.
       -3    1    3    3    0  502 -0.24261322611E+03  0.77571796981E+03 -0.84922969943E+03  0.11754959118E+04  0.10100000352E+00 0. -1.
</event>
<event>
 5   0  0.8372750E-05  0.1699163E+04  0.7818609E-02  0.8761842E-01
        4   -1    0    0  501    0  0.00000000000E+00  0.00000000000E+00  0.46938982448E+03  0.46939154256E+03  0.12699999809E+01 0.  1.
       -4   -1    0    0    0  501  0.00000000000E+00  0.00000000000E+00 -0.15377113312E+04  0.15377118557E+04  0.12699999809E+01 0. -1.
    10030    2    1    2    0    0  0.00000000000E+00  0.00000000000E+00 -0.10683215068E+04  0.20071033983E+04  0.16991625024E+04 0.  0.
        4    1    3    3  502    0 -0.18688751469E+02 -0.30765095624E+03  0.40101938501E+03  0.50578309616E+03  0.12699999809E+01 0.  1.
       -4    1    3    3    0  502  0.18688751469E+02  0.30765095624E+03 -0.14693408918E+04  0.15013203021E+04  0.12699999809E+01 0. -1.
</event>
<event>
 5   0  0.2224454E-04  0.1708157E+04  0.7818609E-02  0.8756726E-01
       -2   -1    0    0    0  501  0.00000000000E+00  0.00000000000E+00  0.10436452377E+04  0.10436452377E+04  0.25500000920E-02 0.  1.
        2   -1    0    0  501    0  0.00000000000E+00  0.00000000000E+00 -0.69894426213E+03  0.69894426213E+03  0.25500000920E-02 0. -1.
    10030    2    1    2    0    0  0.00000000000E+00  0.00000000000E+00  0.34470097557E+03  0.17425894998E+04  0.17081567265E+04 0.  0.
        2    1    3    3  502    0  0.46968459413E+03 -0.70912336908E+03  0.25130754260E+03  0.88691321532E+03  0.25500000920E-02 0.  1.
       -2    1    3    3    0  502 -0.46968459413E+03  0.70912336908E+03  0.93393432964E+02  0.85567628451E+03  0.25500000920E-02 0. -1.
</event>
<event>
 5   0  0.8372750E-05  0.1724119E+04  0.7818609E-02  0.8747727E-01
        3   -1    0    0  501    0  0.00000000000E+00  0.00000000000E+00  0.65218642071E+03  0.65218642853E+03  0.10100000352E+00 0.  1.
       -3   -1    0    0    0  501  0.00000000000E+00  0.00000000000E+00 -0.11394698452E+04  0.11394698497E+04  0.10100000352E+00 0. -1.
    10030    2    1    2    0    0  0.00000000000E+00  0.00000000000E+00 -0.48728342453E+03  0.17916562783E+04  0.17241192197E+04 0.  0.
        1    1    3    3  502    0 -0.20612876271E+03 -0.39399260958E+03  0.52381860530E+03  0.68709910093E+03  0.50400001928E-02 0.  1.
       -1    1    3    3    0  502  0.20612876271E+03  0.39399260958E+03 -0.10111020298E+04  0.11045571773E+04  0.50400001928E-02 0. -1.
</event>
<event>
 5   0  0.2242967E-04  0.1699828E+04  0.7818609E-02  0.8761462E-01
       -2   -1    0    0    0  501  0.00000000000E+00  0.00000000000E+00  0.49812649077E+03  0.49812649078E+03  0.25500000920E-02 0.  1.
        2   -1    0    0  501    0  0.00000000000E+00  0.00000000000E+00 -0.14501414289E+04  0.14501414289E+04  0.25500000920E-02 0. -1.
    10030    2    1    2    0    0  0.00000000000E+00  0.00000000000E+00 -0.95201493812E+03  0.19482679197E+04  0.16998280632E+04 0.  0.
        4    1    3    3  502    0 -0.32725782811E+02 -0.81092947940E+03 -0.76522656915E+03  0.11154599556E+04  0.12699999809E+01 0.  1.
       -4    1    3    3    0  502  0.32725782811E+02  0.81092947940E+03 -0.18678836897E+03  0.83280796412E+03  0.12699999809E+01 0. -1.
</event>
<event>
 5   0  0.2356829E-04  0.1709846E+04  0.7818609E-02  0.8755768E-01
       -2   -1    0    0    0  501  0.00000000000E+00  0.00000000000E+00  0.11092305502E+04  0.11092305502E+04  0.25500000920E-02 0.  1.
        2   -1    0    0  501    0  0.00000000000E+00  0.00000000000E+00 -0.65891955675E+03  0.65891955675E+03  0.25500000920E-02 0. -1.
    10030    2    1    2    0    0  0.00000000000E+00  0.00000000000E+00  0.45031099341E+03  0.17681501069E+04  0.17098464287E+04 0.  0.
        5    1    3    3  502    0  0.51361270081E+03  0.62541093617E+03 -0.59803490240E+02  0.81150193650E+03  0.46999998093E+01 0. -1.
       -5    1    3    3    0  502 -0.51361270081E+03 -0.62541093617E+03  0.51011448365E+03  0.95664817040E+03  0.46999998093E+01 0.  1.
</event>
<event>
 5   0  0.1126958E-04  0.1701494E+04  0.7818609E-02  0.8760513E-01
        1   -1    0    0  501    0  0.00000000000E+00  0.00000000000E+00  0.75720524083E+03  0.75720524085E+03  0.50400001928E-02 0.  1.
       -1   -1    0    0    0  501  0.00000000000E+00  0.00000000000E+00 -0.95584490258E+03  0.95584490259E+03  0.50400001928E-02 0. -1.
    10030    2    1    2    0    0  0.00000000000E+00  0.00000000000E+00 -0.19863966175E+03  0.17130501434E+04  0.17014943664E+04 0.  0.
        4    1    3    3  502    0  0.40843790328E+03 -0.27480104940E+03 -0.79788518974E+03  0.93752841370E+03  0.12699999809E+01 0. -1.
       -4    1    3    3    0  502 -0.40843790328E+03  0.27480104940E+03  0.59924552799E+03  0.77552172974E+03  0.12699999809E+01 0.  1.
</event>
<event>
 5   0  0.8372750E-05  0.1702378E+04  0.7818609E-02  0.8760009E-01
        4   -1    0    0  501    0  0.00000000000E+00  0.00000000000E+00  0.63154130028E+03  0.63154257724E+03  0.12699999809E+01 0.  1.
       -4   -1    0    0    0  501  0.00000000000E+00  0.00000000000E+00 -0.11472267380E+04  0.11472274409E+04  0.12699999809E+01 0. -1.
    10030    2    1    2    0    0  0.00000000000E+00  0.00000000000E+00 -0.51568543770E+03  0.17787700182E+04  0.17023781328E+04 0.  0.
        5    1    3    3  502    0  0.34495015094E+03 -0.77437197482E+03 -0.17786943520E+03  0.86619985454E+03  0.46999998093E+01 0. -1.
       -5    1    3    3    0  502 -0.34495015094E+03  0.77437197482E+03 -0.33781600250E+03  0.91257016364E+03  0.46999998093E+01 0.  1.
</event>
<event>
 5   0  0.2356829E-04  0.1706768E+04  0.7818609E-02  0.8757514E-01
       -2   -1    0    0    0  501  0.00000000000E+00  0.00000000000E+00  0.58476502360E+03  0.58476502360E+03  0.25500000920E-02 0.  1.
        2   -1    0    0  501    0  0.00000000000E+00  0.00000000000E+00 -0.12453964657E+04  0.12453964657E+04  0.25500000920E-02 0. -1.
    10030    2    1    2    0    0  0.00000000000E+00  0.00000000000E+00 -0.66063144210E+03  0.18301614893E+04  0.17067680494E+04 0.  0.
        5    1    3    3  502    0  0.51388762212E+03  0.12061499957E+02 -0.10607505892E+04  0.11787450405E+04  0.46999998093E+01 0. -1.
       -5    1    3    3    0  502 -0.51388762212E+03 -0.12061499957E+02  0.40011914709E+03  0.65141644884E+03  0.46999998093E+01 0.  1.
</event>
<event>
 5   0  0.1186302E-04  0.1700249E+04  0.7818609E-02  0.8761223E-01
        1   -1    0    0  501    0  0.00000000000E+00  0.00000000000E+00  0.14831737924E+04  0.14831737924E+04  0.50400001928E-02 0. -1.
       -1   -1    0    0    0  501  0.00000000000E+00  0.00000000000E+00 -0.48727348136E+03  0.48727348139E+03  0.50400001928E-02 0.  1.
    10030    2    1    2    0    0  0.00000000000E+00  0.00000000000E+00  0.99590031102E+03  0.19704472738E+04  0.17002485198E+04 0.  0.
        3    1    3    3  502    0 -0.21738756048E+03 -0.39744591255E+03 -0.33573806126E+03  0.56386227116E+03  0.10100000352E+00 0.  1.
       -3    1    3    3    0  502  0.21738756048E+03  0.39744591255E+03  0.13316383723E+04  0.14065850026E+04  0.10100000352E+00 0. -1.
</event>
<event>
 5   0  0.2234723E-04  0.1711049E+04  0.7818609E-02  0.8755088E-01
        2   -1    0    0  501    0  0.00000000000E+00  0.00000000000E+00  0.20559845479E+04  0.20559845479E+04  0.25500000920E-02 0.  1.
       -2   -1    0    0    0  501  0.00000000000E+00  0.00000000000E+00 -0.35599576885E+03  0.35599576886E+03  0.25500000920E-02 0. -1.
    10030    2    1    2    0    0  0.00000000000E+00  0.00000000000E+00  0.16999887790E+04  0.24119803168E+04  0.17110485673E+04 0.  0.
        1    1    3    3  502    0 -0.55459957416E+02  0.82167529158E+03  0.11766432968E+04  0.14362157009E+04  0.50400001928E-02 0.  1.
       -1    1    3    3    0  502  0.55459957416E+02 -0.82167529158E+03  0.52334548223E+03  0.97576461581E+03  0.50400001928E-02 0. -1.
</event>
<event>
 5   0  0.1204741E-04  0.1699096E+04  0.7818609E-02  0.8761880E-01
        1   -1    0    0  501    0  0.00000000000E+00  0.00000000000E+00  0.22999323473E+04  0.22999323473E+04  0.50400001928E-02 0. -1.
       -1   -1    0    0    0  501  0.00000000000E+00  0.00000000000E+00 -0.31380571289E+03  0.31380571294E+03  0.50400001928E-02 0.  1.
    10030    2    1    2    0    0  0.00000000000E+00  0.00000000000E+00  0.19861266344E+04  0.26137380603E+04  0.16990961243E+04 0.  0.
        1    1    3    3  502    0  0.26168629778E+03  0.50562759639E+02 -0.24782600446E+03  0.36394235755E+03  0.50400001928E-02 0.  1.
       -1    1    3    3    0  502 -0.26168629778E+03 -0.50562759639E+02  0.22339526389E+04  0.22497957027E+04  0.50400001928E-02 0. -1.
</event>
<event>
 5   0  0.2234723E-04  0.1723717E+04  0.7818609E-02  0.8747952E-01
       -2   -1    0    0    0  501  0.00000000000E+00  0.00000000000E+00  0.10988139827E+04  0.10988139827E+04  0.25500000920E-02 0. -1.
        2   -1    0    0  501    0  0.00000000000E+00  0.00000000000E+00 -0.67600186896E+03  0.67600186896E+03  0.25500000920E-02 0.  1.
    10030    2    1    2    0    0  0.00000000000E+00  0.00000000000E+00  0.42281211378E+03  0.17748158517E+04  0.17237172691E+04 0.  0.
        1    1    3    3  502    0  0.47267055956E+03 -0.65066436808E+03  0.53046082616E+03  0.96341593608E+03  0.50400001928E-02 0.  1.
       -1    1    3    3    0  502 -0.47267055956E+03  0.65066436808E+03 -0.10764871239E+03  0.81139991562E+03  0.50400001928E-02 0. -1.
</event>
<event>
 5   0  0.2234723E-04  0.1705577E+04  0.7818609E-02  0.8758190E-01
       -2   -1    0    0    0  501  0.00000000000E+00  0.00000000000E+00  0.47975948286E+03  0.47975948287E+03  0.25500000920E-02 0. -1.
        2   -1    0    0  501    0  0.00000000000E+00  0.00000000000E+00 -0.15158604916E+04  0.15158604916E+04  0.25500000920E-02 0.  1.
    10030    2    1    2    0    0  0.00000000000E+00  0.00000000000E+00 -0.10361010087E+04  0.19956199745E+04  0.17055772578E+04 0.  0.
        1    1    3    3  502    0 -0.45637907252E+03 -0.29446786358E+03 -0.12873165995E+04  0.13972033524E+04  0.50400001928E-02 0.  1.
       -1    1    3    3    0  502  0.45637907252E+03  0.29446786358E+03  0.25121559077E+03  0.59841662209E+03  0.50400001928E-02 0. -1.
</event>
<event>
 5   0  0.2356829E-04  0.1706195E+04  0.7818609E-02  0.8757839E-01
       -2   -1    0    0    0  501  0.00000000000E+00  0.00000000000E+00  0.83227352846E+03  0.83227352847E+03  0.25500000920E-02 0. -1.
        2   -1    0    0  501    0  0.00000000000E+00  0.00000000000E+00 -0.87444274098E+03  0.87444274099E+03  0.25500000920E-02 0.  1.
    10030    2    1    2    0    0  0.00000000000E+00  0.00000000000E+00 -0.42169212519E+02  0.17067162695E+04  0.17061952356E+04 0.  0.
        5    1    3    3  502    0  0.11878401530E+03 -0.12424751662E+03 -0.85692721473E+03  0.87400997078E+03  0.46999998093E+01 0.  1.
       -5    1    3    3    0  502 -0.11878401530E+03  0.12424751662E+03  0.81475800221E+03  0.83270629867E+03  0.46999998093E+01 0. -1.
</event>
<event>
 5   0  0.2288806E-04  0.1703494E+04  0.7818609E-02  0.8759374E-01
       -2   -1    0    0    0  501  0.00000000000E+00  0.00000000000E+00  0.14054244754E+04  0.14054244754E+04  0.25500000920E-02 0.  1.
        2   -1    0    0  501    0  0.00000000000E+00  0.00000000000E+00 -0.51619501466E+03  0.51619501466E+03  0.25500000920E-02 0. -1.
    10030    2    1    2    0    0  0.00000000000E+00  0.00000000000E+00  0.88922946073E+03  0.19216194901E+04  0.17034941828E+04 0.  0.
        3    1    3    3  502    0  0.49229082144E+03 -0.57776662885E+03  0.87325606761E+01  0.75910526154E+03  0.10100000352E+00 0. -1.
       -3    1    3    3    0  502 -0.49229082144E+03  0.57776662885E+03  0.88049690006E+03  0.11625142285E+04  0.10100000352E+00 0.  1.
</event>
<event>
 5   0  0.1215233E-04  0.1594515E+04  0.7818609E-02  0.8823925E-01
        1   -1    0    0  501    0  0.00000000000E+00  0.00000000000E+00  0.90719309922E+03  0.90719309923E+03  0.50400001928E-02 0. -1.
       -1   -1    0    0    0  501  0.00000000000E+00  0.00000000000E+00 -0.70064395762E+03  0.70064395763E+03  0.50400001928E-02 0.  1.
    10030    2    1    2    0    0  0.00000000000E+00  0.00000000000E+00  0.20654914160E+03  0.16078370569E+04  0.15945148019E+04 0.  0.
        2    1    3    3  502    0  0.21431801102E+03  0.64686582346E+03  0.52055786717E+03  0.85752439994E+03  0.25500000920E-02 0. -1.
       -2    1    3    3    0  502 -0.21431801102E+03 -0.64686582346E+03 -0.31400872556E+03  0.75031265693E+03  0.25500000920E-02 0.  1.
</event>
<event>
 5   0  0.1186302E-04  0.1708709E+04  0.7818609E-02  0.8756413E-01
       -1   -1    0    0    0  501  0.00000000000E+00  0.00000000000E+00  0.70978678068E+03  0.70978678070E+03  0.50400001928E-02 0. -1.
        1   -1    0    0  501    0  0.00000000000E+00  0.00000000000E+00 -0.10283673866E+04  0.10283673866E+04  0.50400001928E-02 0.  1.
    10030    2    1    2    0    0  0.00000000000E+00  0.00000000000E+00 -0.31858060594E+03  0.17381541673E+04  0.17087089591E+04 0.  0.
        3    1    3    3  502    0  0.53194249329E+03 -0.95979768948E+02 -0.83231593615E+03  0.99243375597E+03  0.10100000352E+00 0.  1.
       -3    1    3    3    0  502 -0.53194249329E+03  0.95979768948E+02  0.51373533021E+03  0.74572041136E+03  0.10100000352E+00 0. -1.
</event>
<event>
 5   0  0.8372750E-05  0.1708653E+04  0.7818609E-02  0.8756445E-01
       -3   -1    0    0    0  501  0.00000000000E+00  0.00000000000E+00  0.64728263204E+03  0.64728263992E+03  0.10100000352E+00 0.  1.
        3   -1    0    0  501    0  0.00000000000E+00  0.00000000000E+00 -0.11275966264E+04  0.11275966309E+04  0.10100000352E+00 0. -1.
    10030    2    1    2    0    0  0.00000000000E+00  0.00000000000E+00 -0.48031399436E+03  0.17748792708E+04  0.17086529469E+04 0.  0.
        3    1    3    3  502    0  0.25372804789E+03  0.56112873806E+03  0.37493446321E+03  0.72098491307E+03  0.10100000352E+00 0.  1.
       -3    1    3    3    0  502 -0.25372804789E+03 -0.56112873806E+03 -0.85524845757E+03  0.10538943578E+04  0.10100000352E+00 0. -1.
</event>
<event>
 5   0  0.1215233E-04  0.1703384E+04  0.7818609E-02  0.8759437E-01
        1   -1    0    0  501    0  0.00000000000E+00  0.00000000000E+00  0.23873569442E+04  0.23873569442E+04  0.50400001928E-02 0. -1.
       -1   -1    0    0    0  501  0.00000000000E+00  0.00000000000E+00 -0.30384193281E+03  0.30384193285E+03  0.50400001928E-02 0.  1.
    10030    2    1    2    0    0  0.00000000000E+00  0.00000000000E+00  0.20835150114E+04  0.26911988771E+04  0.17033838655E+04 0.  0.
        2    1    3    3  502    0 -0.33482269242E+03 -0.68569543825E+03  0.16394048663E+04  0.18082955470E+04  0.25500000920E-02 0.  1.
       -2    1    3    3    0  502  0.33482269242E+03  0.68569543825E+03  0.44411014511E+03  0.88290333014E+03  0.25500000920E-02 0. -1.
</event>
<event>
 5   0  0.1204741E-04  0.1700047E+04  0.7818609E-02  0.8761338E-01
        1   -1    0    0  501    0  0.00000000000E+00  0.00000000000E+00  0.38323155234E+03  0.38323155238E+03  0.50400001928E-02 0.  1.
       -1   -1    0    0    0  501  0.00000000000E+00  0.00000000000E+00 -0.18853864261E+04  0.18853864261E+04  0.50400001928E-02 0. -1.
    10030    2    1    2    0    0  0.00000000000E+00  0.00000000000E+00 -0.15021548738E+04  0.22686179785E+04  0.17000465487E+04 0.  0.
        1    1    3    3  502    0 -0.20283772981E+02 -0.11342044226E+03 -0.18749174648E+04  0.18784544520E+04  0.50400001928E-02 0. -1.
       -1    1    3    3    0  502  0.20283772981E+02  0.11342044226E+03  0.37276259102E+03  0.39016352656E+03  0.50400001928E-02 0.  1.
</event>
<event>
 5   0  0.2242967E-04  0.1715120E+04  0.7818609E-02  0.8752788E-01
       -2   -1    0    0    0  501  0.00000000000E+00  0.00000000000E+00  0.73485480882E+03  0.73485480882E+03  0.25500000920E-02 0.  1.
        2   -1    0    0  501    0  0.00000000000E+00  0.00000000000E+00 -0.10007542268E+04  0.10007542268E+04  0.25500000920E-02 0. -1.
    10030    2    1    2    0    0  0.00000000000E+00  0.00000000000E+00 -0.26589941802E+03  0.17356090357E+04  0.17151198862E+04 0.  0.
        4    1    3    3  502    0  0.55475191713E+03 -0.31182062539E+03 -0.71464332463E+03  0.95692135848E+03  0.12699999809E+01 0. -1.
       -4    1    3    3    0  502 -0.55475191713E+03  0.31182062539E+03  0.44874390661E+03  0.77868767718E+03  0.12699999809E+01 0.  1.
</event>
<event>
 5   0  0.1186302E-04  0.1806483E+04  0.7818609E-02  0.8702860E-01
        1   -1    0    0  501    0  0.00000000000E+00  0.00000000000E+00  0.17463630329E+04  0.17463630329E+04  0.50400001928E-02 0. -1.
       -1   -1    0    0    0  501  0.00000000000E+00  0.00000000000E+00 -0.46716795899E+03  0.46716795902E+03  0.50400001928E-02 0.  1.
    10030    2    1    2    0    0  0.00000000000E+00  0.00000000000E+00  0.12791950739E+04  0.22135309919E+04  0.18064826086E+04 0.  0.
        3    1    3    3  502    0 -0.17150529052E+03 -0.85199626493E+03  0.33812452797E+03  0.93254485509E+03  0.10100000352E+00 0.  1.
       -3    1    3    3    0  502  0.17150529052E+03  0.85199626493E+03  0.94107054595E+03  0.12809861368E+04  0.10100000352E+00 0. -1.
</event>
<event>
 5   0  0.2224454E-04  0.1703002E+04  0.7818609E-02  0.8759654E-01
        2   -1    0    0  501    0  0.00000000000E+00  0.00000000000E+00  0.84519916677E+03  0.84519916678E+03  0.25500000920E-02 0. -1.
       -2   -1    0    0    0  501  0.00000000000E+00  0.00000000000E+00 -0.85784964160E+03  0.85784964161E+03  0.25500000920E-02 0.  1.
    10030    2    1    2    0    0  0.00000000000E+00  0.00000000000E+00 -0.12650474832E+02  0.17030488084E+04  0.17030018230E+04 0.  0.
        2    1    3    3  502    0 -0.82468456147E+03 -0.20072207731E+03 -0.74590024698E+02  0.85203148418E+03  0.25500000920E-02 0. -1.
       -2    1    3    3    0  502  0.82468456147E+03  0.20072207731E+03  0.61939549866E+02  0.85101732420E+03  0.25500000920E-02 0.  1.
</event>
<event>
 5   0  0.1234158E-04  0.1698979E+04  0.7818609E-02  0.8761947E-01
       -1   -1    0    0    0  501  0.00000000000E+00  0.00000000000E+00  0.85401933936E+03  0.85401933937E+03  0.50400001928E-02 0.  1.
        1   -1    0    0  501    0  0.00000000000E+00  0.00000000000E+00 -0.84498412060E+03  0.84498412062E+03  0.50400001928E-02 0. -1.
    10030    2    1    2    0    0  0.00000000000E+00  0.00000000000E+00  0.90352187555E+01  0.16990034600E+04  0.16989794354E+04 0.  0.
        5    1    3    3  502    0 -0.84324964168E+03  0.45176444636E+02 -0.87678168789E+02  0.84901143728E+03  0.46999998093E+01 0.  1.
       -5    1    3    3    0  502  0.84324964168E+03 -0.45176444636E+02  0.96713387545E+02  0.84999202271E+03  0.46999998093E+01 0. -1.
</event>
<event>
 5   0  0.2242967E-04  0.1751669E+04  0.7818609E-02  0.8732432E-01
        2   -1    0    0  501    0  0.00000000000E+00  0.00000000000E+00  0.24306395087E+04  0.24306395087E+04  0.25500000920E-02 0.  1.
       -2   -1    0    0    0  501  0.00000000000E+00  0.00000000000E+00 -0.31559010498E+03  0.31559010499E+03  0.25500000920E-02 0. -1.
    10030    2    1    2    0    0  0.00000000000E+00  0.00000000000E+00  0.21150494038E+04  0.27462296137E+04  0.17516686647E+04 0.  0.
        4    1    3    3  502    0 -0.23840907381E+03 -0.36106147833E+03  0.22513860939E+04  0.22925848369E+04  0.12699999809E+01 0.  1.
       -4    1    3    3    0  502  0.23840907381E+03  0.36106147833E+03 -0.13633669012E+03  0.45364477687E+03  0.12699999809E+01 0. -1.
</event>
<event>
 5   0  0.2234723E-04  0.1693751E+04  0.7818609E-02  0.8764936E-01
        2   -1    0    0  501    0  0.00000000000E+00  0.00000000000E+00  0.93568151875E+03  0.93568151875E+03  0.25500000920E-02 0. -1.
       -2   -1    0    0    0  501  0.00000000000E+00  0.00000000000E+00 -0.76649817608E+03  0.76649817608E+03  0.25500000920E-02 0.  1.
    10030    2    1    2    0    0  0.00000000000E+00  0.00000000000E+00  0.16918334267E+03  0.17021796948E+04  0.16937510768E+04 0.  0.
        1    1    3    3  502    0  0.52082305973E+03  0.66739215125E+03  0.10771124668E+03  0.85338775230E+03  0.50400001928E-02 0. -1.
       -1    1    3    3    0  502 -0.52082305973E+03 -0.66739215125E+03  0.61472095990E+02  0.84879194253E+03  0.50400001928E-02 0.  1.
</event>
<event>
 5   0  0.2234723E-04  0.1704165E+04  0.7818609E-02  0.8758992E-01
        2   -1    0    0  501    0  0.00000000000E+00  0.00000000000E+00  0.13808466437E+04  0.13808466437E+04  0.25500000920E-02 0. -1.
       -2   -1    0    0    0  501  0.00000000000E+00  0.00000000000E+00 -0.52579681164E+03  0.52579681165E+03  0.25500000920E-02 0.  1.
    10030    2    1    2    0    0  0.00000000000E+00  0.00000000000E+00  0.85504983205E+03  0.19066434553E+04  0.17041652063E+04 0.  0.
        1    1    3    3  502    0 -0.23194182735E+03 -0.50997717772E+03  0.11458094650E+04  0.12754423010E+04  0.50400001928E-02 0. -1.
       -1    1    3    3    0  502  0.23194182735E+03  0.50997717772E+03 -0.29075963294E+03  0.63120115435E+03  0.50400001928E-02 0.  1.
</event>
<event>
 5   0  0.1126958E-04  0.1692515E+04  0.7818609E-02  0.8765645E-01
       -1   -1    0    0    0  501  0.00000000000E+00  0.00000000000E+00  0.40311871715E+03  0.40311871718E+03  0.50400001928E-02 0.  1.
        1   -1    0    0  501    0  0.00000000000E+00  0.00000000000E+00 -0.17765280843E+04  0.17765280843E+04  0.50400001928E-02 0. -1.
    10030    2    1    2    0    0  0.00000000000E+00  0.00000000000E+00 -0.13734093672E+04  0.21796468015E+04  0.16925149599E+04 0.  0.
        4    1    3    3  502    0 -0.63933338417E+03  0.53707151164E+03 -0.50939198386E+03  0.97809753647E+03  0.12699999809E+01 0.  1.
       -4    1    3    3    0  502  0.63933338417E+03 -0.53707151164E+03 -0.86401738329E+03  0.12015492650E+04  0.12699999809E+01 0. -1.
</event>
<event>
 5   0  0.2242967E-04  0.1689528E+04  0.7818609E-02  0.8767360E-01
        2   -1    0    0  501    0  0.00000000000E+00  0.00000000000E+00  0.64847337801E+03  0.64847337802E+03  0.25500000920E-02 0. -1.
       -2   -1    0    0    0  501  0.00000000000E+00  0.00000000000E+00 -0.11004711434E+04  0.11004711434E+04  0.25500000920E-02 0.  1.
    10030    2    1    2    0    0  0.00000000000E+00  0.00000000000E+00 -0.45199776535E+03  0.17489445214E+04  0.16895280285E+04 0.  0.
        4    1    3    3  502    0  0.40102675476E+03  0.13392896011E+03  0.53106548256E+03  0.67881631098E+03  0.12699999809E+01 0. -1.
       -4    1    3    3    0  502 -0.40102675476E+03 -0.13392896011E+03 -0.98306324791E+03  0.10701282104E+04  0.12699999809E+01 0.  1.
</event>
<event>
 5   0  0.2242967E-04  0.1687745E+04  0.7818609E-02  0.8768385E-01
       -2   -1    0    0    0  501  0.00000000000E+00  0.00000000000E+00  0.46999547786E+03  0.46999547787E+03  0.25500000920E-02 0.  1.
        2   -1    0    0  501    0  0.00000000000E+00  0.00000000000E+00 -0.15151645328E+04  0.15151645328E+04  0.25500000920E-02 0. -1.
    10030    2    1    2    0    0  0.00000000000E+00  0.00000000000E+00 -0.10451690549E+04  0.19851600107E+04  0.16877446236E+04 0.  0.
        4    1    3    3  502    0  0.30554686909E+03 -0.78658350302E+03 -0.51457505201E+03  0.98836308788E+03  0.12699999809E+01 0.  1.
       -4    1    3    3    0  502 -0.30554686909E+03  0.78658350302E+03 -0.53059400290E+03  0.99679692277E+03  0.12699999809E+01 0. -1.
</event>
<event>
 5   0  0.1215233E-04  0.1688271E+04  0.7818609E-02  0.8768082E-01
       -1   -1    0    0    0  501  0.00000000000E+00  0.00000000000E+00  0.81701461930E+03  0.81701461932E+03  0.50400001928E-02 0.  1.
        1   -1    0    0  501    0  0.00000000000E+00  0.00000000000E+00 -0.87215674470E+03  0.87215674472E+03  0.50400001928E-02 0. -1.
    10030    2    1    2    0    0  0.00000000000E+00  0.00000000000E+00 -0.55142125402E+02  0.16891713640E+04  0.16882710810E+04 0.  0.
        2    1    3    3  502    0  0.96675642717E+02  0.81461309074E+03 -0.22673535234E+03  0.85108729723E+03  0.25500000920E-02 0.  1.
       -2    1    3    3    0  502 -0.96675642717E+02 -0.81461309074E+03  0.17159322694E+03  0.83808406681E+03  0.25500000920E-02 0. -1.
</event>
<event>
 5   0  0.2242967E-04  0.1709453E+04  0.7818609E-02  0.8755992E-01
        2   -1    0    0  501    0  0.00000000000E+00  0.00000000000E+00  0.80362814418E+03  0.80362814418E+03  0.25500000920E-02 0. -1.
       -2   -1    0    0    0  501  0.00000000000E+00  0.00000000000E+00 -0.90907343200E+03  0.90907343200E+03  0.25500000920E-02 0.  1.
    10030    2    1    2    0    0  0.00000000000E+00  0.00000000000E+00 -0.10544528782E+03  0.17127015762E+04  0.17094525382E+04 0.  0.
        4    1    3    3  502    0 -0.99131969434E+02  0.24545223648E+03 -0.86696737551E+03  0.90648110342E+03  0.12699999809E+01 0.  1.
       -4    1    3    3    0  502  0.99131969434E+02 -0.24545223648E+03  0.76152208769E+03  0.80622047276E+03  0.12699999809E+01 0. -1.
</event>
<event>
 5   0  0.1234158E-04  0.1511929E+04  0.7818609E-02  0.8876558E-01
       -1   -1    0    0    0  501  0.00000000000E+00  0.00000000000E+00  0.39731414757E+03  0.39731414760E+03  0.50400001928E-02 0.  1.
        1   -1    0    0  501    0  0.00000000000E+00  0.00000000000E+00 -0.14383648427E+04  0.14383648427E+04  0.50400001928E-02 0. -1.
    10030    2    1    2    0    0  0.00000000000E+00  0.00000000000E+00 -0.10410506952E+04  0.18356789903E+04  0.15119294976E+04 0.  0.
        5    1    3    3  502    0 -0.28554049937E+03  0.26464735497E+02  0.32869490015E+03  0.43622951113E+03  0.46999998093E+01 0.  1.
       -5    1    3    3    0  502  0.28554049937E+03 -0.26464735497E+02 -0.13697455953E+04  0.13994494792E+04  0.46999998093E+01 0. -1.
</event>
<event>
 5   0  0.1234158E-04  0.1700567E+04  0.7818609E-02  0.8761041E-01
        1   -1    0    0  501    0  0.00000000000E+00  0.00000000000E+00  0.84910413043E+03  0.84910413045E+03  0.50400001928E-02 0. -1.
       -1   -1    0    0    0  501  0.00000000000E+00  0.00000000000E+00 -0.85146455164E+03  0.85146455165E+03  0.50400001928E-02 0.  1.
    10030    2    1    2    0    0  0.00000000000E+00  0.00000000000E+00 -0.23604212039E+01  0.17005686821E+04  0.17005670439E+04 0.  0.
        5    1    3    3  502    0  0.35138847659E+03  0.27281192714E+03  0.72343056785E+03  0.84927856771E+03  0.46999998093E+01 0. -1.
       -5    1    3    3    0  502 -0.35138847659E+03 -0.27281192714E+03 -0.72579098906E+03  0.85129011439E+03  0.46999998093E+01 0.  1.
</event>
<event>
 5   0  0.1234158E-04  0.1684628E+04  0.7818609E-02  0.8770180E-01
       -1   -1    0    0    0  501  0.00000000000E+00  0.00000000000E+00  0.95241870548E+03  0.95241870550E+03  0.50400001928E-02 0. -1.
        1   -1    0    0  501    0  0.00000000000E+00  0.00000000000E+00 -0.74493803164E+03  0.74493803166E+03  0.50400001928E-02 0.  1.
    10030    2    1    2    0    0  0.00000000000E+00  0.00000000000E+00  0.20748067385E+03  0.16973567372E+04  0.16846280489E+04 0.  0.
        5    1    3    3  502    0 -0.62122227274E+03 -0.42544381983E+03  0.48415272064E+03  0.89517903399E+03  0.46999998093E+01 0. -1.
       -5    1    3    3    0  502  0.62122227274E+03  0.42544381983E+03 -0.27667204680E+03  0.80217770317E+03  0.46999998093E+01 0.  1.
</event>
<event>
 5   0  0.1215233E-04  0.1712477E+04  0.7818609E-02  0.8754280E-01
       -1   -1    0    0    0  501  0.00000000000E+00  0.00000000000E+00  0.16359708639E+04  0.16359708640E+04  0.50400001928E-02 0.  1.
        1   -1    0    0  501    0  0.00000000000E+00  0.00000000000E+00 -0.44814012783E+03  0.44814012786E+03  0.50400001928E-02 0. -1.
    10030    2    1    2    0    0  0.00000000000E+00  0.00000000000E+00  0.11878307361E+04  0.20841109918E+04  0.17124767936E+04 0.  0.
        2    1    3    3  502    0  0.22323307728E+03  0.23427639559E+03  0.15586839171E+04  0.15919214773E+04  0.25500000920E-02 0.  1.
       -2    1    3    3    0  502 -0.22323307728E+03 -0.23427639559E+03 -0.37085318102E+03  0.49218951452E+03  0.25500000920E-02 0. -1.
</event>
<event>
 5   0  0.2288806E-04  0.1642018E+04  0.7818609E-02  0.8795143E-01
        2   -1    0    0  501    0  0.00000000000E+00  0.00000000000E+00  0.69481779073E+03  0.69481779074E+03  0.25500000920E-02 0. -1.
       -2   -1    0    0    0  501  0.00000000000E+00  0.00000000000E+00 -0.97011860589E+03  0.97011860589E+03  0.25500000920E-02 0.  1.
    10030    2    1    2    0    0  0.00000000000E+00  0.00000000000E+00 -0.27530081516E+03  0.16649363966E+04  0.16420178641E+04 0.  0.
        3    1    3    3  502    0 -0.25289558864E+03  0.21494165848E+01 -0.92963813512E+03  0.96342507296E+03  0.10100000352E+00 0.  1.
       -3    1    3    3    0  502  0.25289558864E+03 -0.21494165848E+01  0.65433731996E+03  0.70151132367E+03  0.10100000352E+00 0. -1.
</event>
<event>
 5   0  0.2356829E-04  0.1742423E+04  0.7818609E-02  0.8737532E-01
       -2   -1    0    0    0  501  0.00000000000E+00  0.00000000000E+00  0.51497963277E+03  0.51497963278E+03  0.25500000920E-02 0. -1.
        2   -1    0    0  501    0  0.00000000000E+00  0.00000000000E+00 -0.14738626327E+04  0.14738626327E+04  0.25500000920E-02 0.  1.
    10030    2    1    2    0    0  0.00000000000E+00  0.00000000000E+00 -0.95888299992E+03  0.19888422655E+04  0.17424227241E+04 0.  0.
        5    1    3    3  502    0 -0.57145839241E+03 -0.60133593034E+03 -0.17569081263E+03  0.84797343532E+03  0.46999998093E+01 0.  1.
       -5    1    3    3    0  502  0.57145839241E+03  0.60133593034E+03 -0.78319218729E+03  0.11408688301E+04  0.46999998093E+01 0. -1.
</event>
<event>
 5   0  0.2224454E-04  0.1693416E+04  0.7818609E-02  0.8765129E-01
        2   -1    0    0  501    0  0.00000000000E+00  0.00000000000E+00  0.15426937993E+04  0.15426937993E+04  0.25500000920E-02 0.  1.
       -2   -1    0    0    0  501  0.00000000000E+00  0.00000000000E+00 -0.46471584177E+03  0.46471584177E+03  0.25500000920E-02 0. -1.
    10030    2    1    2    0    0  0.00000000000E+00  0.00000000000E+00  0.10779779575E+04  0.20074096411E+04  0.16934157759E+04 0.  0.
        2    1    3    3  502    0  0.51278182671E+03 -0.46821439150E+03 -0.35352205331E+02  0.69528389643E+03  0.25500000920E-02 0. -1.
       -2    1    3    3    0  502 -0.51278182671E+03  0.46821439150E+03  0.11133301629E+04  0.13121257446E+04  0.25500000920E-02 0.  1.
</event>
<event>
 5   0  0.1215233E-04  0.1693905E+04  0.7818609E-02  0.8764848E-01
        1   -1    0    0  501    0  0.00000000000E+00  0.00000000000E+00  0.10150115159E+04  0.10150115159E+04  0.50400001928E-02 0.  1.
       -1   -1    0    0    0  501  0.00000000000E+00  0.00000000000E+00 -0.70671929633E+03  0.70671929635E+03  0.50400001928E-02 0. -1.
    10030    2    1    2    0    0  0.00000000000E+00  0.00000000000E+00  0.30829221953E+03  0.17217308122E+04  0.16939046305E+04 0.  0.
        2    1    3    3  502    0 -0.54329984211E+03  0.64895658530E+03  0.12186184235E+03  0.85508460205E+03  0.25500000920E-02 0. -1.
       -2    1    3    3    0  502  0.54329984211E+03 -0.64895658530E+03  0.18643037719E+03  0.86664621016E+03  0.25500000920E-02 0.  1.
</event>
<event>
 5   0  0.2234723E-04  0.1699102E+04  0.7818609E-02  0.8761877E-01
       -2   -1    0    0    0  501  0.00000000000E+00  0.00000000000E+00  0.27979667779E+03  0.27979667780E+03  0.25500000920E-02 0. -1.
        2   -1    0    0  501    0  0.00000000000E+00  0.00000000000E+00 -0.25795055500E+04  0.25795055500E+04  0.25500000920E-02 0.  1.
    10030    2    1    2    0    0  0.00000000000E+00  0.00000000000E+00 -0.22997088722E+04  0.28593022278E+04  0.16991022138E+04 0.  0.
        1    1    3    3  502    0 -0.61254561043E+03  0.45726207103E+02 -0.16222594458E+03  0.63531115841E+03  0.50400001928E-02 0. -1.
       -1    1    3    3    0  502  0.61254561043E+03 -0.45726207103E+02 -0.21374829276E+04  0.22239910694E+04  0.50400001928E-02 0.  1.
</event>
<event>
 5   0  0.8372750E-05  0.1707245E+04  0.7818609E-02  0.8757243E-01
        4   -1    0    0  501    0  0.00000000000E+00  0.00000000000E+00  0.13739444027E+04  0.13739449897E+04  0.12699999809E+01 0.  1.
       -4   -1    0    0    0  501  0.00000000000E+00  0.00000000000E+00 -0.53034868759E+03  0.53035020819E+03  0.12699999809E+01 0. -1.
    10030    2    1    2    0    0  0.00000000000E+00  0.00000000000E+00  0.84359571516E+03  0.19042951979E+04  0.17072452870E+04 0.  0.
        3    1    3    3  502    0  0.53484355677E+02  0.73584906221E+03  0.90069784941E+03  0.11642985205E+04  0.10100000352E+00 0.  1.
       -3    1    3    3    0  502 -0.53484355677E+02 -0.73584906221E+03 -0.57102134249E+02  0.73999667742E+03  0.10100000352E+00 0. -1.
</event>
<event>
 5   0  0.1204741E-04  0.1693170E+04  0.7818609E-02  0.8765269E-01
        1   -1    0    0  501    0  0.00000000000E+00  0.00000000000E+00  0.43185311327E+03  0.43185311330E+03  0.50400001928E-02 0. -1.
       -1   -1    0    0    0  501  0.00000000000E+00  0.00000000000E+00 -0.16596063648E+04  0.16596063648E+04  0.50400001928E-02 0.  1.
    10030    2    1    2    0    0  0.00000000000E+00  0.00000000000E+00 -0.12277532516E+04  0.20914594781E+04  0.16931700157E+04 0.  0.
        1    1    3    3  502    0  0.35800947683E+03  0.76601642189E+03 -0.66561256316E+03  0.10761003802E+04  0.50400001928E-02 0. -1.
       -1    1    3    3    0  502 -0.35800947683E+03 -0.76601642189E+03 -0.56214068841E+03  0.10153590979E+04  0.50400001928E-02 0.  1.
</event>
<event>
 5   0  0.1186302E-04  0.1687108E+04  0.7818609E-02  0.8768751E-01
       -1   -1    0    0    0  501  0.00000000000E+00  0.00000000000E+00  0.59957472899E+03  0.59957472901E+03  0.50400001928E-02 0. -1.
        1   -1    0    0  501    0  0.00000000000E+00  0.00000000000E+00 -0.11868136789E+04  0.11868136789E+04  0.50400001928E-02 0.  1.
    10030    2    1    2    0    0  0.00000000000E+00  0.00000000000E+00 -0.58723894988E+03  0.17863884079E+04  0.16871081648E+04 0.  0.
        3    1    3    3  502    0 -0.39478574387E+02  0.62802942915E+03  0.30122603151E+03  0.69765081091E+03  0.10100000352E+00 0. -1.
       -3    1    3    3    0  502  0.39478574387E+02 -0.62802942915E+03 -0.88846498139E+03  0.10887375970E+04  0.10100000352E+00 0.  1.
</event>
<event>
 5   0  0.1215233E-04  0.1691109E+04  0.7818609E-02  0.8766452E-01
        1   -1    0    0  501    0  0.00000000000E+00  0.00000000000E+00  0.71255210826E+03  0.71255210827E+03  0.50400001928E-02 0.  1.
       -1   -1    0    0    0  501  0.00000000000E+00  0.00000000000E+00 -0.10033825400E+04  0.10033825400E+04  0.50400001928E-02 0. -1.
    10030    2    1    2    0    0  0.00000000000E+00  0.00000000000E+00 -0.29083043169E+03  0.17159346482E+04  0.16911089193E+04 0.  0.
        2    1    3    3  502    0 -0.76222367060E+03 -0.24279887462E+03 -0.42334521530E+03  0.90507314007E+03  0.25500000920E-02 0.  1.
       -2    1    3    3    0  502  0.76222367060E+03  0.24279887462E+03  0.13251478361E+03  0.81086150817E+03  0.25500000920E-02 0. -1.
</event>
<event>
 5   0  0.1186302E-04  0.1697574E+04  0.7818609E-02  0.8762749E-01
       -1   -1    0    0    0  501  0.00000000000E+00  0.00000000000E+00  0.87876317953E+03  0.87876317955E+03  0.50400001928E-02 0.  1.
        1   -1    0    0  501    0  0.00000000000E+00  0.00000000000E+00 -0.81983359824E+03  0.81983359826E+03  0.50400001928E-02 0. -1.
    10030    2    1    2    0    0  0.00000000000E+00  0.00000000000E+00  0.58929581291E+02  0.16985967778E+04  0.16975742452E+04 0.  0.
        3    1    3    3  502    0  0.61765567740E+03  0.44877418679E+03 -0.34162618232E+03  0.83642409411E+03  0.10100000352E+00 0. -1.
       -3    1    3    3    0  502 -0.61765567740E+03 -0.44877418679E+03  0.40055576361E+03  0.86217268370E+03  0.10100000352E+00 0.  1.
</event>
<event>
 5   0  0.1126958E-04  0.1695403E+04  0.7818609E-02  0.8763991E-01
       -1   -1    0    0    0  501  0.00000000000E+00  0.00000000000E+00  0.55422491897E+03  0.55422491899E+03  0.50400001928E-02 0. -1.
        1   -1    0    0  501    0  0.00000000000E+00  0.00000000000E+00 -0.12965814905E+04  0.12965814905E+04  0.50400001928E-02 0.  1.
    10030    2    1    2    0    0  0.00000000000E+00  0.00000000000E+00 -0.74235657151E+03  0.18508064095E+04  0.16954029274E+04 0.  0.
        4    1    3    3  502    0  0.23405745146E+03 -0.77338676970E+03 -0.65096368340E+03  0.10376248436E+04  0.12699999809E+01 0.  1.
       -4    1    3    3    0  502 -0.23405745146E+03  0.77338676970E+03 -0.91392888115E+02  0.81318156585E+03  0.12699999809E+01 0. -1.
</event>
<event>
 5   0  0.1215233E-04  0.1696105E+04  0.7818609E-02  0.8763589E-01
        1   -1    0    0  501    0  0.00000000000E+00  0.00000000000E+00  0.17291140532E+04  0.17291140532E+04  0.50400001928E-02 0.  1.
       -1   -1    0    0    0  501  0.00000000000E+00  0.00000000000E+00 -0.41593174748E+03  0.41593174751E+03  0.50400001928E-02 0. -1.
    10030    2    1    2    0    0  0.00000000000E+00  0.00000000000E+00  0.13131823057E+04  0.21450458007E+04  0.16961054563E+04 0.  0.
        2    1    3    3  502    0  0.47251690129E+03 -0.40091009234E+03  0.13887928627E+04  0.15207717579E+04  0.25500000920E-02 0.  1.
       -2    1    3    3    0  502 -0.47251690129E+03  0.40091009234E+03 -0.75610557009E+02  0.62427404278E+03  0.25500000920E-02 0. -1.
</event>
<event>
 5   0  0.2224454E-04  0.1703696E+04  0.7818609E-02  0.8759259E-01
       -2   -1    0    0    0  501  0.00000000000E+00  0.00000000000E+00  0.52683161395E+03  0.52683161396E+03  0.25500000920E-02 0.  1.
        2   -1    0    0  501    0  0.00000000000E+00  0.00000000000E+00 -0.13773758554E+04  0.13773758555E+04  0.25500000920E-02 0. -1.
    10030    2    1    2    0    0  0.00000000000E+00  0.00000000000E+00 -0.85054424149E+03  0.19042074694E+04  0.17036961524E+04 0.  0.
        2    1    3    3  502    0 -0.26548563884E+03 -0.17354977497E+03 -0.13089155824E+04  0.13467969968E+04  0.25500000920E-02 0. -1.
       -2    1    3    3    0  502  0.26548563884E+03  0.17354977497E+03  0.45837134088E+03  0.55741047260E+03  0.25500000920E-02 0.  1.
</event>
<event>
 5   0  0.1215233E-04  0.1713159E+04  0.7818609E-02  0.8753895E-01
        1   -1    0    0  501    0  0.00000000000E+00  0.00000000000E+00  0.75634366581E+03  0.75634366583E+03  0.50400001928E-02 0. -1.
       -1   -1    0    0    0  501  0.00000000000E+00  0.00000000000E+00 -0.97009923336E+03  0.97009923337E+03  0.50400001928E-02 0.  1.
    10030    2    1    2    0    0  0.00000000000E+00  0.00000000000E+00 -0.21375556755E+03  0.17264428992E+04  0.17131589656E+04 0.  0.
        2    1    3    3  502    0 -0.16591702123E+03 -0.64190449961E+03  0.43969160547E+03  0.79554921436E+03  0.25500000920E-02 0. -1.
       -2    1    3    3    0  502  0.16591702123E+03  0.64190449961E+03 -0.65344717302E+03  0.93089368484E+03  0.25500000920E-02 0.  1.
</event>
<event>
 5   0  0.1234158E-04  0.1682925E+04  0.7818609E-02  0.8771163E-01
        1   -1    0    0  501    0  0.00000000000E+00  0.00000000000E+00  0.11685429698E+04  0.11685429698E+04  0.50400001928E-02 0. -1.
       -1   -1    0    0    0  501  0.00000000000E+00  0.00000000000E+00 -0.60593367399E+03  0.60593367401E+03  0.50400001928E-02 0.  1.
    10030    2    1    2    0    0  0.00000000000E+00  0.00000000000E+00  0.56260929577E+03  0.17744766438E+04  0.16829254706E+04 0.  0.
        5    1    3    3  502    0 -0.17702590722E+03  0.79741088378E+03  0.68234547279E+02  0.81968306853E+03  0.46999998093E+01 0.  1.
       -5    1    3    3    0  502  0.17702590722E+03 -0.79741088378E+03  0.49437474849E+03  0.95479357525E+03  0.46999998093E+01 0. -1.
</event>
<event>
 5   0  0.8372750E-05  0.1677640E+04  0.7818609E-02  0.8774221E-01
       -3   -1    0    0    0  501  0.00000000000E+00  0.00000000000E+00  0.75491800851E+03  0.75491801526E+03  0.10100000352E+00 0. -1.
        3   -1    0    0  501    0  0.00000000000E+00  0.00000000000E+00 -0.93204656972E+03  0.93204657519E+03  0.10100000352E+00 0.  1.
    10030    2    1    2    0    0  0.00000000000E+00  0.00000000000E+00 -0.17712856121E+03  0.16869645905E+04  0.16776397117E+04 0.  0.
        3    1    3    3  502    0  0.34608720350E+03 -0.25511394340E+03 -0.81281711182E+03  0.91952767441E+03  0.10100000352E+00 0.  1.
       -3    1    3    3    0  502 -0.34608720350E+03  0.25511394340E+03  0.63568855061E+03  0.76743691605E+03  0.10100000352E+00 0. -1.
</event>
<event>
 5   0  0.2288806E-04  0.1704842E+04  0.7818609E-02  0.8758608E-01
        2   -1    0    0  501    0  0.00000000000E+00  0.00000000000E+00  0.13169839553E+04  0.13169839553E+04  0.25500000920E-02 0.  1.
       -2   -1    0    0    0  501  0.00000000000E+00  0.00000000000E+00 -0.55173141931E+03  0.55173141931E+03  0.25500000920E-02 0. -1.
    10030    2    1    2    0    0  0.00000000000E+00  0.00000000000E+00  0.76525253600E+03  0.18687153746E+04  0.17048418424E+04 0.  0.
        3    1    3    3  502    0  0.20004824285E+03 -0.25736932326E+03  0.12459666570E+04  0.12879018552E+04  0.10100000352E+00 0.  1.
       -3    1    3    3    0  502 -0.20004824285E+03  0.25736932326E+03 -0.48071412101E+03  0.58081351944E+03  0.10100000352E+00 0. -1.
</event>
<event>
 5   0  0.2288806E-04  0.1692558E+04  0.7818609E-02  0.8765620E-01
        2   -1    0    0  501    0  0.00000000000E+00  0.00000000000E+00  0.20249039370E+04  0.20249039370E+04  0.25500000920E-02 0. -1.
       -2   -1    0    0    0  501  0.00000000000E+00  0.00000000000E+00 -0.35368999246E+03  0.35368999246E+03  0.25500000920E-02 0.  1.
    10030    2    1    2    0    0  0.00000000000E+00  0.00000000000E+00  0.16712139445E+04  0.23785939295E+04  0.16925581328E+04 0.  0.
        3    1    3    3  502    0  0.29754081831E+03  0.71778136494E+03  0.36435644491E+03  0.85819360029E+03  0.10100000352E+00 0.  1.
       -3    1    3    3    0  502 -0.29754081831E+03 -0.71778136494E+03  0.13068574996E+04  0.15204003292E+04  0.10100000352E+00 0. -1.
</event>
<event>
 5   0  0.2242967E-04  0.1692376E+04  0.7818609E-02  0.8765724E-01
        2   -1    0    0  501    0  0.00000000000E+00  0.00000000000E+00  0.10809884944E+04  0.10809884944E+04  0.25500000920E-02 0.  1.
       -2   -1    0    0    0  501  0.00000000000E+00  0.00000000000E+00 -0.66238851973E+03  0.66238851973E+03  0.25500000920E-02 0. -1.
    10030    2    1    2    0    0  0.00000000000E+00  0.00000000000E+00  0.41859997467E+03  0.17433770141E+04  0.16923762804E+04 0.  0.
        4    1    3    3  502    0 -0.55346158470E+03 -0.23268676113E+03 -0.40496658386E+03  0.72419776407E+03  0.12699999809E+01 0. -1.
       -4    1    3    3    0  502  0.55346158470E+03  0.23268676113E+03  0.82356655852E+03  0.10191792501E+04  0.12699999809E+01 0.  1.
</event>
<event>
 5   0  0.2288806E-04  0.1709634E+04  0.7818609E-02  0.8755889E-01
        2   -1    0    0  501    0  0.00000000000E+00  0.00000000000E+00  0.53601155708E+03  0.53601155708E+03  0.25500000920E-02 0.  1.
       -2   -1    0    0    0  501  0.00000000000E+00  0.00000000000E+00 -0.13632386999E+04  0.13632386999E+04  0.25500000920E-02 0. -1.
    10030    2    1    2    0    0  0.00000000000E+00  0.00000000000E+00 -0.82722714278E+03  0.18992502569E+04  0.17096335259E+04 0.  0.
        3    1    3    3  502    0 -0.49582379433E+03  0.90807012236E+02  0.35333698602E+03  0.61557630265E+03  0.10100000352E+00 0.  1.
       -3    1    3    3    0  502  0.49582379433E+03 -0.90807012236E+02 -0.11805641288E+04  0.12836739543E+04  0.10100000352E+00 0. -1.
</event>
<event>
 5   0  0.2234723E-04  0.1772362E+04  0.7818609E-02  0.8721137E-01
       -2   -1    0    0    0  501  0.00000000000E+00  0.00000000000E+00  0.33824125934E+03  0.33824125935E+03  0.25500000920E-02 0.  1.
        2   -1    0    0  501    0  0.00000000000E+00  0.00000000000E+00 -0.23217648573E+04  0.23217648573E+04  0.25500000920E-02 0. -1.
    10030    2    1    2    0    0  0.00000000000E+00  0.00000000000E+00 -0.19835235980E+04  0.26600061166E+04  0.17723618922E+04 0.  0.
        1    1    3    3  502    0 -0.21181690328E+03 -0.49836985012E+03 -0.20445647672E+04  0.21150612273E+04  0.50400001928E-02 0. -1.
       -1    1    3    3    0  502  0.21181690328E+03  0.49836985012E+03  0.61041169251E+02  0.54494488932E+03  0.50400001928E-02 0.  1.
</event>
<event>
 5   0  0.2288806E-04  0.1712969E+04  0.7818609E-02  0.8754002E-01
        2   -1    0    0  501    0  0.00000000000E+00  0.00000000000E+00  0.13593555782E+04  0.13593555782E+04  0.25500000920E-02 0. -1.
       -2   -1    0    0    0  501  0.00000000000E+00  0.00000000000E+00 -0.53964234906E+03  0.53964234906E+03  0.25500000920E-02 0.  1.
    10030    2    1    2    0    0  0.00000000000E+00  0.00000000000E+00  0.81971322916E+03  0.18989979273E+04  0.17129691619E+04 0.  0.
        3    1    3    3  502    0 -0.94318658965E+02 -0.70098595314E+03 -0.12559671323E+03  0.71836749683E+03  0.10100000352E+00 0.  1.
       -3    1    3    3    0  502  0.94318658965E+02  0.70098595314E+03  0.94530994239E+03  0.11806304304E+04  0.10100000352E+00 0. -1.
</event>
<event>
 5   0  0.2356829E-04  0.1701561E+04  0.7818609E-02  0.8760475E-01
       -2   -1    0    0    0  501  0.00000000000E+00  0.00000000000E+00  0.73889564223E+03  0.73889564224E+03  0.25500000920E-02 0.  1.
        2   -1    0    0  501    0  0.00000000000E+00  0.00000000000E+00 -0.97960693346E+03  0.97960693346E+03  0.25500000920E-02 0. -1.
    10030    2    1    2    0    0  0.00000000000E+00  0.00000000000E+00 -0.24071129122E+03  0.17185025757E+04  0.17015608061E+04 0.  0.
        5    1    3    3  502    0 -0.83856159986E+03 -0.24248061299E+02 -0.26329815110E+03  0.87927329745E+03  0.46999998093E+01 0.  1.
       -5    1    3    3    0  502  0.83856159986E+03  0.24248061299E+02  0.22586859877E+02  0.83922927825E+03  0.46999998093E+01 0. -1.
</event>
<event>
 5   0  0.1186302E-04  0.1722275E+04  0.7818609E-02  0.8748761E-01
        1   -1    0    0  501    0  0.00000000000E+00  0.00000000000E+00  0.69227441555E+03  0.69227441557E+03  0.50400001928E-02 0.  1.
       -1   -1    0    0    0  501  0.00000000000E+00  0.00000000000E+00 -0.10711899537E+04  0.10711899537E+04  0.50400001928E-02 0. -1.
    10030    2    1    2    0    0  0.00000000000E+00  0.00000000000E+00 -0.37891553814E+03  0.17634643693E+04  0.17222745416E+04 0.  0.
        3    1    3    3  502    0  0.82908284443E+03 -0.25328572770E+02  0.47457639845E+02  0.83082617756E+03  0.10100000352E+00 0.  1.
       -3    1    3    3    0  502 -0.82908284443E+03  0.25328572770E+02 -0.42637317799E+03  0.93263819171E+03  0.10100000352E+00 0. -1.
</event>
<event>
 5   0  0.1204741E-04  0.1505384E+04  0.7818609E-02  0.8880880E-01
        1   -1    0    0  501    0  0.00000000000E+00  0.00000000000E+00  0.13283842635E+04  0.13283842635E+04  0.50400001928E-02 0.  1.
       -1   -1    0    0    0  501  0.00000000000E+00  0.00000000000E+00 -0.42649202142E+03  0.42649202145E+03  0.50400001928E-02 0. -1.
    10030    2    1    2    0    0  0.00000000000E+00  0.00000000000E+00  0.90189224206E+03  0.17548762849E+04  0.15053840570E+04 0.  0.
        1    1    3    3  502    0  0.65321405516E+03  0.62488111248E+02  0.21120923323E+02  0.65653595434E+03  0.50400001928E-02 0. -1.
       -1    1    3    3    0  502 -0.65321405516E+03 -0.62488111248E+02  0.88077131874E+03  0.10983403306E+04  0.50400001928E-02 0.  1.
</event>
<event>
 5   0  0.1186302E-04  0.1680368E+04  0.7818609E-02  0.8772641E-01
        1   -1    0    0  501    0  0.00000000000E+00  0.00000000000E+00  0.13032465543E+04  0.13032465543E+04  0.50400001928E-02 0. -1.
       -1   -1    0    0    0  501  0.00000000000E+00  0.00000000000E+00 -0.54165425015E+03  0.54165425017E+03  0.50400001928E-02 0.  1.
    10030    2    1    2    0    0  0.00000000000E+00  0.00000000000E+00  0.76159230418E+03  0.18449008045E+04  0.16803678587E+04 0.  0.
        3    1    3    3  502    0 -0.23362778925E+03 -0.80076588689E+03  0.49114110209E+03  0.96800182948E+03  0.10100000352E+00 0. -1.
       -3    1    3    3    0  502  0.23362778925E+03  0.80076588689E+03  0.27045120209E+03  0.87689897504E+03  0.10100000352E+00 0.  1.
</event>
<event>
 5   0  0.1204741E-04  0.1764874E+04  0.7818609E-02  0.8725205E-01
        1   -1    0    0  501    0  0.00000000000E+00  0.00000000000E+00  0.13503316410E+04  0.13503316410E+04  0.50400001928E-02 0.  1.
       -1   -1    0    0    0  501  0.00000000000E+00  0.00000000000E+00 -0.57666943187E+03  0.57666943189E+03  0.50400001928E-02 0. -1.
    10030    2    1    2    0    0  0.00000000000E+00  0.00000000000E+00  0.77366220917E+03  0.19270010729E+04  0.17648739108E+04 0.  0.
        1    1    3    3  502    0 -0.81111947591E+03  0.34751263822E+03  0.38258231814E+03  0.96179471203E+03  0.50400001928E-02 0. -1.
       -1    1    3    3    0  502  0.81111947591E+03 -0.34751263822E+03  0.39107989103E+03  0.96520636090E+03  0.50400001928E-02 0.  1.
</event>
<event>
 5   0  0.1126958E-04  0.1700526E+04  0.7818609E-02  0.8761065E-01
       -1   -1    0    0    0  501  0.00000000000E+00  0.00000000000E+00  0.93709883984E+03  0.93709883985E+03  0.50400001928E-02 0. -1.
        1   -1    0    0  501    0  0.00000000000E+00  0.00000000000E+00 -0.77147354454E+03  0.77147354456E+03  0.50400001928E-02 0.  1.
    10030    2    1    2    0    0  0.00000000000E+00  0.00000000000E+00  0.16562529530E+03  0.17085723844E+04  0.17005257582E+04 0.  0.
        4    1    3    3  502    0 -0.50297388731E+03  0.54310715498E+03  0.50311881681E+03  0.89502975918E+03  0.12699999809E+01 0. -1.
       -4    1    3    3    0  502  0.50297388731E+03 -0.54310715498E+03 -0.33749352151E+03  0.81354262522E+03  0.12699999809E+01 0.  1.
</event>
<event>
 5   0  0.2242967E-04  0.1691861E+04  0.7818609E-02  0.8766020E-01
        2   -1    0    0  501    0  0.00000000000E+00  0.00000000000E+00  0.96860049641E+03  0.96860049642E+03  0.25500000920E-02 0. -1.
       -2   -1    0    0    0  501  0.00000000000E+00  0.00000000000E+00 -0.73879593528E+03  0.73879593529E+03  0.25500000920E-02 0.  1.
    10030    2    1    2    0    0  0.00000000000E+00  0.00000000000E+00  0.22980456113E+03  0.17073964317E+04  0.16918606440E+04 0.  0.
        4    1    3    3  502    0  0.17160908494E+03  0.53282462942E+03 -0.52514928550E+03  0.76755139809E+03  0.12699999809E+01 0.  1.
       -4    1    3    3    0  502 -0.17160908494E+03 -0.53282462942E+03  0.75495384663E+03  0.93984503361E+03  0.12699999809E+01 0. -1.
</event>
<event>
 5   0  0.2356829E-04  0.1704971E+04  0.7818609E-02  0.8758534E-01
        2   -1    0    0  501    0  0.00000000000E+00  0.00000000000E+00  0.87454194401E+03  0.87454194401E+03  0.25500000920E-02 0.  1.
       -2   -1    0    0    0  501  0.00000000000E+00  0.00000000000E+00 -0.83098537961E+03  0.83098537962E+03  0.25500000920E-02 0. -1.
    10030    2    1    2    0    0  0.00000000000E+00  0.00000000000E+00  0.43556564395E+02  0.17055273236E+04  0.17049710488E+04 0.  0.
        5    1    3    3  502    0  0.74123636774E+03 -0.43147175973E+02  0.44074239921E+03  0.86346336582E+03  0.46999998093E+01 0.  1.
       -5    1    3    3    0  502 -0.74123636774E+03  0.43147175973E+02 -0.39718583482E+03  0.84206395781E+03  0.46999998093E+01 0. -1.
</event>
<event>
 5   0  0.1204741E-04  0.1691262E+04  0.7818609E-02  0.8766364E-01
       -1   -1    0    0    0  501  0.00000000000E+00  0.00000000000E+00  0.76474975240E+03  0.76474975242E+03  0.50400001928E-02 0. -1.
        1   -1    0    0  501    0  0.00000000000E+00  0.00000000000E+00 -0.93506675938E+03  0.93506675940E+03  0.50400001928E-02 0.  1.
    10030    2    1    2    0    0  0.00000000000E+00  0.00000000000E+00 -0.17031700698E+03  0.16998165118E+04  0.16912623365E+04 0.  0.
        1    1    3    3  502    0  0.41657096553E+03  0.42760321191E+03 -0.68711701441E+03  0.91022286704E+03  0.50400001928E-02 0.  1.
       -1    1    3    3    0  502 -0.41657096553E+03 -0.42760321191E+03  0.51680000743E+03  0.78959364477E+03  0.50400001928E-02 0. -1.
</event>
<event>
 5   0  0.2288806E-04  0.1698132E+04  0.7818609E-02  0.8762430E-01
        2   -1    0    0  501    0  0.00000000000E+00  0.00000000000E+00  0.12116025475E+04  0.12116025475E+04  0.25500000920E-02 0. -1.
       -2   -1    0    0    0  501  0.00000000000E+00  0.00000000000E+00 -0.59500808494E+03  0.59500808494E+03  0.25500000920E-02 0.  1.
    10030    2    1    2    0    0  0.00000000000E+00  0.00000000000E+00  0.61659446259E+03  0.18066106325E+04  0.16981322817E+04 0.  0.
        3    1    3    3  502    0 -0.15055324852E+03  0.11102757524E+03  0.11894064491E+04  0.12040270406E+04  0.10100000352E+00 0. -1.
       -3    1    3    3    0  502  0.15055324852E+03 -0.11102757524E+03 -0.57281198651E+03  0.60258359188E+03  0.10100000352E+00 0.  1.
</event>
<event>
 5   0  0.2234723E-04  0.1704993E+04  0.7818609E-02  0.8758522E-01
        2   -1    0    0  501    0  0.00000000000E+00  0.00000000000E+00  0.19060589857E+04  0.19060589857E+04  0.25500000920E-02 0. -1.
       -2   -1    0    0    0  501  0.00000000000E+00  0.00000000000E+00 -0.38128440741E+03  0.38128440742E+03  0.25500000920E-02 0.  1.
    10030    2    1    2    0    0  0.00000000000E+00  0.00000000000E+00  0.15247745783E+04  0.22873433931E+04  0.17049933383E+04 0.  0.
        1    1    3    3  502    0  0.54365831688E+01  0.41209760714E+03 -0.23875534560E+03  0.47629624114E+03  0.50400001928E-02 0.  1.
       -1    1    3    3    0  502 -0.54365831688E+01 -0.41209760714E+03  0.17635299239E+04  0.18110471520E+04  0.50400001928E-02 0. -1.
</event>
<event>
 5   0  0.2224454E-04  0.1671069E+04  0.7818609E-02  0.8778039E-01
        2   -1    0    0  501    0  0.00000000000E+00  0.00000000000E+00  0.69653424789E+03  0.69653424790E+03  0.25500000920E-02 0. -1.
       -2   -1    0    0    0  501  0.00000000000E+00  0.00000000000E+00 -0.10022731933E+04  0.10022731933E+04  0.25500000920E-02 0.  1.
    10030    2    1    2    0    0  0.00000000000E+00  0.00000000000E+00 -0.30573894544E+03  0.16988074412E+04  0.16710686460E+04 0.  0.
        2    1    3    3  502    0 -0.42550291241E+03 -0.10925289713E+03 -0.87539114438E+03  0.97943788964E+03  0.25500000920E-02 0.  1.
       -2    1    3    3    0  502  0.42550291241E+03  0.10925289713E+03  0.56965219894E+03  0.71936955160E+03  0.25500000920E-02 0. -1.
</event>
<event>
 5   0  0.8372750E-05  0.1692871E+04  0.7818609E-02  0.8765441E-01
        4   -1    0    0  501    0  0.00000000000E+00  0.00000000000E+00  0.85313598657E+03  0.85313693184E+03  0.12699999809E+01 0.  1.
       -4   -1    0    0    0  501  0.00000000000E+00  0.00000000000E+00 -0.83978588945E+03  0.83978684976E+03  0.12699999809E+01 0. -1.
    10030    2    1    2    0    0  0.00000000000E+00  0.00000000000E+00  0.13350097111E+02  0.16929237816E+04  0.16928711425E+04 0.  0.
        5    1    3    3  502    0 -0.38692902894E+03  0.75237322622E+03  0.32201150165E+02  0.84666318512E+03  0.46999998093E+01 0.  1.
       -5    1    3    3    0  502  0.38692902894E+03 -0.75237322622E+03 -0.18851053054E+02  0.84626059648E+03  0.46999998093E+01 0. -1.
</event>
<event>
 5   0  0.1126958E-04  0.1592311E+04  0.7818609E-02  0.8825286E-01
        1   -1    0    0  501    0  0.00000000000E+00  0.00000000000E+00  0.90041614453E+03  0.90041614454E+03  0.50400001928E-02 0.  1.
       -1   -1    0    0    0  501  0.00000000000E+00  0.00000000000E+00 -0.70396696283E+03  0.70396696285E+03  0.50400001928E-02 0. -1.
    10030    2    1    2    0    0  0.00000000000E+00  0.00000000000E+00  0.19644918170E+03  0.16043831074E+04  0.15923105458E+04 0.  0.
        4    1    3    3  502    0 -0.18029001424E+03  0.32361724279E+03  0.80828671242E+03  0.88913532797E+03  0.12699999809E+01 0.  1.
       -4    1    3    3    0  502  0.18029001424E+03 -0.32361724279E+03 -0.61183753072E+03  0.71524777942E+03  0.12699999809E+01 0. -1.
</event>
<event>
 5   0  0.2356829E-04  0.1701299E+04  0.7818609E-02  0.8760624E-01
       -2   -1    0    0    0  501  0.00000000000E+00  0.00000000000E+00  0.61771784515E+03  0.61771784515E+03  0.25500000920E-02 0. -1.
        2   -1    0    0  501    0  0.00000000000E+00  0.00000000000E+00 -0.11714163922E+04  0.11714163923E+04  0.25500000920E-02 0.  1.
    10030    2    1    2    0    0  0.00000000000E+00  0.00000000000E+00 -0.55369854710E+03  0.17891342374E+04  0.17012992795E+04 0.  0.
        5    1    3    3  502    0  0.62748042837E+03  0.88584359225E+02 -0.87359969704E+03  0.10792485336E+04  0.46999998093E+01 0.  1.
       -5    1    3    3    0  502 -0.62748042837E+03 -0.88584359225E+02  0.31990114994E+03  0.70988570377E+03  0.46999998093E+01 0. -1.
</event>
<event>
 5   0  0.8372750E-05  0.1700706E+04  0.7818609E-02  0.8760962E-01
        4   -1    0    0  501    0  0.00000000000E+00  0.00000000000E+00  0.70912709294E+03  0.70912823019E+03  0.12699999809E+01 0.  1.
       -4   -1    0    0    0  501  0.00000000000E+00  0.00000000000E+00 -0.10197024777E+04  0.10197032686E+04  0.12699999809E+01 0. -1.
    10030    2    1    2    0    0  0.00000000000E+00  0.00000000000E+00 -0.31057538480E+03  0.17288314988E+04  0.17007061126E+04 0.  0.
        4    1    3    3  502    0  0.95443257725E+02 -0.14220978040E+03  0.69141276999E+03  0.71231051410E+03  0.12699999809E+01 0.  1.
       -4    1    3    3    0  502 -0.95443257725E+02  0.14220978040E+03 -0.10019881548E+04  0.10165209847E+04  0.12699999809E+01 0. -1.
</event>
<event>
 5   0  0.1234158E-04  0.1700878E+04  0.7818609E-02  0.8760864E-01
       -1   -1    0    0    0  501  0.00000000000E+00  0.00000000000E+00  0.11840621154E+04  0.11840621155E+04  0.50400001928E-02 0. -1.
        1   -1    0    0  501    0  0.00000000000E+00  0.00000000000E+00 -0.61081822614E+03  0.61081822616E+03  0.50400001928E-02 0.  1.
    10030    2    1    2    0    0  0.00000000000E+00  0.00000000000E+00  0.57324388931E+03  0.17948803416E+04  0.17008782684E+04 0.  0.
        5    1    3    3  502    0  0.61421901241E+03  0.41143664805E+03  0.73018500842E+03  0.10391041079E+04  0.46999998093E+01 0.  1.
       -5    1    3    3    0  502 -0.61421901241E+03 -0.41143664805E+03 -0.15694111911E+03  0.75577623370E+03  0.46999998093E+01 0. -1.
</event>
<event>
 5   0  0.1126958E-04  0.1709803E+04  0.7818609E-02  0.8755793E-01
       -1   -1    0    0    0  501  0.00000000000E+00  0.00000000000E+00  0.46663250919E+03  0.46663250922E+03  0.50400001928E-02 0. -1.
        1   -1    0    0  501    0  0.00000000000E+00  0.00000000000E+00 -0.15662352925E+04  0.15662352925E+04  0.50400001928E-02 0.  1.
    10030    2    1    2    0    0  0.00000000000E+00  0.00000000000E+00 -0.10996027833E+04  0.20328678017E+04  0.17098026840E+04 0.  0.
        4    1    3    3  502    0 -0.73480338553E+03 -0.43653404570E+03 -0.57225657755E+03  0.10285801825E+04  0.12699999809E+01 0.  1.
       -4    1    3    3    0  502  0.73480338553E+03  0.43653404570E+03 -0.52734620577E+03  0.10042876192E+04  0.12699999809E+01 0. -1.
</event>
<event>
 5   0  0.1186302E-04  0.1764845E+04  0.7818609E-02  0.8725221E-01
        1   -1    0    0  501    0  0.00000000000E+00  0.00000000000E+00  0.97583627238E+03  0.97583627239E+03  0.50400001928E-02 0.  1.
       -1   -1    0    0    0  501  0.00000000000E+00  0.00000000000E+00 -0.79795135787E+03  0.79795135789E+03  0.50400001928E-02 0. -1.
    10030    2    1    2    0    0  0.00000000000E+00  0.00000000000E+00  0.17788491450E+03  0.17737876303E+04  0.17648454648E+04 0.  0.
        3    1    3    3  502    0 -0.95863401991E+01 -0.32902740349E+02 -0.79728223704E+03  0.79801846091E+03  0.10100000352E+00 0. -1.
       -3    1    3    3    0  502  0.95863401991E+01  0.32902740349E+02  0.97516715155E+03  0.97576916937E+03  0.10100000352E+00 0.  1.
</event>
<event>
 5   0  0.1234158E-04  0.1682890E+04  0.7818609E-02  0.8771183E-01
       -1   -1    0    0    0  501  0.00000000000E+00  0.00000000000E+00  0.82332061055E+03  0.82332061057E+03  0.50400001928E-02 0. -1.
        1   -1    0    0  501    0  0.00000000000E+00  0.00000000000E+00 -0.85996846705E+03  0.85996846707E+03  0.50400001928E-02 0.  1.
    10030    2    1    2    0    0  0.00000000000E+00  0.00000000000E+00 -0.36647856499E+02  0.16832890776E+04  0.16828900895E+04 0.  0.
        5    1    3    3  502    0 -0.14900753115E+02  0.38797542596E+03 -0.76499988037E+03  0.85790085124E+03  0.46999998093E+01 0.  1.
       -5    1    3    3    0  502  0.14900753115E+02 -0.38797542596E+03  0.72835202387E+03  0.82538822639E+03  0.46999998093E+01 0. -1.
</event>
<event>
 5   0  0.1204741E-04  0.1702880E+04  0.7818609E-02  0.8759723E-01
       -1   -1    0    0    0  501  0.00000000000E+00  0.00000000000E+00  0.57635587444E+03  0.57635587446E+03  0.50400001928E-02 0. -1.
        1   -1    0    0  501    0  0.00000000000E+00  0.00000000000E+00 -0.12578168778E+04  0.12578168778E+04  0.50400001928E-02 0.  1.
    10030    2    1    2    0    0  0.00000000000E+00  0.00000000000E+00 -0.68146100331E+03  0.18341727522E+04  0.17028800856E+04 0.  0.
        1    1    3    3  502    0  0.58367438644E+03  0.60703891748E+03 -0.20543490663E+03  0.86681920699E+03  0.50400001928E-02 0. -1.
       -1    1    3    3    0  502 -0.58367438644E+03 -0.60703891748E+03 -0.47602609669E+03  0.96735354524E+03  0.50400001928E-02 0.  1.
</event>
<event>
 5   0  0.8372750E-05  0.1703605E+04  0.7818609E-02  0.8759311E-01
        3   -1    0    0  501    0  0.00000000000E+00  0.00000000000E+00  0.70868996496E+03  0.70868997216E+03  0.10100000352E+00 0.  1.
       -3   -1    0    0    0  501  0.00000000000E+00  0.00000000000E+00 -0.10238149943E+04  0.10238149993E+04  0.10100000352E+00 0. -1.
    10030    2    1    2    0    0  0.00000000000E+00  0.00000000000E+00 -0.31512502936E+03  0.17325049715E+04  0.17036049108E+04 0.  0.
        3    1    3    3  502    0  0.71765912639E+02 -0.65120285621E+03 -0.71117958029E+03  0.96694979796E+03  0.10100000352E+00 0. -1.
       -3    1    3    3    0  502 -0.71765912639E+02  0.65120285621E+03  0.39605455093E+03  0.76555517350E+03  0.10100000352E+00 0.  1.
</event>
<event>
 5   0  0.2234723E-04  0.1706599E+04  0.7818609E-02  0.8757609E-01
       -2   -1    0    0    0  501  0.00000000000E+00  0.00000000000E+00  0.37740595365E+03  0.37740595366E+03  0.25500000920E-02 0. -1.
        2   -1    0    0  501    0  0.00000000000E+00  0.00000000000E+00 -0.19292764297E+04  0.19292764297E+04  0.25500000920E-02 0.  1.
    10030    2    1    2    0    0  0.00000000000E+00  0.00000000000E+00 -0.15518704761E+04  0.23066823834E+04  0.17065994385E+04 0.  0.
        1    1    3    3  502    0 -0.27448110560E+03  0.64128626900E+03 -0.11166629517E+03  0.70643988962E+03  0.50400001928E-02 0. -1.
       -1    1    3    3    0  502  0.27448110560E+03 -0.64128626900E+03 -0.14402041809E+04  0.16002424938E+04  0.50400001928E-02 0.  1.
</event>
<event>
 5   0  0.1204741E-04  0.1717764E+04  0.7818609E-02  0.8751297E-01
        1   -1    0    0  501    0  0.00000000000E+00  0.00000000000E+00  0.96612714860E+03  0.96612714861E+03  0.50400001928E-02 0. -1.
       -1   -1    0    0    0  501  0.00000000000E+00  0.00000000000E+00 -0.76354197305E+03  0.76354197307E+03  0.50400001928E-02 0.  1.
    10030    2    1    2    0    0  0.00000000000E+00  0.00000000000E+00  0.20258517555E+03  0.17296691217E+04  0.17177643951E+04 0.  0.
        1    1    3    3  502    0 -0.57922591738E+03  0.21726807612E+03  0.70121570448E+03  0.93509975109E+03  0.50400001928E-02 0. -1.
       -1    1    3    3    0  502  0.57922591738E+03 -0.21726807612E+03 -0.49863052893E+03  0.79456937058E+03  0.50400001928E-02 0.  1.
</event>
<event>
 5   0  0.2242967E-04  0.1705455E+04  0.7818609E-02  0.8758259E-01
       -2   -1    0    0    0  501  0.00000000000E+00  0.00000000000E+00  0.12841250129E+04  0.12841250129E+04  0.25500000920E-02 0. -1.
        2   -1    0    0  501    0  0.00000000000E+00  0.00000000000E+00 -0.56625643923E+03  0.56625643923E+03  0.25500000920E-02 0.  1.
    10030    2    1    2    0    0  0.00000000000E+00  0.00000000000E+00  0.71786857369E+03  0.18503814521E+04  0.17054548453E+04 0.  0.
        4    1    3    3  502    0 -0.63350387547E+03  0.27203925601E+03  0.90338361366E+03  0.11364136938E+04  0.12699999809E+01 0. -1.
       -4    1    3    3    0  502  0.63350387547E+03 -0.27203925601E+03 -0.18551503998E+03  0.71396775838E+03  0.12699999809E+01 0.  1.
</event>
<event>
 5   0  0.2356829E-04  0.1693598E+04  0.7818609E-02  0.8765024E-01
       -2   -1    0    0    0  501  0.00000000000E+00  0.00000000000E+00  0.60066168165E+03  0.60066168165E+03  0.25500000920E-02 0.  1.
        2   -1    0    0  501    0  0.00000000000E+00  0.00000000000E+00 -0.11937976120E+04  0.11937976120E+04  0.25500000920E-02 0. -1.
    10030    2    1    2    0    0  0.00000000000E+00  0.00000000000E+00 -0.59313593034E+03  0.17944592936E+04  0.16935979230E+04 0.  0.
        5    1    3    3  502    0 -0.22004554347E+03  0.30416398832E+03 -0.11007905006E+04  0.11630552821E+04  0.46999998093E+01 0. -1.
       -5    1    3    3    0  502  0.22004554347E+03 -0.30416398832E+03  0.50765457030E+03  0.63140401150E+03  0.46999998093E+01 0.  1.
</event>
<event>
 5   0  0.1215233E-04  0.1692785E+04  0.7818609E-02  0.8765490E-01
        1   -1    0    0  501    0  0.00000000000E+00  0.00000000000E+00  0.65803510632E+03  0.65803510634E+03  0.50400001928E-02 0. -1.
       -1   -1    0    0    0  501  0.00000000000E+00  0.00000000000E+00 -0.10886662808E+04  0.10886662808E+04  0.50400001928E-02 0.  1.
    10030    2    1    2    0    0  0.00000000000E+00  0.00000000000E+00 -0.43063117443E+03  0.17467013871E+04  0.16927854345E+04 0.  0.
        2    1    3    3  502    0  0.15377533145E+03 -0.63574011421E+02 -0.10716222238E+04  0.10844642447E+04  0.25500000920E-02 0.  1.
       -2    1    3    3    0  502 -0.15377533145E+03  0.63574011421E+02  0.64099104933E+03  0.66223714244E+03  0.25500000920E-02 0. -1.
</event>
<event>
 5   0  0.1204741E-04  0.1699609E+04  0.7818609E-02  0.8761587E-01
        1   -1    0    0  501    0  0.00000000000E+00  0.00000000000E+00  0.64576634735E+03  0.64576634737E+03  0.50400001928E-02 0. -1.
       -1   -1    0    0    0  501  0.00000000000E+00  0.00000000000E+00 -0.11183117043E+04  0.11183117043E+04  0.50400001928E-02 0.  1.
    10030    2    1    2    0    0  0.00000000000E+00  0.00000000000E+00 -0.47254535698E+03  0.17640780517E+04  0.16996094428E+04 0.  0.
        1    1    3    3  502    0 -0.15386693223E+03 -0.58434441531E+03  0.38391600270E+03  0.71590846181E+03  0.50400001928E-02 0. -1.
       -1    1    3    3    0  502  0.15386693223E+03  0.58434441531E+03 -0.85646135968E+03  0.10481695899E+04  0.50400001928E-02 0.  1.
</event>
<event>
 5   0  0.2224454E-04  0.1678054E+04  0.7818609E-02  0.8773981E-01
        2   -1    0    0  501    0  0.00000000000E+00  0.00000000000E+00  0.11860844342E+04  0.11860844342E+04  0.25500000920E-02 0. -1.
       -2   -1    0    0    0  501  0.00000000000E+00  0.00000000000E+00 -0.59352159095E+03  0.59352159096E+03  0.25500000920E-02 0.  1.
    10030    2    1    2    0    0  0.00000000000E+00  0.00000000000E+00  0.59256284323E+03  0.17796060251E+04  0.16780544930E+04 0.  0.
        2    1    3    3  502    0  0.62695105396E+03 -0.46304384174E+03 -0.33144544741E+02  0.78011267409E+03  0.25500000920E-02 0. -1.
       -2    1    3    3    0  502 -0.62695105396E+03  0.46304384174E+03  0.62570738797E+03  0.99949335105E+03  0.25500000920E-02 0.  1.
</event>
<event>
 5   0  0.1186302E-04  0.1676301E+04  0.7818609E-02  0.8774997E-01
       -1   -1    0    0    0  501  0.00000000000E+00  0.00000000000E+00  0.45061126681E+03  0.45061126684E+03  0.50400001928E-02 0.  1.
        1   -1    0    0  501    0  0.00000000000E+00  0.00000000000E+00 -0.15589851646E+04  0.15589851646E+04  0.50400001928E-02 0. -1.
    10030    2    1    2    0    0  0.00000000000E+00  0.00000000000E+00 -0.11083738978E+04  0.20095964314E+04  0.16763010231E+04 0.  0.
        3    1    3    3  502    0 -0.39348486278E+03 -0.63095165649E+03 -0.90555173777E+02  0.74908649685E+03  0.10100000352E+00 0. -1.
       -3    1    3    3    0  502  0.39348486278E+03  0.63095165649E+03 -0.10178187240E+04  0.12605099346E+04  0.10100000352E+00 0.  1.
</event>
<event>
 5   0  0.1186302E-04  0.1693028E+04  0.7818609E-02  0.8765351E-01
       -1   -1    0    0    0  501  0.00000000000E+00  0.00000000000E+00  0.82501714917E+03  0.82501714919E+03  0.50400001928E-02 0. -1.
        1   -1    0    0  501    0  0.00000000000E+00  0.00000000000E+00 -0.86857065391E+03  0.86857065392E+03  0.50400001928E-02 0.  1.
    10030    2    1    2    0    0  0.00000000000E+00  0.00000000000E+00 -0.43553504731E+02  0.16935878031E+04  0.16930276841E+04 0.  0.
        3    1    3    3  502    0  0.95686168960E+02  0.72962709721E+03 -0.44033378839E+03  0.85755781106E+03  0.10100000352E+00 0.  1.
       -3    1    3    3    0  502 -0.95686168960E+02 -0.72962709721E+03  0.39678028366E+03  0.83602999205E+03  0.10100000352E+00 0. -1.
</event>
<event>
 5   0  0.2224454E-04  0.1696684E+04  0.7818609E-02  0.8763258E-01
       -2   -1    0    0    0  501  0.00000000000E+00  0.00000000000E+00  0.47500141584E+03  0.47500141584E+03  0.25500000920E-02 0.  1.
        2   -1    0    0  501    0  0.00000000000E+00  0.00000000000E+00 -0.15151195094E+04  0.15151195094E+04  0.25500000920E-02 0. -1.
    10030    2    1    2    0    0  0.00000000000E+00  0.00000000000E+00 -0.10401180936E+04  0.19901209253E+04  0.16966837208E+04 0.  0.
        2    1    3    3  502    0 -0.36629257697E+03 -0.71618618305E+03 -0.20403509689E+03  0.82989350010E+03  0.25500000920E-02 0.  1.
       -2    1    3    3    0  502  0.36629257697E+03  0.71618618305E+03 -0.83608299669E+03  0.11602274252E+04  0.25500000920E-02 0. -1.
</event>
<event>
 5   0  0.1234158E-04  0.1687779E+04  0.7818609E-02  0.8768365E-01
       -1   -1    0    0    0  501  0.00000000000E+00  0.00000000000E+00  0.40531091334E+03  0.40531091337E+03  0.50400001928E-02 0. -1.
        1   -1    0    0  501    0  0.00000000000E+00  0.00000000000E+00 -0.17570446189E+04  0.17570446189E+04  0.50400001928E-02 0.  1.
    10030    2    1    2    0    0  0.00000000000E+00  0.00000000000E+00 -0.13517337055E+04  0.21623555323E+04  0.16877788472E+04 0.  0.
        5    1    3    3  502    0 -0.56928831434E+03  0.61400197969E+03 -0.54125314669E+03  0.99702792073E+03  0.46999998093E+01 0. -1.
       -5    1    3    3    0  502  0.56928831434E+03 -0.61400197969E+03 -0.81048055886E+03  0.11653276115E+04  0.46999998093E+01 0.  1.
</event>
<event>
 5   0  0.2288806E-04  0.1689912E+04  0.7818609E-02  0.8767139E-01
       -2   -1    0    0    0  501  0.00000000000E+00  0.00000000000E+00  0.12969495665E+04  0.12969495665E+04  0.25500000920E-02 0. -1.
        2   -1    0    0  501    0  0.00000000000E+00  0.00000000000E+00 -0.55048466755E+03  0.55048466755E+03  0.25500000920E-02 0.  1.
    10030    2    1    2    0    0  0.00000000000E+00  0.00000000000E+00  0.74646489899E+03  0.18474342341E+04  0.16899122474E+04 0.  0.
        3    1    3    3  502    0 -0.56864199375E+03 -0.61499250737E+03  0.49487587778E+03  0.97286774321E+03  0.10100000352E+00 0.  1.
       -3    1    3    3    0  502  0.56864199375E+03  0.61499250737E+03  0.25158902122E+03  0.87456649088E+03  0.10100000352E+00 0. -1.
</event>
<event>
 5   0  0.2288806E-04  0.1712527E+04  0.7818609E-02  0.8754252E-01
       -2   -1    0    0    0  501  0.00000000000E+00  0.00000000000E+00  0.54623655808E+03  0.54623655808E+03  0.25500000920E-02 0. -1.
        2   -1    0    0  501    0  0.00000000000E+00  0.00000000000E+00 -0.13422522229E+04  0.13422522229E+04  0.25500000920E-02 0.  1.
    10030    2    1    2    0    0  0.00000000000E+00  0.00000000000E+00 -0.79601566483E+03  0.18884887810E+04  0.17125270618E+04 0.  0.
        3    1    3    3  502    0 -0.31235399890E+03  0.60714679978E+03  0.17180011657E+03  0.70406501644E+03  0.10100000352E+00 0. -1.
       -3    1    3    3    0  502  0.31235399890E+03 -0.60714679978E+03 -0.96781578140E+03  0.11844237646E+04  0.10100000352E+00 0.  1.
</event>
<event>
 5   0  0.2224454E-04  0.1686514E+04  0.7818609E-02  0.8769094E-01
        2   -1    0    0  501    0  0.00000000000E+00  0.00000000000E+00  0.81019960644E+03  0.81019960644E+03  0.25500000920E-02 0. -1.
       -2   -1    0    0    0  501  0.00000000000E+00  0.00000000000E+00 -0.87766280563E+03  0.87766280563E+03  0.25500000920E-02 0.  1.
    10030    2    1    2    0    0  0.00000000000E+00  0.00000000000E+00 -0.67463199192E+02  0.16878624121E+04  0.16865136344E+04 0.  0.
        2    1    3    3  502    0  0.36586187339E+03  0.23028183724E+02 -0.79374452029E+03  0.87430862465E+03  0.25500000920E-02 0.  1.
       -2    1    3    3    0  502 -0.36586187339E+03 -0.23028183724E+02  0.72628132110E+03  0.81355378742E+03  0.25500000920E-02 0. -1.
</event>
<event>
 5   0  0.1126958E-04  0.1695011E+04  0.7818609E-02  0.8764215E-01
       -1   -1    0    0    0  501  0.00000000000E+00  0.00000000000E+00  0.38284638816E+03  0.38284638819E+03  0.50400001928E-02 0.  1.
        1   -1    0    0  501    0  0.00000000000E+00  0.00000000000E+00 -0.18761200096E+04  0.18761200096E+04  0.50400001928E-02 0. -1.
    10030    2    1    2    0    0  0.00000000000E+00  0.00000000000E+00 -0.14932736215E+04  0.22589663978E+04  0.16950112324E+04 0.  0.
        4    1    3    3  502    0 -0.19918208331E+03 -0.79662630586E+03 -0.46715670808E+03  0.94473487091E+03  0.12699999809E+01 0.  1.
       -4    1    3    3    0  502  0.19918208331E+03  0.79662630586E+03 -0.10261169134E+04  0.13142315269E+04  0.12699999809E+01 0. -1.
</event>
<event>
 5   0  0.2234723E-04  0.1672705E+04  0.7818609E-02  0.8777087E-01
        2   -1    0    0  501    0  0.00000000000E+00  0.00000000000E+00  0.12511338750E+04  0.12511338750E+04  0.25500000920E-02 0.  1.
       -2   -1    0    0    0  501  0.00000000000E+00  0.00000000000E+00 -0.55908114032E+03  0.55908114033E+03  0.25500000920E-02 0. -1.
    10030    2    1    2    0    0  0.00000000000E+00  0.00000000000E+00  0.69205273471E+03  0.18102150154E+04  0.16727048198E+04 0.  0.
        1    1    3    3  502    0 -0.53870325437E+02  0.83288472795E+03  0.28788476862E+03  0.88287973249E+03  0.50400001928E-02 0.  1.
       -1    1    3    3    0  502  0.53870325437E+02 -0.83288472795E+03  0.40416796609E+03  0.92733528287E+03  0.50400001928E-02 0. -1.
</event>
<event>
 5   0  0.2224454E-04  0.1701676E+04  0.7818609E-02  0.8760409E-01
        2   -1    0    0  501    0  0.00000000000E+00  0.00000000000E+00  0.13573453960E+04  0.13573453960E+04  0.25500000920E-02 0. -1.
       -2   -1    0    0    0  501  0.00000000000E+00  0.00000000000E+00 -0.53333874930E+03  0.53333874930E+03  0.25500000920E-02 0.  1.
    10030    2    1    2    0    0  0.00000000000E+00  0.00000000000E+00  0.82400664669E+03  0.18906841453E+04  0.17016755224E+04 0.  0.
        2    1    3    3  502    0 -0.22395530834E+03 -0.31058664550E+03  0.12562023247E+04  0.13132647582E+04  0.25500000920E-02 0. -1.
       -2    1    3    3    0  502  0.22395530834E+03  0.31058664550E+03 -0.43219567802E+03  0.57741938710E+03  0.25500000920E-02 0.  1.
</event>
<event>
 5   0  0.2242967E-04  0.1690207E+04  0.7818609E-02  0.8766969E-01
       -2   -1    0    0    0  501  0.00000000000E+00  0.00000000000E+00  0.67779741266E+03  0.67779741266E+03  0.25500000920E-02 0.  1.
        2   -1    0    0  501    0  0.00000000000E+00  0.00000000000E+00 -0.10537075140E+04  0.10537075140E+04  0.25500000920E-02 0. -1.
    10030    2    1    2    0    0  0.00000000000E+00  0.00000000000E+00 -0.37591010136E+03  0.17315049267E+04  0.16902073562E+04 0.  0.
        4    1    3    3  502    0 -0.43086898749E+03 -0.55634836925E+03 -0.66739320488E+03  0.96983859233E+03  0.12699999809E+01 0. -1.
       -4    1    3    3    0  502  0.43086898749E+03  0.55634836925E+03  0.29148310352E+03  0.76166633435E+03  0.12699999809E+01 0.  1.
</event>
<event>
 5   0  0.2288806E-04  0.1695611E+04  0.7818609E-02  0.8763872E-01
       -2   -1    0    0    0  501  0.00000000000E+00  0.00000000000E+00  0.56434630956E+03  0.56434630957E+03  0.25500000920E-02 0.  1.
        2   -1    0    0  501    0  0.00000000000E+00  0.00000000000E+00 -0.12736402749E+04  0.12736402749E+04  0.25500000920E-02 0. -1.
    10030    2    1    2    0    0  0.00000000000E+00  0.00000000000E+00 -0.70929396530E+03  0.18379865844E+04  0.16956110271E+04 0.  0.
        3    1    3    3  502    0  0.22158610165E+03  0.52145075214E+03 -0.10382881967E+04  0.11828159945E+04  0.10100000352E+00 0. -1.
       -3    1    3    3    0  502 -0.22158610165E+03 -0.52145075214E+03  0.32899423140E+03  0.65517058988E+03  0.10100000352E+00 0.  1.
</event>
<event>
 5   0  0.1215233E-04  0.1693731E+04  0.7818609E-02  0.8764948E-01
       -1   -1    0    0    0  501  0.00000000000E+00  0.00000000000E+00  0.66156546748E+03  0.66156546750E+03  0.50400001928E-02 0.  1.
        1   -1    0    0  501    0  0.00000000000E+00  0.00000000000E+00 -0.10840672944E+04  0.10840672944E+04  0.50400001928E-02 0. -1.
    10030    2    1    2    0    0  0.00000000000E+00  0.00000000000E+00 -0.42250182690E+03  0.17456327619E+04  0.16937313676E+04 0.  0.
        2    1    3    3  502    0 -0.20900862075E+03  0.71653647338E+03 -0.62360142194E+03  0.97261906967E+03  0.25500000920E-02 0. -1.
       -2    1    3    3    0  502  0.20900862075E+03 -0.71653647338E+03  0.20109959505E+03  0.77301369222E+03  0.25500000920E-02 0.  1.
</event>
<event>
 5   0  0.2234723E-04  0.1687702E+04  0.7818609E-02  0.8768410E-01
       -2   -1    0    0    0  501  0.00000000000E+00  0.00000000000E+00  0.78078053731E+03  0.78078053731E+03  0.25500000920E-02 0.  1.
        2   -1    0    0  501    0  0.00000000000E+00  0.00000000000E+00 -0.91201601126E+03  0.91201601127E+03  0.25500000920E-02 0. -1.
    10030    2    1    2    0    0  0.00000000000E+00  0.00000000000E+00 -0.13123547396E+03  0.16927965486E+04  0.16877018117E+04 0.  0.
        1    1    3    3  502    0  0.56628829695E+03 -0.62554540656E+03 -0.75386766367E+02  0.84715562650E+03  0.50400001928E-02 0. -1.
       -1    1    3    3    0  502 -0.56628829695E+03  0.62554540656E+03 -0.55848707592E+02  0.84564092208E+03  0.50400001928E-02 0.  1.
</event>
<event>
 5   0  0.2242967E-04  0.1722855E+04  0.7818609E-02  0.8748435E-01
       -2   -1    0    0    0  501  0.00000000000E+00  0.00000000000E+00  0.64261000682E+03  0.64261000682E+03  0.25500000920E-02 0. -1.
        2   -1    0    0  501    0  0.00000000000E+00  0.00000000000E+00 -0.11547556743E+04  0.11547556743E+04  0.25500000920E-02 0.  1.
    10030    2    1    2    0    0  0.00000000000E+00  0.00000000000E+00 -0.51214566744E+03  0.17973656811E+04  0.17228552484E+04 0.  0.
        4    1    3    3  502    0  0.67420917511E+03  0.50393148860E+03 -0.44716385062E+03  0.95313277102E+03  0.12699999809E+01 0. -1.
       -4    1    3    3    0  502 -0.67420917511E+03 -0.50393148860E+03 -0.64981816818E+02  0.84423291005E+03  0.12699999809E+01 0.  1.
</event>
<event>
 5   0  0.1204741E-04  0.1703895E+04  0.7818609E-02  0.8759146E-01
        1   -1    0    0  501    0  0.00000000000E+00  0.00000000000E+00  0.21939392781E+04  0.21939392781E+04  0.50400001928E-02 0.  1.
       -1   -1    0    0    0  501  0.00000000000E+00  0.00000000000E+00 -0.33082714958E+03  0.33082714962E+03  0.50400001928E-02 0. -1.
    10030    2    1    2    0    0  0.00000000000E+00  0.00000000000E+00  0.18631121285E+04  0.25247664277E+04  0.17038951585E+04 0.  0.
        1    1    3    3  502    0 -0.30645015605E+03 -0.70656540772E+03  0.39184424760E+03  0.86411127057E+03  0.50400001928E-02 0. -1.
       -1    1    3    3    0  502  0.30645015605E+03  0.70656540772E+03  0.14712678809E+04  0.16606551572E+04  0.50400001928E-02 0.  1.
</event>
<event>
 5   0  0.1215233E-04  0.1704584E+04  0.7818609E-02  0.8758754E-01
        1   -1    0    0  501    0  0.00000000000E+00  0.00000000000E+00  0.75355896465E+03  0.75355896466E+03  0.50400001928E-02 0. -1.
       -1   -1    0    0    0  501  0.00000000000E+00  0.00000000000E+00 -0.96396091615E+03  0.96396091616E+03  0.50400001928E-02 0.  1.
    10030    2    1    2    0    0  0.00000000000E+00  0.00000000000E+00 -0.21040195150E+03  0.17175198808E+04  0.17045836911E+04 0.  0.
        2    1    3    3  502    0 -0.79679803399E+03 -0.12970639189E+03 -0.38057072474E+03  0.89249365914E+03  0.25500000920E-02 0.  1.
       -2    1    3    3    0  502  0.79679803399E+03  0.12970639189E+03  0.17016877324E+03  0.82502622168E+03  0.25500000920E-02 0. -1.
</event>
<event>
 5   0  0.1234158E-04  0.1662092E+04  0.7818609E-02  0.8783285E-01
        1   -1    0    0  501    0  0.00000000000E+00  0.00000000000E+00  0.93856188875E+03  0.93856188876E+03  0.50400001928E-02 0.  1.
       -1   -1    0    0    0  501  0.00000000000E+00  0.00000000000E+00 -0.73584656474E+03  0.73584656476E+03  0.50400001928E-02 0. -1.
    10030    2    1    2    0    0  0.00000000000E+00  0.00000000000E+00  0.20271532401E+03  0.16744084535E+04  0.16620921053E+04 0.  0.
        5    1    3    3  502    0 -0.14433411590E+03 -0.81706770425E+03  0.14843165746E+03  0.84290332618E+03  0.46999998093E+01 0.  1.
       -5    1    3    3    0  502  0.14433411590E+03  0.81706770425E+03  0.54283666549E+02  0.83150512734E+03  0.46999998093E+01 0. -1.
</event>
<event>
 5   0  0.8372750E-05  0.1738673E+04  0.7818609E-02  0.8739610E-01
        3   -1    0    0  501    0  0.00000000000E+00  0.00000000000E+00  0.45361203345E+03  0.45361204470E+03  0.10100000352E+00 0. -1.
       -3   -1    0    0    0  501  0.00000000000E+00  0.00000000000E+00 -0.16660630375E+04  0.16660630406E+04  0.10100000352E+00 0.  1.
    10030    2    1    2    0    0  0.00000000000E+00  0.00000000000E+00 -0.12124510040E+04  0.21196750853E+04  0.17386733534E+04 0.  0.
        3    1    3    3  502    0  0.38502663081E+02 -0.38762286211E+03  0.34126353012E+03  0.51787522192E+03  0.10100000352E+00 0. -1.
       -3    1    3    3    0  502 -0.38502663081E+02  0.38762286211E+03 -0.15537145342E+04  0.16017998633E+04  0.10100000352E+00 0.  1.
</event>
<event>
 5   0  0.1186302E-04  0.1569628E+04  0.7818609E-02  0.8839427E-01
        1   -1    0    0  501    0  0.00000000000E+00  0.00000000000E+00  0.16475193875E+04  0.16475193875E+04  0.50400001928E-02 0.  1.
       -1   -1    0    0    0  501  0.00000000000E+00  0.00000000000E+00 -0.37385464133E+03  0.37385464136E+03  0.50400001928E-02 0. -1.
    10030    2    1    2    0    0  0.00000000000E+00  0.00000000000E+00  0.12736647462E+04  0.20213740289E+04  0.15696276880E+04 0.  0.
        3    1    3    3  502    0 -0.34378569849E+01  0.52373035375E+03 -0.11587542387E+03  0.53640695965E+03  0.10100000352E+00 0. -1.
       -3    1    3    3    0  502  0.34378569849E+01 -0.52373035375E+03  0.13895401700E+04  0.14849670692E+04  0.10100000352E+00 0.  1.
</event>
<event>
 5   0  0.2242967E-04  0.1708947E+04  0.7818609E-02  0.8756278E-01
       -2   -1    0    0    0  501  0.00000000000E+00  0.00000000000E+00  0.81338468670E+03  0.81338468670E+03  0.25500000920E-02 0. -1.
        2   -1    0    0  501    0  0.00000000000E+00  0.00000000000E+00 -0.89763758803E+03  0.89763758803E+03  0.25500000920E-02 0.  1.
    10030    2    1    2    0    0  0.00000000000E+00  0.00000000000E+00 -0.84252901329E+02  0.17110222747E+04  0.17089466561E+04 0.  0.
        4    1    3    3  502    0 -0.20804611175E+03  0.94989377768E+02 -0.86642274915E+03  0.89610052988E+03  0.12699999809E+01 0.  1.
       -4    1    3    3    0  502  0.20804611175E+03 -0.94989377768E+02  0.78216984782E+03  0.81492174486E+03  0.12699999809E+01 0. -1.
</event>
<event>
 5   0  0.1204741E-04  0.1701004E+04  0.7818609E-02  0.8760792E-01
       -1   -1    0    0    0  501  0.00000000000E+00  0.00000000000E+00  0.11203122884E+04  0.11203122884E+04  0.50400001928E-02 0.  1.
        1   -1    0    0  501    0  0.00000000000E+00  0.00000000000E+00 -0.64567153472E+03  0.64567153474E+03  0.50400001928E-02 0. -1.
    10030    2    1    2    0    0  0.00000000000E+00  0.00000000000E+00  0.47464075366E+03  0.17659838231E+04  0.17010041207E+04 0.  0.
        1    1    3    3  502    0  0.33327928574E+03  0.45556921619E+03 -0.42317066304E+03  0.70547275152E+03  0.50400001928E-02 0. -1.
       -1    1    3    3    0  502 -0.33327928574E+03 -0.45556921619E+03  0.89781141671E+03  0.10605110716E+04  0.50400001928E-02 0.  1.
</event>
<event>
 5   0  0.2356829E-04  0.1711868E+04  0.7818609E-02  0.8754625E-01
       -2   -1    0    0    0  501  0.00000000000E+00  0.00000000000E+00  0.61044696155E+03  0.61044696156E+03  0.25500000920E-02 0.  1.
        2   -1    0    0  501    0  0.00000000000E+00  0.00000000000E+00 -0.12001415638E+04  0.12001415638E+04  0.25500000920E-02 0. -1.
    10030    2    1    2    0    0  0.00000000000E+00  0.00000000000E+00 -0.58969460221E+03  0.18105885253E+04  0.17118677181E+04 0.  0.
        5    1    3    3  502    0  0.35916706637E+03  0.31932220180E+02  0.52617873556E+03  0.63789246743E+03  0.46999998093E+01 0.  1.
       -5    1    3    3    0  502 -0.35916706637E+03 -0.31932220180E+02 -0.11158733378E+04  0.11726960579E+04  0.46999998093E+01 0. -1.
</event>
<event>
 5   0  0.2356829E-04  0.1700844E+04  0.7818609E-02  0.8760883E-01
       -2   -1    0    0    0  501  0.00000000000E+00  0.00000000000E+00  0.10886452380E+04  0.10886452380E+04  0.25500000920E-02 0. -1.
        2   -1    0    0  501    0  0.00000000000E+00  0.00000000000E+00 -0.66432835489E+03  0.66432835489E+03  0.25500000920E-02 0.  1.
    10030    2    1    2    0    0  0.00000000000E+00  0.00000000000E+00  0.42431688309E+03  0.17529735929E+04  0.17008443785E+04 0.  0.
        5    1    3    3  502    0 -0.40260221549E+03 -0.15239134975E+03  0.96804246379E+03  0.10594526743E+04  0.46999998093E+01 0. -1.
       -5    1    3    3    0  502  0.40260221549E+03  0.15239134975E+03 -0.54372558070E+03  0.69352091857E+03  0.46999998093E+01 0.  1.
</event>
<event>
 5   0  0.2356829E-04  0.1688297E+04  0.7818609E-02  0.8768067E-01
       -2   -1    0    0    0  501  0.00000000000E+00  0.00000000000E+00  0.34074816008E+03  0.34074816009E+03  0.25500000920E-02 0.  1.
        2   -1    0    0  501    0  0.00000000000E+00  0.00000000000E+00 -0.20912409265E+04  0.20912409265E+04  0.25500000920E-02 0. -1.
    10030    2    1    2    0    0  0.00000000000E+00  0.00000000000E+00 -0.17504927664E+04  0.24319890866E+04  0.16882967725E+04 0.  0.
        5    1    3    3  502    0  0.37911402098E+03 -0.23082637983E+02 -0.19611799276E+04  0.19976258527E+04  0.46999998093E+01 0. -1.
       -5    1    3    3    0  502 -0.37911402098E+03  0.23082637983E+02  0.21068716115E+03  0.43436323389E+03  0.46999998093E+01 0.  1.
</event>
<event>
 5   0  0.2224454E-04  0.1673314E+04  0.7818609E-02  0.8776733E-01
       -2   -1    0    0    0  501  0.00000000000E+00  0.00000000000E+00  0.34142594734E+03  0.34142594735E+03  0.25500000920E-02 0. -1.
        2   -1    0    0  501    0  0.00000000000E+00  0.00000000000E+00 -0.20502094287E+04  0.20502094287E+04  0.25500000920E-02 0.  1.
    10030    2    1    2    0    0  0.00000000000E+00  0.00000000000E+00 -0.17087834814E+04  0.23916353761E+04  0.16733137141E+04 0.  0.
        2    1    3    3  502    0 -0.60367244762E+03  0.11048555915E+03 -0.41625623188E+02  0.61510988880E+03  0.25500000920E-02 0. -1.
       -2    1    3    3    0  502  0.60367244762E+03 -0.11048555915E+03 -0.16671578582E+04  0.17765254873E+04  0.25500000920E-02 0.  1.
</event>
<event>
 5   0  0.1126958E-04  0.1697312E+04  0.7818609E-02  0.8762899E-01
       -1   -1    0    0    0  501  0.00000000000E+00  0.00000000000E+00  0.79101460337E+03  0.79101460339E+03  0.50400001928E-02 0.  1.
        1   -1    0    0  501    0  0.00000000000E+00  0.00000000000E+00 -0.91049782765E+03  0.91049782766E+03  0.50400001928E-02 0. -1.
    10030    2    1    2    0    0  0.00000000000E+00  0.00000000000E+00 -0.11948322427E+03  0.17015124311E+04  0.16973120845E+04 0.  0.
        4    1    3    3  502    0  0.39084461652E+03  0.34820613303E+03 -0.72938303924E+03  0.89777962562E+03  0.12699999809E+01 0. -1.
       -4    1    3    3    0  502 -0.39084461652E+03 -0.34820613303E+03  0.60989981496E+03  0.80373280544E+03  0.12699999809E+01 0.  1.
</event>
<event>
 5   0  0.2234723E-04  0.1697652E+04  0.7818609E-02  0.8762704E-01
        2   -1    0    0  501    0  0.00000000000E+00  0.00000000000E+00  0.59383120789E+03  0.59383120789E+03  0.25500000920E-02 0.  1.
       -2   -1    0    0    0  501  0.00000000000E+00  0.00000000000E+00 -0.12133176543E+04  0.12133176543E+04  0.25500000920E-02 0. -1.
    10030    2    1    2    0    0  0.00000000000E+00  0.00000000000E+00 -0.61948644638E+03  0.18071488622E+04  0.16976523651E+04 0.  0.
        1    1    3    3  502    0  0.62787362023E+03 -0.83821578132E+02 -0.91121286558E+03  0.11097568321E+04  0.50400001928E-02 0. -1.
       -1    1    3    3    0  502 -0.62787362023E+03  0.83821578132E+02  0.29172641920E+03  0.69739203008E+03  0.50400001928E-02 0.  1.
</event>
<event>
 5   0  0.2356829E-04  0.1698374E+04  0.7818609E-02  0.8762292E-01
        2   -1    0    0  501    0  0.00000000000E+00  0.00000000000E+00  0.26524191320E+04  0.26524191320E+04  0.25500000920E-02 0. -1.
       -2   -1    0    0    0  501  0.00000000000E+00  0.00000000000E+00 -0.27187196715E+03  0.27187196716E+03  0.25500000920E-02 0.  1.
    10030    2    1    2    0    0  0.00000000000E+00  0.00000000000E+00  0.23805471649E+04  0.29242910992E+04  0.16983738189E+04 0.  0.
        5    1    3    3  502    0  0.65966641235E+03  0.53398371778E+03  0.11416362319E+04  0.14225518488E+04  0.46999998093E+01 0. -1.
       -5    1    3    3    0  502 -0.65966641235E+03 -0.53398371778E+03  0.12389109329E+04  0.15017392504E+04  0.46999998093E+01 0.  1.
</event>
<event>
 5   0  0.2242967E-04  0.1709598E+04  0.7818609E-02  0.8755909E-01
       -2   -1    0    0    0  501  0.00000000000E+00  0.00000000000E+00  0.36079784705E+03  0.36079784706E+03  0.25500000920E-02 0.  1.
        2   -1    0    0  501    0  0.00000000000E+00  0.00000000000E+00 -0.20251830933E+04  0.20251830933E+04  0.25500000920E-02 0. -1.
    10030    2    1    2    0    0  0.00000000000E+00  0.00000000000E+00 -0.16643852463E+04  0.23859809404E+04  0.17095984323E+04 0.  0.
        4    1    3    3  502    0 -0.75420025532E+03  0.39770678916E+03 -0.91698694177E+03  0.12521403194E+04  0.12699999809E+01 0. -1.
       -4    1    3    3    0  502  0.75420025532E+03 -0.39770678916E+03 -0.74739830453E+03  0.11338406210E+04  0.12699999809E+01 0.  1.
</event>
<event>
 5   0  0.2288806E-04  0.1737742E+04  0.7818609E-02  0.8740127E-01
        2   -1    0    0  501    0  0.00000000000E+00  0.00000000000E+00  0.12803408055E+04  0.12803408055E+04  0.25500000920E-02 0. -1.
       -2   -1    0    0    0  501  0.00000000000E+00  0.00000000000E+00 -0.58963748207E+03  0.58963748207E+03  0.25500000920E-02 0.  1.
    10030    2    1    2    0    0  0.00000000000E+00  0.00000000000E+00  0.69070332347E+03  0.18699782876E+04  0.17377421314E+04 0.  0.
        3    1    3    3  502    0  0.22587588808E+03 -0.82479629021E+03  0.17994025215E+03  0.87389206525E+03  0.10100000352E+00 0.  1.
       -3    1    3    3    0  502 -0.22587588808E+03  0.82479629021E+03  0.51076307132E+03  0.99608622236E+03  0.10100000352E+00 0. -1.
</event>
<event>
 5   0  0.2356829E-04  0.1708285E+04  0.7818609E-02  0.8756653E-01
        2   -1    0    0  501    0  0.00000000000E+00  0.00000000000E+00  0.60846089841E+03  0.60846089842E+03  0.25500000920E-02 0.  1.
       -2   -1    0    0    0  501  0.00000000000E+00  0.00000000000E+00 -0.11990236855E+04  0.11990236855E+04  0.25500000920E-02 0. -1.
    10030    2    1    2    0    0  0.00000000000E+00  0.00000000000E+00 -0.59056278704E+03  0.18074845839E+04  0.17082845534E+04 0.  0.
        5    1    3    3  502    0 -0.45399486898E+03 -0.64702020616E+03  0.47230172870E+02  0.79183285324E+03  0.46999998093E+01 0. -1.
       -5    1    3    3    0  502  0.45399486898E+03  0.64702020616E+03 -0.63779295991E+03  0.10156517306E+04  0.46999998093E+01 0.  1.
</event>
<event>
 5   0  0.1126958E-04  0.1697163E+04  0.7818609E-02  0.8762984E-01
       -1   -1    0    0    0  501  0.00000000000E+00  0.00000000000E+00  0.93136297979E+03  0.93136297980E+03  0.50400001928E-02 0. -1.
        1   -1    0    0  501    0  0.00000000000E+00  0.00000000000E+00 -0.77315766765E+03  0.77315766767E+03  0.50400001928E-02 0.  1.
    10030    2    1    2    0    0  0.00000000000E+00  0.00000000000E+00  0.15820531213E+03  0.17045206475E+04  0.16971628434E+04 0.  0.
        4    1    3    3  502    0 -0.59524592796E+02  0.38091551754E+02  0.92840148003E+03  0.93108810780E+03  0.12699999809E+01 0. -1.
       -4    1    3    3    0  502  0.59524592796E+02 -0.38091551754E+02 -0.77019616790E+03  0.77343253967E+03  0.12699999809E+01 0.  1.
</event>
<event>
 5   0  0.1186302E-04  0.1679125E+04  0.7818609E-02  0.8773361E-01
        1   -1    0    0  501    0  0.00000000000E+00  0.00000000000E+00  0.73653700413E+03  0.73653700415E+03  0.50400001928E-02 0. -1.
       -1   -1    0    0    0  501  0.00000000000E+00  0.00000000000E+00 -0.95699857854E+03  0.95699857855E+03  0.50400001928E-02 0.  1.
    10030    2    1    2    0    0  0.00000000000E+00  0.00000000000E+00 -0.22046157441E+03  0.16935355827E+04  0.16791246124E+04 0.  0.
        3    1    3    3  502    0 -0.44534876765E+03  0.57667223741E+03 -0.53091783550E+03  0.90153211396E+03  0.10100000352E+00 0.  1.
       -3    1    3    3    0  502  0.44534876765E+03 -0.57667223741E+03  0.31045626109E+03  0.79200346874E+03  0.10100000352E+00 0. -1.
</event>
<event>
 5   0  0.1234158E-04  0.1702659E+04  0.7818609E-02  0.8759849E-01
       -1   -1    0    0    0  501  0.00000000000E+00  0.00000000000E+00  0.92058812107E+03  0.92058812108E+03  0.50400001928E-02 0. -1.
        1   -1    0    0  501    0  0.00000000000E+00  0.00000000000E+00 -0.78728115889E+03  0.78728115890E+03  0.50400001928E-02 0.  1.
    10030    2    1    2    0    0  0.00000000000E+00  0.00000000000E+00  0.13330696218E+03  0.17078692800E+04  0.17026587243E+04 0.  0.
        5    1    3    3  502    0  0.63603061103E+03  0.25527984497E+00  0.63425140068E+03  0.89823823822E+03  0.46999998093E+01 0. -1.
       -5    1    3    3    0  502 -0.63603061103E+03 -0.25527984497E+00 -0.50094443850E+03  0.80963104177E+03  0.46999998093E+01 0.  1.
</event>
<event>
 5   0  0.2234723E-04  0.1685310E+04  0.7818609E-02  0.8769787E-01
       -2   -1    0    0    0  501  0.00000000000E+00  0.00000000000E+00  0.35890337881E+03  0.35890337882E+03  0.25500000920E-02 0.  1.
        2   -1    0    0  501    0  0.00000000000E+00  0.00000000000E+00 -0.19784373638E+04  0.19784373638E+04  0.25500000920E-02 0. -1.
    10030    2    1    2    0    0  0.00000000000E+00  0.00000000000E+00 -0.16195339850E+04  0.23373407426E+04  0.16853104813E+04 0.  0.
        1    1    3    3  502    0  0.10076792524E+02  0.47649212271E+03 -0.17735525399E+04  0.18364734947E+04  0.50400001928E-02 0. -1.
       -1    1    3    3    0  502 -0.10076792524E+02 -0.47649212271E+03  0.15401855495E+03  0.50086724792E+03  0.50400001928E-02 0.  1.
</event>
<event>
 5   0  0.2356829E-04  0.1704314E+04  0.7818609E-02  0.8758908E-01
       -2   -1    0    0    0  501  0.00000000000E+00  0.00000000000E+00  0.55688133112E+03  0.55688133112E+03  0.25500000920E-02 0. -1.
        2   -1    0    0  501    0  0.00000000000E+00  0.00000000000E+00 -0.13039963796E+04  0.13039963796E+04  0.25500000920E-02 0.  1.
    10030    2    1    2    0    0  0.00000000000E+00  0.00000000000E+00 -0.74711504853E+03  0.18608777108E+04  0.17043136327E+04 0.  0.
        5    1    3    3  502    0 -0.83725911652E+03  0.13799444559E+03 -0.28825332684E+03  0.89619047397E+03  0.46999998093E+01 0. -1.
       -5    1    3    3    0  502  0.83725911652E+03 -0.13799444559E+03 -0.45886172169E+03  0.96468723680E+03  0.46999998093E+01 0.  1.
</event>
<event>
 5   0  0.1234158E-04  0.1710273E+04  0.7818609E-02  0.8755527E-01
        1   -1    0    0  501    0  0.00000000000E+00  0.00000000000E+00  0.10707288824E+04  0.10707288824E+04  0.50400001928E-02 0.  1.
       -1   -1    0    0    0  501  0.00000000000E+00  0.00000000000E+00 -0.68295358722E+03  0.68295358724E+03  0.50400001928E-02 0. -1.
    10030    2    1    2    0    0  0.00000000000E+00  0.00000000000E+00  0.38777529518E+03  0.17536824697E+04  0.17102726463E+04 0.  0.
        5    1    3    3  502    0 -0.47214694104E+03 -0.61928688655E+03 -0.16834516417E+03  0.79674410326E+03  0.46999998093E+01 0. -1.
       -5    1    3    3    0  502  0.47214694104E+03  0.61928688655E+03  0.55612045935E+03  0.95693836640E+03  0.46999998093E+01 0.  1.
</event>
<event>
 5   0  0.1204741E-04  0.1669153E+04  0.7818609E-02  0.8779156E-01
       -1   -1    0    0    0  501  0.00000000000E+00  0.00000000000E+00  0.62529019448E+03  0.62529019450E+03  0.50400001928E-02 0.  1.
        1   -1    0    0  501    0  0.00000000000E+00  0.00000000000E+00 -0.11139111943E+04  0.11139111943E+04  0.50400001928E-02 0. -1.
    10030    2    1    2    0    0  0.00000000000E+00  0.00000000000E+00 -0.48862099981E+03  0.17392013888E+04  0.16691527759E+04 0.  0.
        1    1    3    3  502    0  0.12065188377E+03 -0.69638875092E+03  0.21816724776E+03  0.73966960022E+03  0.50400001928E-02 0.  1.
       -1    1    3    3    0  502 -0.12065188377E+03  0.69638875092E+03 -0.70678824757E+03  0.99953178858E+03  0.50400001928E-02 0. -1.
</event>
<event>
 5   0  0.2224454E-04  0.1669587E+04  0.7818609E-02  0.8778902E-01
       -2   -1    0    0    0  501  0.00000000000E+00  0.00000000000E+00  0.53787497116E+03  0.53787497117E+03  0.25500000920E-02 0. -1.
        2   -1    0    0  501    0  0.00000000000E+00  0.00000000000E+00 -0.12956181380E+04  0.12956181381E+04  0.25500000920E-02 0.  1.
    10030    2    1    2    0    0  0.00000000000E+00  0.00000000000E+00 -0.75774316689E+03  0.18334931092E+04  0.16695874564E+04 0.  0.
        2    1    3    3  502    0 -0.29948209043E+03 -0.58765292297E+03 -0.94082539024E+03  0.11489899457E+04  0.25500000920E-02 0.  1.
       -2    1    3    3    0  502  0.29948209043E+03  0.58765292297E+03  0.18308222335E+03  0.68450316353E+03  0.25500000920E-02 0. -1.
</event>
<event>
 5   0  0.1204741E-04  0.1697369E+04  0.7818609E-02  0.8762867E-01
        1   -1    0    0  501    0  0.00000000000E+00  0.00000000000E+00  0.79931513669E+03  0.79931513671E+03  0.50400001928E-02 0.  1.
       -1   -1    0    0    0  501  0.00000000000E+00  0.00000000000E+00 -0.90110263035E+03  0.90110263036E+03  0.50400001928E-02 0. -1.
    10030    2    1    2    0    0  0.00000000000E+00  0.00000000000E+00 -0.10178749365E+03  0.17004177671E+04  0.16973685188E+04 0.  0.
        1    1    3    3  502    0  0.52457936956E+03 -0.48102042813E+03  0.41221455892E+03  0.82248708796E+03  0.50400001928E-02 0.  1.
       -1    1    3    3    0  502 -0.52457936956E+03  0.48102042813E+03 -0.51400205257E+03  0.87793067911E+03  0.50400001928E-02 0. -1.
</event>
<event>
 5   0  0.2242967E-04  0.1698713E+04  0.7818609E-02  0.8762099E-01
        2   -1    0    0  501    0  0.00000000000E+00  0.00000000000E+00  0.21948933346E+04  0.21948933346E+04  0.25500000920E-02 0. -1.
       -2   -1    0    0    0  501  0.00000000000E+00  0.00000000000E+00 -0.32867479068E+03  0.32867479069E+03  0.25500000920E-02 0.  1.
    10030    2    1    2    0    0  0.00000000000E+00  0.00000000000E+00  0.18662185439E+04  0.25235681253E+04  0.16987125800E+04 0.  0.
        4    1    3    3  502    0  0.59002447537E+03 -0.57323702616E+03  0.61911115396E+03  0.10295774879E+04  0.12699999809E+01 0. -1.
       -4    1    3    3    0  502 -0.59002447537E+03  0.57323702616E+03  0.12471073900E+04  0.14939906374E+04  0.12699999809E+01 0.  1.
</event>
<event>
 5   0  0.2234723E-04  0.1705041E+04  0.7818609E-02  0.8758495E-01
       -2   -1    0    0    0  501  0.00000000000E+00  0.00000000000E+00  0.95590253247E+03  0.95590253248E+03  0.25500000920E-02 0. -1.
        2   -1    0    0  501    0  0.00000000000E+00  0.00000000000E+00 -0.76031901533E+03  0.76031901533E+03  0.25500000920E-02 0.  1.
    10030    2    1    2    0    0  0.00000000000E+00  0.00000000000E+00  0.19558351715E+03  0.17162215478E+04  0.17050406121E+04 0.  0.
        1    1    3    3  502    0  0.62849827904E+03 -0.25001131938E+03 -0.42452834432E+03  0.79858628947E+03  0.50400001928E-02 0.  1.
       -1    1    3    3    0  502 -0.62849827904E+03  0.25001131938E+03  0.62011186147E+03  0.91763525833E+03  0.50400001928E-02 0. -1.
</event>
<event>
 5   0  0.8372750E-05  0.1709993E+04  0.7818609E-02  0.8755685E-01
        4   -1    0    0  501    0  0.00000000000E+00  0.00000000000E+00  0.12039537113E+04  0.12039543811E+04  0.12699999809E+01 0.  1.
       -4   -1    0    0    0  501  0.00000000000E+00  0.00000000000E+00 -0.60718048868E+03  0.60718181687E+03  0.12699999809E+01 0. -1.
    10030    2    1    2    0    0  0.00000000000E+00  0.00000000000E+00  0.59677322259E+03  0.18111361980E+04  0.17099929966E+04 0.  0.
        4    1    3    3  502    0  0.52626955114E+03 -0.12701391697E+03  0.99928773962E+03  0.11365165089E+04  0.12699999809E+01 0.  1.
       -4    1    3    3    0  502 -0.52626955114E+03  0.12701391697E+03 -0.40251451703E+03  0.67461968907E+03  0.12699999809E+01 0. -1.
</event>
<event>
 5   0  0.1204741E-04  0.1708453E+04  0.7818609E-02  0.8756558E-01
        1   -1    0    0  501    0  0.00000000000E+00  0.00000000000E+00  0.12726499166E+04  0.12726499166E+04  0.50400001928E-02 0. -1.
       -1   -1    0    0    0  501  0.00000000000E+00  0.00000000000E+00 -0.57337302559E+03  0.57337302561E+03  0.50400001928E-02 0.  1.
    10030    2    1    2    0    0  0.00000000000E+00  0.00000000000E+00  0.69927689100E+03  0.18460229422E+04  0.17084532574E+04 0.  0.
        1    1    3    3  502    0 -0.23246644727E+03 -0.59012722881E+03 -0.26863630859E+03  0.68880785536E+03  0.50400001928E-02 0.  1.
       -1    1    3    3    0  502  0.23246644727E+03  0.59012722881E+03  0.96791319958E+03  0.11572150869E+04  0.50400001928E-02 0. -1.
</event>
<event>
 5   0  0.8372750E-05  0.1686489E+04  0.7818609E-02  0.8769108E-01
        3   -1    0    0  501    0  0.00000000000E+00  0.00000000000E+00  0.28136415714E+03  0.28136417526E+03  0.10100000352E+00 0.  1.
       -3   -1    0    0    0  501  0.00000000000E+00  0.00000000000E+00 -0.25271923710E+04  0.25271923730E+04  0.10100000352E+00 0. -1.
    10030    2    1    2    0    0  0.00000000000E+00  0.00000000000E+00 -0.22458282138E+04  0.28085565482E+04  0.16864891102E+04 0.  0.
        4    1    3    3  502    0  0.70317141964E+02  0.36446450046E+03  0.13799379207E+03  0.39600855054E+03  0.12699999809E+01 0.  1.
       -4    1    3    3    0  502 -0.70317141964E+02 -0.36446450046E+03 -0.23838220059E+04  0.24125479977E+04  0.12699999809E+01 0. -1.
</event>
<event>
 5   0  0.2242967E-04  0.1695196E+04  0.7818609E-02  0.8764109E-01
        2   -1    0    0  501    0  0.00000000000E+00  0.00000000000E+00  0.45557898804E+03  0.45557898805E+03  0.25500000920E-02 0.  1.
       -2   -1    0    0    0  501  0.00000000000E+00  0.00000000000E+00 -0.15769441530E+04  0.15769441530E+04  0.25500000920E-02 0. -1.
    10030    2    1    2    0    0  0.00000000000E+00  0.00000000000E+00 -0.11213651650E+04  0.20325231411E+04  0.16951962971E+04 0.  0.
        4    1    3    3  502    0 -0.14681377722E+02  0.28607507091E+03  0.39578259944E+03  0.48856930723E+03  0.12699999809E+01 0.  1.
       -4    1    3    3    0  502  0.14681377722E+02 -0.28607507091E+03 -0.15171477644E+04  0.15439538338E+04  0.12699999809E+01 0. -1.
</event>
<event>
 5   0  0.1126958E-04  0.1701991E+04  0.7818609E-02  0.8760230E-01
       -1   -1    0    0    0  501  0.00000000000E+00  0.00000000000E+00  0.58218183949E+03  0.58218183951E+03  0.50400001928E-02 0. -1.
        1   -1    0    0  501    0  0.00000000000E+00  0.00000000000E+00 -0.12439297076E+04  0.12439297077E+04  0.50400001928E-02 0.  1.
    10030    2    1    2    0    0  0.00000000000E+00  0.00000000000E+00 -0.66174786815E+03  0.18261115472E+04  0.17019909347E+04 0.  0.
        4    1    3    3  502    0 -0.85963093656E+02  0.23595206488E+02 -0.12389055043E+04  0.12421090325E+04  0.12699999809E+01 0.  1.
       -4    1    3    3    0  502  0.85963093656E+02 -0.23595206488E+02  0.57715763614E+03  0.58400251463E+03  0.12699999809E+01 0. -1.
</event>
<event>
 5   0  0.2242967E-04  0.1706047E+04  0.7818609E-02  0.8757923E-01
        2   -1    0    0  501    0  0.00000000000E+00  0.00000000000E+00  0.76176891408E+03  0.76176891409E+03  0.25500000920E-02 0.  1.
       -2   -1    0    0    0  501  0.00000000000E+00  0.00000000000E+00 -0.95520954061E+03  0.95520954061E+03  0.25500000920E-02 0. -1.
    10030    2    1    2    0    0  0.00000000000E+00  0.00000000000E+00 -0.19344062652E+03  0.17169784547E+04  0.17060468159E+04 0.  0.
        4    1    3    3  502    0 -0.72101320441E+03  0.44036090862E+03  0.21803358978E+02  0.84513594772E+03  0.12699999809E+01 0. -1.
       -4    1    3    3    0  502  0.72101320441E+03 -0.44036090862E+03 -0.21524398550E+03  0.87184250697E+03  0.12699999809E+01 0.  1.
</event>
<event>
 5   0  0.1215233E-04  0.1702489E+04  0.7818609E-02  0.8759946E-01
       -1   -1    0    0    0  501  0.00000000000E+00  0.00000000000E+00  0.17521009262E+04  0.17521009262E+04  0.50400001928E-02 0. -1.
        1   -1    0    0  501    0  0.00000000000E+00  0.00000000000E+00 -0.41357035422E+03  0.41357035425E+03  0.50400001928E-02 0.  1.
    10030    2    1    2    0    0  0.00000000000E+00  0.00000000000E+00  0.13385305719E+04  0.21656712804E+04  0.17024887673E+04 0.  0.
        2    1    3    3  502    0  0.36680910520E+03  0.70676943153E+03  0.28649286185E+03  0.84625652666E+03  0.25500000920E-02 0.  1.
       -2    1    3    3    0  502 -0.36680910520E+03 -0.70676943153E+03  0.10520377101E+04  0.13194147538E+04  0.25500000920E-02 0. -1.
</event>
<event>
 5   0  0.2234723E-04  0.1684656E+04  0.7818609E-02  0.8770164E-01
       -2   -1    0    0    0  501  0.00000000000E+00  0.00000000000E+00  0.79548870005E+03  0.79548870005E+03  0.25500000920E-02 0. -1.
        2   -1    0    0  501    0  0.00000000000E+00  0.00000000000E+00 -0.89192522648E+03  0.89192522648E+03  0.25500000920E-02 0.  1.
    10030    2    1    2    0    0  0.00000000000E+00  0.00000000000E+00 -0.96436526434E+02  0.16874139265E+04  0.16846559755E+04 0.  0.
        1    1    3    3  502    0  0.67863221615E+03  0.10378023679E+03  0.44064264144E+03  0.81576832485E+03  0.50400001928E-02 0. -1.
       -1    1    3    3    0  502 -0.67863221615E+03 -0.10378023679E+03 -0.53707916788E+03  0.87164560168E+03  0.50400001928E-02 0.  1.
</event>
<event>
 5   0  0.1186302E-04  0.1669926E+04  0.7818609E-02  0.8778705E-01
        1   -1    0    0  501    0  0.00000000000E+00  0.00000000000E+00  0.11768144551E+04  0.11768144551E+04  0.50400001928E-02 0.  1.
       -1   -1    0    0    0  501  0.00000000000E+00  0.00000000000E+00 -0.59241588932E+03  0.59241588935E+03  0.50400001928E-02 0. -1.
    10030    2    1    2    0    0  0.00000000000E+00  0.00000000000E+00  0.58439856580E+03  0.17692303445E+04  0.16699264439E+04 0.  0.
        3    1    3    3  502    0  0.49724031142E+03 -0.67056266042E+03  0.30932737842E+03  0.89027279308E+03  0.10100000352E+00 0. -1.
       -3    1    3    3    0  502 -0.49724031142E+03  0.67056266042E+03  0.27507118738E+03  0.87895755141E+03  0.10100000352E+00 0.  1.
</event>
<event>
 5   0  0.1204741E-04  0.1708336E+04  0.7818609E-02  0.8756625E-01
        1   -1    0    0  501    0  0.00000000000E+00  0.00000000000E+00  0.43370045240E+03  0.43370045243E+03  0.50400001928E-02 0. -1.
       -1   -1    0    0    0  501  0.00000000000E+00  0.00000000000E+00 -0.16822729888E+04  0.16822729888E+04  0.50400001928E-02 0.  1.
    10030    2    1    2    0    0  0.00000000000E+00  0.00000000000E+00 -0.12485725364E+04  0.21159734412E+04  0.17083355131E+04 0.  0.
        1    1    3    3  502    0  0.12361107537E+03  0.30556957195E+03 -0.16003212696E+04  0.16339157345E+04  0.50400001928E-02 0.  1.
       -1    1    3    3    0  502 -0.12361107537E+03 -0.30556957195E+03  0.35174873327E+03  0.48205770675E+03  0.50400001928E-02 0. -1.
</event>
<event>
 5   0  0.1186302E-04  0.1705712E+04  0.7818609E-02  0.8758113E-01
        1   -1    0    0  501    0  0.00000000000E+00  0.00000000000E+00  0.21584005652E+04  0.21584005652E+04  0.50400001928E-02 0. -1.
       -1   -1    0    0    0  501  0.00000000000E+00  0.00000000000E+00 -0.33699196286E+03  0.33699196289E+03  0.50400001928E-02 0.  1.
    10030    2    1    2    0    0  0.00000000000E+00  0.00000000000E+00  0.18214086023E+04  0.24953925281E+04  0.17057123358E+04 0.  0.
        3    1    3    3  502    0 -0.45420649260E+03 -0.57145313283E+03  0.26550415178E+03  0.77675909120E+03  0.10100000352E+00 0.  1.
       -3    1    3    3    0  502  0.45420649260E+03  0.57145313283E+03  0.15559044505E+04  0.17186334369E+04  0.10100000352E+00 0. -1.
</event>
<event>
 5   0  0.2288806E-04  0.1702665E+04  0.7818609E-02  0.8759846E-01
        2   -1    0    0  501    0  0.00000000000E+00  0.00000000000E+00  0.99333383237E+03  0.99333383237E+03  0.25500000920E-02 0. -1.
       -2   -1    0    0    0  501  0.00000000000E+00  0.00000000000E+00 -0.72963104805E+03  0.72963104806E+03  0.25500000920E-02 0.  1.
    10030    2    1    2    0    0  0.00000000000E+00  0.00000000000E+00  0.26370278432E+03  0.17229648804E+04  0.17026652110E+04 0.  0.
        3    1    3    3  502    0  0.51296705813E+03 -0.67852303352E+03  0.96239702523E+02  0.85603200892E+03  0.10100000352E+00 0.  1.
       -3    1    3    3    0  502 -0.51296705813E+03  0.67852303352E+03  0.16746308180E+03  0.86693287151E+03  0.10100000352E+00 0. -1.
</event>
<event>
 5   0  0.2224454E-04  0.1694824E+04  0.7818609E-02  0.8764322E-01
        2   -1    0    0  501    0  0.00000000000E+00  0.00000000000E+00  0.14516951807E+04  0.14516951807E+04  0.25500000920E-02 0. -1.
       -2   -1    0    0    0  501  0.00000000000E+00  0.00000000000E+00 -0.49466808745E+03  0.49466808745E+03  0.25500000920E-02 0.  1.
    10030    2    1    2    0    0  0.00000000000E+00  0.00000000000E+00  0.95702709326E+03  0.19463632682E+04  0.16948242134E+04 0.  0.
        2    1    3    3  502    0  0.40447874875E+03  0.30091318941E+03  0.12607488115E+04  0.13578068241E+04  0.25500000920E-02 0. -1.
       -2    1    3    3    0  502 -0.40447874875E+03 -0.30091318941E+03 -0.30372171824E+03  0.58855644410E+03  0.25500000920E-02 0.  1.
</event>
<event>
 5   0  0.1126958E-04  0.1705954E+04  0.7818609E-02  0.8757976E-01
       -1   -1    0    0    0  501  0.00000000000E+00  0.00000000000E+00  0.64391626326E+03  0.64391626328E+03  0.50400001928E-02 0.  1.
        1   -1    0    0  501    0  0.00000000000E+00  0.00000000000E+00 -0.11299134387E+04  0.11299134387E+04  0.50400001928E-02 0. -1.
    10030    2    1    2    0    0  0.00000000000E+00  0.00000000000E+00 -0.48599717541E+03  0.17738297020E+04  0.17059538555E+04 0.  0.
        4    1    3    3  502    0 -0.60850808505E+03 -0.21280997469E+03  0.33779317024E+03  0.72778844018E+03  0.12699999809E+01 0.  1.
       -4    1    3    3    0  502  0.60850808505E+03  0.21280997469E+03 -0.82379034565E+03  0.10460412618E+04  0.12699999809E+01 0. -1.
</event>
<event>
 5   0  0.2242967E-04  0.1699163E+04  0.7818609E-02  0.8761842E-01
       -2   -1    0    0    0  501  0.00000000000E+00  0.00000000000E+00  0.51479203599E+03  0.51479203599E+03  0.25500000920E-02 0. -1.
        2   -1    0    0  501    0  0.00000000000E+00  0.00000000000E+00 -0.14020983696E+04  0.14020983696E+04  0.25500000920E-02 0.  1.
    10030    2    1    2    0    0  0.00000000000E+00  0.00000000000E+00 -0.88730633365E+03  0.19168904056E+04  0.16991634111E+04 0.  0.
        4    1    3    3  502    0  0.53983333842E+02  0.48405627944E+03  0.34164966214E+03  0.59493763247E+03  0.12699999809E+01 0. -1.
       -4    1    3    3    0  502 -0.53983333842E+02 -0.48405627944E+03 -0.12289559958E+04  0.13219527732E+04  0.12699999809E+01 0.  1.
</event>
<event>
 5   0  0.2356829E-04  0.1716032E+04  0.7818609E-02  0.8752273E-01
        2   -1    0    0  501    0  0.00000000000E+00  0.00000000000E+00  0.27327798790E+04  0.27327798790E+04  0.25500000920E-02 0. -1.
       -2   -1    0    0    0  501  0.00000000000E+00  0.00000000000E+00 -0.26939291844E+03  0.26939291845E+03  0.25500000920E-02 0.  1.
    10030    2    1    2    0    0  0.00000000000E+00  0.00000000000E+00  0.24633869606E+04  0.30021727974E+04  0.17160321059E+04 0.  0.
        5    1    3    3  502    0  0.21556753968E+02 -0.12463720985E+03  0.27163564923E+04  0.27193039203E+04  0.46999998093E+01 0. -1.
       -5    1    3    3    0  502 -0.21556753968E+02  0.12463720985E+03 -0.25296953170E+03  0.28286887719E+03  0.46999998093E+01 0.  1.
</event>
<event>
 5   0  0.1126958E-04  0.1704450E+04  0.7818609E-02  0.8758830E-01
        1   -1    0    0  501    0  0.00000000000E+00  0.00000000000E+00  0.98057340277E+03  0.98057340279E+03  0.50400001928E-02 0.  1.
       -1   -1    0    0    0  501  0.00000000000E+00  0.00000000000E+00 -0.74067623272E+03  0.74067623274E+03  0.50400001928E-02 0. -1.
    10030    2    1    2    0    0  0.00000000000E+00  0.00000000000E+00  0.23989717005E+03  0.17212496355E+04  0.17044499569E+04 0.  0.
        4    1    3    3  502    0  0.41956755762E+03 -0.23469766754E+03 -0.59066737634E+03  0.76158354298E+03  0.12699999809E+01 0. -1.
       -4    1    3    3    0  502 -0.41956755762E+03  0.23469766754E+03  0.83056454640E+03  0.95966609255E+03  0.12699999809E+01 0.  1.
</event>
<event>
 5   0  0.2234723E-04  0.1735409E+04  0.7818609E-02  0.8741423E-01
       -2   -1    0    0    0  501  0.00000000000E+00  0.00000000000E+00  0.95600649445E+03  0.95600649445E+03  0.25500000920E-02 0. -1.
        2   -1    0    0  501    0  0.00000000000E+00  0.00000000000E+00 -0.78755882770E+03  0.78755882770E+03  0.25500000920E-02 0.  1.
    10030    2    1    2    0    0  0.00000000000E+00  0.00000000000E+00  0.16844766675E+03  0.17435653222E+04  0.17354092936E+04 0.  0.
        1    1    3    3  502    0  0.89937727871E+02  0.68062925307E+03 -0.44889828580E+03  0.82027717635E+03  0.50400001928E-02 0.  1.
       -1    1    3    3    0  502 -0.89937727871E+02 -0.68062925307E+03  0.61734595255E+03  0.92328814580E+03  0.50400001928E-02 0. -1.
</event>
<event>
 5   0  0.1204741E-04  0.1653089E+04  0.7818609E-02  0.8788581E-01
        1   -1    0    0  501    0  0.00000000000E+00  0.00000000000E+00  0.16877085235E+04  0.16877085235E+04  0.50400001928E-02 0. -1.
       -1   -1    0    0    0  501  0.00000000000E+00  0.00000000000E+00 -0.40479476768E+03  0.40479476771E+03  0.50400001928E-02 0.  1.
    10030    2    1    2    0    0  0.00000000000E+00  0.00000000000E+00  0.12829137558E+04  0.20925032912E+04  0.16530887208E+04 0.  0.
        1    1    3    3  502    0  0.45668393456E+03  0.32995385597E+03 -0.12406863780E+03  0.57690795632E+03  0.50400001928E-02 0.  1.
       -1    1    3    3    0  502 -0.45668393456E+03 -0.32995385597E+03  0.14069823936E+04  0.15155953349E+04  0.50400001928E-02 0. -1.
</event>
<event>
 5   0  0.2234723E-04  0.1707779E+04  0.7818609E-02  0.8756940E-01
        2   -1    0    0  501    0  0.00000000000E+00  0.00000000000E+00  0.10278981136E+04  0.10278981136E+04  0.25500000920E-02 0. -1.
       -2   -1    0    0    0  501  0.00000000000E+00  0.00000000000E+00 -0.70933827866E+03  0.70933827867E+03  0.25500000920E-02 0.  1.
    10030    2    1    2    0    0  0.00000000000E+00  0.00000000000E+00  0.31855983497E+03  0.17372363923E+04  0.17077792346E+04 0.  0.
        1    1    3    3  502    0 -0.25659659542E+03 -0.36624821850E+03 -0.58069284102E+03  0.73292819974E+03  0.50400001928E-02 0.  1.
       -1    1    3    3    0  502  0.25659659542E+03  0.36624821850E+03  0.89925267599E+03  0.10043081926E+04  0.50400001928E-02 0. -1.
</event>
<event>
 5   0  0.1126958E-04  0.1703141E+04  0.7818609E-02  0.8759575E-01
        1   -1    0    0  501    0  0.00000000000E+00  0.00000000000E+00  0.15808580722E+04  0.15808580723E+04  0.50400001928E-02 0.  1.
       -1   -1    0    0    0  501  0.00000000000E+00  0.00000000000E+00 -0.45872067502E+03  0.45872067505E+03  0.50400001928E-02 0. -1.
    10030    2    1    2    0    0  0.00000000000E+00  0.00000000000E+00  0.11221373972E+04  0.20395787473E+04  0.17031409596E+04 0.  0.
        4    1    3    3  502    0  0.15665535221E+03 -0.27640996406E+03 -0.38508406873E+03  0.49923413394E+03  0.12699999809E+01 0. -1.
       -4    1    3    3    0  502 -0.15665535221E+03  0.27640996406E+03  0.15072214659E+04  0.15403446134E+04  0.12699999809E+01 0.  1.
</event>
<event>
 5   0  0.2224454E-04  0.1701634E+04  0.7818609E-02  0.8760433E-01
       -2   -1    0    0    0  501  0.00000000000E+00  0.00000000000E+00  0.27313666187E+03  0.27313666188E+03  0.25500000920E-02 0. -1.
        2   -1    0    0  501    0  0.00000000000E+00  0.00000000000E+00 -0.26502820361E+04  0.26502820361E+04  0.25500000920E-02 0.  1.
    10030    2    1    2    0    0  0.00000000000E+00  0.00000000000E+00 -0.23771453742E+04  0.29234186979E+04  0.17016335544E+04 0.  0.
        2    1    3    3  502    0  0.41936590846E+03 -0.62096455524E+03 -0.18809625077E+04  0.20247184247E+04  0.25500000920E-02 0.  1.
       -2    1    3    3    0  502 -0.41936590846E+03  0.62096455524E+03 -0.49618286647E+03  0.89870027319E+03  0.25500000920E-02 0. -1.
</event>
<event>
 5   0  0.2224454E-04  0.1690919E+04  0.7818609E-02  0.8766561E-01
       -2   -1    0    0    0  501  0.00000000000E+00  0.00000000000E+00  0.39434831820E+03  0.39434831821E+03  0.25500000920E-02 0.  1.
        2   -1    0    0  501    0  0.00000000000E+00  0.00000000000E+00 -0.18126150085E+04  0.18126150085E+04  0.25500000920E-02 0. -1.
    10030    2    1    2    0    0  0.00000000000E+00  0.00000000000E+00 -0.14182666903E+04  0.22069633267E+04  0.16909188983E+04 0.  0.
        2    1    3    3  502    0  0.20086297558E+03  0.81752520810E+02 -0.17756963830E+04  0.17888898944E+04  0.25500000920E-02 0. -1.
       -2    1    3    3    0  502 -0.20086297558E+03 -0.81752520810E+02  0.35742969268E+03  0.41807343235E+03  0.25500000920E-02 0.  1.
</event>
<event>
 5   0  0.1126958E-04  0.1692292E+04  0.7818609E-02  0.8765773E-01
        1   -1    0    0  501    0  0.00000000000E+00  0.00000000000E+00  0.10640577246E+04  0.10640577246E+04  0.50400001928E-02 0. -1.
       -1   -1    0    0    0  501  0.00000000000E+00  0.00000000000E+00 -0.67286073915E+03  0.67286073917E+03  0.50400001928E-02 0.  1.
    10030    2    1    2    0    0  0.00000000000E+00  0.00000000000E+00  0.39119698543E+03  0.17369184638E+04  0.16922915435E+04 0.  0.
        4    1    3    3  502    0  0.52791322068E+03  0.34130675044E+00 -0.48310233407E+03  0.71559902399E+03  0.12699999809E+01 0.  1.
       -4    1    3    3    0  502 -0.52791322068E+03 -0.34130675044E+00  0.87429931950E+03  0.10213194398E+04  0.12699999809E+01 0. -1.
</event>
<event>
 5   0  0.1234158E-04  0.1667138E+04  0.7818609E-02  0.8780332E-01
        1   -1    0    0  501    0  0.00000000000E+00  0.00000000000E+00  0.16762094038E+04  0.16762094038E+04  0.50400001928E-02 0.  1.
       -1   -1    0    0    0  501  0.00000000000E+00  0.00000000000E+00 -0.41452887284E+03  0.41452887287E+03  0.50400001928E-02 0. -1.
    10030    2    1    2    0    0  0.00000000000E+00  0.00000000000E+00  0.12616805309E+04  0.20907382766E+04  0.16671379005E+04 0.  0.
        5    1    3    3  502    0 -0.24691486293E+03 -0.43557416699E+03  0.14665970767E+04  0.15497163869E+04  0.46999998093E+01 0.  1.
       -5    1    3    3    0  502  0.24691486293E+03  0.43557416699E+03 -0.20491654575E+03  0.54102188976E+03  0.46999998093E+01 0. -1.
</event>
<event>
 5   0  0.1215233E-04  0.1694427E+04  0.7818609E-02  0.8764549E-01
        1   -1    0    0  501    0  0.00000000000E+00  0.00000000000E+00  0.13678312420E+04  0.13678312420E+04  0.50400001928E-02 0.  1.
       -1   -1    0    0    0  501  0.00000000000E+00  0.00000000000E+00 -0.52475113460E+03  0.52475113463E+03  0.50400001928E-02 0. -1.
    10030    2    1    2    0    0  0.00000000000E+00  0.00000000000E+00  0.84308010736E+03  0.18925823766E+04  0.16944273324E+04 0.  0.
        2    1    3    3  502    0  0.10598099023E+03 -0.78287067287E+03  0.79724663275E+02  0.79402423305E+03  0.25500000920E-02 0. -1.
       -2    1    3    3    0  502 -0.10598099023E+03  0.78287067287E+03  0.76335544409E+03  0.10985581435E+04  0.25500000920E-02 0.  1.
</event>
<event>
 5   0  0.2288806E-04  0.1700597E+04  0.7818609E-02  0.8761024E-01
        2   -1    0    0  501    0  0.00000000000E+00  0.00000000000E+00  0.80317253732E+03  0.80317253732E+03  0.25500000920E-02 0.  1.
       -2   -1    0    0    0  501  0.00000000000E+00  0.00000000000E+00 -0.90018920571E+03  0.90018920571E+03  0.25500000920E-02 0. -1.
    10030    2    1    2    0    0  0.00000000000E+00  0.00000000000E+00 -0.97016668390E+02  0.17033617430E+04  0.17005966581E+04 0.  0.
        3    1    3    3  502    0  0.85294912275E+02 -0.81051168415E+03 -0.29139555570E+03  0.86551475567E+03  0.10100000352E+00 0.  1.
       -3    1    3    3    0  502 -0.85294912275E+02  0.81051168415E+03  0.19437888731E+03  0.83784698736E+03  0.10100000352E+00 0. -1.
</event>
<event>
 5   0  0.1215233E-04  0.1701432E+04  0.7818609E-02  0.8760548E-01
        1   -1    0    0  501    0  0.00000000000E+00  0.00000000000E+00  0.43106690129E+03  0.43106690132E+03  0.50400001928E-02 0. -1.
       -1   -1    0    0    0  501  0.00000000000E+00  0.00000000000E+00 -0.16788983555E+04  0.16788983555E+04  0.50400001928E-02 0.  1.
    10030    2    1    2    0    0  0.00000000000E+00  0.00000000000E+00 -0.12478314543E+04  0.21099652569E+04  0.17014317638E+04 0.  0.
        2    1    3    3  502    0 -0.24667996382E+03  0.70080221425E+01 -0.16335351958E+04  0.16520706258E+04  0.25500000920E-02 0.  1.
       -2    1    3    3    0  502  0.24667996382E+03 -0.70080221425E+01  0.38570374150E+03  0.45789463104E+03  0.25500000920E-02 0. -1.
</event>
<event>
 5   0  0.1204741E-04  0.1702251E+04  0.7818609E-02  0.8760081E-01
       -1   -1    0    0    0  501  0.00000000000E+00  0.00000000000E+00  0.35408553281E+03  0.35408553285E+03  0.50400001928E-02 0. -1.
        1   -1    0    0  501    0  0.00000000000E+00  0.00000000000E+00 -0.20458751402E+04  0.20458751402E+04  0.50400001928E-02 0.  1.
    10030    2    1    2    0    0  0.00000000000E+00  0.00000000000E+00 -0.16917896074E+04  0.23999606731E+04  0.17022512025E+04 0.  0.
        1    1    3    3  502    0 -0.55518201020E+03  0.14663553011E+02  0.63417133990E+02  0.55898463051E+03  0.50400001928E-02 0. -1.
       -1    1    3    3    0  502  0.55518201020E+03 -0.14663553011E+02 -0.17552067414E+04  0.18409760426E+04  0.50400001928E-02 0.  1.
</event>
<event>
 5   0  0.2234723E-04  0.1691981E+04  0.7818609E-02  0.8765951E-01
        2   -1    0    0  501    0  0.00000000000E+00  0.00000000000E+00  0.11339129572E+04  0.11339129572E+04  0.25500000920E-02 0.  1.
       -2   -1    0    0    0  501  0.00000000000E+00  0.00000000000E+00 -0.63117680676E+03  0.63117680676E+03  0.25500000920E-02 0. -1.
    10030    2    1    2    0    0  0.00000000000E+00  0.00000000000E+00  0.50273615044E+03  0.17650897640E+04  0.16919805666E+04 0.  0.
        1    1    3    3  502    0 -0.53720537766E+03  0.29370635404E+02  0.93245454072E+03  0.10765331962E+04  0.50400001928E-02 0.  1.
       -1    1    3    3    0  502  0.53720537766E+03 -0.29370635404E+02 -0.42971839029E+03  0.68855656775E+03  0.50400001928E-02 0. -1.
</event>
<event>
 5   0  0.1234158E-04  0.1676973E+04  0.7818609E-02  0.8774607E-01
        1   -1    0    0  501    0  0.00000000000E+00  0.00000000000E+00  0.11968833736E+04  0.11968833736E+04  0.50400001928E-02 0.  1.
       -1   -1    0    0    0  501  0.00000000000E+00  0.00000000000E+00 -0.58740890254E+03  0.58740890256E+03  0.50400001928E-02 0. -1.
    10030    2    1    2    0    0  0.00000000000E+00  0.00000000000E+00  0.60947447107E+03  0.17842922762E+04  0.16769734035E+04 0.  0.
        5    1    3    3  502    0  0.30420950132E+03  0.39004807535E+03 -0.41560972011E+03  0.64609167401E+03  0.46999998093E+01 0. -1.
       -5    1    3    3    0  502 -0.30420950132E+03 -0.39004807535E+03  0.10250841912E+04  0.11382006022E+04  0.46999998093E+01 0.  1.
</event>
<event>
 5   0  0.1234158E-04  0.1750360E+04  0.7818609E-02  0.8733152E-01
        1   -1    0    0  501    0  0.00000000000E+00  0.00000000000E+00  0.12869978356E+04  0.12869978356E+04  0.50400001928E-02 0. -1.
       -1   -1    0    0    0  501  0.00000000000E+00  0.00000000000E+00 -0.59513722527E+03  0.59513722529E+03  0.50400001928E-02 0.  1.
    10030    2    1    2    0    0  0.00000000000E+00  0.00000000000E+00  0.69186061033E+03  0.18821350609E+04  0.17503603296E+04 0.  0.
        5    1    3    3  502    0 -0.64742198688E+03  0.16076916923E+03 -0.26321260668E+03  0.71715055684E+03  0.46999998093E+01 0.  1.
       -5    1    3    3    0  502  0.64742198688E+03 -0.16076916923E+03  0.95507321700E+03  0.11649845041E+04  0.46999998093E+01 0. -1.
</event>
<event>
 5   0  0.2224454E-04  0.1700266E+04  0.7818609E-02  0.8761213E-01
        2   -1    0    0  501    0  0.00000000000E+00  0.00000000000E+00  0.13221095215E+04  0.13221095215E+04  0.25500000920E-02 0.  1.
       -2   -1    0    0    0  501  0.00000000000E+00  0.00000000000E+00 -0.54664603260E+03  0.54664603260E+03  0.25500000920E-02 0. -1.
    10030    2    1    2    0    0  0.00000000000E+00  0.00000000000E+00  0.77546348889E+03  0.18687555541E+04  0.17002657729E+04 0.  0.
        2    1    3    3  502    0 -0.59138265526E+03 -0.86724209977E+02 -0.27671836483E+03  0.65865589421E+03  0.25500000920E-02 0. -1.
       -2    1    3    3    0  502  0.59138265526E+03  0.86724209977E+02  0.10521818537E+04  0.12100996599E+04  0.25500000920E-02 0.  1.
</event>
<event>
 5   0  0.2224454E-04  0.1673938E+04  0.7818609E-02  0.8776370E-01
        2   -1    0    0  501    0  0.00000000000E+00  0.00000000000E+00  0.13533486506E+04  0.13533486506E+04  0.25500000920E-02 0.  1.
       -2   -1    0    0    0  501  0.00000000000E+00  0.00000000000E+00 -0.51761772756E+03  0.51761772757E+03  0.25500000920E-02 0. -1.
    10030    2    1    2    0    0  0.00000000000E+00  0.00000000000E+00  0.83573092301E+03  0.18709663781E+04  0.16739381746E+04 0.  0.
        2    1    3    3  502    0  0.27177652240E+03 -0.13642697360E+02 -0.46679423380E+03  0.54031977387E+03  0.25500000920E-02 0.  1.
       -2    1    3    3    0  502 -0.27177652240E+03  0.13642697360E+02  0.13025251568E+04  0.13306466043E+04  0.25500000920E-02 0. -1.
</event>
<event>
 5   0  0.1186302E-04  0.1695521E+04  0.7818609E-02  0.8763923E-01
       -1   -1    0    0    0  501  0.00000000000E+00  0.00000000000E+00  0.13402593477E+04  0.13402593477E+04  0.50400001928E-02 0. -1.
        1   -1    0    0  501    0  0.00000000000E+00  0.00000000000E+00 -0.53623772112E+03  0.53623772114E+03  0.50400001928E-02 0.  1.
    10030    2    1    2    0    0  0.00000000000E+00  0.00000000000E+00  0.80402162659E+03  0.18764970689E+04  0.16955207086E+04 0.  0.
        3    1    3    3  502    0 -0.22371543758E+03 -0.30881424006E+03  0.12399822953E+04  0.12972936964E+04  0.10100000352E+00 0. -1.
       -3    1    3    3    0  502  0.22371543758E+03  0.30881424006E+03 -0.43596066867E+03  0.57920337249E+03  0.10100000352E+00 0.  1.
</event>
<event>
 5   0  0.2356829E-04  0.1686891E+04  0.7818609E-02  0.8768877E-01
        2   -1    0    0  501    0  0.00000000000E+00  0.00000000000E+00  0.22779560075E+04  0.22779560075E+04  0.25500000920E-02 0. -1.
       -2   -1    0    0    0  501  0.00000000000E+00  0.00000000000E+00 -0.31229753422E+03  0.31229753423E+03  0.25500000920E-02 0.  1.
    10030    2    1    2    0    0  0.00000000000E+00  0.00000000000E+00  0.19656584732E+04  0.25902535417E+04  0.16868906831E+04 0.  0.
        5    1    3    3  502    0  0.51510833552E+03  0.24013799581E+02 -0.42024718031E+02  0.51739871165E+03  0.46999998093E+01 0.  1.
       -5    1    3    3    0  502 -0.51510833552E+03 -0.24013799581E+02  0.20076831913E+04  0.20728548300E+04  0.46999998093E+01 0. -1.
</event>
<event>
 5   0  0.1126958E-04  0.1665628E+04  0.7818609E-02  0.8781215E-01
        1   -1    0    0  501    0  0.00000000000E+00  0.00000000000E+00  0.17347020122E+04  0.17347020122E+04  0.50400001928E-02 0.  1.
       -1   -1    0    0    0  501  0.00000000000E+00  0.00000000000E+00 -0.39982591268E+03  0.39982591271E+03  0.50400001928E-02 0. -1.
    10030    2    1    2    0    0  0.00000000000E+00  0.00000000000E+00  0.13348760996E+04  0.21345279250E+04  0.16656275878E+04 0.  0.
        4    1    3    3  502    0  0.49987357156E+03  0.18940541155E+02 -0.18584826338E+03  0.53364175394E+03  0.12699999809E+01 0. -1.
       -4    1    3    3    0  502 -0.49987357156E+03 -0.18940541155E+02  0.15207243629E+04  0.16008861710E+04  0.12699999809E+01 0.  1.
</event>
<event>
 5   0  0.2224454E-04  0.1695589E+04  0.7818609E-02  0.8763884E-01
       -2   -1    0    0    0  501  0.00000000000E+00  0.00000000000E+00  0.96670892070E+03  0.96670892070E+03  0.25500000920E-02 0.  1.
        2   -1    0    0  501    0  0.00000000000E+00  0.00000000000E+00 -0.74350760014E+03  0.74350760014E+03  0.25500000920E-02 0. -1.
    10030    2    1    2    0    0  0.00000000000E+00  0.00000000000E+00  0.22320132056E+03  0.17102165208E+04  0.16955889003E+04 0.  0.
        2    1    3    3  502    0  0.20095601514E+02  0.67999002422E+03  0.62189524982E+03  0.92170709447E+03  0.25500000920E-02 0.  1.
       -2    1    3    3    0  502 -0.20095601514E+02 -0.67999002422E+03 -0.39869392926E+03  0.78850942637E+03  0.25500000920E-02 0. -1.
</event>
<event>
 5   0  0.1186302E-04  0.1699104E+04  0.7818609E-02  0.8761876E-01
        1   -1    0    0  501    0  0.00000000000E+00  0.00000000000E+00  0.98475818329E+03  0.98475818330E+03  0.50400001928E-02 0.  1.
       -1   -1    0    0    0  501  0.00000000000E+00  0.00000000000E+00 -0.73290927465E+03  0.73290927467E+03  0.50400001928E-02 0. -1.
    10030    2    1    2    0    0  0.00000000000E+00  0.00000000000E+00  0.25184890864E+03  0.17176674580E+04  0.16991037706E+04 0.  0.
        3    1    3    3  502    0 -0.38418104732E+03 -0.69264269287E+03 -0.18466080477E+03  0.81329490354E+03  0.10100000352E+00 0. -1.
       -3    1    3    3    0  502  0.38418104732E+03  0.69264269287E+03  0.43650971341E+03  0.90437255443E+03  0.10100000352E+00 0.  1.
</event>
<event>
 5   0  0.8372750E-05  0.1683323E+04  0.7818609E-02  0.8770933E-01
        3   -1    0    0  501    0  0.00000000000E+00  0.00000000000E+00  0.39670037095E+03  0.39670038381E+03  0.10100000352E+00 0. -1.
       -3   -1    0    0    0  501  0.00000000000E+00  0.00000000000E+00 -0.17857155664E+04  0.17857155692E+04  0.10100000352E+00 0.  1.
    10030    2    1    2    0    0  0.00000000000E+00  0.00000000000E+00 -0.13890151954E+04  0.21824159530E+04  0.16833229574E+04 0.  0.
        2    1    3    3  502    0  0.47816518719E+03 -0.50465032159E+03 -0.13095976176E+04  0.14826866875E+04  0.25500000920E-02 0.  1.
       -2    1    3    3    0  502 -0.47816518719E+03  0.50465032159E+03 -0.79417577799E+02  0.69972926549E+03  0.25500000920E-02 0. -1.
</event>
<event>
 5   0  0.1215233E-04  0.1678210E+04  0.7818609E-02  0.8773891E-01
        1   -1    0    0  501    0  0.00000000000E+00  0.00000000000E+00  0.17935339139E+04  0.17935339139E+04  0.50400001928E-02 0. -1.
       -1   -1    0    0    0  501  0.00000000000E+00  0.00000000000E+00 -0.39257523107E+03  0.39257523110E+03  0.50400001928E-02 0.  1.
    10030    2    1    2    0    0  0.00000000000E+00  0.00000000000E+00  0.14009586828E+04  0.21861091450E+04  0.16782097494E+04 0.  0.
        2    1    3    3  502    0  0.48357044706E+03 -0.17540115861E+02 -0.19251960533E+03  0.52078002206E+03  0.25500000920E-02 0.  1.
       -2    1    3    3    0  502 -0.48357044706E+03  0.17540115861E+02  0.15934782881E+04  0.16653291229E+04  0.25500000920E-02 0. -1.
</event>
<event>
 5   0  0.1234158E-04  0.1705809E+04  0.7818609E-02  0.8758058E-01
        1   -1    0    0  501    0  0.00000000000E+00  0.00000000000E+00  0.16680062923E+04  0.16680062923E+04  0.50400001928E-02 0. -1.
       -1   -1    0    0    0  501  0.00000000000E+00  0.00000000000E+00 -0.43611709851E+03  0.43611709854E+03  0.50400001928E-02 0.  1.
    10030    2    1    2    0    0  0.00000000000E+00  0.00000000000E+00  0.12318891938E+04  0.21041233908E+04  0.17058089747E+04 0.  0.
        5    1    3    3  502    0  0.15320530274E+03 -0.83071052298E+03  0.76122682441E+03  0.11371192576E+04  0.46999998093E+01 0.  1.
       -5    1    3    3    0  502 -0.15320530274E+03  0.83071052298E+03  0.47066236938E+03  0.96700413325E+03  0.46999998093E+01 0. -1.
</event>
<event>
 5   0  0.2224454E-04  0.1678557E+04  0.7818609E-02  0.8773689E-01
        2   -1    0    0  501    0  0.00000000000E+00  0.00000000000E+00  0.71314639272E+03  0.71314639272E+03  0.25500000920E-02 0.  1.
       -2   -1    0    0    0  501  0.00000000000E+00  0.00000000000E+00 -0.98771933402E+03  0.98771933403E+03  0.25500000920E-02 0. -1.
    10030    2    1    2    0    0  0.00000000000E+00  0.00000000000E+00 -0.27457294131E+03  0.17008657268E+04  0.16785570947E+04 0.  0.
        2    1    3    3  502    0  0.80206036698E+03 -0.82596923253E+02  0.98758852775E+02  0.81232776330E+03  0.25500000920E-02 0.  1.
       -2    1    3    3    0  502 -0.80206036698E+03  0.82596923253E+02 -0.37333179408E+03  0.88853796345E+03  0.25500000920E-02 0. -1.
</event>
<event>
 5   0  0.2224454E-04  0.1693253E+04  0.7818609E-02  0.8765222E-01
       -2   -1    0    0    0  501  0.00000000000E+00  0.00000000000E+00  0.35411261899E+03  0.35411261900E+03  0.25500000920E-02 0.  1.
        2   -1    0    0  501    0  0.00000000000E+00  0.00000000000E+00 -0.20241480628E+04  0.20241480628E+04  0.25500000920E-02 0. -1.
    10030    2    1    2    0    0  0.00000000000E+00  0.00000000000E+00 -0.16700354438E+04  0.23782606818E+04  0.16932529306E+04 0.  0.
        2    1    3    3  502    0  0.71412244439E+03  0.19183180001E+03 -0.14141394104E+04  0.15957946538E+04  0.25500000920E-02 0. -1.
       -2    1    3    3    0  502 -0.71412244439E+03 -0.19183180001E+03 -0.25589603345E+03  0.78246602803E+03  0.25500000920E-02 0.  1.
</event>
<event>
 5   0  0.1126958E-04  0.1706773E+04  0.7818609E-02  0.8757511E-01
       -1   -1    0    0    0  501  0.00000000000E+00  0.00000000000E+00  0.69693933997E+03  0.69693933999E+03  0.50400001928E-02 0.  1.
        1   -1    0    0  501    0  0.00000000000E+00  0.00000000000E+00 -0.10449521748E+04  0.10449521748E+04  0.50400001928E-02 0. -1.
    10030    2    1    2    0    0  0.00000000000E+00  0.00000000000E+00 -0.34801283482E+03  0.17418915148E+04  0.17067727195E+04 0.  0.
        4    1    3    3  502    0 -0.31629448901E+03 -0.66399866932E+03  0.26771590164E+03  0.78269397182E+03  0.12699999809E+01 0. -1.
       -4    1    3    3    0  502  0.31629448901E+03  0.66399866932E+03 -0.61572873647E+03  0.95919754298E+03  0.12699999809E+01 0.  1.
</event>
<event>
 5   0  0.2242967E-04  0.1698394E+04  0.7818609E-02  0.8762281E-01
        2   -1    0    0  501    0  0.00000000000E+00  0.00000000000E+00  0.10527320122E+04  0.10527320122E+04  0.25500000920E-02 0.  1.
       -2   -1    0    0    0  501  0.00000000000E+00  0.00000000000E+00 -0.68501339044E+03  0.68501339044E+03  0.25500000920E-02 0. -1.
    10030    2    1    2    0    0  0.00000000000E+00  0.00000000000E+00  0.36771862176E+03  0.17377454026E+04  0.16983939766E+04 0.  0.
        4    1    3    3  502    0 -0.76047492075E+03 -0.31508192668E+03 -0.29625957328E+02  0.82369778187E+03  0.12699999809E+01 0. -1.
       -4    1    3    3    0  502  0.76047492075E+03  0.31508192668E+03  0.39734457909E+03  0.91404762077E+03  0.12699999809E+01 0.  1.
</event>
<event>
 5   0  0.8372750E-05  0.1704082E+04  0.7818609E-02  0.8759040E-01
        3   -1    0    0  501    0  0.00000000000E+00  0.00000000000E+00  0.38183185545E+03  0.38183186881E+03  0.10100000352E+00 0. -1.
       -3   -1    0    0    0  501  0.00000000000E+00  0.00000000000E+00 -0.19012919895E+04  0.19012919921E+04  0.10100000352E+00 0.  1.
    10030    2    1    2    0    0  0.00000000000E+00  0.00000000000E+00 -0.15194601340E+04  0.22831238609E+04  0.17040820008E+04 0.  0.
        1    1    3    3  502    0 -0.32215372962E+03  0.22307855541E+03  0.25394546213E+03  0.46694257158E+03  0.50400001928E-02 0. -1.
       -1    1    3    3    0  502  0.32215372962E+03 -0.22307855541E+03 -0.17734055961E+04  0.18161812894E+04  0.50400001928E-02 0.  1.
</event>
<event>
 5   0  0.1234158E-04  0.1699824E+04  0.7818609E-02  0.8761465E-01
       -1   -1    0    0    0  501  0.00000000000E+00  0.00000000000E+00  0.38399479513E+03  0.38399479516E+03  0.50400001928E-02 0. -1.
        1   -1    0    0  501    0  0.00000000000E+00  0.00000000000E+00 -0.18811459433E+04  0.18811459433E+04  0.50400001928E-02 0.  1.
    10030    2    1    2    0    0  0.00000000000E+00  0.00000000000E+00 -0.14971511482E+04  0.22651407385E+04  0.16998238158E+04 0.  0.
        5    1    3    3  502    0 -0.24200789510E+03 -0.77533390825E+02  0.33216473706E+03  0.41825201796E+03  0.46999998093E+01 0. -1.
       -5    1    3    3    0  502  0.24200789510E+03  0.77533390825E+02 -0.18293158852E+04  0.18468887205E+04  0.46999998093E+01 0.  1.
</event>
<event>
 5   0  0.1186302E-04  0.1704448E+04  0.7818609E-02  0.8758832E-01
       -1   -1    0    0    0  501  0.00000000000E+00  0.00000000000E+00  0.88183783140E+03  0.88183783141E+03  0.50400001928E-02 0. -1.
        1   -1    0    0  501    0  0.00000000000E+00  0.00000000000E+00 -0.82360475782E+03  0.82360475784E+03  0.50400001928E-02 0.  1.
    10030    2    1    2    0    0  0.00000000000E+00  0.00000000000E+00  0.58233073576E+02  0.17054425893E+04  0.17044481026E+04 0.  0.
        3    1    3    3  502    0  0.61643119483E+03  0.21313041001E+03 -0.51972318043E+03  0.83398092551E+03  0.10100000352E+00 0.  1.
       -3    1    3    3    0  502 -0.61643119483E+03 -0.21313041001E+03  0.57795625400E+03  0.87146166375E+03  0.10100000352E+00 0. -1.
</event>
<event>
 5   0  0.2224454E-04  0.1691717E+04  0.7818609E-02  0.8766103E-01
       -2   -1    0    0    0  501  0.00000000000E+00  0.00000000000E+00  0.45639190730E+03  0.45639190730E+03  0.25500000920E-02 0. -1.
        2   -1    0    0  501    0  0.00000000000E+00  0.00000000000E+00 -0.15676797778E+04  0.15676797778E+04  0.25500000920E-02 0.  1.
    10030    2    1    2    0    0  0.00000000000E+00  0.00000000000E+00 -0.11112878705E+04  0.20240716851E+04  0.16917167184E+04 0.  0.
        2    1    3    3  502    0  0.23960781854E+03 -0.19537690316E+03 -0.14976558095E+04  0.15292341105E+04  0.25500000920E-02 0.  1.
       -2    1    3    3    0  502 -0.23960781854E+03  0.19537690316E+03  0.38636793897E+03  0.49483757463E+03  0.25500000920E-02 0. -1.
</event>
<event>
 5   0  0.1204741E-04  0.1722287E+04  0.7818609E-02  0.8748754E-01
        1   -1    0    0  501    0  0.00000000000E+00  0.00000000000E+00  0.16868990258E+04  0.16868990258E+04  0.50400001928E-02 0. -1.
       -1   -1    0    0    0  501  0.00000000000E+00  0.00000000000E+00 -0.43960451302E+03  0.43960451305E+03  0.50400001928E-02 0.  1.
    10030    2    1    2    0    0  0.00000000000E+00  0.00000000000E+00  0.12472945128E+04  0.21265035388E+04  0.17222873451E+04 0.  0.
        1    1    3    3  502    0 -0.84480075322E+03  0.88916241747E+02  0.79814634980E+03  0.11656037090E+04  0.50400001928E-02 0.  1.
       -1    1    3    3    0  502  0.84480075322E+03 -0.88916241747E+02  0.44914816297E+03  0.96089982985E+03  0.50400001928E-02 0. -1.
</event>
<event>
 5   0  0.2224454E-04  0.1723286E+04  0.7818609E-02  0.8748194E-01
       -2   -1    0    0    0  501  0.00000000000E+00  0.00000000000E+00  0.42397965883E+03  0.42397965884E+03  0.25500000920E-02 0. -1.
        2   -1    0    0  501    0  0.00000000000E+00  0.00000000000E+00 -0.17510954863E+04  0.17510954863E+04  0.25500000920E-02 0.  1.
    10030    2    1    2    0    0  0.00000000000E+00  0.00000000000E+00 -0.13271158274E+04  0.21750751451E+04  0.17232862407E+04 0.  0.
        2    1    3    3  502    0 -0.59003521235E+03  0.12194696612E+03  0.11389627952E+03  0.61317613852E+03  0.25500000920E-02 0. -1.
       -2    1    3    3    0  502  0.59003521235E+03 -0.12194696612E+03 -0.14410121070E+04  0.15618990066E+04  0.25500000920E-02 0.  1.
</event>
<event>
 5   0  0.2224454E-04  0.1661808E+04  0.7818609E-02  0.8783452E-01
        2   -1    0    0  501    0  0.00000000000E+00  0.00000000000E+00  0.16428939809E+04  0.16428939809E+04  0.25500000920E-02 0. -1.
       -2   -1    0    0    0  501  0.00000000000E+00  0.00000000000E+00 -0.42023491963E+03  0.42023491964E+03  0.25500000920E-02 0.  1.
    10030    2    1    2    0    0  0.00000000000E+00  0.00000000000E+00  0.12226590613E+04  0.20631289005E+04  0.16618079553E+04 0.  0.
        2    1    3    3  502    0  0.61315270859E+03 -0.51266620053E+02  0.13045882820E+04  0.14424060094E+04  0.25500000920E-02 0. -1.
       -2    1    3    3    0  502 -0.61315270859E+03  0.51266620053E+02 -0.81929220727E+02  0.62072289115E+03  0.25500000920E-02 0.  1.
</event>
<event>
 5   0  0.1186302E-04  0.1702784E+04  0.7818609E-02  0.8759778E-01
       -1   -1    0    0    0  501  0.00000000000E+00  0.00000000000E+00  0.88237075897E+03  0.88237075899E+03  0.50400001928E-02 0. -1.
        1   -1    0    0  501    0  0.00000000000E+00  0.00000000000E+00 -0.82150090078E+03  0.82150090079E+03  0.50400001928E-02 0.  1.
    10030    2    1    2    0    0  0.00000000000E+00  0.00000000000E+00  0.60869858198E+02  0.17038716598E+04  0.17027840419E+04 0.  0.
        3    1    3    3  502    0 -0.36597360031E+03  0.57206617523E+03  0.54425290828E+03  0.87029168865E+03  0.10100000352E+00 0. -1.
       -3    1    3    3    0  502  0.36597360031E+03 -0.57206617523E+03 -0.48338305008E+03  0.83357997113E+03  0.10100000352E+00 0.  1.
</event>
<event>
 5   0  0.1204741E-04  0.1723397E+04  0.7818609E-02  0.8748131E-01
        1   -1    0    0  501    0  0.00000000000E+00  0.00000000000E+00  0.12836815356E+04  0.12836815357E+04  0.50400001928E-02 0.  1.
       -1   -1    0    0    0  501  0.00000000000E+00  0.00000000000E+00 -0.57843368862E+03  0.57843368865E+03  0.50400001928E-02 0. -1.
    10030    2    1    2    0    0  0.00000000000E+00  0.00000000000E+00  0.70524784702E+03  0.18621152243E+04  0.17233973955E+04 0.  0.
        1    1    3    3  502    0 -0.12915036455E+03 -0.53906643957E+03  0.10654631781E+04  0.12010346485E+04  0.50400001928E-02 0.  1.
       -1    1    3    3    0  502  0.12915036455E+03  0.53906643957E+03 -0.36021533109E+03  0.66108057581E+03  0.50400001928E-02 0. -1.
</event>
<event>
 5   0  0.1186302E-04  0.1707342E+04  0.7818609E-02  0.8757188E-01
       -1   -1    0    0    0  501  0.00000000000E+00  0.00000000000E+00  0.66838946581E+03  0.66838946583E+03  0.50400001928E-02 0. -1.
        1   -1    0    0  501    0  0.00000000000E+00  0.00000000000E+00 -0.10903133349E+04  0.10903133349E+04  0.50400001928E-02 0.  1.
    10030    2    1    2    0    0  0.00000000000E+00  0.00000000000E+00 -0.42192386905E+03  0.17587028007E+04  0.17073417320E+04 0.  0.
        3    1    3    3  502    0  0.49855436631E+02 -0.19693861160E+03  0.64312712096E+03  0.67445006132E+03  0.10100000352E+00 0. -1.
       -3    1    3    3    0  502 -0.49855436631E+02  0.19693861160E+03 -0.10650509900E+04  0.10842527394E+04  0.10100000352E+00 0.  1.
</event>
<event>
 5   0  0.8372750E-05  0.1715081E+04  0.7818609E-02  0.8752810E-01
        3   -1    0    0  501    0  0.00000000000E+00  0.00000000000E+00  0.11245373619E+04  0.11245373665E+04  0.10100000352E+00 0.  1.
       -3   -1    0    0    0  501  0.00000000000E+00  0.00000000000E+00 -0.65393592306E+03  0.65393593086E+03  0.10100000352E+00 0. -1.
    10030    2    1    2    0    0  0.00000000000E+00  0.00000000000E+00  0.47060143886E+03  0.17784732973E+04  0.17150806264E+04 0.  0.
        4    1    3    3  502    0  0.32407021050E+03 -0.82998953134E+02 -0.58348131781E+03  0.67257890889E+03  0.12699999809E+01 0. -1.
       -4    1    3    3    0  502 -0.32407021050E+03  0.82998953134E+02  0.10540827567E+04  0.11058943884E+04  0.12699999809E+01 0.  1.
</event>
<event>
 5   0  0.1126958E-04  0.1704467E+04  0.7818609E-02  0.8758821E-01
       -1   -1    0    0    0  501  0.00000000000E+00  0.00000000000E+00  0.67829566098E+03  0.67829566100E+03  0.50400001928E-02 0. -1.
        1   -1    0    0  501    0  0.00000000000E+00  0.00000000000E+00 -0.10707749891E+04  0.10707749892E+04  0.50400001928E-02 0.  1.
    10030    2    1    2    0    0  0.00000000000E+00  0.00000000000E+00 -0.39247932816E+03  0.17490706502E+04  0.17044671062E+04 0.  0.
        4    1    3    3  502    0  0.21909138670E+03  0.75634230742E+03  0.13824360383E+03  0.79947959862E+03  0.12699999809E+01 0.  1.
       -4    1    3    3    0  502 -0.21909138670E+03 -0.75634230742E+03 -0.53072293198E+03  0.94959105153E+03  0.12699999809E+01 0. -1.
</event>
<event>
 5   0  0.1126958E-04  0.1710596E+04  0.7818609E-02  0.8755344E-01
       -1   -1    0    0    0  501  0.00000000000E+00  0.00000000000E+00  0.59691504940E+03  0.59691504942E+03  0.50400001928E-02 0.  1.
        1   -1    0    0  501    0  0.00000000000E+00  0.00000000000E+00 -0.12255249416E+04  0.12255249416E+04  0.50400001928E-02 0. -1.
    10030    2    1    2    0    0  0.00000000000E+00  0.00000000000E+00 -0.62860989215E+03  0.18224399910E+04  0.17105955466E+04 0.  0.
        4    1    3    3  502    0  0.37168213897E+03 -0.71284372388E+03 -0.32588393462E+01  0.80393160159E+03  0.12699999809E+01 0.  1.
       -4    1    3    3    0  502 -0.37168213897E+03  0.71284372388E+03 -0.62535105281E+03  0.10185083894E+04  0.12699999809E+01 0. -1.
</event>
<event>
 5   0  0.2234723E-04  0.1694623E+04  0.7818609E-02  0.8764437E-01
       -2   -1    0    0    0  501  0.00000000000E+00  0.00000000000E+00  0.53091397095E+03  0.53091397096E+03  0.25500000920E-02 0. -1.
        2   -1    0    0  501    0  0.00000000000E+00  0.00000000000E+00 -0.13522661174E+04  0.13522661174E+04  0.25500000920E-02 0.  1.
    10030    2    1    2    0    0  0.00000000000E+00  0.00000000000E+00 -0.82135214642E+03  0.18831800883E+04  0.16946232315E+04 0.  0.
        1    1    3    3  502    0 -0.72560036821E+03  0.40495993352E+03 -0.59478644678E+03  0.10218900916E+04  0.50400001928E-02 0.  1.
       -1    1    3    3    0  502  0.72560036821E+03 -0.40495993352E+03 -0.22656569964E+03  0.86128999668E+03  0.50400001928E-02 0. -1.
</event>
<event>
 5   0  0.2288806E-04  0.1697484E+04  0.7818609E-02  0.8762801E-01
       -2   -1    0    0    0  501  0.00000000000E+00  0.00000000000E+00  0.11433687114E+04  0.11433687114E+04  0.25500000920E-02 0. -1.
        2   -1    0    0  501    0  0.00000000000E+00  0.00000000000E+00 -0.63003570553E+03  0.63003570554E+03  0.25500000920E-02 0.  1.
    10030    2    1    2    0    0  0.00000000000E+00  0.00000000000E+00  0.51333300590E+03  0.17734044170E+04  0.16974841534E+04 0.  0.
        3    1    3    3  502    0 -0.80726706361E+03  0.25471975459E+01  0.53044929090E+03  0.96595189353E+03  0.10100000352E+00 0. -1.
       -3    1    3    3    0  502  0.80726706361E+03 -0.25471975459E+01 -0.17116285006E+02  0.80745252344E+03  0.10100000352E+00 0.  1.
</event>
<event>
 5   0  0.8372750E-05  0.1701122E+04  0.7818609E-02  0.8760725E-01
        3   -1    0    0  501    0  0.00000000000E+00  0.00000000000E+00  0.63899386735E+03  0.63899387534E+03  0.10100000352E+00 0.  1.
       -3   -1    0    0    0  501  0.00000000000E+00  0.00000000000E+00 -0.11321765069E+04  0.11321765114E+04  0.10100000352E+00 0. -1.
    10030    2    1    2    0    0  0.00000000000E+00  0.00000000000E+00 -0.49318263955E+03  0.17711703867E+04  0.17011218131E+04 0.  0.
        2    1    3    3  502    0 -0.52861183752E+03  0.39209841807E+02 -0.93917887082E+03  0.10784362929E+04  0.25500000920E-02 0. -1.
       -2    1    3    3    0  502  0.52861183752E+03 -0.39209841807E+02  0.44599623127E+03  0.69273409384E+03  0.25500000920E-02 0.  1.
</event>
<event>
 5   0  0.2224454E-04  0.1708264E+04  0.7818609E-02  0.8756665E-01
       -2   -1    0    0    0  501  0.00000000000E+00  0.00000000000E+00  0.30494360637E+03  0.30494360638E+03  0.25500000920E-02 0.  1.
        2   -1    0    0  501    0  0.00000000000E+00  0.00000000000E+00 -0.23923815827E+04  0.23923815827E+04  0.25500000920E-02 0. -1.
    10030    2    1    2    0    0  0.00000000000E+00  0.00000000000E+00 -0.20874379763E+04  0.26973251891E+04  0.17082639932E+04 0.  0.
        2    1    3    3  502    0 -0.51278465379E+03 -0.64794537843E+03 -0.70227750587E+03  0.10844238147E+04  0.25500000920E-02 0.  1.
       -2    1    3    3    0  502  0.51278465379E+03  0.64794537843E+03 -0.13851604705E+04  0.16129013744E+04  0.25500000920E-02 0. -1.
</event>
<event>
 5   0  0.2242967E-04  0.1701390E+04  0.7818609E-02  0.8760572E-01
       -2   -1    0    0    0  501  0.00000000000E+00  0.00000000000E+00  0.54854408567E+03  0.54854408568E+03  0.25500000920E-02 0.  1.
        2   -1    0    0  501    0  0.00000000000E+00  0.00000000000E+00 -0.13192774894E+04  0.13192774894E+04  0.25500000920E-02 0. -1.
    10030    2    1    2    0    0  0.00000000000E+00  0.00000000000E+00 -0.77073340371E+03  0.18678215751E+04  0.17013898603E+04 0.  0.
        4    1    3    3  502    0 -0.26277060060E+03 -0.41923959320E+03 -0.11450636373E+04  0.12473903043E+04  0.12699999809E+01 0. -1.
       -4    1    3    3    0  502  0.26277060060E+03  0.41923959320E+03  0.37433023356E+03  0.62043127073E+03  0.12699999809E+01 0.  1.
</event>
<event>
 5   0  0.1126958E-04  0.1699568E+04  0.7818609E-02  0.8761611E-01
       -1   -1    0    0    0  501  0.00000000000E+00  0.00000000000E+00  0.79143696472E+03  0.79143696474E+03  0.50400001928E-02 0.  1.
        1   -1    0    0  501    0  0.00000000000E+00  0.00000000000E+00 -0.91243232137E+03  0.91243232138E+03  0.50400001928E-02 0. -1.
    10030    2    1    2    0    0  0.00000000000E+00  0.00000000000E+00 -0.12099535664E+03  0.17038692861E+04  0.16995677885E+04 0.  0.
        4    1    3    3  502    0 -0.23653101888E+03 -0.63183708494E+03  0.45749757968E+03  0.81515070576E+03  0.12699999809E+01 0.  1.
       -4    1    3    3    0  502  0.23653101888E+03  0.63183708494E+03 -0.57849293632E+03  0.88871858035E+03  0.12699999809E+01 0. -1.
</event>
<event>
 5   0  0.2356829E-04  0.1704039E+04  0.7818609E-02  0.8759064E-01
        2   -1    0    0  501    0  0.00000000000E+00  0.00000000000E+00  0.11218861580E+04  0.11218861580E+04  0.25500000920E-02 0.  1.
       -2   -1    0    0    0  501  0.00000000000E+00  0.00000000000E+00 -0.64706865615E+03  0.64706865616E+03  0.25500000920E-02 0. -1.
    10030    2    1    2    0    0  0.00000000000E+00  0.00000000000E+00  0.47481750180E+03  0.17689548141E+04  0.17040391646E+04 0.  0.
        5    1    3    3  502    0  0.35862059587E+03 -0.47587195826E+03 -0.39476684948E+03  0.71479074413E+03  0.46999998093E+01 0. -1.
       -5    1    3    3    0  502 -0.35862059587E+03  0.47587195826E+03  0.86958435129E+03  0.10541640700E+04  0.46999998093E+01 0.  1.
</event>
<event>
 5   0  0.2234723E-04  0.1699544E+04  0.7818609E-02  0.8761624E-01
       -2   -1    0    0    0  501  0.00000000000E+00  0.00000000000E+00  0.59362797721E+03  0.59362797721E+03  0.25500000920E-02 0.  1.
        2   -1    0    0  501    0  0.00000000000E+00  0.00000000000E+00 -0.12164399350E+04  0.12164399350E+04  0.25500000920E-02 0. -1.
    10030    2    1    2    0    0  0.00000000000E+00  0.00000000000E+00 -0.62281195784E+03  0.18100679123E+04  0.16995443837E+04 0.  0.
        1    1    3    3  502    0  0.15651979127E+03 -0.57631802303E+03  0.33245089421E+03  0.68349433488E+03  0.50400001928E-02 0.  1.
       -1    1    3    3    0  502 -0.15651979127E+03  0.57631802303E+03 -0.95526285205E+03  0.11265735774E+04  0.50400001928E-02 0. -1.
</event>
<event>
 5   0  0.1126958E-04  0.1656997E+04  0.7818609E-02  0.8786278E-01
       -1   -1    0    0    0  501  0.00000000000E+00  0.00000000000E+00  0.23835698119E+03  0.23835698124E+03  0.50400001928E-02 0. -1.
        1   -1    0    0  501    0  0.00000000000E+00  0.00000000000E+00 -0.28797539573E+04  0.28797539573E+04  0.50400001928E-02 0.  1.
    10030    2    1    2    0    0  0.00000000000E+00  0.00000000000E+00 -0.26413969761E+04  0.31181109386E+04  0.16569966324E+04 0.  0.
        4    1    3    3  502    0  0.15024937337E+03  0.19090199654E+03 -0.28112209516E+04  0.28216986547E+04  0.12699999809E+01 0.  1.
       -4    1    3    3    0  502 -0.15024937337E+03 -0.19090199654E+03  0.16982397545E+03  0.29641228386E+03  0.12699999809E+01 0. -1.
</event>
<event>
 5   0  0.1186302E-04  0.1676834E+04  0.7818609E-02  0.8774688E-01
       -1   -1    0    0    0  501  0.00000000000E+00  0.00000000000E+00  0.41086669608E+03  0.41086669611E+03  0.50400001928E-02 0. -1.
        1   -1    0    0  501    0  0.00000000000E+00  0.00000000000E+00 -0.17108795516E+04  0.17108795516E+04  0.50400001928E-02 0.  1.
    10030    2    1    2    0    0  0.00000000000E+00  0.00000000000E+00 -0.13000128555E+04  0.21217462477E+04  0.16768344328E+04 0.  0.
        3    1    3    3  502    0 -0.62758540940E+02 -0.42134270224E+03 -0.15637409893E+04  0.16207264417E+04  0.10100000352E+00 0.  1.
       -3    1    3    3    0  502  0.62758540940E+02  0.42134270224E+03  0.26372813380E+03  0.50101980594E+03  0.10100000352E+00 0. -1.
</event>
<event>
 5   0  0.2242967E-04  0.1702074E+04  0.7818609E-02  0.8760183E-01
       -2   -1    0    0    0  501  0.00000000000E+00  0.00000000000E+00  0.54670206864E+03  0.54670206865E+03  0.25500000920E-02 0.  1.
        2   -1    0    0  501    0  0.00000000000E+00  0.00000000000E+00 -0.13247866813E+04  0.13247866813E+04  0.25500000920E-02 0. -1.
    10030    2    1    2    0    0  0.00000000000E+00  0.00000000000E+00 -0.77808461267E+03  0.18714887500E+04  0.17020735815E+04 0.  0.
        4    1    3    3  502    0  0.17812005873E+02  0.67825781180E+03 -0.95389824800E+03  0.11705872062E+04  0.12699999809E+01 0. -1.
       -4    1    3    3    0  502 -0.17812005873E+02 -0.67825781180E+03  0.17581363533E+03  0.70090154379E+03  0.12699999809E+01 0.  1.
</event>
<event>
 5   0  0.2288806E-04  0.1727070E+04  0.7818609E-02  0.8746074E-01
        2   -1    0    0  501    0  0.00000000000E+00  0.00000000000E+00  0.11944384636E+04  0.11944384636E+04  0.25500000920E-02 0. -1.
       -2   -1    0    0    0  501  0.00000000000E+00  0.00000000000E+00 -0.62430409177E+03  0.62430409177E+03  0.25500000920E-02 0.  1.
    10030    2    1    2    0    0  0.00000000000E+00  0.00000000000E+00  0.57013437188E+03  0.18187425554E+04  0.17270701436E+04 0.  0.
        3    1    3    3  502    0 -0.48926963214E+03  0.68255250351E+03  0.73321899508E+02  0.84299395261E+03  0.10100000352E+00 0.  1.
       -3    1    3    3    0  502  0.48926963214E+03 -0.68255250351E+03  0.49681247237E+03  0.97574860281E+03  0.10100000352E+00 0. -1.
</event>
<event>
 5   0  0.2224454E-04  0.1698886E+04  0.7818609E-02  0.8762000E-01
       -2   -1    0    0    0  501  0.00000000000E+00  0.00000000000E+00  0.10470025451E+04  0.10470025451E+04  0.25500000920E-02 0. -1.
        2   -1    0    0  501    0  0.00000000000E+00  0.00000000000E+00 -0.68916140969E+03  0.68916140969E+03  0.25500000920E-02 0.  1.
    10030    2    1    2    0    0  0.00000000000E+00  0.00000000000E+00  0.35784113540E+03  0.17361639548E+04  0.16988863999E+04 0.  0.
        2    1    3    3  502    0  0.61793212690E+03 -0.49174405865E+03  0.49867817473E+03  0.93398728826E+03  0.25500000920E-02 0. -1.
       -2    1    3    3    0  502 -0.61793212690E+03  0.49174405865E+03 -0.14083703933E+03  0.80217666653E+03  0.25500000920E-02 0.  1.
</event>
<event>
 5   0  0.2224454E-04  0.1727211E+04  0.7818609E-02  0.8745995E-01
       -2   -1    0    0    0  501  0.00000000000E+00  0.00000000000E+00  0.17093014984E+04  0.17093014984E+04  0.25500000920E-02 0. -1.
        2   -1    0    0  501    0  0.00000000000E+00  0.00000000000E+00 -0.43632710812E+03  0.43632710813E+03  0.25500000920E-02 0.  1.
    10030    2    1    2    0    0  0.00000000000E+00  0.00000000000E+00  0.12729743903E+04  0.21456286065E+04  0.17272111391E+04 0.  0.
        2    1    3    3  502    0 -0.71521421577E+03  0.43542862069E+03  0.89908469833E+03  0.12286100899E+04  0.25500000920E-02 0.  1.
       -2    1    3    3    0  502  0.71521421577E+03 -0.43542862069E+03  0.37388969195E+03  0.91701851666E+03  0.25500000920E-02 0. -1.
</event>
<event>
 5   0  0.2242967E-04  0.1693585E+04  0.7818609E-02  0.8765032E-01
        2   -1    0    0  501    0  0.00000000000E+00  0.00000000000E+00  0.11217989957E+04  0.11217989957E+04  0.25500000920E-02 0.  1.
       -2   -1    0    0    0  501  0.00000000000E+00  0.00000000000E+00 -0.63920299950E+03  0.63920299951E+03  0.25500000920E-02 0. -1.
    10030    2    1    2    0    0  0.00000000000E+00  0.00000000000E+00  0.48259599618E+03  0.17610019952E+04  0.16935846987E+04 0.  0.
        4    1    3    3  502    0 -0.84265135341E+00  0.47636405205E+03  0.96926143445E+03  0.10799966488E+04  0.12699999809E+01 0.  1.
       -4    1    3    3    0  502  0.84265135341E+00 -0.47636405205E+03 -0.48666543827E+03  0.68100534642E+03  0.12699999809E+01 0. -1.
</event>
<event>
 5   0  0.2356829E-04  0.1709517E+04  0.7818609E-02  0.8755955E-01
        2   -1    0    0  501    0  0.00000000000E+00  0.00000000000E+00  0.70597390315E+03  0.70597390316E+03  0.25500000920E-02 0. -1.
       -2   -1    0    0    0  501  0.00000000000E+00  0.00000000000E+00 -0.10348989998E+04  0.10348989998E+04  0.25500000920E-02 0.  1.
    10030    2    1    2    0    0  0.00000000000E+00  0.00000000000E+00 -0.32892509663E+03  0.17408729029E+04  0.17095165238E+04 0.  0.
        5    1    3    3  502    0 -0.73913906491E+03 -0.38360630159E+03  0.31708457141E+02  0.83337138669E+03  0.46999998093E+01 0. -1.
       -5    1    3    3    0  502  0.73913906491E+03  0.38360630159E+03 -0.36063355377E+03  0.90750151626E+03  0.46999998093E+01 0.  1.
</event>
<event>
 5   0  0.2356829E-04  0.1629655E+04  0.7818609E-02  0.8802534E-01
        2   -1    0    0  501    0  0.00000000000E+00  0.00000000000E+00  0.51463023279E+03  0.51463023280E+03  0.25500000920E-02 0. -1.
       -2   -1    0    0    0  501  0.00000000000E+00  0.00000000000E+00 -0.12901382453E+04  0.12901382453E+04  0.25500000920E-02 0.  1.
    10030    2    1    2    0    0  0.00000000000E+00  0.00000000000E+00 -0.77550801255E+03  0.18047684781E+04  0.16296553569E+04 0.  0.
        5    1    3    3  502    0 -0.65445049275E+03  0.19773816184E+03 -0.87869007166E+03  0.11133391937E+04  0.46999998093E+01 0.  1.
       -5    1    3    3    0  502  0.65445049275E+03 -0.19773816184E+03  0.10318205911E+03  0.69142928447E+03  0.46999998093E+01 0. -1.
</event>
<event>
 5   0  0.2288806E-04  0.1702306E+04  0.7818609E-02  0.8760051E-01
        2   -1    0    0  501    0  0.00000000000E+00  0.00000000000E+00  0.23301676199E+04  0.23301676199E+04  0.25500000920E-02 0. -1.
       -2   -1    0    0    0  501  0.00000000000E+00  0.00000000000E+00 -0.31090511497E+03  0.31090511498E+03  0.25500000920E-02 0.  1.
    10030    2    1    2    0    0  0.00000000000E+00  0.00000000000E+00  0.20192625049E+04  0.26410727349E+04  0.17023055328E+04 0.  0.
        3    1    3    3  502    0  0.52721287643E+03 -0.38325747140E+02  0.20446346146E+04  0.21118600800E+04  0.10100000352E+00 0. -1.
       -3    1    3    3    0  502 -0.52721287643E+03  0.38325747140E+02 -0.25372109673E+02  0.52921265491E+03  0.10100000352E+00 0.  1.
</event>
<event>
 5   0  0.1204741E-04  0.1718457E+04  0.7818609E-02  0.8750907E-01
       -1   -1    0    0    0  501  0.00000000000E+00  0.00000000000E+00  0.63137604434E+03  0.63137604436E+03  0.50400001928E-02 0.  1.
        1   -1    0    0  501    0  0.00000000000E+00  0.00000000000E+00 -0.11693095558E+04  0.11693095558E+04  0.50400001928E-02 0. -1.
    10030    2    1    2    0    0  0.00000000000E+00  0.00000000000E+00 -0.53793351148E+03  0.18006856002E+04  0.17184574967E+04 0.  0.
        1    1    3    3  502    0 -0.16280335038E+03 -0.20009698313E+03 -0.11277757193E+04  0.11569018137E+04  0.50400001928E-02 0. -1.
       -1    1    3    3    0  502  0.16280335038E+03  0.20009698313E+03  0.58984220782E+03  0.64378378645E+03  0.50400001928E-02 0.  1.
</event>
<event>
 5   0  0.1204741E-04  0.1600163E+04  0.7818609E-02  0.8820448E-01
       -1   -1    0    0    0  501  0.00000000000E+00  0.00000000000E+00  0.23481279283E+03  0.23481279289E+03  0.50400001928E-02 0. -1.
        1   -1    0    0  501    0  0.00000000000E+00  0.00000000000E+00 -0.27261323858E+04  0.27261323858E+04  0.50400001928E-02 0.  1.
    10030    2    1    2    0    0  0.00000000000E+00  0.00000000000E+00 -0.24913195929E+04  0.29609451786E+04  0.16001634407E+04 0.  0.
        1    1    3    3  502    0 -0.59854157912E+03 -0.50744452501E+03 -0.95674345454E+03  0.12373802996E+04  0.50400001928E-02 0. -1.
       -1    1    3    3    0  502  0.59854157912E+03  0.50744452501E+03 -0.15345761384E+04  0.17235648791E+04  0.50400001928E-02 0.  1.
</event>
<event>
 5   0  0.2224454E-04  0.1729017E+04  0.7818609E-02  0.8744986E-01
        2   -1    0    0  501    0  0.00000000000E+00  0.00000000000E+00  0.16174326252E+04  0.16174326252E+04  0.25500000920E-02 0.  1.
       -2   -1    0    0    0  501  0.00000000000E+00  0.00000000000E+00 -0.46207494661E+03  0.46207494661E+03  0.25500000920E-02 0. -1.
    10030    2    1    2    0    0  0.00000000000E+00  0.00000000000E+00  0.11553576786E+04  0.20795075718E+04  0.17290171705E+04 0.  0.
        2    1    3    3  502    0  0.36626338733E+03  0.31084180180E+03  0.14421289091E+04  0.15200352907E+04  0.25500000920E-02 0.  1.
       -2    1    3    3    0  502 -0.36626338733E+03 -0.31084180180E+03 -0.28677123050E+03  0.55947228107E+03  0.25500000920E-02 0. -1.
</event>
<event>
 5   0  0.2242967E-04  0.1687633E+04  0.7818609E-02  0.8768449E-01
       -2   -1    0    0    0  501  0.00000000000E+00  0.00000000000E+00  0.27798689003E+03  0.27798689004E+03  0.25500000920E-02 0.  1.
        2   -1    0    0  501    0  0.00000000000E+00  0.00000000000E+00 -0.25613674588E+04  0.25613674588E+04  0.25500000920E-02 0. -1.
    10030    2    1    2    0    0  0.00000000000E+00  0.00000000000E+00 -0.22833805688E+04  0.28393543489E+04  0.16876333418E+04 0.  0.
        4    1    3    3  502    0 -0.31692513860E+03  0.78044261072E+03 -0.10576899946E+04  0.13521249756E+04  0.12699999809E+01 0.  1.
       -4    1    3    3    0  502  0.31692513860E+03 -0.78044261072E+03 -0.12256905742E+04  0.14872293733E+04  0.12699999809E+01 0. -1.
</event>
<event>
 5   0  0.1234158E-04  0.1701087E+04  0.7818609E-02  0.8760745E-01
        1   -1    0    0  501    0  0.00000000000E+00  0.00000000000E+00  0.64791525468E+03  0.64791525470E+03  0.50400001928E-02 0.  1.
       -1   -1    0    0    0  501  0.00000000000E+00  0.00000000000E+00 -0.11165417231E+04  0.11165417231E+04  0.50400001928E-02 0. -1.
    10030    2    1    2    0    0  0.00000000000E+00  0.00000000000E+00 -0.46862646839E+03  0.17644569778E+04  0.17010871993E+04 0.  0.
        5    1    3    3  502    0  0.77672086096E+01 -0.53361466902E+03 -0.92125119059E+03  0.10646740302E+04  0.46999998093E+01 0. -1.
       -5    1    3    3    0  502 -0.77672086096E+01  0.53361466902E+03  0.45262472220E+03  0.69978294754E+03  0.46999998093E+01 0.  1.
</event>
<event>
 5   0  0.2242967E-04  0.1702413E+04  0.7818609E-02  0.8759989E-01
        2   -1    0    0  501    0  0.00000000000E+00  0.00000000000E+00  0.67083940774E+03  0.67083940775E+03  0.25500000920E-02 0.  1.
       -2   -1    0    0    0  501  0.00000000000E+00  0.00000000000E+00 -0.10800690673E+04  0.10800690673E+04  0.25500000920E-02 0. -1.
    10030    2    1    2    0    0  0.00000000000E+00  0.00000000000E+00 -0.40922965955E+03  0.17509084750E+04  0.17024134556E+04 0.  0.
        4    1    3    3  502    0  0.59241478096E+02 -0.69073828923E+03  0.30333894690E+03  0.75673315412E+03  0.12699999809E+01 0.  1.
       -4    1    3    3    0  502 -0.59241478096E+02  0.69073828923E+03 -0.71256860646E+03  0.99417532093E+03  0.12699999809E+01 0. -1.
</event>
<event>
 5   0  0.1234158E-04  0.1695254E+04  0.7818609E-02  0.8764076E-01
       -1   -1    0    0    0  501  0.00000000000E+00  0.00000000000E+00  0.55052572600E+03  0.55052572602E+03  0.50400001928E-02 0. -1.
        1   -1    0    0  501    0  0.00000000000E+00  0.00000000000E+00 -0.13050651547E+04  0.13050651548E+04  0.50400001928E-02 0.  1.
    10030    2    1    2    0    0  0.00000000000E+00  0.00000000000E+00 -0.75453942875E+03  0.18555908808E+04  0.16952544845E+04 0.  0.
        5    1    3    3  502    0 -0.51400657876E+03 -0.61470804921E+02  0.35737863487E+03  0.62906518066E+03  0.46999998093E+01 0. -1.
       -5    1    3    3    0  502  0.51400657876E+03  0.61470804921E+02 -0.11119180636E+04  0.12265257001E+04  0.46999998093E+01 0.  1.
</event>
<event>
 5   0  0.1126958E-04  0.1701086E+04  0.7818609E-02  0.8760745E-01
       -1   -1    0    0    0  501  0.00000000000E+00  0.00000000000E+00  0.67641571933E+03  0.67641571935E+03  0.50400001928E-02 0. -1.
        1   -1    0    0  501    0  0.00000000000E+00  0.00000000000E+00 -0.10694953268E+04  0.10694953268E+04  0.50400001928E-02 0.  1.
    10030    2    1    2    0    0  0.00000000000E+00  0.00000000000E+00 -0.39307960744E+03  0.17459110461E+04  0.17010860658E+04 0.  0.
        4    1    3    3  502    0  0.26576486678E+03 -0.23148680302E+03 -0.99102067163E+03  0.10518273094E+04  0.12699999809E+01 0.  1.
       -4    1    3    3    0  502 -0.26576486678E+03  0.23148680302E+03  0.59794106419E+03  0.69408373668E+03  0.12699999809E+01 0. -1.
</event>
<event>
 5   0  0.1204741E-04  0.1709087E+04  0.7818609E-02  0.8756199E-01
        1   -1    0    0  501    0  0.00000000000E+00  0.00000000000E+00  0.12804862911E+04  0.12804862912E+04  0.50400001928E-02 0. -1.
       -1   -1    0    0    0  501  0.00000000000E+00  0.00000000000E+00 -0.57028702642E+03  0.57028702644E+03  0.50400001928E-02 0.  1.
    10030    2    1    2    0    0  0.00000000000E+00  0.00000000000E+00  0.71019926473E+03  0.18507733176E+04  0.17090871474E+04 0.  0.
        1    1    3    3  502    0 -0.89101477222E+02  0.35039061536E+03  0.11935844986E+04  0.12471393715E+04  0.50400001928E-02 0. -1.
       -1    1    3    3    0  502  0.89101477222E+02 -0.35039061536E+03 -0.48338523386E+03  0.60363394612E+03  0.50400001928E-02 0.  1.
</event>
<event>
 5   0  0.1204741E-04  0.1700181E+04  0.7818609E-02  0.8761261E-01
       -1   -1    0    0    0  501  0.00000000000E+00  0.00000000000E+00  0.11374641512E+04  0.11374641512E+04  0.50400001928E-02 0.  1.
        1   -1    0    0  501    0  0.00000000000E+00  0.00000000000E+00 -0.63532029942E+03  0.63532029944E+03  0.50400001928E-02 0. -1.
    10030    2    1    2    0    0  0.00000000000E+00  0.00000000000E+00  0.50214385174E+03  0.17727844506E+04  0.17001812434E+04 0.  0.
        1    1    3    3  502    0  0.34492338238E+03  0.58649739919E+03 -0.28030044277E+03  0.73588020575E+03  0.50400001928E-02 0. -1.
       -1    1    3    3    0  502 -0.34492338238E+03 -0.58649739919E+03  0.78244429451E+03  0.10369042449E+04  0.50400001928E-02 0.  1.
</event>
<event>
 5   0  0.1204741E-04  0.1675765E+04  0.7818609E-02  0.8775308E-01
        1   -1    0    0  501    0  0.00000000000E+00  0.00000000000E+00  0.91918373587E+03  0.91918373588E+03  0.50400001928E-02 0.  1.
       -1   -1    0    0    0  501  0.00000000000E+00  0.00000000000E+00 -0.76377221949E+03  0.76377221951E+03  0.50400001928E-02 0. -1.
    10030    2    1    2    0    0  0.00000000000E+00  0.00000000000E+00  0.15541151637E+03  0.16829559554E+04  0.16757649025E+04 0.  0.
        1    1    3    3  502    0 -0.29004887320E+02  0.31357931287E+03 -0.70207558670E+03  0.76946955653E+03  0.50400001928E-02 0. -1.
       -1    1    3    3    0  502  0.29004887320E+02 -0.31357931287E+03  0.85748710307E+03  0.91348639887E+03  0.50400001928E-02 0.  1.
</event>
<event>
 5   0  0.1215233E-04  0.1718586E+04  0.7818609E-02  0.8750835E-01
       -1   -1    0    0    0  501  0.00000000000E+00  0.00000000000E+00  0.61468338074E+03  0.61468338077E+03  0.50400001928E-02 0. -1.
        1   -1    0    0  501    0  0.00000000000E+00  0.00000000000E+00 -0.12012433519E+04  0.12012433519E+04  0.50400001928E-02 0.  1.
    10030    2    1    2    0    0  0.00000000000E+00  0.00000000000E+00 -0.58655997114E+03  0.18159267327E+04  0.17185858427E+04 0.  0.
        2    1    3    3  502    0  0.47053179410E+03 -0.59373551792E+03  0.13522932138E+03  0.76955117040E+03  0.25500000920E-02 0. -1.
       -2    1    3    3    0  502 -0.47053179410E+03  0.59373551792E+03 -0.72178929251E+03  0.10463755623E+04  0.25500000920E-02 0.  1.
</event>
<event>
 5   0  0.1234158E-04  0.1700993E+04  0.7818609E-02  0.8760798E-01
        1   -1    0    0  501    0  0.00000000000E+00  0.00000000000E+00  0.66661497307E+03  0.66661497309E+03  0.50400001928E-02 0.  1.
       -1   -1    0    0    0  501  0.00000000000E+00  0.00000000000E+00 -0.10851009836E+04  0.10851009836E+04  0.50400001928E-02 0. -1.
    10030    2    1    2    0    0  0.00000000000E+00  0.00000000000E+00 -0.41848601051E+03  0.17517159567E+04  0.17009933133E+04 0.  0.
        5    1    3    3  502    0 -0.20344822186E+03  0.58845684330E+03  0.38738591412E+03  0.73332296559E+03  0.46999998093E+01 0.  1.
       -5    1    3    3    0  502  0.20344822186E+03 -0.58845684330E+03 -0.80587192463E+03  0.10183929911E+04  0.46999998093E+01 0. -1.
</event>
<event>
 5   0  0.2288806E-04  0.1698283E+04  0.7818609E-02  0.8762344E-01
       -2   -1    0    0    0  501  0.00000000000E+00  0.00000000000E+00  0.75811495335E+03  0.75811495336E+03  0.25500000920E-02 0. -1.
        2   -1    0    0  501    0  0.00000000000E+00  0.00000000000E+00 -0.95109739196E+03  0.95109739196E+03  0.25500000920E-02 0.  1.
    10030    2    1    2    0    0  0.00000000000E+00  0.00000000000E+00 -0.19298243861E+03  0.17092123453E+04  0.16982828445E+04 0.  0.
        3    1    3    3  502    0 -0.21648412377E+03  0.45014455676E+03 -0.78760231963E+03  0.93263761554E+03  0.10100000352E+00 0.  1.
       -3    1    3    3    0  502  0.21648412377E+03 -0.45014455676E+03  0.59461988103E+03  0.77657472978E+03  0.10100000352E+00 0. -1.
</event>
<event>
 5   0  0.1186302E-04  0.1706838E+04  0.7818609E-02  0.8757474E-01
       -1   -1    0    0    0  501  0.00000000000E+00  0.00000000000E+00  0.37997703263E+03  0.37997703266E+03  0.50400001928E-02 0. -1.
        1   -1    0    0  501    0  0.00000000000E+00  0.00000000000E+00 -0.19167589206E+04  0.19167589206E+04  0.50400001928E-02 0.  1.
    10030    2    1    2    0    0  0.00000000000E+00  0.00000000000E+00 -0.15367818880E+04  0.22967359533E+04  0.17068384422E+04 0.  0.
        3    1    3    3  502    0 -0.71345204625E+03  0.22658446499E+03 -0.21690489140E+03  0.77936004785E+03  0.10100000352E+00 0.  1.
       -3    1    3    3    0  502  0.71345204625E+03 -0.22658446499E+03 -0.13198769966E+04  0.15173759054E+04  0.10100000352E+00 0. -1.
</event>
<event>
 5   0  0.1215233E-04  0.1725272E+04  0.7818609E-02  0.8747081E-01
       -1   -1    0    0    0  501  0.00000000000E+00  0.00000000000E+00  0.79269400853E+03  0.79269400855E+03  0.50400001928E-02 0.  1.
        1   -1    0    0  501    0  0.00000000000E+00  0.00000000000E+00 -0.93874894458E+03  0.93874894460E+03  0.50400001928E-02 0. -1.
    10030    2    1    2    0    0  0.00000000000E+00  0.00000000000E+00 -0.14605493605E+03  0.17314429531E+04  0.17252717628E+04 0.  0.
        2    1    3    3  502    0  0.38588796274E+03  0.26886341323E+03 -0.79876252559E+03  0.92694046576E+03  0.25500000920E-02 0. -1.
       -2    1    3    3    0  502 -0.38588796274E+03 -0.26886341323E+03  0.65270758954E+03  0.80450248739E+03  0.25500000920E-02 0.  1.
</event>
<event>
 5   0  0.2356829E-04  0.1703902E+04  0.7818609E-02  0.8759142E-01
        2   -1    0    0  501    0  0.00000000000E+00  0.00000000000E+00  0.53814920263E+03  0.53814920264E+03  0.25500000920E-02 0. -1.
       -2   -1    0    0    0  501  0.00000000000E+00  0.00000000000E+00 -0.13487354024E+04  0.13487354024E+04  0.25500000920E-02 0.  1.
    10030    2    1    2    0    0  0.00000000000E+00  0.00000000000E+00 -0.81058619975E+03  0.18868846050E+04  0.17039024401E+04 0.  0.
        5    1    3    3  502    0  0.19556382557E+03 -0.79382945480E+03 -0.14000816241E+03  0.82947862463E+03  0.46999998093E+01 0. -1.
       -5    1    3    3    0  502 -0.19556382557E+03  0.79382945480E+03 -0.67057803734E+03  0.10574059804E+04  0.46999998093E+01 0.  1.
</event>
<event>
 5   0  0.2288806E-04  0.1715274E+04  0.7818609E-02  0.8752700E-01
        2   -1    0    0  501    0  0.00000000000E+00  0.00000000000E+00  0.12749673769E+04  0.12749673769E+04  0.25500000920E-02 0. -1.
       -2   -1    0    0    0  501  0.00000000000E+00  0.00000000000E+00 -0.57691009040E+03  0.57691009040E+03  0.25500000920E-02 0.  1.
    10030    2    1    2    0    0  0.00000000000E+00  0.00000000000E+00  0.69805728649E+03  0.18518774673E+04  0.17152743742E+04 0.  0.
        3    1    3    3  502    0  0.82941391977E+02 -0.62811195517E+03  0.97311019266E+03  0.11611836030E+04  0.10100000352E+00 0. -1.
       -3    1    3    3    0  502 -0.82941391977E+02  0.62811195517E+03 -0.27505290617E+03  0.69069386425E+03  0.10100000352E+00 0.  1.
</event>
<event>
 5   0  0.1204741E-04  0.1700807E+04  0.7818609E-02  0.8760904E-01
        1   -1    0    0  501    0  0.00000000000E+00  0.00000000000E+00  0.11043623222E+04  0.11043623222E+04  0.50400001928E-02 0. -1.
       -1   -1    0    0    0  501  0.00000000000E+00  0.00000000000E+00 -0.65484521772E+03  0.65484521774E+03  0.50400001928E-02 0.  1.
    10030    2    1    2    0    0  0.00000000000E+00  0.00000000000E+00  0.44951710448E+03  0.17592075399E+04  0.17008073205E+04 0.  0.
        1    1    3    3  502    0  0.55016261746E+03  0.75609458087E+02 -0.44139824106E+03  0.70938572233E+03  0.50400001928E-02 0.  1.
       -1    1    3    3    0  502 -0.55016261746E+03 -0.75609458087E+02  0.89091534555E+03  0.10498218176E+04  0.50400001928E-02 0. -1.
</event>
<event>
 5   0  0.2242967E-04  0.1696255E+04  0.7818609E-02  0.8763503E-01
       -2   -1    0    0    0  501  0.00000000000E+00  0.00000000000E+00  0.91423532595E+03  0.91423532595E+03  0.25500000920E-02 0.  1.
        2   -1    0    0  501    0  0.00000000000E+00  0.00000000000E+00 -0.78679982014E+03  0.78679982014E+03  0.25500000920E-02 0. -1.
    10030    2    1    2    0    0  0.00000000000E+00  0.00000000000E+00  0.12743550581E+03  0.17010351461E+04  0.16962549219E+04 0.  0.
        4    1    3    3  502    0  0.52345893199E+03  0.20828838610E+03  0.69948012906E+03  0.89814663007E+03  0.12699999809E+01 0.  1.
       -4    1    3    3    0  502 -0.52345893199E+03 -0.20828838610E+03 -0.57204462325E+03  0.80288851602E+03  0.12699999809E+01 0. -1.
</event>
<event>
 5   0  0.2234723E-04  0.1690616E+04  0.7818609E-02  0.8766735E-01
        2   -1    0    0  501    0  0.00000000000E+00  0.00000000000E+00  0.12166782099E+04  0.12166782099E+04  0.25500000920E-02 0. -1.
       -2   -1    0    0    0  501  0.00000000000E+00  0.00000000000E+00 -0.58729197108E+03  0.58729197108E+03  0.25500000920E-02 0.  1.
    10030    2    1    2    0    0  0.00000000000E+00  0.00000000000E+00  0.62938623879E+03  0.18039701810E+04  0.16906156796E+04 0.  0.
        1    1    3    3  502    0  0.62469205511E+03  0.17062929817E+03  0.89443661909E+03  0.11042515052E+04  0.50400001928E-02 0. -1.
       -1    1    3    3    0  502 -0.62469205511E+03 -0.17062929817E+03 -0.26505038030E+03  0.69971867577E+03  0.50400001928E-02 0.  1.
</event>
<event>
 5   0  0.2288806E-04  0.1703648E+04  0.7818609E-02  0.8759287E-01
        2   -1    0    0  501    0  0.00000000000E+00  0.00000000000E+00  0.14593086474E+04  0.14593086474E+04  0.25500000920E-02 0.  1.
       -2   -1    0    0    0  501  0.00000000000E+00  0.00000000000E+00 -0.49722448986E+03  0.49722448987E+03  0.25500000920E-02 0. -1.
    10030    2    1    2    0    0  0.00000000000E+00  0.00000000000E+00  0.96208415751E+03  0.19565331372E+04  0.17036478483E+04 0.  0.
        3    1    3    3  502    0 -0.51866553361E+03 -0.33641112703E+02 -0.29401145762E+03  0.59715023874E+03  0.10100000352E+00 0. -1.
       -3    1    3    3    0  502  0.51866553361E+03  0.33641112703E+02  0.12560956151E+04  0.13593828985E+04  0.10100000352E+00 0.  1.
</event>
<event>
 5   0  0.1234158E-04  0.1719660E+04  0.7818609E-02  0.8750230E-01
       -1   -1    0    0    0  501  0.00000000000E+00  0.00000000000E+00  0.51913833073E+03  0.51913833076E+03  0.50400001928E-02 0. -1.
        1   -1    0    0  501    0  0.00000000000E+00  0.00000000000E+00 -0.14241051334E+04  0.14241051334E+04  0.50400001928E-02 0.  1.
    10030    2    1    2    0    0  0.00000000000E+00  0.00000000000E+00 -0.90496680265E+03  0.19432434641E+04  0.17196599219E+04 0.  0.
        5    1    3    3  502    0 -0.33473800480E+03 -0.66208278574E+03 -0.94359512948E+03  0.12003320396E+04  0.46999998093E+01 0.  1.
       -5    1    3    3    0  502  0.33473800480E+03  0.66208278574E+03  0.38628326833E+02  0.74291142450E+03  0.46999998093E+01 0. -1.
</event>
<event>
 5   0  0.1215233E-04  0.1650177E+04  0.7818609E-02  0.8790301E-01
        1   -1    0    0  501    0  0.00000000000E+00  0.00000000000E+00  0.92970259080E+03  0.92970259081E+03  0.50400001928E-02 0.  1.
       -1   -1    0    0    0  501  0.00000000000E+00  0.00000000000E+00 -0.73224647515E+03  0.73224647517E+03  0.50400001928E-02 0. -1.
    10030    2    1    2    0    0  0.00000000000E+00  0.00000000000E+00  0.19745611565E+03  0.16619490660E+04  0.16501774996E+04 0.  0.
        2    1    3    3  502    0  0.74166157418E+03  0.24408436663E+03 -0.16988103346E+03  0.79906109540E+03  0.25500000920E-02 0. -1.
       -2    1    3    3    0  502 -0.74166157418E+03 -0.24408436663E+03  0.36733714911E+03  0.86288797058E+03  0.25500000920E-02 0.  1.
</event>
<event>
 5   0  0.1204741E-04  0.1691939E+04  0.7818609E-02  0.8765975E-01
        1   -1    0    0  501    0  0.00000000000E+00  0.00000000000E+00  0.16695715467E+04  0.16695715467E+04  0.50400001928E-02 0.  1.
       -1   -1    0    0    0  501  0.00000000000E+00  0.00000000000E+00 -0.42865145428E+03  0.42865145431E+03  0.50400001928E-02 0. -1.
    10030    2    1    2    0    0  0.00000000000E+00  0.00000000000E+00  0.12409200924E+04  0.20982230010E+04  0.16919388542E+04 0.  0.
        1    1    3    3  502    0  0.63937316020E+03 -0.21944390027E+02 -0.65976663027E+02  0.64314268582E+03  0.50400001928E-02 0. -1.
       -1    1    3    3    0  502 -0.63937316020E+03  0.21944390027E+02  0.13068967555E+04  0.14550803152E+04  0.50400001928E-02 0.  1.
</event>
<event>
 5   0  0.2224454E-04  0.1722493E+04  0.7818609E-02  0.8748639E-01
       -2   -1    0    0    0  501  0.00000000000E+00  0.00000000000E+00  0.49262745953E+03  0.49262745954E+03  0.25500000920E-02 0.  1.
        2   -1    0    0  501    0  0.00000000000E+00  0.00000000000E+00 -0.15056920658E+04  0.15056920658E+04  0.25500000920E-02 0. -1.
    10030    2    1    2    0    0  0.00000000000E+00  0.00000000000E+00 -0.10130646063E+04  0.19983195253E+04  0.17224926789E+04 0.  0.
        2    1    3    3  502    0  0.80202217043E+03  0.25612024490E+03 -0.71698720879E+03  0.11058516172E+04  0.25500000920E-02 0. -1.
       -2    1    3    3    0  502 -0.80202217043E+03 -0.25612024490E+03 -0.29607739746E+03  0.89246790811E+03  0.25500000920E-02 0.  1.
</event>
<event>
 5   0  0.2242967E-04  0.1713093E+04  0.7818609E-02  0.8753932E-01
        2   -1    0    0  501    0  0.00000000000E+00  0.00000000000E+00  0.94280728942E+03  0.94280728942E+03  0.25500000920E-02 0. -1.
       -2   -1    0    0    0  501  0.00000000000E+00  0.00000000000E+00 -0.77817813224E+03  0.77817813225E+03  0.25500000920E-02 0.  1.
    10030    2    1    2    0    0  0.00000000000E+00  0.00000000000E+00  0.16462915718E+03  0.17209854217E+04  0.17130931271E+04 0.  0.
        4    1    3    3  502    0 -0.52907684355E+03  0.36125847252E+03  0.65347623548E+03  0.91512993263E+03  0.12699999809E+01 0. -1.
       -4    1    3    3    0  502  0.52907684355E+03 -0.36125847252E+03 -0.48884707830E+03  0.80585548904E+03  0.12699999809E+01 0.  1.
</event>
<event>
 5   0  0.1215233E-04  0.1758298E+04  0.7818609E-02  0.8728796E-01
        1   -1    0    0  501    0  0.00000000000E+00  0.00000000000E+00  0.11611725349E+04  0.11611725349E+04  0.50400001928E-02 0.  1.
       -1   -1    0    0    0  501  0.00000000000E+00  0.00000000000E+00 -0.66562310307E+03  0.66562310309E+03  0.50400001928E-02 0. -1.
    10030    2    1    2    0    0  0.00000000000E+00  0.00000000000E+00  0.49554943185E+03  0.18267956380E+04  0.17582983432E+04 0.  0.
        2    1    3    3  502    0 -0.35313241142E+03  0.67078554539E+03  0.71037008246E+03  0.10388846914E+04  0.25500000920E-02 0. -1.
       -2    1    3    3    0  502  0.35313241142E+03 -0.67078554539E+03 -0.21482065062E+03  0.78791094664E+03  0.25500000920E-02 0.  1.
</event>
<event>
 5   0  0.1234158E-04  0.1707922E+04  0.7818609E-02  0.8756859E-01
        1   -1    0    0  501    0  0.00000000000E+00  0.00000000000E+00  0.12413626426E+04  0.12413626426E+04  0.50400001928E-02 0.  1.
       -1   -1    0    0    0  501  0.00000000000E+00  0.00000000000E+00 -0.58745852631E+03  0.58745852633E+03  0.50400001928E-02 0. -1.
    10030    2    1    2    0    0  0.00000000000E+00  0.00000000000E+00  0.65390411627E+03  0.18288211689E+04  0.17079216243E+04 0.  0.
        5    1    3    3  502    0  0.65379625324E+03  0.49745281066E+03  0.77391617229E+02  0.82517900603E+03  0.46999998093E+01 0.  1.
       -5    1    3    3    0  502 -0.65379625324E+03 -0.49745281066E+03  0.57651249904E+03  0.10036421629E+04  0.46999998093E+01 0. -1.
</event>
<event>
 5   0  0.1215233E-04  0.1664252E+04  0.7818609E-02  0.8782019E-01
       -1   -1    0    0    0  501  0.00000000000E+00  0.00000000000E+00  0.66664659678E+03  0.66664659680E+03  0.50400001928E-02 0.  1.
        1   -1    0    0  501    0  0.00000000000E+00  0.00000000000E+00 -0.10386822620E+04  0.10386822621E+04  0.50400001928E-02 0. -1.
    10030    2    1    2    0    0  0.00000000000E+00  0.00000000000E+00 -0.37203566527E+03  0.17053288589E+04  0.16642523789E+04 0.  0.
        2    1    3    3  502    0  0.18207992467E+03 -0.37544683149E+03  0.55169642773E+03  0.69172420127E+03  0.25500000920E-02 0.  1.
       -2    1    3    3    0  502 -0.18207992467E+03  0.37544683149E+03 -0.92373209300E+03  0.10136046576E+04  0.25500000920E-02 0. -1.
</event>
<event>
 5   0  0.8372750E-05  0.1670174E+04  0.7818609E-02  0.8778561E-01
       -3   -1    0    0    0  501  0.00000000000E+00  0.00000000000E+00  0.39361648754E+03  0.39361650050E+03  0.10100000352E+00 0.  1.
        3   -1    0    0  501    0  0.00000000000E+00  0.00000000000E+00 -0.17716989010E+04  0.17716989039E+04  0.10100000352E+00 0. -1.
    10030    2    1    2    0    0  0.00000000000E+00  0.00000000000E+00 -0.13780824135E+04  0.21653154044E+04  0.16701735425E+04 0.  0.
        5    1    3    3  502    0  0.28679786873E+03  0.40825136251E+03 -0.15572112193E+04  0.16351914457E+04  0.46999998093E+01 0. -1.
       -5    1    3    3    0  502 -0.28679786873E+03 -0.40825136251E+03  0.17912880584E+03  0.53012395870E+03  0.46999998093E+01 0.  1.
</event>
<event>
 5   0  0.2224454E-04  0.1696114E+04  0.7818609E-02  0.8763584E-01
       -2   -1    0    0    0  501  0.00000000000E+00  0.00000000000E+00  0.54600285052E+03  0.54600285053E+03  0.25500000920E-02 0.  1.
        2   -1    0    0  501    0  0.00000000000E+00  0.00000000000E+00 -0.13172097151E+04  0.13172097151E+04  0.25500000920E-02 0. -1.
    10030    2    1    2    0    0  0.00000000000E+00  0.00000000000E+00 -0.77120686455E+03  0.18632125656E+04  0.16961135094E+04 0.  0.
        2    1    3    3  502    0  0.43651680158E+03 -0.70559486133E+03 -0.57835899697E+03  0.10113902095E+04  0.25500000920E-02 0. -1.
       -2    1    3    3    0  502 -0.43651680158E+03  0.70559486133E+03 -0.19284786758E+03  0.85182235615E+03  0.25500000920E-02 0.  1.
</event>
<event>
 5   0  0.2288806E-04  0.1700139E+04  0.7818609E-02  0.8761285E-01
       -2   -1    0    0    0  501  0.00000000000E+00  0.00000000000E+00  0.11437621306E+04  0.11437621306E+04  0.25500000920E-02 0.  1.
        2   -1    0    0  501    0  0.00000000000E+00  0.00000000000E+00 -0.63179030821E+03  0.63179030821E+03  0.25500000920E-02 0. -1.
    10030    2    1    2    0    0  0.00000000000E+00  0.00000000000E+00  0.51197182242E+03  0.17755524388E+04  0.17001386167E+04 0.  0.
        3    1    3    3  502    0 -0.71076908344E+03  0.27934917597E+03 -0.13392346796E+03  0.77534776557E+03  0.10100000352E+00 0. -1.
       -3    1    3    3    0  502  0.71076908344E+03 -0.27934917597E+03  0.64589529038E+03  0.10002046733E+04  0.10100000352E+00 0.  1.
</event>
<event>
 5   0  0.2224454E-04  0.1738606E+04  0.7818609E-02  0.8739647E-01
       -2   -1    0    0    0  501  0.00000000000E+00  0.00000000000E+00  0.89341175101E+03  0.89341175101E+03  0.25500000920E-02 0. -1.
        2   -1    0    0  501    0  0.00000000000E+00  0.00000000000E+00 -0.84584520568E+03  0.84584520568E+03  0.25500000920E-02 0.  1.
    10030    2    1    2    0    0  0.00000000000E+00  0.00000000000E+00  0.47566545327E+02  0.17392569567E+04  0.17386063917E+04 0.  0.
        2    1    3    3  502    0  0.19415917738E+03  0.30783401585E+03  0.81352688603E+03  0.89122699790E+03  0.25500000920E-02 0. -1.
       -2    1    3    3    0  502 -0.19415917738E+03 -0.30783401585E+03 -0.76596034070E+03  0.84802995880E+03  0.25500000920E-02 0.  1.
</event>
<event>
 5   0  0.1186302E-04  0.1698991E+04  0.7818609E-02  0.8761940E-01
        1   -1    0    0  501    0  0.00000000000E+00  0.00000000000E+00  0.20726130969E+04  0.20726130969E+04  0.50400001928E-02 0.  1.
       -1   -1    0    0    0  501  0.00000000000E+00  0.00000000000E+00 -0.34818000326E+03  0.34818000330E+03  0.50400001928E-02 0. -1.
    10030    2    1    2    0    0  0.00000000000E+00  0.00000000000E+00  0.17244330936E+04  0.24207931002E+04  0.16989908003E+04 0.  0.
        3    1    3    3  502    0  0.34503991184E+02 -0.11336039658E+03  0.20607798116E+04  0.20641837484E+04  0.10100000352E+00 0.  1.
       -3    1    3    3    0  502 -0.34503991184E+02  0.11336039658E+03 -0.33634671797E+03  0.35660935183E+03  0.10100000352E+00 0. -1.
</event>
<event>
 5   0  0.1234158E-04  0.1704748E+04  0.7818609E-02  0.8758661E-01
        1   -1    0    0  501    0  0.00000000000E+00  0.00000000000E+00  0.14741561014E+04  0.14741561014E+04  0.50400001928E-02 0.  1.
       -1   -1    0    0    0  501  0.00000000000E+00  0.00000000000E+00 -0.49285250274E+03  0.49285250276E+03  0.50400001928E-02 0. -1.
    10030    2    1    2    0    0  0.00000000000E+00  0.00000000000E+00  0.98130359868E+03  0.19670086042E+04  0.17047481034E+04 0.  0.
        5    1    3    3  502    0  0.48327963474E+03  0.40046517273E+03 -0.17477340902E+03  0.65153618044E+03  0.46999998093E+01 0. -1.
       -5    1    3    3    0  502 -0.48327963474E+03 -0.40046517273E+03  0.11560770077E+04  0.13154724238E+04  0.46999998093E+01 0.  1.
</event>
<event>
 5   0  0.2356829E-04  0.1708670E+04  0.7818609E-02  0.8756435E-01
        2   -1    0    0  501    0  0.00000000000E+00  0.00000000000E+00  0.96136005018E+03  0.96136005018E+03  0.25500000920E-02 0. -1.
       -2   -1    0    0    0  501  0.00000000000E+00  0.00000000000E+00 -0.75922432963E+03  0.75922432963E+03  0.25500000920E-02 0.  1.
    10030    2    1    2    0    0  0.00000000000E+00  0.00000000000E+00  0.20213572055E+03  0.17205843798E+04  0.17086695873E+04 0.  0.
        5    1    3    3  502    0 -0.30900723991E+03 -0.79644851637E+03  0.10819792004E+03  0.86112983541E+03  0.46999998093E+01 0. -1.
       -5    1    3    3    0  502  0.30900723991E+03  0.79644851637E+03  0.93937800510E+02  0.85945454441E+03  0.46999998093E+01 0.  1.
</event>
<event>
 5   0  0.1234158E-04  0.1695201E+04  0.7818609E-02  0.8764106E-01
       -1   -1    0    0    0  501  0.00000000000E+00  0.00000000000E+00  0.10814252083E+04  0.10814252083E+04  0.50400001928E-02 0. -1.
        1   -1    0    0  501    0  0.00000000000E+00  0.00000000000E+00 -0.66433316690E+03  0.66433316692E+03  0.50400001928E-02 0.  1.
    10030    2    1    2    0    0  0.00000000000E+00  0.00000000000E+00  0.41709204140E+03  0.17457583752E+04  0.16952010305E+04 0.  0.
        5    1    3    3  502    0 -0.12545654251E+03 -0.82461223951E+03  0.53456286360E+02  0.83582555247E+03  0.46999998093E+01 0.  1.
       -5    1    3    3    0  502  0.12545654251E+03  0.82461223951E+03  0.36363575504E+03  0.90993282277E+03  0.46999998093E+01 0. -1.
</event>
<event>
 5   0  0.1215233E-04  0.1695001E+04  0.7818609E-02  0.8764221E-01
       -1   -1    0    0    0  501  0.00000000000E+00  0.00000000000E+00  0.88404892535E+03  0.88404892537E+03  0.50400001928E-02 0. -1.
        1   -1    0    0  501    0  0.00000000000E+00  0.00000000000E+00 -0.81246318728E+03  0.81246318729E+03  0.50400001928E-02 0.  1.
    10030    2    1    2    0    0  0.00000000000E+00  0.00000000000E+00  0.71585738076E+02  0.16965121127E+04  0.16950011299E+04 0.  0.
        2    1    3    3  502    0 -0.78674632713E+03 -0.87660849020E+01 -0.27946502295E+03  0.83495348766E+03  0.25500000920E-02 0.  1.
       -2    1    3    3    0  502  0.78674632713E+03  0.87660849020E+01  0.35105076102E+03  0.86155862500E+03  0.25500000920E-02 0. -1.
</event>
<event>
 5   0  0.2356829E-04  0.1750345E+04  0.7818609E-02  0.8733161E-01
        2   -1    0    0  501    0  0.00000000000E+00  0.00000000000E+00  0.10237222025E+04  0.10237222025E+04  0.25500000920E-02 0.  1.
       -2   -1    0    0    0  501  0.00000000000E+00  0.00000000000E+00 -0.74817809488E+03  0.74817809488E+03  0.25500000920E-02 0. -1.
    10030    2    1    2    0    0  0.00000000000E+00  0.00000000000E+00  0.27554410758E+03  0.17719002973E+04  0.17503445685E+04 0.  0.
        5    1    3    3  502    0  0.66580185134E+03 -0.29065779339E+03  0.63176771145E+03  0.96277026820E+03  0.46999998093E+01 0.  1.
       -5    1    3    3    0  502 -0.66580185134E+03  0.29065779339E+03 -0.35622360387E+03  0.80913002914E+03  0.46999998093E+01 0. -1.
</event>
<event>
 5   0  0.1204741E-04  0.1689655E+04  0.7818609E-02  0.8767286E-01
        1   -1    0    0  501    0  0.00000000000E+00  0.00000000000E+00  0.12269196552E+04  0.12269196552E+04  0.50400001928E-02 0.  1.
       -1   -1    0    0    0  501  0.00000000000E+00  0.00000000000E+00 -0.58172810347E+03  0.58172810350E+03  0.50400001928E-02 0. -1.
    10030    2    1    2    0    0  0.00000000000E+00  0.00000000000E+00  0.64519155176E+03  0.18086477587E+04  0.16896551650E+04 0.  0.
        1    1    3    3  502    0  0.59436561711E+03 -0.14817646875E+03 -0.30019141494E+03  0.68215954023E+03  0.50400001928E-02 0. -1.
       -1    1    3    3    0  502 -0.59436561711E+03  0.14817646875E+03  0.94538296670E+03  0.11264882185E+04  0.50400001928E-02 0.  1.
</event>
<event>
 5   0  0.2288806E-04  0.1681473E+04  0.7818609E-02  0.8772002E-01
       -2   -1    0    0    0  501  0.00000000000E+00  0.00000000000E+00  0.43092553992E+03  0.43092553993E+03  0.25500000920E-02 0.  1.
        2   -1    0    0  501    0  0.00000000000E+00  0.00000000000E+00 -0.16402778792E+04  0.16402778792E+04  0.25500000920E-02 0. -1.
    10030    2    1    2    0    0  0.00000000000E+00  0.00000000000E+00 -0.12093523393E+04  0.20712034191E+04  0.16814727244E+04 0.  0.
        3    1    3    3  502    0  0.92705045381E+02 -0.15964605541E+03  0.40565066708E+03  0.44568325339E+03  0.10100000352E+00 0.  1.
       -3    1    3    3    0  502 -0.92705045381E+02  0.15964605541E+03 -0.16150030064E+04  0.16255201657E+04  0.10100000352E+00 0. -1.
</event>
<event>
 5   0  0.2242967E-04  0.1700913E+04  0.7818609E-02  0.8760844E-01
       -2   -1    0    0    0  501  0.00000000000E+00  0.00000000000E+00  0.35394884829E+03  0.35394884830E+03  0.25500000920E-02 0. -1.
        2   -1    0    0  501    0  0.00000000000E+00  0.00000000000E+00 -0.20434475398E+04  0.20434475398E+04  0.25500000920E-02 0.  1.
    10030    2    1    2    0    0  0.00000000000E+00  0.00000000000E+00 -0.16894986915E+04  0.23973963881E+04  0.17009125824E+04 0.  0.
        4    1    3    3  502    0 -0.60804282512E+03  0.49319950365E+03 -0.37661539041E+03  0.86879375733E+03  0.12699999809E+01 0. -1.
       -4    1    3    3    0  502  0.60804282512E+03 -0.49319950365E+03 -0.13128833011E+04  0.15286026308E+04  0.12699999809E+01 0.  1.
</event>
<event>
 5   0  0.2288806E-04  0.1675925E+04  0.7818609E-02  0.8775215E-01
       -2   -1    0    0    0  501  0.00000000000E+00  0.00000000000E+00  0.13464703884E+04  0.13464703884E+04  0.25500000920E-02 0. -1.
        2   -1    0    0  501    0  0.00000000000E+00  0.00000000000E+00 -0.52149783759E+03  0.52149783760E+03  0.25500000920E-02 0.  1.
    10030    2    1    2    0    0  0.00000000000E+00  0.00000000000E+00  0.82497255084E+03  0.18679682260E+04  0.16759252918E+04 0.  0.
        3    1    3    3  502    0 -0.79248080348E+03 -0.22645628345E+03  0.58105518309E+03  0.10084311619E+04  0.10100000352E+00 0.  1.
       -3    1    3    3    0  502  0.79248080348E+03  0.22645628345E+03  0.24391736775E+03  0.85953706418E+03  0.10100000352E+00 0. -1.
</event>
<event>
 5   0  0.1215233E-04  0.1702879E+04  0.7818609E-02  0.8759724E-01
        1   -1    0    0  501    0  0.00000000000E+00  0.00000000000E+00  0.19825709141E+04  0.19825709141E+04  0.50400001928E-02 0. -1.
       -1   -1    0    0    0  501  0.00000000000E+00  0.00000000000E+00 -0.36566121600E+03  0.36566121603E+03  0.50400001928E-02 0.  1.
    10030    2    1    2    0    0  0.00000000000E+00  0.00000000000E+00  0.16169096981E+04  0.23482321301E+04  0.17028790812E+04 0.  0.
        2    1    3    3  502    0 -0.35041812237E+03  0.11150238614E+03  0.18674195592E+04  0.19032817586E+04  0.25500000920E-02 0. -1.
       -2    1    3    3    0  502  0.35041812237E+03 -0.11150238614E+03 -0.25050986110E+03  0.44495037152E+03  0.25500000920E-02 0.  1.
</event>
<event>
 5   0  0.2242967E-04  0.1696619E+04  0.7818609E-02  0.8763295E-01
        2   -1    0    0  501    0  0.00000000000E+00  0.00000000000E+00  0.11107060429E+04  0.11107060429E+04  0.25500000920E-02 0. -1.
       -2   -1    0    0    0  501  0.00000000000E+00  0.00000000000E+00 -0.64790201538E+03  0.64790201539E+03  0.25500000920E-02 0.  1.
    10030    2    1    2    0    0  0.00000000000E+00  0.00000000000E+00  0.46280402748E+03  0.17586080583E+04  0.16966186179E+04 0.  0.
        4    1    3    3  502    0 -0.29416461220E+03  0.61117293749E+02 -0.59090506555E+03  0.66290161567E+03  0.12699999809E+01 0.  1.
       -4    1    3    3    0  502  0.29416461220E+03 -0.61117293749E+02  0.10537090930E+04  0.10957064426E+04  0.12699999809E+01 0. -1.
</event>
<event>
 5   0  0.1234158E-04  0.1714018E+04  0.7818609E-02  0.8753410E-01
        1   -1    0    0  501    0  0.00000000000E+00  0.00000000000E+00  0.70004888572E+03  0.70004888573E+03  0.50400001928E-02 0. -1.
       -1   -1    0    0    0  501  0.00000000000E+00  0.00000000000E+00 -0.10491616829E+04  0.10491616830E+04  0.50400001928E-02 0.  1.
    10030    2    1    2    0    0  0.00000000000E+00  0.00000000000E+00 -0.34911279723E+03  0.17492105687E+04  0.17140180479E+04 0.  0.
        5    1    3    3  502    0 -0.79503032625E+03 -0.17272678054E+03  0.10029589309E+03  0.81974942302E+03  0.46999998093E+01 0. -1.
       -5    1    3    3    0  502  0.79503032625E+03  0.17272678054E+03 -0.44940869033E+03  0.92946114567E+03  0.46999998093E+01 0.  1.
</event>
<event>
 5   0  0.8372750E-05  0.1698081E+04  0.7818609E-02  0.8762459E-01
        4   -1    0    0  501    0  0.00000000000E+00  0.00000000000E+00  0.70611157890E+03  0.70611272100E+03  0.12699999809E+01 0.  1.
       -4   -1    0    0    0  501  0.00000000000E+00  0.00000000000E+00 -0.10208986315E+04  0.10208994215E+04  0.12699999809E+01 0. -1.
    10030    2    1    2    0    0  0.00000000000E+00  0.00000000000E+00 -0.31478705262E+03  0.17270121425E+04  0.16980812854E+04 0.  0.
        1    1    3    3  502    0  0.73869541773E+02 -0.40892534790E+03 -0.91040882949E+03  0.10007601542E+04  0.50400001928E-02 0. -1.
       -1    1    3    3    0  502 -0.73869541773E+02  0.40892534790E+03  0.59562177687E+03  0.72625198827E+03  0.50400001928E-02 0.  1.
</event>
<event>
 5   0  0.8372750E-05  0.1700170E+04  0.7818609E-02  0.8761267E-01
       -3   -1    0    0    0  501  0.00000000000E+00  0.00000000000E+00  0.50994773936E+03  0.50994774936E+03  0.10100000352E+00 0. -1.
        3   -1    0    0  501    0  0.00000000000E+00  0.00000000000E+00 -0.14170952884E+04  0.14170952920E+04  0.10100000352E+00 0.  1.
    10030    2    1    2    0    0  0.00000000000E+00  0.00000000000E+00 -0.90714754909E+03  0.19270430414E+04  0.17001700526E+04 0.  0.
        3    1    3    3  502    0 -0.22856666715E+03 -0.69643569752E+03  0.34437082295E+02  0.73379242634E+03  0.10100000352E+00 0. -1.
       -3    1    3    3    0  502  0.22856666715E+03  0.69643569752E+03 -0.94158463138E+03  0.11932506151E+04  0.10100000352E+00 0.  1.
</event>
<event>
 5   0  0.1215233E-04  0.1707276E+04  0.7818609E-02  0.8757225E-01
       -1   -1    0    0    0  501  0.00000000000E+00  0.00000000000E+00  0.36616339132E+03  0.36616339136E+03  0.50400001928E-02 0.  1.
        1   -1    0    0  501    0  0.00000000000E+00  0.00000000000E+00 -0.19900900168E+04  0.19900900168E+04  0.50400001928E-02 0. -1.
    10030    2    1    2    0    0  0.00000000000E+00  0.00000000000E+00 -0.16239266255E+04  0.23562534081E+04  0.17072763217E+04 0.  0.
        2    1    3    3  502    0 -0.68115287089E+03 -0.28302662342E+03 -0.14049749352E+04  0.15868295030E+04  0.25500000920E-02 0. -1.
       -2    1    3    3    0  502  0.68115287089E+03  0.28302662342E+03 -0.21895169022E+03  0.76942390510E+03  0.25500000920E-02 0.  1.
</event>
<event>
 5   0  0.1186302E-04  0.1705775E+04  0.7818609E-02  0.8758078E-01
       -1   -1    0    0    0  501  0.00000000000E+00  0.00000000000E+00  0.91394583774E+03  0.91394583775E+03  0.50400001928E-02 0.  1.
        1   -1    0    0  501    0  0.00000000000E+00  0.00000000000E+00 -0.79590788017E+03  0.79590788018E+03  0.50400001928E-02 0. -1.
    10030    2    1    2    0    0  0.00000000000E+00  0.00000000000E+00  0.11803795757E+03  0.17098537179E+04  0.17057745388E+04 0.  0.
        3    1    3    3  502    0  0.49174978850E+03 -0.57641883571E+02 -0.63710286832E+03  0.80687081757E+03  0.10100000352E+00 0. -1.
       -3    1    3    3    0  502 -0.49174978850E+03  0.57641883571E+02  0.75514082589E+03  0.90298290037E+03  0.10100000352E+00 0.  1.
</event>
<event>
 5   0  0.1234158E-04  0.1705583E+04  0.7818609E-02  0.8758186E-01
        1   -1    0    0  501    0  0.00000000000E+00  0.00000000000E+00  0.12456383086E+04  0.12456383086E+04  0.50400001928E-02 0. -1.
       -1   -1    0    0    0  501  0.00000000000E+00  0.00000000000E+00 -0.58384011726E+03  0.58384011728E+03  0.50400001928E-02 0.  1.
    10030    2    1    2    0    0  0.00000000000E+00  0.00000000000E+00  0.66179819136E+03  0.18294784259E+04  0.17055833210E+04 0.  0.
        5    1    3    3  502    0  0.69778043325E+03  0.63623452036E+01  0.85670490019E+03  0.11049449708E+04  0.46999998093E+01 0. -1.
       -5    1    3    3    0  502 -0.69778043325E+03 -0.63623452036E+01 -0.19490670882E+03  0.72453345513E+03  0.46999998093E+01 0.  1.
</event>
<event>
 5   0  0.2356829E-04  0.1689929E+04  0.7818609E-02  0.8767129E-01
       -2   -1    0    0    0  501  0.00000000000E+00  0.00000000000E+00  0.47223580951E+03  0.47223580951E+03  0.25500000920E-02 0.  1.
        2   -1    0    0  501    0  0.00000000000E+00  0.00000000000E+00 -0.15118820874E+04  0.15118820874E+04  0.25500000920E-02 0. -1.
    10030    2    1    2    0    0  0.00000000000E+00  0.00000000000E+00 -0.10396462779E+04  0.19841178969E+04  0.16899288286E+04 0.  0.
        5    1    3    3  502    0  0.71161289897E+03  0.44916167325E+03 -0.60926678009E+03  0.10389259964E+04  0.46999998093E+01 0.  1.
       -5    1    3    3    0  502 -0.71161289897E+03 -0.44916167325E+03 -0.43037949784E+03  0.94519190054E+03  0.46999998093E+01 0. -1.
</event>
<event>
 5   0  0.1204741E-04  0.1715354E+04  0.7818609E-02  0.8752656E-01
       -1   -1    0    0    0  501  0.00000000000E+00  0.00000000000E+00  0.46400742931E+03  0.46400742933E+03  0.50400001928E-02 0.  1.
        1   -1    0    0  501    0  0.00000000000E+00  0.00000000000E+00 -0.15853407766E+04  0.15853407766E+04  0.50400001928E-02 0. -1.
    10030    2    1    2    0    0  0.00000000000E+00  0.00000000000E+00 -0.11213333473E+04  0.20493482060E+04  0.17153540723E+04 0.  0.
        1    1    3    3  502    0 -0.66532791236E+03  0.45717386171E+03 -0.21452942080E+03  0.83527961978E+03  0.50400001928E-02 0.  1.
       -1    1    3    3    0  502  0.66532791236E+03 -0.45717386171E+03 -0.90680392651E+03  0.12140685862E+04  0.50400001928E-02 0. -1.
</event>
<event>
 5   0  0.1234158E-04  0.1668669E+04  0.7818609E-02  0.8779438E-01
        1   -1    0    0  501    0  0.00000000000E+00  0.00000000000E+00  0.11886894284E+04  0.11886894284E+04  0.50400001928E-02 0. -1.
       -1   -1    0    0    0  501  0.00000000000E+00  0.00000000000E+00 -0.58561491157E+03  0.58561491159E+03  0.50400001928E-02 0.  1.
    10030    2    1    2    0    0  0.00000000000E+00  0.00000000000E+00  0.60307451682E+03  0.17743043400E+04  0.16686692357E+04 0.  0.
        5    1    3    3  502    0 -0.21609656085E+03 -0.17012712511E+03 -0.53601453110E+03  0.60247375865E+03  0.46999998093E+01 0.  1.
       -5    1    3    3    0  502  0.21609656085E+03  0.17012712511E+03  0.11390890479E+04  0.11718305814E+04  0.46999998093E+01 0. -1.
</event>
<event>
 5   0  0.1126958E-04  0.1701840E+04  0.7818609E-02  0.8760316E-01
        1   -1    0    0  501    0  0.00000000000E+00  0.00000000000E+00  0.46860485341E+03  0.46860485344E+03  0.50400001928E-02 0.  1.
       -1   -1    0    0    0  501  0.00000000000E+00  0.00000000000E+00 -0.15451497369E+04  0.15451497369E+04  0.50400001928E-02 0. -1.
    10030    2    1    2    0    0  0.00000000000E+00  0.00000000000E+00 -0.10765448835E+04  0.20137545904E+04  0.17018397880E+04 0.  0.
        4    1    3    3  502    0  0.64356597324E+02  0.64773433437E+03  0.11022760614E+03  0.66019184908E+03  0.12699999809E+01 0.  1.
       -4    1    3    3    0  502 -0.64356597324E+02 -0.64773433437E+03 -0.11867724896E+04  0.13535627413E+04  0.12699999809E+01 0. -1.
</event>
<event>
 5   0  0.1215233E-04  0.1699458E+04  0.7818609E-02  0.8761674E-01
       -1   -1    0    0    0  501  0.00000000000E+00  0.00000000000E+00  0.51355031627E+03  0.51355031630E+03  0.50400001928E-02 0. -1.
        1   -1    0    0  501    0  0.00000000000E+00  0.00000000000E+00 -0.14059753974E+04  0.14059753974E+04  0.50400001928E-02 0.  1.
    10030    2    1    2    0    0  0.00000000000E+00  0.00000000000E+00 -0.89242508114E+03  0.19195257137E+04  0.16994576900E+04 0.  0.
        2    1    3    3  502    0 -0.54744059721E+03 -0.28789003250E+03  0.21187323985E+03  0.65380589479E+03  0.25500000920E-02 0. -1.
       -2    1    3    3    0  502  0.54744059721E+03  0.28789003250E+03 -0.11042983210E+04  0.12657198189E+04  0.25500000920E-02 0.  1.
</event>
<event>
 5   0  0.2224454E-04  0.1674602E+04  0.7818609E-02  0.8775984E-01
        2   -1    0    0  501    0  0.00000000000E+00  0.00000000000E+00  0.14170743983E+04  0.14170743983E+04  0.25500000920E-02 0.  1.
       -2   -1    0    0    0  501  0.00000000000E+00  0.00000000000E+00 -0.49473261074E+03  0.49473261074E+03  0.25500000920E-02 0. -1.
    10030    2    1    2    0    0  0.00000000000E+00  0.00000000000E+00  0.92234178753E+03  0.19118070090E+04  0.16746019428E+04 0.  0.
        2    1    3    3  502    0  0.22541542045E+03  0.76699595541E+03  0.17695309598E+03  0.81878404087E+03  0.25500000920E-02 0. -1.
       -2    1    3    3    0  502 -0.22541542045E+03 -0.76699595541E+03  0.74538869154E+03  0.10930229681E+04  0.25500000920E-02 0.  1.
</event>
<event>
 5   0  0.2288806E-04  0.1705337E+04  0.7818609E-02  0.8758326E-01
       -2   -1    0    0    0  501  0.00000000000E+00  0.00000000000E+00  0.11928466543E+04  0.11928466543E+04  0.25500000920E-02 0. -1.
        2   -1    0    0  501    0  0.00000000000E+00  0.00000000000E+00 -0.60950274148E+03  0.60950274149E+03  0.25500000920E-02 0.  1.
    10030    2    1    2    0    0  0.00000000000E+00  0.00000000000E+00  0.58334391280E+03  0.18023493958E+04  0.17053366893E+04 0.  0.
        3    1    3    3  502    0 -0.21274222787E+03  0.77268872091E+03  0.59932647101E+03  0.10007493912E+04  0.10100000352E+00 0.  1.
       -3    1    3    3    0  502  0.21274222787E+03 -0.77268872091E+03 -0.15982558209E+02  0.80160000456E+03  0.10100000352E+00 0. -1.
</event>
<event>
 5   0  0.2242967E-04  0.1701207E+04  0.7818609E-02  0.8760676E-01
       -2   -1    0    0    0  501  0.00000000000E+00  0.00000000000E+00  0.76037716486E+03  0.76037716486E+03  0.25500000920E-02 0. -1.
        2   -1    0    0  501    0  0.00000000000E+00  0.00000000000E+00 -0.95153664845E+03  0.95153664845E+03  0.25500000920E-02 0.  1.
    10030    2    1    2    0    0  0.00000000000E+00  0.00000000000E+00 -0.19115948359E+03  0.17119138133E+04  0.17012074994E+04 0.  0.
        4    1    3    3  502    0  0.30295787584E+03  0.78208151650E+03  0.47052014909E+02  0.84003004589E+03  0.12699999809E+01 0.  1.
       -4    1    3    3    0  502 -0.30295787584E+03 -0.78208151650E+03 -0.23821149850E+03  0.87188376743E+03  0.12699999809E+01 0. -1.
</event>
<event>
 5   0  0.1234158E-04  0.1686897E+04  0.7818609E-02  0.8768873E-01
       -1   -1    0    0    0  501  0.00000000000E+00  0.00000000000E+00  0.12016369899E+04  0.12016369899E+04  0.50400001928E-02 0.  1.
        1   -1    0    0  501    0  0.00000000000E+00  0.00000000000E+00 -0.59202990258E+03  0.59202990260E+03  0.50400001928E-02 0. -1.
    10030    2    1    2    0    0  0.00000000000E+00  0.00000000000E+00  0.60960708732E+03  0.17936668925E+04  0.16868965945E+04 0.  0.
        5    1    3    3  502    0 -0.67345624358E+03  0.44880799279E+03  0.55734651301E+03  0.98266431296E+03  0.46999998093E+01 0.  1.
       -5    1    3    3    0  502  0.67345624358E+03 -0.44880799279E+03  0.52260574302E+02  0.81100257955E+03  0.46999998093E+01 0. -1.
</event>
<event>
 5   0  0.2234723E-04  0.1703626E+04  0.7818609E-02  0.8759299E-01
        2   -1    0    0  501    0  0.00000000000E+00  0.00000000000E+00  0.71681680067E+03  0.71681680068E+03  0.25500000920E-02 0. -1.
       -2   -1    0    0    0  501  0.00000000000E+00  0.00000000000E+00 -0.10122324344E+04  0.10122324344E+04  0.25500000920E-02 0.  1.
    10030    2    1    2    0    0  0.00000000000E+00  0.00000000000E+00 -0.29541563375E+03  0.17290492351E+04  0.17036257983E+04 0.  0.
        1    1    3    3  502    0  0.50625896458E+03 -0.45026490963E+03 -0.67169582078E+03  0.95405026269E+03  0.50400001928E-02 0.  1.
       -1    1    3    3    0  502 -0.50625896458E+03  0.45026490963E+03  0.37628018703E+03  0.77499897241E+03  0.50400001928E-02 0. -1.
</event>
<event>
 5   0  0.2356829E-04  0.1690223E+04  0.7818609E-02  0.8766960E-01
        2   -1    0    0  501    0  0.00000000000E+00  0.00000000000E+00  0.21364535172E+04  0.21364535172E+04  0.25500000920E-02 0. -1.
       -2   -1    0    0    0  501  0.00000000000E+00  0.00000000000E+00 -0.33429861052E+03  0.33429861053E+03  0.25500000920E-02 0.  1.
    10030    2    1    2    0    0  0.00000000000E+00  0.00000000000E+00  0.18021549067E+04  0.24707521278E+04  0.16902229939E+04 0.  0.
        5    1    3    3  502    0 -0.17750157579E+03  0.65652491113E+03  0.16776018908E+03  0.70049792247E+03  0.46999998093E+01 0.  1.
       -5    1    3    3    0  502  0.17750157579E+03 -0.65652491113E+03  0.16343947176E+04  0.17702542053E+04  0.46999998093E+01 0. -1.
</event>
<event>
 5   0  0.1126958E-04  0.1677718E+04  0.7818609E-02  0.8774176E-01
       -1   -1    0    0    0  501  0.00000000000E+00  0.00000000000E+00  0.96669285789E+03  0.96669285790E+03  0.50400001928E-02 0. -1.
        1   -1    0    0  501    0  0.00000000000E+00  0.00000000000E+00 -0.72792935709E+03  0.72792935710E+03  0.50400001928E-02 0.  1.
    10030    2    1    2    0    0  0.00000000000E+00  0.00000000000E+00  0.23876350080E+03  0.16946222150E+04  0.16777176289E+04 0.  0.
        4    1    3    3  502    0  0.16813504340E+03 -0.36483467062E+03  0.86321800216E+03  0.95211378619E+03  0.12699999809E+01 0. -1.
       -4    1    3    3    0  502 -0.16813504340E+03  0.36483467062E+03 -0.62445450135E+03  0.74250842882E+03  0.12699999809E+01 0.  1.
</event>
<event>
 5   0  0.1215233E-04  0.1704422E+04  0.7818609E-02  0.8758847E-01
       -1   -1    0    0    0  501  0.00000000000E+00  0.00000000000E+00  0.16642828712E+04  0.16642828712E+04  0.50400001928E-02 0. -1.
        1   -1    0    0  501    0  0.00000000000E+00  0.00000000000E+00 -0.43638213910E+03  0.43638213913E+03  0.50400001928E-02 0.  1.
    10030    2    1    2    0    0  0.00000000000E+00  0.00000000000E+00  0.12279007321E+04  0.21006650104E+04  0.17044216843E+04 0.  0.
        2    1    3    3  502    0 -0.46805422414E+03  0.71009877964E+03  0.54702903874E+03  0.10112150131E+04  0.25500000920E-02 0. -1.
       -2    1    3    3    0  502  0.46805422414E+03 -0.71009877964E+03  0.68087169339E+03  0.10894499972E+04  0.25500000920E-02 0.  1.
</event>
<event>
 5   0  0.1215233E-04  0.1704364E+04  0.7818609E-02  0.8758879E-01
       -1   -1    0    0    0  501  0.00000000000E+00  0.00000000000E+00  0.52543957769E+03  0.52543957771E+03  0.50400001928E-02 0. -1.
        1   -1    0    0  501    0  0.00000000000E+00  0.00000000000E+00 -0.13821074359E+04  0.13821074359E+04  0.50400001928E-02 0.  1.
    10030    2    1    2    0    0  0.00000000000E+00  0.00000000000E+00 -0.85666785820E+03  0.19075470136E+04  0.17043637493E+04 0.  0.
        2    1    3    3  502    0 -0.14210696793E+03  0.54610899344E+02 -0.13667644345E+04  0.13752169865E+04  0.25500000920E-02 0.  1.
       -2    1    3    3    0  502  0.14210696793E+03 -0.54610899344E+02  0.51009657625E+03  0.53233002712E+03  0.25500000920E-02 0. -1.
</event>
<event>
 5   0  0.1186302E-04  0.1854077E+04  0.7818609E-02  0.8678059E-01
       -1   -1    0    0    0  501  0.00000000000E+00  0.00000000000E+00  0.12027462618E+04  0.12027462619E+04  0.50400001928E-02 0. -1.
        1   -1    0    0  501    0  0.00000000000E+00  0.00000000000E+00 -0.71453180504E+03  0.71453180506E+03  0.50400001928E-02 0.  1.
    10030    2    1    2    0    0  0.00000000000E+00  0.00000000000E+00  0.48821445681E+03  0.19172780669E+04  0.18540770831E+04 0.  0.
        3    1    3    3  502    0 -0.34862464623E+03 -0.57931255500E+03 -0.41175075187E+03  0.79163177817E+03  0.10100000352E+00 0.  1.
       -3    1    3    3    0  502  0.34862464623E+03  0.57931255500E+03  0.89996520868E+03  0.11256462887E+04  0.10100000352E+00 0. -1.
</event>
<event>
 5   0  0.1215233E-04  0.1699995E+04  0.7818609E-02  0.8761367E-01
       -1   -1    0    0    0  501  0.00000000000E+00  0.00000000000E+00  0.72998044271E+03  0.72998044273E+03  0.50400001928E-02 0. -1.
        1   -1    0    0  501    0  0.00000000000E+00  0.00000000000E+00 -0.98974645338E+03  0.98974645340E+03  0.50400001928E-02 0.  1.
    10030    2    1    2    0    0  0.00000000000E+00  0.00000000000E+00 -0.25976601067E+03  0.17197268961E+04  0.16999947697E+04 0.  0.
        2    1    3    3  502    0  0.23727129372E+03 -0.15923134508E+03 -0.93970172376E+03  0.98218716023E+03  0.25500000920E-02 0.  1.
       -2    1    3    3    0  502 -0.23727129372E+03  0.15923134508E+03  0.67993571310E+03  0.73753973590E+03  0.25500000920E-02 0. -1.
</event>
<event>
 5   0  0.2224454E-04  0.1685926E+04  0.7818609E-02  0.8769432E-01
        2   -1    0    0  501    0  0.00000000000E+00  0.00000000000E+00  0.93515629432E+03  0.93515629433E+03  0.25500000920E-02 0.  1.
       -2   -1    0    0    0  501  0.00000000000E+00  0.00000000000E+00 -0.75985885112E+03  0.75985885113E+03  0.25500000920E-02 0. -1.
    10030    2    1    2    0    0  0.00000000000E+00  0.00000000000E+00  0.17529744320E+03  0.16950151455E+04  0.16859261994E+04 0.  0.
        2    1    3    3  502    0  0.28361556744E+03 -0.25622110103E+03 -0.66773374203E+03  0.76938637430E+03  0.25500000920E-02 0. -1.
       -2    1    3    3    0  502 -0.28361556744E+03  0.25622110103E+03  0.84303118523E+03  0.92562877115E+03  0.25500000920E-02 0.  1.
</event>
<event>
 5   0  0.2224454E-04  0.1691810E+04  0.7818609E-02  0.8766049E-01
       -2   -1    0    0    0  501  0.00000000000E+00  0.00000000000E+00  0.10844582895E+04  0.10844582895E+04  0.25500000920E-02 0.  1.
        2   -1    0    0  501    0  0.00000000000E+00  0.00000000000E+00 -0.65982763563E+03  0.65982763564E+03  0.25500000920E-02 0. -1.
    10030    2    1    2    0    0  0.00000000000E+00  0.00000000000E+00  0.42463065387E+03  0.17442859251E+04  0.16918103311E+04 0.  0.
        2    1    3    3  502    0 -0.33169847961E+03 -0.27749439226E+03  0.96186465905E+03  0.10546139775E+04  0.25500000920E-02 0.  1.
       -2    1    3    3    0  502  0.33169847961E+03  0.27749439226E+03 -0.53723400517E+03  0.68967194769E+03  0.25500000920E-02 0. -1.
</event>
<event>
 5   0  0.2288806E-04  0.1700957E+04  0.7818609E-02  0.8760819E-01
        2   -1    0    0  501    0  0.00000000000E+00  0.00000000000E+00  0.16937313627E+04  0.16937313627E+04  0.25500000920E-02 0. -1.
       -2   -1    0    0    0  501  0.00000000000E+00  0.00000000000E+00 -0.42705348808E+03  0.42705348808E+03  0.25500000920E-02 0.  1.
    10030    2    1    2    0    0  0.00000000000E+00  0.00000000000E+00  0.12666778746E+04  0.21207848508E+04  0.17009572438E+04 0.  0.
        3    1    3    3  502    0  0.26577701389E+03 -0.78333360652E+03  0.38690718669E+03  0.91320651637E+03  0.10100000352E+00 0.  1.
       -3    1    3    3    0  502 -0.26577701389E+03  0.78333360652E+03  0.87977068794E+03  0.12075783344E+04  0.10100000352E+00 0. -1.
</event>
<event>
 5   0  0.1204741E-04  0.1779506E+04  0.7818609E-02  0.8717275E-01
       -1   -1    0    0    0  501  0.00000000000E+00  0.00000000000E+00  0.45974189893E+03  0.45974189896E+03  0.50400001928E-02 0.  1.
        1   -1    0    0  501    0  0.00000000000E+00  0.00000000000E+00 -0.17219665775E+04  0.17219665775E+04  0.50400001928E-02 0. -1.
    10030    2    1    2    0    0  0.00000000000E+00  0.00000000000E+00 -0.12622246786E+04  0.21817084765E+04  0.17795057564E+04 0.  0.
        1    1    3    3  502    0  0.70313040291E+03 -0.30054244792E+03 -0.73385295827E+02  0.76818196293E+03  0.50400001928E-02 0.  1.
       -1    1    3    3    0  502 -0.70313040291E+03  0.30054244792E+03 -0.11888393827E+04  0.14135265135E+04  0.50400001928E-02 0. -1.
</event>
<event>
 5   0  0.1215233E-04  0.1704157E+04  0.7818609E-02  0.8758997E-01
       -1   -1    0    0    0  501  0.00000000000E+00  0.00000000000E+00  0.44284567408E+03  0.44284567411E+03  0.50400001928E-02 0. -1.
        1   -1    0    0  501    0  0.00000000000E+00  0.00000000000E+00 -0.16394830559E+04  0.16394830559E+04  0.50400001928E-02 0.  1.
    10030    2    1    2    0    0  0.00000000000E+00  0.00000000000E+00 -0.11966373819E+04  0.20823287300E+04  0.17041572452E+04 0.  0.
        2    1    3    3  502    0  0.60661127176E+03 -0.63377847089E+02 -0.13253753236E+04  0.14589769480E+04  0.25500000920E-02 0.  1.
       -2    1    3    3    0  502 -0.60661127176E+03  0.63377847089E+02  0.12873794170E+03  0.62335178204E+03  0.25500000920E-02 0. -1.
</event>
<event>
 5   0  0.1215233E-04  0.1713149E+04  0.7818609E-02  0.8753901E-01
        1   -1    0    0  501    0  0.00000000000E+00  0.00000000000E+00  0.10373582693E+04  0.10373582693E+04  0.50400001928E-02 0. -1.
       -1   -1    0    0    0  501  0.00000000000E+00  0.00000000000E+00 -0.70729621012E+03  0.70729621014E+03  0.50400001928E-02 0.  1.
    10030    2    1    2    0    0  0.00000000000E+00  0.00000000000E+00  0.33006205921E+03  0.17446544795E+04  0.17131486479E+04 0.  0.
        2    1    3    3  502    0 -0.36375239338E+03  0.39726733188E+03  0.84329938060E+03  0.10006452828E+04  0.25500000920E-02 0. -1.
       -2    1    3    3    0  502  0.36375239338E+03 -0.39726733188E+03 -0.51323732139E+03  0.74400919668E+03  0.25500000920E-02 0.  1.
</event>
<event>
 5   0  0.2288806E-04  0.1685878E+04  0.7818609E-02  0.8769460E-01
       -2   -1    0    0    0  501  0.00000000000E+00  0.00000000000E+00  0.64414531356E+03  0.64414531356E+03  0.25500000920E-02 0.  1.
        2   -1    0    0  501    0  0.00000000000E+00  0.00000000000E+00 -0.11030840092E+04  0.11030840092E+04  0.25500000920E-02 0. -1.
    10030    2    1    2    0    0  0.00000000000E+00  0.00000000000E+00 -0.45893869565E+03  0.17472293228E+04  0.16858782815E+04 0.  0.
        3    1    3    3  502    0 -0.67684645035E+03  0.11609193098E+03 -0.73608118259E+03  0.10066846435E+04  0.10100000352E+00 0. -1.
       -3    1    3    3    0  502  0.67684645035E+03 -0.11609193098E+03  0.27714248695E+03  0.74054467932E+03  0.10100000352E+00 0.  1.
</event>
<event>
 5   0  0.2224454E-04  0.1693914E+04  0.7818609E-02  0.8764843E-01
       -2   -1    0    0    0  501  0.00000000000E+00  0.00000000000E+00  0.78898837485E+03  0.78898837485E+03  0.25500000920E-02 0. -1.
        2   -1    0    0  501    0  0.00000000000E+00  0.00000000000E+00 -0.90918450516E+03  0.90918450516E+03  0.25500000920E-02 0.  1.
    10030    2    1    2    0    0  0.00000000000E+00  0.00000000000E+00 -0.12019613031E+03  0.16981728800E+04  0.16939138174E+04 0.  0.
        2    1    3    3  502    0 -0.75598686390E+02 -0.40789105640E+03 -0.80036223086E+03  0.90148209959E+03  0.25500000920E-02 0.  1.
       -2    1    3    3    0  502  0.75598686390E+02  0.40789105640E+03  0.68016610055E+03  0.79669078043E+03  0.25500000920E-02 0. -1.
</event>
<event>
 5   0  0.2224454E-04  0.1721450E+04  0.7818609E-02  0.8749224E-01
        2   -1    0    0  501    0  0.00000000000E+00  0.00000000000E+00  0.13040226726E+04  0.13040226726E+04  0.25500000920E-02 0.  1.
       -2   -1    0    0    0  501  0.00000000000E+00  0.00000000000E+00 -0.56812458242E+03  0.56812458243E+03  0.25500000920E-02 0. -1.
    10030    2    1    2    0    0  0.00000000000E+00  0.00000000000E+00  0.73589809013E+03  0.18721472550E+04  0.17214497801E+04 0.  0.
        2    1    3    3  502    0 -0.16211937753E+03  0.53317058590E+03 -0.34544286005E+03  0.65565565338E+03  0.25500000920E-02 0. -1.
       -2    1    3    3    0  502  0.16211937753E+03 -0.53317058590E+03  0.10813409502E+04  0.12164916016E+04  0.25500000920E-02 0.  1.
</event>
<event>
 5   0  0.1126958E-04  0.1686508E+04  0.7818609E-02  0.8769097E-01
       -1   -1    0    0    0  501  0.00000000000E+00  0.00000000000E+00  0.65634414524E+03  0.65634414526E+03  0.50400001928E-02 0. -1.
        1   -1    0    0  501    0  0.00000000000E+00  0.00000000000E+00 -0.10833908294E+04  0.10833908295E+04  0.50400001928E-02 0.  1.
    10030    2    1    2    0    0  0.00000000000E+00  0.00000000000E+00 -0.42704668420E+03  0.17397349747E+04  0.16865079044E+04 0.  0.
        4    1    3    3  502    0  0.16164914499E+02  0.31814919482E+03 -0.10189306282E+04  0.10675680084E+04  0.12699999809E+01 0.  1.
       -4    1    3    3    0  502 -0.16164914499E+02 -0.31814919482E+03  0.59188394395E+03  0.67216696634E+03  0.12699999809E+01 0. -1.
</event>
<event>
 5   0  0.8372750E-05  0.1687080E+04  0.7818609E-02  0.8768767E-01
       -3   -1    0    0    0  501  0.00000000000E+00  0.00000000000E+00  0.21892294429E+04  0.21892294452E+04  0.10100000352E+00 0. -1.
        3   -1    0    0  501    0  0.00000000000E+00  0.00000000000E+00 -0.32502755289E+03  0.32502756859E+03  0.10100000352E+00 0.  1.
    10030    2    1    2    0    0  0.00000000000E+00  0.00000000000E+00  0.18642018900E+04  0.25142570138E+04  0.16870802129E+04 0.  0.
        4    1    3    3  502    0  0.77957476780E+02 -0.48453012375E+03 -0.90370852764E+02  0.49901434141E+03  0.12699999809E+01 0.  1.
       -4    1    3    3    0  502 -0.77957476780E+02  0.48453012375E+03  0.19545727428E+04  0.20152426724E+04  0.12699999809E+01 0. -1.
</event>
<event>
 5   0  0.2234723E-04  0.1717910E+04  0.7818609E-02  0.8751215E-01
       -2   -1    0    0    0  501  0.00000000000E+00  0.00000000000E+00  0.62493648989E+03  0.62493648990E+03  0.25500000920E-02 0. -1.
        2   -1    0    0  501    0  0.00000000000E+00  0.00000000000E+00 -0.11806064552E+04  0.11806064552E+04  0.25500000920E-02 0.  1.
    10030    2    1    2    0    0  0.00000000000E+00  0.00000000000E+00 -0.55566996535E+03  0.18055429451E+04  0.17179104215E+04 0.  0.
        1    1    3    3  502    0 -0.36112206938E+03  0.49562691208E+03 -0.90997152908E+03  0.10973164397E+04  0.50400001928E-02 0.  1.
       -1    1    3    3    0  502  0.36112206938E+03 -0.49562691208E+03  0.35430156374E+03  0.70822650548E+03  0.50400001928E-02 0. -1.
</event>
<event>
 5   0  0.2288806E-04  0.1705507E+04  0.7818609E-02  0.8758229E-01
       -2   -1    0    0    0  501  0.00000000000E+00  0.00000000000E+00  0.58826662994E+03  0.58826662994E+03  0.25500000920E-02 0.  1.
        2   -1    0    0  501    0  0.00000000000E+00  0.00000000000E+00 -0.12361553172E+04  0.12361553172E+04  0.25500000920E-02 0. -1.
    10030    2    1    2    0    0  0.00000000000E+00  0.00000000000E+00 -0.64788868721E+03  0.18244219471E+04  0.17055074582E+04 0.  0.
        3    1    3    3  502    0 -0.39865626876E+03 -0.13269283048E+03  0.46985610867E+03  0.63031657200E+03  0.10100000352E+00 0.  1.
       -3    1    3    3    0  502  0.39865626876E+03  0.13269283048E+03 -0.11177447959E+04  0.11941053751E+04  0.10100000352E+00 0. -1.
</event>
<event>
 5   0  0.8372750E-05  0.1687088E+04  0.7818609E-02  0.8768763E-01
        4   -1    0    0  501    0  0.00000000000E+00  0.00000000000E+00  0.73039405140E+03  0.73039515553E+03  0.12699999809E+01 0.  1.
       -4   -1    0    0    0  501  0.00000000000E+00  0.00000000000E+00 -0.97422044859E+03  0.97422127638E+03  0.12699999809E+01 0. -1.
    10030    2    1    2    0    0  0.00000000000E+00  0.00000000000E+00 -0.24382639719E+03  0.17046164319E+04  0.16870879847E+04 0.  0.
        5    1    3    3  502    0  0.63192123837E+03  0.25098838820E+03  0.38249777545E+03  0.78015784347E+03  0.46999998093E+01 0.  1.
       -5    1    3    3    0  502 -0.63192123837E+03 -0.25098838820E+03 -0.62632417263E+03  0.92445858844E+03  0.46999998093E+01 0. -1.
</event>
<event>
 5   0  0.2288806E-04  0.1716199E+04  0.7818609E-02  0.8752179E-01
        2   -1    0    0  501    0  0.00000000000E+00  0.00000000000E+00  0.98489034982E+03  0.98489034982E+03  0.25500000920E-02 0. -1.
       -2   -1    0    0    0  501  0.00000000000E+00  0.00000000000E+00 -0.74763121030E+03  0.74763121031E+03  0.25500000920E-02 0.  1.
    10030    2    1    2    0    0  0.00000000000E+00  0.00000000000E+00  0.23725913952E+03  0.17325215601E+04  0.17161990144E+04 0.  0.
        3    1    3    3  502    0  0.16593541642E+03 -0.41637766148E+02 -0.73024031535E+03  0.75001279612E+03  0.10100000352E+00 0.  1.
       -3    1    3    3    0  502 -0.16593541642E+03  0.41637766148E+02  0.96749945486E+03  0.98250876401E+03  0.10100000352E+00 0. -1.
</event>
<event>
 5   0  0.2224454E-04  0.1692162E+04  0.7818609E-02  0.8765847E-01
        2   -1    0    0  501    0  0.00000000000E+00  0.00000000000E+00  0.16991951850E+04  0.16991951850E+04  0.25500000920E-02 0.  1.
       -2   -1    0    0    0  501  0.00000000000E+00  0.00000000000E+00 -0.42128947719E+03  0.42128947720E+03  0.25500000920E-02 0. -1.
    10030    2    1    2    0    0  0.00000000000E+00  0.00000000000E+00  0.12779057078E+04  0.21204846622E+04  0.16921619912E+04 0.  0.
        2    1    3    3  502    0  0.22347686758E+03 -0.61208928508E+03 -0.37335669802E+02  0.65267844725E+03  0.25500000920E-02 0. -1.
       -2    1    3    3    0  502 -0.22347686758E+03  0.61208928508E+03  0.13152413776E+04  0.14678062149E+04  0.25500000920E-02 0.  1.
</event>
<event>
 5   0  0.2288806E-04  0.1704244E+04  0.7818609E-02  0.8758948E-01
       -2   -1    0    0    0  501  0.00000000000E+00  0.00000000000E+00  0.45756288519E+03  0.45756288520E+03  0.25500000920E-02 0. -1.
        2   -1    0    0  501    0  0.00000000000E+00  0.00000000000E+00 -0.15869114595E+04  0.15869114595E+04  0.25500000920E-02 0.  1.
    10030    2    1    2    0    0  0.00000000000E+00  0.00000000000E+00 -0.11293485743E+04  0.20444743447E+04  0.17042438628E+04 0.  0.
        3    1    3    3  502    0 -0.44296553408E+03 -0.66810101444E+03 -0.91139713776E+03  0.12137636437E+04  0.10100000352E+00 0.  1.
       -3    1    3    3    0  502  0.44296553408E+03  0.66810101444E+03 -0.21795143657E+03  0.83071070101E+03  0.10100000352E+00 0. -1.
</event>
<event>
 5   0  0.1234158E-04  0.1697799E+04  0.7818609E-02  0.8762621E-01
       -1   -1    0    0    0  501  0.00000000000E+00  0.00000000000E+00  0.72908961944E+03  0.72908961946E+03  0.50400001928E-02 0. -1.
        1   -1    0    0  501    0  0.00000000000E+00  0.00000000000E+00 -0.98839693606E+03  0.98839693608E+03  0.50400001928E-02 0.  1.
    10030    2    1    2    0    0  0.00000000000E+00  0.00000000000E+00 -0.25930731662E+03  0.17174865555E+04  0.16977985110E+04 0.  0.
        5    1    3    3  502    0 -0.50115604092E+03  0.14300041928E+03  0.54819232256E+03  0.75640161936E+03  0.46999998093E+01 0. -1.
       -5    1    3    3    0  502  0.50115604092E+03 -0.14300041928E+03 -0.80749963918E+03  0.96108493617E+03  0.46999998093E+01 0.  1.
</event>
<event>
 5   0  0.1234158E-04  0.1709255E+04  0.7818609E-02  0.8756104E-01
       -1   -1    0    0    0  501  0.00000000000E+00  0.00000000000E+00  0.98960436024E+03  0.98960436025E+03  0.50400001928E-02 0. -1.
        1   -1    0    0  501    0  0.00000000000E+00  0.00000000000E+00 -0.73806036836E+03  0.73806036838E+03  0.50400001928E-02 0.  1.
    10030    2    1    2    0    0  0.00000000000E+00  0.00000000000E+00  0.25154399188E+03  0.17276647286E+04  0.17092545260E+04 0.  0.
        5    1    3    3  502    0  0.11220128852E+03  0.17034053364E+03  0.96462698052E+03  0.98596771149E+03  0.46999998093E+01 0. -1.
       -5    1    3    3    0  502 -0.11220128852E+03 -0.17034053364E+03 -0.71308298864E+03  0.74169701714E+03  0.46999998093E+01 0.  1.
</event>
<event>
 5   0  0.2234723E-04  0.1698922E+04  0.7818609E-02  0.8761979E-01
        2   -1    0    0  501    0  0.00000000000E+00  0.00000000000E+00  0.13169773335E+04  0.13169773335E+04  0.25500000920E-02 0. -1.
       -2   -1    0    0    0  501  0.00000000000E+00  0.00000000000E+00 -0.54790935946E+03  0.54790935946E+03  0.25500000920E-02 0.  1.
    10030    2    1    2    0    0  0.00000000000E+00  0.00000000000E+00  0.76906797408E+03  0.18648866930E+04  0.16989222551E+04 0.  0.
        1    1    3    3  502    0 -0.32544980008E+02  0.67864557533E+03 -0.17514185905E+03  0.70163641828E+03  0.50400001928E-02 0.  1.
       -1    1    3    3    0  502  0.32544980008E+02 -0.67864557533E+03  0.94420983313E+03  0.11632502747E+04  0.50400001928E-02 0. -1.
</event>
<event>
 5   0  0.1215233E-04  0.1787353E+04  0.7818609E-02  0.8713054E-01
       -1   -1    0    0    0  501  0.00000000000E+00  0.00000000000E+00  0.40177787706E+03  0.40177787709E+03  0.50400001928E-02 0.  1.
        1   -1    0    0  501    0  0.00000000000E+00  0.00000000000E+00 -0.19878083065E+04  0.19878083065E+04  0.50400001928E-02 0. -1.
    10030    2    1    2    0    0  0.00000000000E+00  0.00000000000E+00 -0.15860304294E+04  0.23895861836E+04  0.17873526808E+04 0.  0.
        2    1    3    3  502    0  0.53506229781E+03 -0.62495008345E+03 -0.12596119228E+04  0.15044854487E+04  0.25500000920E-02 0.  1.
       -2    1    3    3    0  502 -0.53506229781E+03  0.62495008345E+03 -0.32641850659E+03  0.88510073483E+03  0.25500000920E-02 0. -1.
</event>
<event>
 5   0  0.2224454E-04  0.1696788E+04  0.7818609E-02  0.8763199E-01
        2   -1    0    0  501    0  0.00000000000E+00  0.00000000000E+00  0.87369383855E+03  0.87369383856E+03  0.25500000920E-02 0.  1.
       -2   -1    0    0    0  501  0.00000000000E+00  0.00000000000E+00 -0.82382658888E+03  0.82382658888E+03  0.25500000920E-02 0. -1.
    10030    2    1    2    0    0  0.00000000000E+00  0.00000000000E+00  0.49867249675E+02  0.16975204274E+04  0.16967878061E+04 0.  0.
        2    1    3    3  502    0  0.13349764928E+03  0.83762487300E+03  0.43249028267E+02  0.84929825661E+03  0.25500000920E-02 0.  1.
       -2    1    3    3    0  502 -0.13349764928E+03 -0.83762487300E+03  0.66182214082E+01  0.84822217083E+03  0.25500000920E-02 0. -1.
</event>
<event>
 5   0  0.1204741E-04  0.1689868E+04  0.7818609E-02  0.8767164E-01
        1   -1    0    0  501    0  0.00000000000E+00  0.00000000000E+00  0.59416464454E+03  0.59416464456E+03  0.50400001928E-02 0. -1.
       -1   -1    0    0    0  501  0.00000000000E+00  0.00000000000E+00 -0.12015410876E+04  0.12015410876E+04  0.50400001928E-02 0.  1.
    10030    2    1    2    0    0  0.00000000000E+00  0.00000000000E+00 -0.60737644309E+03  0.17957057322E+04  0.16898677265E+04 0.  0.
        1    1    3    3  502    0  0.18843027840E+03 -0.30390032877E+03 -0.11171749633E+04  0.11730052337E+04  0.50400001928E-02 0.  1.
       -1    1    3    3    0  502 -0.18843027840E+03  0.30390032877E+03  0.50979852019E+03  0.62270049852E+03  0.50400001928E-02 0. -1.
</event>
<event>
 5   0  0.2242967E-04  0.1727972E+04  0.7818609E-02  0.8745570E-01
       -2   -1    0    0    0  501  0.00000000000E+00  0.00000000000E+00  0.42954630468E+03  0.42954630468E+03  0.25500000920E-02 0.  1.
        2   -1    0    0  501    0  0.00000000000E+00  0.00000000000E+00 -0.17378147134E+04  0.17378147134E+04  0.25500000920E-02 0. -1.
    10030    2    1    2    0    0  0.00000000000E+00  0.00000000000E+00 -0.13082684088E+04  0.21673610181E+04  0.17279720928E+04 0.  0.
        4    1    3    3  502    0 -0.61773360716E+03 -0.41066804861E+03 -0.12097494568E+04  0.14190625133E+04  0.12699999809E+01 0. -1.
       -4    1    3    3    0  502  0.61773360716E+03  0.41066804861E+03 -0.98518952014E+02  0.74829850486E+03  0.12699999809E+01 0.  1.
</event>
<event>
 5   0  0.1126958E-04  0.1718592E+04  0.7818609E-02  0.8750831E-01
       -1   -1    0    0    0  501  0.00000000000E+00  0.00000000000E+00  0.10883721846E+04  0.10883721846E+04  0.50400001928E-02 0.  1.
        1   -1    0    0  501    0  0.00000000000E+00  0.00000000000E+00 -0.67843476762E+03  0.67843476764E+03  0.50400001928E-02 0. -1.
    10030    2    1    2    0    0  0.00000000000E+00  0.00000000000E+00  0.40993741699E+03  0.17668069523E+04  0.17185919006E+04 0.  0.
        4    1    3    3  502    0 -0.36803124709E+03 -0.62155848242E+02  0.10006843006E+04  0.10680266994E+04  0.12699999809E+01 0.  1.
       -4    1    3    3    0  502  0.36803124709E+03  0.62155848242E+02 -0.59074688364E+03  0.69878025282E+03  0.12699999809E+01 0. -1.
</event>
<event>
 5   0  0.2356829E-04  0.1751197E+04  0.7818609E-02  0.8732692E-01
       -2   -1    0    0    0  501  0.00000000000E+00  0.00000000000E+00  0.67295280171E+03  0.67295280172E+03  0.25500000920E-02 0.  1.
        2   -1    0    0  501    0  0.00000000000E+00  0.00000000000E+00 -0.11392671463E+04  0.11392671463E+04  0.25500000920E-02 0. -1.
    10030    2    1    2    0    0  0.00000000000E+00  0.00000000000E+00 -0.46631434457E+03  0.18122199480E+04  0.17511973253E+04 0.  0.
        5    1    3    3  502    0 -0.64021933429E+02  0.17165360252E+03  0.65288343902E+03  0.67811698266E+03  0.46999998093E+01 0.  1.
       -5    1    3    3    0  502  0.64021933429E+02 -0.17165360252E+03 -0.11191977836E+04  0.11341029653E+04  0.46999998093E+01 0. -1.
</event>
<event>
 5   0  0.1126958E-04  0.1685308E+04  0.7818609E-02  0.8769788E-01
       -1   -1    0    0    0  501  0.00000000000E+00  0.00000000000E+00  0.45695966097E+03  0.45695966100E+03  0.50400001928E-02 0. -1.
        1   -1    0    0  501    0  0.00000000000E+00  0.00000000000E+00 -0.15538917391E+04  0.15538917391E+04  0.50400001928E-02 0.  1.
    10030    2    1    2    0    0  0.00000000000E+00  0.00000000000E+00 -0.10969320782E+04  0.20108514001E+04  0.16853080933E+04 0.  0.
        4    1    3    3  502    0  0.51918898479E+03  0.26210254660E+03  0.17908051076E+03  0.60854448407E+03  0.12699999809E+01 0. -1.
       -4    1    3    3    0  502 -0.51918898479E+03 -0.26210254660E+03 -0.12760125889E+04  0.14023069161E+04  0.12699999809E+01 0.  1.
</event>
<event>
 5   0  0.1234158E-04  0.1696491E+04  0.7818609E-02  0.8763368E-01
       -1   -1    0    0    0  501  0.00000000000E+00  0.00000000000E+00  0.77431739997E+03  0.77431739998E+03  0.50400001928E-02 0.  1.
        1   -1    0    0  501    0  0.00000000000E+00  0.00000000000E+00 -0.92923149499E+03  0.92923149501E+03  0.50400001928E-02 0. -1.
    10030    2    1    2    0    0  0.00000000000E+00  0.00000000000E+00 -0.15491409503E+03  0.17035488950E+04  0.16964906309E+04 0.  0.
        5    1    3    3  502    0 -0.56913925986E+03  0.35390024538E+03 -0.59955595638E+03  0.89925208680E+03  0.46999998093E+01 0. -1.
       -5    1    3    3    0  502  0.56913925986E+03 -0.35390024538E+03  0.44464186135E+03  0.80429680819E+03  0.46999998093E+01 0.  1.
</event>
<event>
 5   0  0.2234723E-04  0.1700880E+04  0.7818609E-02  0.8760862E-01
       -2   -1    0    0    0  501  0.00000000000E+00  0.00000000000E+00  0.53648559283E+03  0.53648559284E+03  0.25500000920E-02 0.  1.
        2   -1    0    0  501    0  0.00000000000E+00  0.00000000000E+00 -0.13481228241E+04  0.13481228241E+04  0.25500000920E-02 0. -1.
    10030    2    1    2    0    0  0.00000000000E+00  0.00000000000E+00 -0.81163723126E+03  0.18846084169E+04  0.17008803280E+04 0.  0.
        1    1    3    3  502    0 -0.24559894214E+03  0.66288610426E+03  0.11801992222E+03  0.71670463210E+03  0.50400001928E-02 0.  1.
       -1    1    3    3    0  502  0.24559894214E+03 -0.66288610426E+03 -0.92965715348E+03  0.11679037848E+04  0.50400001928E-02 0. -1.
</event>
<event>
 5   0  0.1186302E-04  0.1696473E+04  0.7818609E-02  0.8763378E-01
        1   -1    0    0  501    0  0.00000000000E+00  0.00000000000E+00  0.87435532680E+03  0.87435532681E+03  0.50400001928E-02 0. -1.
       -1   -1    0    0    0  501  0.00000000000E+00  0.00000000000E+00 -0.82289816490E+03  0.82289816492E+03  0.50400001928E-02 0.  1.
    10030    2    1    2    0    0  0.00000000000E+00  0.00000000000E+00  0.51457161895E+02  0.16972534917E+04  0.16964732758E+04 0.  0.
        3    1    3    3  502    0 -0.54809708688E+02 -0.36359709709E+03  0.79047428849E+03  0.87181222987E+03  0.10100000352E+00 0. -1.
       -3    1    3    3    0  502  0.54809708688E+02  0.36359709709E+03 -0.73901712660E+03  0.82544126186E+03  0.10100000352E+00 0.  1.
</event>
<event>
 5   0  0.2234723E-04  0.1684356E+04  0.7818609E-02  0.8770337E-01
        2   -1    0    0  501    0  0.00000000000E+00  0.00000000000E+00  0.19896668884E+04  0.19896668884E+04  0.25500000920E-02 0. -1.
       -2   -1    0    0    0  501  0.00000000000E+00  0.00000000000E+00 -0.35647354331E+03  0.35647354332E+03  0.25500000920E-02 0.  1.
    10030    2    1    2    0    0  0.00000000000E+00  0.00000000000E+00  0.16331933451E+04  0.23461404317E+04  0.16843557887E+04 0.  0.
        1    1    3    3  502    0  0.73285633249E+02  0.21048340726E+03 -0.31464932578E+03  0.38558818319E+03  0.50400001928E-02 0.  1.
       -1    1    3    3    0  502 -0.73285633249E+02 -0.21048340726E+03  0.19478426709E+04  0.19605522485E+04  0.50400001928E-02 0. -1.
</event>
<event>
 5   0  0.1186302E-04  0.1514361E+04  0.7818609E-02  0.8874959E-01
       -1   -1    0    0    0  501  0.00000000000E+00  0.00000000000E+00  0.46146360448E+03  0.46146360451E+03  0.50400001928E-02 0. -1.
        1   -1    0    0  501    0  0.00000000000E+00  0.00000000000E+00 -0.12423996987E+04  0.12423996987E+04  0.50400001928E-02 0.  1.
    10030    2    1    2    0    0  0.00000000000E+00  0.00000000000E+00 -0.78093609424E+03  0.17038633032E+04  0.15143609123E+04 0.  0.
        3    1    3    3  502    0  0.22112234859E+03 -0.51089053885E+03  0.18700016131E+03  0.58725914745E+03  0.10100000352E+00 0. -1.
       -3    1    3    3    0  502 -0.22112234859E+03  0.51089053885E+03 -0.96793625555E+03  0.11166041558E+04  0.10100000352E+00 0.  1.
</event>
<event>
 5   0  0.1234158E-04  0.1678248E+04  0.7818609E-02  0.8773868E-01
        1   -1    0    0  501    0  0.00000000000E+00  0.00000000000E+00  0.12076934147E+04  0.12076934147E+04  0.50400001928E-02 0. -1.
       -1   -1    0    0    0  501  0.00000000000E+00  0.00000000000E+00 -0.58303629006E+03  0.58303629008E+03  0.50400001928E-02 0.  1.
    10030    2    1    2    0    0  0.00000000000E+00  0.00000000000E+00  0.62465712465E+03  0.17907297048E+04  0.16782480008E+04 0.  0.
        5    1    3    3  502    0 -0.12203437267E+03 -0.21157338296E+03 -0.54425346114E+03  0.59656483675E+03  0.46999998093E+01 0.  1.
       -5    1    3    3    0  502  0.12203437267E+03  0.21157338296E+03  0.11689105858E+04  0.11941648680E+04  0.46999998093E+01 0. -1.
</event>
<event>
 5   0  0.2242967E-04  0.1698181E+04  0.7818609E-02  0.8762402E-01
       -2   -1    0    0    0  501  0.00000000000E+00  0.00000000000E+00  0.99232955131E+03  0.99232955132E+03  0.25500000920E-02 0.  1.
        2   -1    0    0  501    0  0.00000000000E+00  0.00000000000E+00 -0.72652765320E+03  0.72652765320E+03  0.25500000920E-02 0. -1.
    10030    2    1    2    0    0  0.00000000000E+00  0.00000000000E+00  0.26580189812E+03  0.17188572045E+04  0.16981812154E+04 0.  0.
        4    1    3    3  502    0 -0.71726612661E+03  0.30646764094E+03  0.47248561444E+03  0.91194154423E+03  0.12699999809E+01 0.  1.
       -4    1    3    3    0  502  0.71726612661E+03 -0.30646764094E+03 -0.20668371633E+03  0.80691566029E+03  0.12699999809E+01 0. -1.
</event>
<event>
 5   0  0.2224454E-04  0.1583901E+04  0.7818609E-02  0.8830500E-01
        2   -1    0    0  501    0  0.00000000000E+00  0.00000000000E+00  0.82525218673E+03  0.82525218674E+03  0.25500000920E-02 0. -1.
       -2   -1    0    0    0  501  0.00000000000E+00  0.00000000000E+00 -0.75999228462E+03  0.75999228462E+03  0.25500000920E-02 0.  1.
    10030    2    1    2    0    0  0.00000000000E+00  0.00000000000E+00  0.65259902115E+02  0.15852444714E+04  0.15839006216E+04 0.  0.
        2    1    3    3  502    0 -0.32522198736E+03  0.53184549690E+03 -0.45620672500E+03  0.77249825215E+03  0.25500000920E-02 0.  1.
       -2    1    3    3    0  502  0.32522198736E+03 -0.53184549690E+03  0.52146662712E+03  0.81274621921E+03  0.25500000920E-02 0. -1.
</event>
<event>
 5   0  0.1126958E-04  0.1679186E+04  0.7818609E-02  0.8773325E-01
        1   -1    0    0  501    0  0.00000000000E+00  0.00000000000E+00  0.12092751390E+04  0.12092751390E+04  0.50400001928E-02 0.  1.
       -1   -1    0    0    0  501  0.00000000000E+00  0.00000000000E+00 -0.58292443476E+03  0.58292443479E+03  0.50400001928E-02 0. -1.
    10030    2    1    2    0    0  0.00000000000E+00  0.00000000000E+00  0.62635070422E+03  0.17921995738E+04  0.16791855489E+04 0.  0.
        4    1    3    3  502    0  0.50760550729E+03  0.53706658525E+03 -0.11215595531E+03  0.74745196450E+03  0.12699999809E+01 0. -1.
       -4    1    3    3    0  502 -0.50760550729E+03 -0.53706658525E+03  0.73850665953E+03  0.10447476093E+04  0.12699999809E+01 0.  1.
</event>
<event>
 5   0  0.2356829E-04  0.1693539E+04  0.7818609E-02  0.8765058E-01
       -2   -1    0    0    0  501  0.00000000000E+00  0.00000000000E+00  0.71374977590E+03  0.71374977590E+03  0.25500000920E-02 0. -1.
        2   -1    0    0  501    0  0.00000000000E+00  0.00000000000E+00 -0.10045801678E+04  0.10045801678E+04  0.25500000920E-02 0.  1.
    10030    2    1    2    0    0  0.00000000000E+00  0.00000000000E+00 -0.29083039194E+03  0.17183299437E+04  0.16935393349E+04 0.  0.
        5    1    3    3  502    0 -0.62003467117E+03 -0.37242252862E+03 -0.59215026836E+03  0.93477567555E+03  0.46999998093E+01 0.  1.
       -5    1    3    3    0  502  0.62003467117E+03  0.37242252862E+03  0.30131987642E+03  0.78355426819E+03  0.46999998093E+01 0. -1.
</event>
<event>
 5   0  0.1204741E-04  0.1709135E+04  0.7818609E-02  0.8756172E-01
        1   -1    0    0  501    0  0.00000000000E+00  0.00000000000E+00  0.84961131940E+03  0.84961131941E+03  0.50400001928E-02 0. -1.
       -1   -1    0    0    0  501  0.00000000000E+00  0.00000000000E+00 -0.85955245065E+03  0.85955245066E+03  0.50400001928E-02 0.  1.
    10030    2    1    2    0    0  0.00000000000E+00  0.00000000000E+00 -0.99411312507E+01  0.17091637701E+04  0.17091348592E+04 0.  0.
        1    1    3    3  502    0 -0.18363957824E+03  0.42545228146E+03  0.71306132434E+03  0.85040554490E+03  0.50400001928E-02 0. -1.
       -1    1    3    3    0  502  0.18363957824E+03 -0.42545228146E+03 -0.72300245559E+03  0.85875822518E+03  0.50400001928E-02 0.  1.
</event>
<event>
 5   0  0.2242967E-04  0.1700637E+04  0.7818609E-02  0.8761001E-01
        2   -1    0    0  501    0  0.00000000000E+00  0.00000000000E+00  0.82613757774E+03  0.82613757775E+03  0.25500000920E-02 0.  1.
       -2   -1    0    0    0  501  0.00000000000E+00  0.00000000000E+00 -0.87520704542E+03  0.87520704543E+03  0.25500000920E-02 0. -1.
    10030    2    1    2    0    0  0.00000000000E+00  0.00000000000E+00 -0.49069467679E+02  0.17013446232E+04  0.17006368555E+04 0.  0.
        4    1    3    3  502    0  0.83719510175E+02  0.62413073449E+03 -0.59616704521E+03  0.86715909083E+03  0.12699999809E+01 0. -1.
       -4    1    3    3    0  502 -0.83719510175E+02 -0.62413073449E+03  0.54709757753E+03  0.83418553234E+03  0.12699999809E+01 0.  1.
</event>
<event>
 5   0  0.1215233E-04  0.1692458E+04  0.7818609E-02  0.8765678E-01
        1   -1    0    0  501    0  0.00000000000E+00  0.00000000000E+00  0.15441762121E+04  0.15441762121E+04  0.50400001928E-02 0.  1.
       -1   -1    0    0    0  501  0.00000000000E+00  0.00000000000E+00 -0.46374468827E+03  0.46374468830E+03  0.50400001928E-02 0. -1.
    10030    2    1    2    0    0  0.00000000000E+00  0.00000000000E+00  0.10804315239E+04  0.20079209004E+04  0.16924579949E+04 0.  0.
        2    1    3    3  502    0 -0.38987334278E+03  0.66165252780E+03  0.96187508686E+03  0.12308488834E+04  0.25500000920E-02 0.  1.
       -2    1    3    3    0  502  0.38987334278E+03 -0.66165252780E+03  0.11855643700E+03  0.77707201707E+03  0.25500000920E-02 0. -1.
</event>
<event>
 5   0  0.1215233E-04  0.1700977E+04  0.7818609E-02  0.8760807E-01
       -1   -1    0    0    0  501  0.00000000000E+00  0.00000000000E+00  0.98925284009E+03  0.98925284010E+03  0.50400001928E-02 0. -1.
        1   -1    0    0  501    0  0.00000000000E+00  0.00000000000E+00 -0.73118923770E+03  0.73118923772E+03  0.50400001928E-02 0.  1.
    10030    2    1    2    0    0  0.00000000000E+00  0.00000000000E+00  0.25806360238E+03  0.17204420778E+04  0.17009774015E+04 0.  0.
        2    1    3    3  502    0 -0.45427488508E+03  0.71674198174E+03  0.71403582017E+02  0.85157689678E+03  0.25500000920E-02 0. -1.
       -2    1    3    3    0  502  0.45427488508E+03 -0.71674198174E+03  0.18666002037E+03  0.86886518103E+03  0.25500000920E-02 0.  1.
</event>
<event>
 5   0  0.2224454E-04  0.1695322E+04  0.7818609E-02  0.8764037E-01
        2   -1    0    0  501    0  0.00000000000E+00  0.00000000000E+00  0.70477348542E+03  0.70477348543E+03  0.25500000920E-02 0. -1.
       -2   -1    0    0    0  501  0.00000000000E+00  0.00000000000E+00 -0.10195183487E+04  0.10195183487E+04  0.25500000920E-02 0.  1.
    10030    2    1    2    0    0  0.00000000000E+00  0.00000000000E+00 -0.31474486330E+03  0.17242918342E+04  0.16953223883E+04 0.  0.
        2    1    3    3  502    0  0.39400267003E+03  0.69326387915E+03  0.13507630661E+03  0.80876357406E+03  0.25500000920E-02 0. -1.
       -2    1    3    3    0  502 -0.39400267003E+03 -0.69326387915E+03 -0.44982116991E+03  0.91552826009E+03  0.25500000920E-02 0.  1.
</event>
<event>
 5   0  0.1234158E-04  0.1703138E+04  0.7818609E-02  0.8759577E-01
       -1   -1    0    0    0  501  0.00000000000E+00  0.00000000000E+00  0.70420391977E+03  0.70420391978E+03  0.50400001928E-02 0. -1.
        1   -1    0    0  501    0  0.00000000000E+00  0.00000000000E+00 -0.10297726219E+04  0.10297726219E+04  0.50400001928E-02 0.  1.
    10030    2    1    2    0    0  0.00000000000E+00  0.00000000000E+00 -0.32556870211E+03  0.17339765417E+04  0.17031381821E+04 0.  0.
        5    1    3    3  502    0 -0.24291436244E+03  0.55288930441E+03  0.44846466152E+03  0.75222111978E+03  0.46999998093E+01 0. -1.
       -5    1    3    3    0  502  0.24291436244E+03 -0.55288930441E+03 -0.77403336363E+03  0.98175542189E+03  0.46999998093E+01 0.  1.
</event>
<event>
 5   0  0.1126958E-04  0.1599198E+04  0.7818609E-02  0.8821041E-01
        1   -1    0    0  501    0  0.00000000000E+00  0.00000000000E+00  0.25081584232E+04  0.25081584232E+04  0.50400001928E-02 0.  1.
       -1   -1    0    0    0  501  0.00000000000E+00  0.00000000000E+00 -0.25491165348E+03  0.25491165353E+03  0.50400001928E-02 0. -1.
    10030    2    1    2    0    0  0.00000000000E+00  0.00000000000E+00  0.22532467697E+04  0.27630700767E+04  0.15991983128E+04 0.  0.
        4    1    3    3  502    0  0.13418759046E+03 -0.51571863411E+03  0.96618622567E+02  0.54157990188E+03  0.12699999809E+01 0. -1.
       -4    1    3    3    0  502 -0.13418759046E+03  0.51571863411E+03  0.21566281472E+04  0.22214901749E+04  0.12699999809E+01 0.  1.
</event>
<event>
 5   0  0.1234158E-04  0.1706104E+04  0.7818609E-02  0.8757891E-01
        1   -1    0    0  501    0  0.00000000000E+00  0.00000000000E+00  0.72159161697E+03  0.72159161698E+03  0.50400001928E-02 0. -1.
       -1   -1    0    0    0  501  0.00000000000E+00  0.00000000000E+00 -0.10084614897E+04  0.10084614898E+04  0.50400001928E-02 0.  1.
    10030    2    1    2    0    0  0.00000000000E+00  0.00000000000E+00 -0.28686987278E+03  0.17300531067E+04  0.17061035807E+04 0.  0.
        5    1    3    3  502    0 -0.18900176860E+03 -0.22362434692E+03 -0.95589721074E+03  0.99974550990E+03  0.46999998093E+01 0.  1.
       -5    1    3    3    0  502  0.18900176860E+03  0.22362434692E+03  0.66902733796E+03  0.73030759684E+03  0.46999998093E+01 0. -1.
</event>
<event>
 5   0  0.2224454E-04  0.1690150E+04  0.7818609E-02  0.8767002E-01
       -2   -1    0    0    0  501  0.00000000000E+00  0.00000000000E+00  0.56748417762E+03  0.56748417763E+03  0.25500000920E-02 0. -1.
        2   -1    0    0  501    0  0.00000000000E+00  0.00000000000E+00 -0.12584522429E+04  0.12584522429E+04  0.25500000920E-02 0.  1.
    10030    2    1    2    0    0  0.00000000000E+00  0.00000000000E+00 -0.69096806529E+03  0.18259364205E+04  0.16901499770E+04 0.  0.
        2    1    3    3  502    0  0.25593481655E+03  0.46422528494E+03 -0.10564954164E+04  0.11820280498E+04  0.25500000920E-02 0.  1.
       -2    1    3    3    0  502 -0.25593481655E+03 -0.46422528494E+03  0.36552735115E+03  0.64390837077E+03  0.25500000920E-02 0. -1.
</event>
<event>
 5   0  0.2224454E-04  0.1664136E+04  0.7818609E-02  0.8782087E-01
       -2   -1    0    0    0  501  0.00000000000E+00  0.00000000000E+00  0.73638824026E+03  0.73638824026E+03  0.25500000920E-02 0. -1.
        2   -1    0    0  501    0  0.00000000000E+00  0.00000000000E+00 -0.94017954461E+03  0.94017954461E+03  0.25500000920E-02 0.  1.
    10030    2    1    2    0    0  0.00000000000E+00  0.00000000000E+00 -0.20379130435E+03  0.16765677849E+04  0.16641360045E+04 0.  0.
        2    1    3    3  502    0 -0.45176482961E+03 -0.36921885604E+03 -0.69955843029E+03  0.91093140374E+03  0.25500000920E-02 0.  1.
       -2    1    3    3    0  502  0.45176482961E+03  0.36921885604E+03  0.49576712594E+03  0.76563638113E+03  0.25500000920E-02 0. -1.
</event>
<event>
 5   0  0.1204741E-04  0.1671081E+04  0.7818609E-02  0.8778032E-01
       -1   -1    0    0    0  501  0.00000000000E+00  0.00000000000E+00  0.25263583598E+03  0.25263583603E+03  0.50400001928E-02 0. -1.
        1   -1    0    0  501    0  0.00000000000E+00  0.00000000000E+00 -0.27633777979E+04  0.27633777979E+04  0.50400001928E-02 0.  1.
    10030    2    1    2    0    0  0.00000000000E+00  0.00000000000E+00 -0.25107419620E+04  0.30160136340E+04  0.16710813986E+04 0.  0.
        1    1    3    3  502    0  0.26664099490E+03  0.41691531037E+03 -0.40342052775E+02  0.49653124517E+03  0.50400001928E-02 0. -1.
       -1    1    3    3    0  502 -0.26664099490E+03 -0.41691531037E+03 -0.24703999092E+04  0.25194823888E+04  0.50400001928E-02 0.  1.
</event>
<event>
 5   0  0.2288806E-04  0.1695556E+04  0.7818609E-02  0.8763903E-01
        2   -1    0    0  501    0  0.00000000000E+00  0.00000000000E+00  0.91291527241E+03  0.91291527241E+03  0.25500000920E-02 0.  1.
       -2   -1    0    0    0  501  0.00000000000E+00  0.00000000000E+00 -0.78728800330E+03  0.78728800330E+03  0.25500000920E-02 0. -1.
    10030    2    1    2    0    0  0.00000000000E+00  0.00000000000E+00  0.12562726910E+03  0.17002032757E+04  0.16955556517E+04 0.  0.
        3    1    3    3  502    0  0.67619721559E+03 -0.21470257252E+03 -0.40255692912E+03  0.81571561245E+03  0.10100000352E+00 0. -1.
       -3    1    3    3    0  502 -0.67619721559E+03  0.21470257252E+03  0.52818419822E+03  0.88448766326E+03  0.10100000352E+00 0.  1.
</event>
<event>
 5   0  0.2288806E-04  0.1710227E+04  0.7818609E-02  0.8755553E-01
        2   -1    0    0  501    0  0.00000000000E+00  0.00000000000E+00  0.12854324500E+04  0.12854324500E+04  0.25500000920E-02 0.  1.
       -2   -1    0    0    0  501  0.00000000000E+00  0.00000000000E+00 -0.56885045289E+03  0.56885045290E+03  0.25500000920E-02 0. -1.
    10030    2    1    2    0    0  0.00000000000E+00  0.00000000000E+00  0.71658199710E+03  0.18542829029E+04  0.17102266883E+04 0.  0.
        3    1    3    3  502    0 -0.65178249462E+02  0.27478553099E+03 -0.51682851589E+03  0.58895417248E+03  0.10100000352E+00 0. -1.
       -3    1    3    3    0  502  0.65178249462E+02 -0.27478553099E+03  0.12334105130E+04  0.12653287304E+04  0.10100000352E+00 0.  1.
</event>
<event>
 5   0  0.2242967E-04  0.1691197E+04  0.7818609E-02  0.8766401E-01
       -2   -1    0    0    0  501  0.00000000000E+00  0.00000000000E+00  0.48588733600E+03  0.48588733600E+03  0.25500000920E-02 0. -1.
        2   -1    0    0  501    0  0.00000000000E+00  0.00000000000E+00 -0.14716108384E+04  0.14716108384E+04  0.25500000920E-02 0.  1.
    10030    2    1    2    0    0  0.00000000000E+00  0.00000000000E+00 -0.98572350240E+03  0.19574981744E+04  0.16911972917E+04 0.  0.
        4    1    3    3  502    0 -0.76067415282E+03  0.97834036559E+02 -0.90508562387E+03  0.11863297454E+04  0.12699999809E+01 0.  1.
       -4    1    3    3    0  502  0.76067415282E+03 -0.97834036559E+02 -0.80637878531E+02  0.77116842896E+03  0.12699999809E+01 0. -1.
</event>
<event>
 5   0  0.1126958E-04  0.1709180E+04  0.7818609E-02  0.8756146E-01
        1   -1    0    0  501    0  0.00000000000E+00  0.00000000000E+00  0.17220235306E+04  0.17220235306E+04  0.50400001928E-02 0. -1.
       -1   -1    0    0    0  501  0.00000000000E+00  0.00000000000E+00 -0.42410826013E+03  0.42410826016E+03  0.50400001928E-02 0.  1.
    10030    2    1    2    0    0  0.00000000000E+00  0.00000000000E+00  0.12979152705E+04  0.21461317908E+04  0.17091803925E+04 0.  0.
        4    1    3    3  502    0 -0.12448783652E+03 -0.74426962051E+03  0.14530545442E+03  0.76847236609E+03  0.12699999809E+01 0.  1.
       -4    1    3    3    0  502  0.12448783652E+03  0.74426962051E+03  0.11526098161E+04  0.13776594247E+04  0.12699999809E+01 0. -1.
</event>
<event>
 5   0  0.1126958E-04  0.1703945E+04  0.7818609E-02  0.8759118E-01
        1   -1    0    0  501    0  0.00000000000E+00  0.00000000000E+00  0.14587473658E+04  0.14587473658E+04  0.50400001928E-02 0. -1.
       -1   -1    0    0    0  501  0.00000000000E+00  0.00000000000E+00 -0.49758929632E+03  0.49758929635E+03  0.50400001928E-02 0.  1.
    10030    2    1    2    0    0  0.00000000000E+00  0.00000000000E+00  0.96115806951E+03  0.19563366622E+04  0.17039449232E+04 0.  0.
        4    1    3    3  502    0  0.27951625677E+03  0.66006792945E+03  0.10092595521E+04  0.12379117358E+04  0.12699999809E+01 0. -1.
       -4    1    3    3    0  502 -0.27951625677E+03 -0.66006792945E+03 -0.48101482595E+02  0.71842492636E+03  0.12699999809E+01 0.  1.
</event>
<event>
 5   0  0.2356829E-04  0.1781693E+04  0.7818609E-02  0.8716096E-01
       -2   -1    0    0    0  501  0.00000000000E+00  0.00000000000E+00  0.53689643500E+03  0.53689643501E+03  0.25500000920E-02 0.  1.
        2   -1    0    0  501    0  0.00000000000E+00  0.00000000000E+00 -0.14781385010E+04  0.14781385010E+04  0.25500000920E-02 0. -1.
    10030    2    1    2    0    0  0.00000000000E+00  0.00000000000E+00 -0.94124206602E+03  0.20150349360E+04  0.17816927812E+04 0.  0.
        5    1    3    3  502    0  0.13745548724E+03 -0.88016534830E+03 -0.47105952247E+03  0.10077222906E+04  0.46999998093E+01 0. -1.
       -5    1    3    3    0  502 -0.13745548724E+03  0.88016534830E+03 -0.47018254355E+03  0.10073126454E+04  0.46999998093E+01 0.  1.
</event>
<event>
 5   0  0.1126958E-04  0.1701509E+04  0.7818609E-02  0.8760504E-01
        1   -1    0    0  501    0  0.00000000000E+00  0.00000000000E+00  0.66310688426E+03  0.66310688428E+03  0.50400001928E-02 0.  1.
       -1   -1    0    0    0  501  0.00000000000E+00  0.00000000000E+00 -0.10915031156E+04  0.10915031156E+04  0.50400001928E-02 0. -1.
    10030    2    1    2    0    0  0.00000000000E+00  0.00000000000E+00 -0.42839623133E+03  0.17546099999E+04  0.17015090128E+04 0.  0.
        4    1    3    3  502    0  0.12002723903E+03  0.22512177899E+03  0.62273088439E+03  0.67296487334E+03  0.12699999809E+01 0.  1.
       -4    1    3    3    0  502 -0.12002723903E+03 -0.22512177899E+03 -0.10511271157E+04  0.10816451265E+04  0.12699999809E+01 0. -1.
</event>
<event>
 5   0  0.2288806E-04  0.1799174E+04  0.7818609E-02  0.8706739E-01
        2   -1    0    0  501    0  0.00000000000E+00  0.00000000000E+00  0.24435432211E+04  0.24435432211E+04  0.25500000920E-02 0.  1.
       -2   -1    0    0    0  501  0.00000000000E+00  0.00000000000E+00 -0.33118153207E+03  0.33118153208E+03  0.25500000920E-02 0. -1.
    10030    2    1    2    0    0  0.00000000000E+00  0.00000000000E+00  0.21123616891E+04  0.27747247532E+04  0.17991735744E+04 0.  0.
        3    1    3    3  502    0  0.56048976080E+03 -0.38451700581E+03  0.14737597162E+03  0.69550110491E+03  0.10100000352E+00 0. -1.
       -3    1    3    3    0  502 -0.56048976080E+03  0.38451700581E+03  0.19649857174E+04  0.20792236483E+04  0.10100000352E+00 0.  1.
</event>
<event>
 5   0  0.2288806E-04  0.1703783E+04  0.7818609E-02  0.8759210E-01
       -2   -1    0    0    0  501  0.00000000000E+00  0.00000000000E+00  0.23578816573E+04  0.23578816573E+04  0.25500000920E-02 0.  1.
        2   -1    0    0  501    0  0.00000000000E+00  0.00000000000E+00 -0.30778426053E+03  0.30778426055E+03  0.25500000920E-02 0. -1.
    10030    2    1    2    0    0  0.00000000000E+00  0.00000000000E+00  0.20500973967E+04  0.26656659178E+04  0.17037826884E+04 0.  0.
        3    1    3    3  502    0  0.66602234770E+03  0.36141701076E+03  0.41605421989E+03  0.86447044334E+03  0.10100000352E+00 0. -1.
       -3    1    3    3    0  502 -0.66602234770E+03 -0.36141701076E+03  0.16340431769E+04  0.18011954745E+04  0.10100000352E+00 0.  1.
</event>
<event>
 5   0  0.1126958E-04  0.1676573E+04  0.7818609E-02  0.8774839E-01
        1   -1    0    0  501    0  0.00000000000E+00  0.00000000000E+00  0.17340995629E+04  0.17340995629E+04  0.50400001928E-02 0. -1.
       -1   -1    0    0    0  501  0.00000000000E+00  0.00000000000E+00 -0.40523884607E+03  0.40523884610E+03  0.50400001928E-02 0.  1.
    10030    2    1    2    0    0  0.00000000000E+00  0.00000000000E+00  0.13288607169E+04  0.21393384090E+04  0.16765732980E+04 0.  0.
        4    1    3    3  502    0 -0.16633864666E+03 -0.82073163832E+03  0.71308541900E+03  0.10998915379E+04  0.12699999809E+01 0. -1.
       -4    1    3    3    0  502  0.16633864666E+03  0.82073163832E+03  0.61577529786E+03  0.10394468711E+04  0.12699999809E+01 0.  1.
</event>
<event>
 5   0  0.1186302E-04  0.1617700E+04  0.7818609E-02  0.8809748E-01
        1   -1    0    0  501    0  0.00000000000E+00  0.00000000000E+00  0.67289780567E+03  0.67289780568E+03  0.50400001928E-02 0. -1.
       -1   -1    0    0    0  501  0.00000000000E+00  0.00000000000E+00 -0.97226940472E+03  0.97226940473E+03  0.50400001928E-02 0.  1.
    10030    2    1    2    0    0  0.00000000000E+00  0.00000000000E+00 -0.29937159905E+03  0.16451672104E+04  0.16176995382E+04 0.  0.
        3    1    3    3  502    0 -0.58732900186E+03  0.55574898267E+03 -0.12870418941E+03  0.81876557496E+03  0.10100000352E+00 0. -1.
       -3    1    3    3    0  502  0.58732900186E+03 -0.55574898267E+03 -0.17066740964E+03  0.82640163546E+03  0.10100000352E+00 0.  1.
</event>
<event>
 5   0  0.1126958E-04  0.1770647E+04  0.7818609E-02  0.8722067E-01
        1   -1    0    0  501    0  0.00000000000E+00  0.00000000000E+00  0.57047754669E+03  0.57047754671E+03  0.50400001928E-02 0. -1.
       -1   -1    0    0    0  501  0.00000000000E+00  0.00000000000E+00 -0.13739330832E+04  0.13739330832E+04  0.50400001928E-02 0.  1.
    10030    2    1    2    0    0  0.00000000000E+00  0.00000000000E+00 -0.80345553650E+03  0.19444106299E+04  0.17706473106E+04 0.  0.
        4    1    3    3  502    0 -0.32962175287E+03  0.54694542319E+03 -0.10750886172E+04  0.12504466976E+04  0.12699999809E+01 0.  1.
       -4    1    3    3    0  502  0.32962175287E+03 -0.54694542319E+03  0.27163308066E+03  0.69396393230E+03  0.12699999809E+01 0. -1.
</event>
<event>
 5   0  0.2356829E-04  0.1719079E+04  0.7818609E-02  0.8750557E-01
        2   -1    0    0  501    0  0.00000000000E+00  0.00000000000E+00  0.13197597656E+04  0.13197597656E+04  0.25500000920E-02 0. -1.
       -2   -1    0    0    0  501  0.00000000000E+00  0.00000000000E+00 -0.55980510940E+03  0.55980510940E+03  0.25500000920E-02 0.  1.
    10030    2    1    2    0    0  0.00000000000E+00  0.00000000000E+00  0.75995465615E+03  0.18795648750E+04  0.17190791255E+04 0.  0.
        5    1    3    3  502    0  0.28026213714E+03  0.71777080836E+03  0.79637845218E+03  0.11081437307E+04  0.46999998093E+01 0. -1.
       -5    1    3    3    0  502 -0.28026213714E+03 -0.71777080836E+03 -0.36423796030E+02  0.77142114423E+03  0.46999998093E+01 0.  1.
</event>
<event>
 5   0  0.1126958E-04  0.1684058E+04  0.7818609E-02  0.8770509E-01
        1   -1    0    0  501    0  0.00000000000E+00  0.00000000000E+00  0.12327357182E+04  0.12327357182E+04  0.50400001928E-02 0.  1.
       -1   -1    0    0    0  501  0.00000000000E+00  0.00000000000E+00 -0.57515422170E+03  0.57515422172E+03  0.50400001928E-02 0. -1.
    10030    2    1    2    0    0  0.00000000000E+00  0.00000000000E+00  0.65758149646E+03  0.18078899399E+04  0.16840583750E+04 0.  0.
        4    1    3    3  502    0 -0.63809926731E+03  0.51167795491E+03  0.54356827922E+03  0.98206572670E+03  0.12699999809E+01 0.  1.
       -4    1    3    3    0  502  0.63809926731E+03 -0.51167795491E+03  0.11401321724E+03  0.82582421319E+03  0.12699999809E+01 0. -1.
</event>
<event>
 5   0  0.1215233E-04  0.1682495E+04  0.7818609E-02  0.8771411E-01
        1   -1    0    0  501    0  0.00000000000E+00  0.00000000000E+00  0.17068405530E+04  0.17068405530E+04  0.50400001928E-02 0. -1.
       -1   -1    0    0    0  501  0.00000000000E+00  0.00000000000E+00 -0.41462437456E+03  0.41462437459E+03  0.50400001928E-02 0.  1.
    10030    2    1    2    0    0  0.00000000000E+00  0.00000000000E+00  0.12922161784E+04  0.21214649276E+04  0.16824954048E+04 0.  0.
        2    1    3    3  502    0  0.79570720696E+03  0.11085150181E+03  0.33148874675E+03  0.86909309277E+03  0.25500000920E-02 0. -1.
       -2    1    3    3    0  502 -0.79570720696E+03 -0.11085150181E+03  0.96072743166E+03  0.12523718348E+04  0.25500000920E-02 0.  1.
</event>
<event>
 5   0  0.1234158E-04  0.1675197E+04  0.7818609E-02  0.8775638E-01
       -1   -1    0    0    0  501  0.00000000000E+00  0.00000000000E+00  0.11983754472E+04  0.11983754472E+04  0.50400001928E-02 0.  1.
        1   -1    0    0  501    0  0.00000000000E+00  0.00000000000E+00 -0.58543537877E+03  0.58543537879E+03  0.50400001928E-02 0. -1.
    10030    2    1    2    0    0  0.00000000000E+00  0.00000000000E+00  0.61294006843E+03  0.17838108260E+04  0.16751971632E+04 0.  0.
        5    1    3    3  502    0 -0.82349800466E+03 -0.13679675874E+03  0.37937032778E+03  0.91695488029E+03  0.46999998093E+01 0. -1.
       -5    1    3    3    0  502  0.82349800466E+03  0.13679675874E+03  0.23356974065E+03  0.86685594572E+03  0.46999998093E+01 0.  1.
</event>
<event>
 5   0  0.2224454E-04  0.1685924E+04  0.7818609E-02  0.8769433E-01
       -2   -1    0    0    0  501  0.00000000000E+00  0.00000000000E+00  0.69400254964E+03  0.69400254965E+03  0.25500000920E-02 0. -1.
        2   -1    0    0  501    0  0.00000000000E+00  0.00000000000E+00 -0.10238941377E+04  0.10238941377E+04  0.25500000920E-02 0.  1.
    10030    2    1    2    0    0  0.00000000000E+00  0.00000000000E+00 -0.32989158805E+03  0.17178966873E+04  0.16859242476E+04 0.  0.
        2    1    3    3  502    0  0.63087396696E+03 -0.15840496791E+03 -0.71129604499E+03  0.96386521862E+03  0.25500000920E-02 0.  1.
       -2    1    3    3    0  502 -0.63087396696E+03  0.15840496791E+03  0.38140445693E+03  0.75403146872E+03  0.25500000920E-02 0. -1.
</event>
<event>
 5   0  0.2242967E-04  0.1689973E+04  0.7818609E-02  0.8767104E-01
       -2   -1    0    0    0  501  0.00000000000E+00  0.00000000000E+00  0.71185324752E+03  0.71185324752E+03  0.25500000920E-02 0.  1.
        2   -1    0    0  501    0  0.00000000000E+00  0.00000000000E+00 -0.10030187258E+04  0.10030187258E+04  0.25500000920E-02 0. -1.
    10030    2    1    2    0    0  0.00000000000E+00  0.00000000000E+00 -0.29116547827E+03  0.17148719733E+04  0.16899729433E+04 0.  0.
        4    1    3    3  502    0 -0.64564244288E+03 -0.71272249653E+02  0.40281154361E+03  0.76432496373E+03  0.12699999809E+01 0.  1.
       -4    1    3    3    0  502  0.64564244288E+03  0.71272249653E+02 -0.69397702188E+03  0.95054700958E+03  0.12699999809E+01 0. -1.
</event>
<event>
 5   0  0.2288806E-04  0.1692701E+04  0.7818609E-02  0.8765538E-01
        2   -1    0    0  501    0  0.00000000000E+00  0.00000000000E+00  0.10412485002E+04  0.10412485002E+04  0.25500000920E-02 0. -1.
       -2   -1    0    0    0  501  0.00000000000E+00  0.00000000000E+00 -0.68793326954E+03  0.68793326955E+03  0.25500000920E-02 0.  1.
    10030    2    1    2    0    0  0.00000000000E+00  0.00000000000E+00  0.35331523064E+03  0.17291817697E+04  0.16927013737E+04 0.  0.
        3    1    3    3  502    0  0.51007823033E+03  0.29671318100E+03  0.79643807344E+03  0.99122758631E+03  0.10100000352E+00 0. -1.
       -3    1    3    3    0  502 -0.51007823033E+03 -0.29671318100E+03 -0.44312284280E+03  0.73795418343E+03  0.10100000352E+00 0.  1.
</event>
<event>
 5   0  0.1126958E-04  0.1706303E+04  0.7818609E-02  0.8757777E-01
        1   -1    0    0  501    0  0.00000000000E+00  0.00000000000E+00  0.58022151452E+03  0.58022151454E+03  0.50400001928E-02 0.  1.
       -1   -1    0    0    0  501  0.00000000000E+00  0.00000000000E+00 -0.12544654203E+04  0.12544654204E+04  0.50400001928E-02 0. -1.
    10030    2    1    2    0    0  0.00000000000E+00  0.00000000000E+00 -0.67424390582E+03  0.18346869349E+04  0.17063034034E+04 0.  0.
        4    1    3    3  502    0 -0.14253454319E+03  0.72205180346E+03 -0.80108716167E+03  0.10878497858E+04  0.12699999809E+01 0. -1.
       -4    1    3    3    0  502  0.14253454319E+03 -0.72205180346E+03  0.12684325585E+03  0.74683714914E+03  0.12699999809E+01 0.  1.
</event>
<event>
 5   0  0.1186302E-04  0.1697358E+04  0.7818609E-02  0.8762873E-01
        1   -1    0    0  501    0  0.00000000000E+00  0.00000000000E+00  0.77558517686E+03  0.77558517688E+03  0.50400001928E-02 0.  1.
       -1   -1    0    0    0  501  0.00000000000E+00  0.00000000000E+00 -0.92866148363E+03  0.92866148365E+03  0.50400001928E-02 0. -1.
    10030    2    1    2    0    0  0.00000000000E+00  0.00000000000E+00 -0.15307630677E+03  0.17042466605E+04  0.16973580424E+04 0.  0.
        3    1    3    3  502    0 -0.28716417157E+03  0.12210013002E+03 -0.86897143081E+03  0.92330009257E+03  0.10100000352E+00 0. -1.
       -3    1    3    3    0  502  0.28716417157E+03 -0.12210013002E+03  0.71589512403E+03  0.78094656795E+03  0.10100000352E+00 0.  1.
</event>
<event>
 5   0  0.1234158E-04  0.1700320E+04  0.7818609E-02  0.8761182E-01
       -1   -1    0    0    0  501  0.00000000000E+00  0.00000000000E+00  0.42143548780E+03  0.42143548783E+03  0.50400001928E-02 0. -1.
        1   -1    0    0  501    0  0.00000000000E+00  0.00000000000E+00 -0.17150238232E+04  0.17150238232E+04  0.50400001928E-02 0.  1.
    10030    2    1    2    0    0  0.00000000000E+00  0.00000000000E+00 -0.12935883354E+04  0.21364593110E+04  0.17003198541E+04 0.  0.
        5    1    3    3  502    0 -0.41666325035E+02 -0.30284033487E+03  0.34997218642E+03  0.46470525318E+03  0.46999998093E+01 0. -1.
       -5    1    3    3    0  502  0.41666325035E+02  0.30284033487E+03 -0.16435605218E+04  0.16717540578E+04  0.46999998093E+01 0.  1.
</event>
<event>
 5   0  0.1234158E-04  0.1705870E+04  0.7818609E-02  0.8758024E-01
        1   -1    0    0  501    0  0.00000000000E+00  0.00000000000E+00  0.74552265626E+03  0.74552265628E+03  0.50400001928E-02 0. -1.
       -1   -1    0    0    0  501  0.00000000000E+00  0.00000000000E+00 -0.97582286796E+03  0.97582286797E+03  0.50400001928E-02 0.  1.
    10030    2    1    2    0    0  0.00000000000E+00  0.00000000000E+00 -0.23030021170E+03  0.17213455242E+04  0.17058699324E+04 0.  0.
        5    1    3    3  502    0 -0.65532857117E+03  0.15644828142E+03  0.41260935465E+03  0.79006339650E+03  0.46999998093E+01 0. -1.
       -5    1    3    3    0  502  0.65532857117E+03 -0.15644828142E+03 -0.64290956635E+03  0.93128212774E+03  0.46999998093E+01 0.  1.
</event>
<event>
 5   0  0.2224454E-04  0.1707489E+04  0.7818609E-02  0.8757105E-01
        2   -1    0    0  501    0  0.00000000000E+00  0.00000000000E+00  0.25030180254E+04  0.25030180254E+04  0.25500000920E-02 0.  1.
       -2   -1    0    0    0  501  0.00000000000E+00  0.00000000000E+00 -0.29120028396E+03  0.29120028397E+03  0.25500000920E-02 0. -1.
    10030    2    1    2    0    0  0.00000000000E+00  0.00000000000E+00  0.22118177414E+04  0.27942183094E+04  0.17074888694E+04 0.  0.
        2    1    3    3  502    0 -0.45234872826E+03 -0.34274282402E+03  0.21496343272E+04  0.22232902996E+04  0.25500000920E-02 0.  1.
       -2    1    3    3    0  502  0.45234872826E+03  0.34274282402E+03  0.62183414214E+02  0.57092800981E+03  0.25500000920E-02 0. -1.
</event>
<event>
 5   0  0.2224454E-04  0.1702584E+04  0.7818609E-02  0.8759892E-01
       -2   -1    0    0    0  501  0.00000000000E+00  0.00000000000E+00  0.48783337154E+03  0.48783337155E+03  0.25500000920E-02 0.  1.
        2   -1    0    0  501    0  0.00000000000E+00  0.00000000000E+00 -0.14855444484E+04  0.14855444484E+04  0.25500000920E-02 0. -1.
    10030    2    1    2    0    0  0.00000000000E+00  0.00000000000E+00 -0.99771107683E+03  0.19733778199E+04  0.17025841029E+04 0.  0.
        2    1    3    3  502    0  0.61695374401E+02  0.11468711619E+03 -0.14739308073E+04  0.14796727607E+04  0.25500000920E-02 0. -1.
       -2    1    3    3    0  502 -0.61695374401E+02 -0.11468711619E+03  0.47621973049E+03  0.49370505928E+03  0.25500000920E-02 0.  1.
</event>
<event>
 5   0  0.1186302E-04  0.1694595E+04  0.7818609E-02  0.8764453E-01
       -1   -1    0    0    0  501  0.00000000000E+00  0.00000000000E+00  0.32848120819E+03  0.32848120823E+03  0.50400001928E-02 0. -1.
        1   -1    0    0  501    0  0.00000000000E+00  0.00000000000E+00 -0.21855539394E+04  0.21855539395E+04  0.50400001928E-02 0.  1.
    10030    2    1    2    0    0  0.00000000000E+00  0.00000000000E+00 -0.18570727313E+04  0.25140351477E+04  0.16945954073E+04 0.  0.
        3    1    3    3  502    0 -0.78096793701E+03  0.30591130088E+03 -0.11066918437E+04  0.13886178343E+04  0.10100000352E+00 0. -1.
       -3    1    3    3    0  502  0.78096793701E+03 -0.30591130088E+03 -0.75038088760E+03  0.11254173134E+04  0.10100000352E+00 0.  1.
</event>
<event>
 5   0  0.1204741E-04  0.1695283E+04  0.7818609E-02  0.8764059E-01
       -1   -1    0    0    0  501  0.00000000000E+00  0.00000000000E+00  0.84583422472E+03  0.84583422473E+03  0.50400001928E-02 0. -1.
        1   -1    0    0  501    0  0.00000000000E+00  0.00000000000E+00 -0.84945237981E+03  0.84945237983E+03  0.50400001928E-02 0.  1.
    10030    2    1    2    0    0  0.00000000000E+00  0.00000000000E+00 -0.36181550969E+01  0.16952866046E+04  0.16952827435E+04 0.  0.
        1    1    3    3  502    0  0.68055960714E+03  0.21876934336E+03 -0.45730379288E+03  0.84861543910E+03  0.50400001928E-02 0.  1.
       -1    1    3    3    0  502 -0.68055960714E+03 -0.21876934336E+03  0.45368563779E+03  0.84667116546E+03  0.50400001928E-02 0. -1.
</event>
<event>
 5   0  0.2234723E-04  0.1750359E+04  0.7818609E-02  0.8733153E-01
        2   -1    0    0  501    0  0.00000000000E+00  0.00000000000E+00  0.38962256143E+03  0.38962256143E+03  0.25500000920E-02 0.  1.
       -2   -1    0    0    0  501  0.00000000000E+00  0.00000000000E+00 -0.19658480701E+04  0.19658480701E+04  0.25500000920E-02 0. -1.
    10030    2    1    2    0    0  0.00000000000E+00  0.00000000000E+00 -0.15762255087E+04  0.23554706315E+04  0.17503585466E+04 0.  0.
        1    1    3    3  502    0 -0.88237953234E+02  0.65605368510E+03 -0.17706800883E+02  0.66219778386E+03  0.50400001928E-02 0.  1.
       -1    1    3    3    0  502  0.88237953234E+02 -0.65605368510E+03 -0.15585187078E+04  0.16932728477E+04  0.50400001928E-02 0. -1.
</event>
<event>
 5   0  0.2356829E-04  0.1713337E+04  0.7818609E-02  0.8753794E-01
        2   -1    0    0  501    0  0.00000000000E+00  0.00000000000E+00  0.19881994717E+04  0.19881994717E+04  0.25500000920E-02 0. -1.
       -2   -1    0    0    0  501  0.00000000000E+00  0.00000000000E+00 -0.36911824146E+03  0.36911824147E+03  0.25500000920E-02 0.  1.
    10030    2    1    2    0    0  0.00000000000E+00  0.00000000000E+00  0.16190812302E+04  0.23573177131E+04  0.17133367359E+04 0.  0.
        5    1    3    3  502    0 -0.11550842198E+03 -0.28490409535E+03  0.19096690515E+04  0.19342622664E+04  0.46999998093E+01 0. -1.
       -5    1    3    3    0  502  0.11550842198E+03  0.28490409535E+03 -0.29058782130E+03  0.42305544670E+03  0.46999998093E+01 0.  1.
</event>
<event>
 5   0  0.1215233E-04  0.1681319E+04  0.7818609E-02  0.8772091E-01
       -1   -1    0    0    0  501  0.00000000000E+00  0.00000000000E+00  0.74294344290E+03  0.74294344291E+03  0.50400001928E-02 0. -1.
        1   -1    0    0  501    0  0.00000000000E+00  0.00000000000E+00 -0.95122774432E+03  0.95122774433E+03  0.50400001928E-02 0.  1.
    10030    2    1    2    0    0  0.00000000000E+00  0.00000000000E+00 -0.20828430142E+03  0.16941711872E+04  0.16813190243E+04 0.  0.
        2    1    3    3  502    0 -0.46503182118E+03  0.56280058797E+03  0.31582828902E+03  0.79545370995E+03  0.25500000920E-02 0. -1.
       -2    1    3    3    0  502  0.46503182118E+03 -0.56280058797E+03 -0.52411259044E+03  0.89871747729E+03  0.25500000920E-02 0.  1.
</event>
<event>
 5   0  0.1215233E-04  0.1702417E+04  0.7818609E-02  0.8759987E-01
       -1   -1    0    0    0  501  0.00000000000E+00  0.00000000000E+00  0.40620354975E+03  0.40620354978E+03  0.50400001928E-02 0.  1.
        1   -1    0    0  501    0  0.00000000000E+00  0.00000000000E+00 -0.17837256893E+04  0.17837256893E+04  0.50400001928E-02 0. -1.
    10030    2    1    2    0    0  0.00000000000E+00  0.00000000000E+00 -0.13775221395E+04  0.21899292390E+04  0.17024167607E+04 0.  0.
        2    1    3    3  502    0  0.68330214658E+03  0.43064288366E+03 -0.34311265525E+03  0.87754282572E+03  0.25500000920E-02 0. -1.
       -2    1    3    3    0  502 -0.68330214658E+03 -0.43064288366E+03 -0.10344094843E+04  0.13123864133E+04  0.25500000920E-02 0.  1.
</event>
<event>
 5   0  0.1186302E-04  0.1692065E+04  0.7818609E-02  0.8765903E-01
        1   -1    0    0  501    0  0.00000000000E+00  0.00000000000E+00  0.22400991023E+04  0.22400991023E+04  0.50400001928E-02 0.  1.
       -1   -1    0    0    0  501  0.00000000000E+00  0.00000000000E+00 -0.31952657181E+03  0.31952657185E+03  0.50400001928E-02 0. -1.
    10030    2    1    2    0    0  0.00000000000E+00  0.00000000000E+00  0.19205725305E+04  0.25596256742E+04  0.16920652313E+04 0.  0.
        3    1    3    3  502    0 -0.67131155568E+03 -0.50713305168E+03  0.10949784082E+04  0.13808768452E+04  0.10100000352E+00 0.  1.
       -3    1    3    3    0  502  0.67131155568E+03  0.50713305168E+03  0.82559412233E+03  0.11787488290E+04  0.10100000352E+00 0. -1.
</event>
<event>
 5   0  0.2288806E-04  0.1664103E+04  0.7818609E-02  0.8782107E-01
       -2   -1    0    0    0  501  0.00000000000E+00  0.00000000000E+00  0.62096771005E+03  0.62096771006E+03  0.25500000920E-02 0. -1.
        2   -1    0    0  501    0  0.00000000000E+00  0.00000000000E+00 -0.11148888998E+04  0.11148888998E+04  0.25500000920E-02 0.  1.
    10030    2    1    2    0    0  0.00000000000E+00  0.00000000000E+00 -0.49392118977E+03  0.17358566099E+04  0.16641033707E+04 0.  0.
        3    1    3    3  502    0 -0.32277795677E+03  0.74760331843E+03 -0.68670763013E+02  0.81719765969E+03  0.10100000352E+00 0. -1.
       -3    1    3    3    0  502  0.32277795677E+03 -0.74760331843E+03 -0.42525042676E+03  0.91865895019E+03  0.10100000352E+00 0.  1.
</event>
<event>
 5   0  0.1234158E-04  0.1705081E+04  0.7818609E-02  0.8758472E-01
       -1   -1    0    0    0  501  0.00000000000E+00  0.00000000000E+00  0.40282530677E+03  0.40282530680E+03  0.50400001928E-02 0.  1.
        1   -1    0    0  501    0  0.00000000000E+00  0.00000000000E+00 -0.18043189550E+04  0.18043189550E+04  0.50400001928E-02 0. -1.
    10030    2    1    2    0    0  0.00000000000E+00  0.00000000000E+00 -0.14014936482E+04  0.22071442618E+04  0.17050810381E+04 0.  0.
        5    1    3    3  502    0  0.41651382451E+03 -0.43213929856E+03  0.82984455994E+02  0.60591802193E+03  0.46999998093E+01 0.  1.
       -5    1    3    3    0  502 -0.41651382451E+03  0.43213929856E+03 -0.14844781042E+04  0.16012262399E+04  0.46999998093E+01 0. -1.
</event>
<event>
 5   0  0.1215233E-04  0.1688390E+04  0.7818609E-02  0.8768014E-01
        1   -1    0    0  501    0  0.00000000000E+00  0.00000000000E+00  0.10078729445E+04  0.10078729445E+04  0.50400001928E-02 0. -1.
       -1   -1    0    0    0  501  0.00000000000E+00  0.00000000000E+00 -0.70709792781E+03  0.70709792783E+03  0.50400001928E-02 0.  1.
    10030    2    1    2    0    0  0.00000000000E+00  0.00000000000E+00  0.30077501668E+03  0.17149708723E+04  0.16883896121E+04 0.  0.
        2    1    3    3  502    0 -0.77815002120E+03 -0.19632840178E+03  0.41643200607E+03  0.90414485151E+03  0.25500000920E-02 0. -1.
       -2    1    3    3    0  502  0.77815002120E+03  0.19632840178E+03 -0.11565698939E+03  0.81082602082E+03  0.25500000920E-02 0.  1.
</event>
<event>
 5   0  0.2234723E-04  0.1690237E+04  0.7818609E-02  0.8766952E-01
       -2   -1    0    0    0  501  0.00000000000E+00  0.00000000000E+00  0.12188025881E+04  0.12188025881E+04  0.25500000920E-02 0.  1.
        2   -1    0    0  501    0  0.00000000000E+00  0.00000000000E+00 -0.58600561137E+03  0.58600561137E+03  0.25500000920E-02 0. -1.
    10030    2    1    2    0    0  0.00000000000E+00  0.00000000000E+00  0.63279697671E+03  0.18048081994E+04  0.16902368541E+04 0.  0.
        1    1    3    3  502    0 -0.45149252001E+03  0.46022766155E+02 -0.44485119187E+03  0.63549679273E+03  0.50400001928E-02 0. -1.
       -1    1    3    3    0  502  0.45149252001E+03 -0.46022766155E+02  0.10776481686E+04  0.11693114067E+04  0.50400001928E-02 0.  1.
</event>
<event>
 5   0  0.2356829E-04  0.1695639E+04  0.7818609E-02  0.8763855E-01
       -2   -1    0    0    0  501  0.00000000000E+00  0.00000000000E+00  0.24856152669E+03  0.24856152671E+03  0.25500000920E-02 0. -1.
        2   -1    0    0  501    0  0.00000000000E+00  0.00000000000E+00 -0.28918320957E+04  0.28918320957E+04  0.25500000920E-02 0.  1.
    10030    2    1    2    0    0  0.00000000000E+00  0.00000000000E+00 -0.26432705690E+04  0.31403936224E+04  0.16956393492E+04 0.  0.
        5    1    3    3  502    0 -0.51083253043E+03  0.36042975809E+03 -0.26108242612E+03  0.67752904579E+03  0.46999998093E+01 0.  1.
       -5    1    3    3    0  502  0.51083253043E+03 -0.36042975809E+03 -0.23821881429E+04  0.24628645766E+04  0.46999998093E+01 0. -1.
</event>
<event>
 5   0  0.2356829E-04  0.1700986E+04  0.7818609E-02  0.8760802E-01
       -2   -1    0    0    0  501  0.00000000000E+00  0.00000000000E+00  0.52360996609E+03  0.52360996610E+03  0.25500000920E-02 0. -1.
        2   -1    0    0  501    0  0.00000000000E+00  0.00000000000E+00 -0.13814452058E+04  0.13814452058E+04  0.25500000920E-02 0.  1.
    10030    2    1    2    0    0  0.00000000000E+00  0.00000000000E+00 -0.85783523975E+03  0.19050551719E+04  0.17009861580E+04 0.  0.
        5    1    3    3  502    0  0.26896160726E+03 -0.57665519947E+03 -0.10609275094E+04  0.12371179554E+04  0.46999998093E+01 0. -1.
       -5    1    3    3    0  502 -0.26896160726E+03  0.57665519947E+03  0.20309226969E+03  0.66793721656E+03  0.46999998093E+01 0.  1.
</event>
<event>
 5   0  0.2356829E-04  0.1707343E+04  0.7818609E-02  0.8757187E-01
       -2   -1    0    0    0  501  0.00000000000E+00  0.00000000000E+00  0.96120913660E+03  0.96120913660E+03  0.25500000920E-02 0. -1.
        2   -1    0    0  501    0  0.00000000000E+00  0.00000000000E+00 -0.75816479958E+03  0.75816479959E+03  0.25500000920E-02 0.  1.
    10030    2    1    2    0    0  0.00000000000E+00  0.00000000000E+00  0.20304433701E+03  0.17193739362E+04  0.17073428858E+04 0.  0.
        5    1    3    3  502    0  0.29004067199E+03 -0.25939668072E+03 -0.66364948723E+03  0.76932630351E+03  0.46999998093E+01 0.  1.
       -5    1    3    3    0  502 -0.29004067199E+03  0.25939668072E+03  0.86669382424E+03  0.95004763268E+03  0.46999998093E+01 0. -1.
</event>
<event>
 5   0  0.2224454E-04  0.1695964E+04  0.7818609E-02  0.8763669E-01
       -2   -1    0    0    0  501  0.00000000000E+00  0.00000000000E+00  0.88285962586E+03  0.88285962586E+03  0.25500000920E-02 0.  1.
        2   -1    0    0  501    0  0.00000000000E+00  0.00000000000E+00 -0.81448256814E+03  0.81448256815E+03  0.25500000920E-02 0. -1.
    10030    2    1    2    0    0  0.00000000000E+00  0.00000000000E+00  0.68377057716E+02  0.16973421940E+04  0.16959643574E+04 0.  0.
        2    1    3    3  502    0  0.72624655696E+03  0.39760686901E+03  0.21749980706E+03  0.85605575161E+03  0.25500000920E-02 0. -1.
       -2    1    3    3    0  502 -0.72624655696E+03 -0.39760686901E+03 -0.14912274935E+03  0.84128644240E+03  0.25500000920E-02 0.  1.
</event>
<event>
 5   0  0.2242967E-04  0.1704864E+04  0.7818609E-02  0.8758595E-01
        2   -1    0    0  501    0  0.00000000000E+00  0.00000000000E+00  0.93314869823E+03  0.93314869823E+03  0.25500000920E-02 0. -1.
       -2   -1    0    0    0  501  0.00000000000E+00  0.00000000000E+00 -0.77869717265E+03  0.77869717266E+03  0.25500000920E-02 0.  1.
    10030    2    1    2    0    0  0.00000000000E+00  0.00000000000E+00  0.15445152558E+03  0.17118458709E+04  0.17048639277E+04 0.  0.
        4    1    3    3  502    0  0.64524485445E+03  0.55614745043E+03  0.45509520440E+02  0.85306133318E+03  0.12699999809E+01 0.  1.
       -4    1    3    3    0  502 -0.64524485445E+03 -0.55614745043E+03  0.10894200514E+03  0.85878453771E+03  0.12699999809E+01 0. -1.
</event>
<event>
 5   0  0.2288806E-04  0.1698237E+04  0.7818609E-02  0.8762371E-01
       -2   -1    0    0    0  501  0.00000000000E+00  0.00000000000E+00  0.72186761535E+03  0.72186761536E+03  0.25500000920E-02 0. -1.
        2   -1    0    0  501    0  0.00000000000E+00  0.00000000000E+00 -0.99880105511E+03  0.99880105511E+03  0.25500000920E-02 0.  1.
    10030    2    1    2    0    0  0.00000000000E+00  0.00000000000E+00 -0.27693343976E+03  0.17206686705E+04  0.16982368926E+04 0.  0.
        3    1    3    3  502    0  0.58519762331E+03  0.50742658529E+03  0.21407191530E+03  0.80359491842E+03  0.10100000352E+00 0. -1.
       -3    1    3    3    0  502 -0.58519762331E+03 -0.50742658529E+03 -0.49100535506E+03  0.91707375205E+03  0.10100000352E+00 0.  1.
</event>
<event>
 5   0  0.2356829E-04  0.1686448E+04  0.7818609E-02  0.8769131E-01
        2   -1    0    0  501    0  0.00000000000E+00  0.00000000000E+00  0.12868858392E+04  0.12868858392E+04  0.25500000920E-02 0. -1.
       -2   -1    0    0    0  501  0.00000000000E+00  0.00000000000E+00 -0.55251743066E+03  0.55251743067E+03  0.25500000920E-02 0.  1.
    10030    2    1    2    0    0  0.00000000000E+00  0.00000000000E+00  0.73436840856E+03  0.18394032699E+04  0.16864481699E+04 0.  0.
        5    1    3    3  502    0  0.47521448767E+03  0.58174370228E+03  0.78500816414E+03  0.10865148191E+04  0.46999998093E+01 0. -1.
       -5    1    3    3    0  502 -0.47521448767E+03 -0.58174370228E+03 -0.50639755584E+02  0.75288845075E+03  0.46999998093E+01 0.  1.
</event>
<event>
 5   0  0.2242967E-04  0.1691552E+04  0.7818609E-02  0.8766197E-01
        2   -1    0    0  501    0  0.00000000000E+00  0.00000000000E+00  0.13273166591E+04  0.13273166591E+04  0.25500000920E-02 0. -1.
       -2   -1    0    0    0  501  0.00000000000E+00  0.00000000000E+00 -0.53893502341E+03  0.53893502342E+03  0.25500000920E-02 0.  1.
    10030    2    1    2    0    0  0.00000000000E+00  0.00000000000E+00  0.78838163566E+03  0.18662516825E+04  0.16915524642E+04 0.  0.
        4    1    3    3  502    0  0.14672106896E+03  0.26233576156E+03  0.12664003367E+04  0.13015830936E+04  0.12699999809E+01 0. -1.
       -4    1    3    3    0  502 -0.14672106896E+03 -0.26233576156E+03 -0.47801870102E+03  0.56466858891E+03  0.12699999809E+01 0.  1.
</event>
<event>
 5   0  0.8372750E-05  0.1717569E+04  0.7818609E-02  0.8751407E-01
        3   -1    0    0  501    0  0.00000000000E+00  0.00000000000E+00  0.86409721905E+03  0.86409722495E+03  0.10100000352E+00 0. -1.
       -3   -1    0    0    0  501  0.00000000000E+00  0.00000000000E+00 -0.85350486875E+03  0.85350487472E+03  0.10100000352E+00 0.  1.
    10030    2    1    2    0    0  0.00000000000E+00  0.00000000000E+00  0.10592350299E+02  0.17176020997E+04  0.17175694382E+04 0.  0.
        3    1    3    3  502    0  0.40506209732E+03 -0.18679067960E+03  0.73916646691E+03  0.86332678441E+03  0.10100000352E+00 0. -1.
       -3    1    3    3    0  502 -0.40506209732E+03  0.18679067960E+03 -0.72857411661E+03  0.85427531526E+03  0.10100000352E+00 0.  1.
</event>
<event>
 5   0  0.2234723E-04  0.1702636E+04  0.7818609E-02  0.8759863E-01
        2   -1    0    0  501    0  0.00000000000E+00  0.00000000000E+00  0.16090656472E+04  0.16090656472E+04  0.25500000920E-02 0.  1.
       -2   -1    0    0    0  501  0.00000000000E+00  0.00000000000E+00 -0.45041168206E+03  0.45041168207E+03  0.25500000920E-02 0. -1.
    10030    2    1    2    0    0  0.00000000000E+00  0.00000000000E+00  0.11586539651E+04  0.20594773292E+04  0.17026355625E+04 0.  0.
        1    1    3    3  502    0  0.98686070324E+02  0.53561175357E+03 -0.21211600016E+03  0.58447590933E+03  0.50400001928E-02 0. -1.
       -1    1    3    3    0  502 -0.98686070324E+02 -0.53561175357E+03  0.13707699653E+04  0.14750014199E+04  0.50400001928E-02 0.  1.
</event>
<event>
 5   0  0.1215233E-04  0.1684233E+04  0.7818609E-02  0.8770408E-01
       -1   -1    0    0    0  501  0.00000000000E+00  0.00000000000E+00  0.17901304363E+04  0.17901304363E+04  0.50400001928E-02 0.  1.
        1   -1    0    0  501    0  0.00000000000E+00  0.00000000000E+00 -0.39615021864E+03  0.39615021867E+03  0.50400001928E-02 0. -1.
    10030    2    1    2    0    0  0.00000000000E+00  0.00000000000E+00  0.13939802177E+04  0.21862806550E+04  0.16842334325E+04 0.  0.
        2    1    3    3  502    0 -0.27701395130E+03 -0.62253431561E+03  0.54634192071E+02  0.68357194082E+03  0.25500000920E-02 0. -1.
       -2    1    3    3    0  502  0.27701395130E+03  0.62253431561E+03  0.13393460256E+04  0.15027087142E+04  0.25500000920E-02 0.  1.
</event>
<event>
 5   0  0.2288806E-04  0.1699639E+04  0.7818609E-02  0.8761570E-01
       -2   -1    0    0    0  501  0.00000000000E+00  0.00000000000E+00  0.42968439590E+03  0.42968439591E+03  0.25500000920E-02 0. -1.
        2   -1    0    0  501    0  0.00000000000E+00  0.00000000000E+00 -0.16807534472E+04  0.16807534472E+04  0.25500000920E-02 0.  1.
    10030    2    1    2    0    0  0.00000000000E+00  0.00000000000E+00 -0.12510690513E+04  0.21104378431E+04  0.16996394084E+04 0.  0.
        3    1    3    3  502    0  0.52304038654E+03 -0.57431285730E+03 -0.19757740306E+03  0.80152563553E+03  0.10100000352E+00 0. -1.
       -3    1    3    3    0  502 -0.52304038654E+03  0.57431285730E+03 -0.10534916482E+04  0.13089122075E+04  0.10100000352E+00 0.  1.
</event>
<event>
 5   0  0.1126958E-04  0.1702089E+04  0.7818609E-02  0.8760174E-01
       -1   -1    0    0    0  501  0.00000000000E+00  0.00000000000E+00  0.86609565999E+03  0.86609566001E+03  0.50400001928E-02 0.  1.
        1   -1    0    0  501    0  0.00000000000E+00  0.00000000000E+00 -0.83625536218E+03  0.83625536220E+03  0.50400001928E-02 0. -1.
    10030    2    1    2    0    0  0.00000000000E+00  0.00000000000E+00  0.29840297811E+02  0.17023510222E+04  0.17020894687E+04 0.  0.
        4    1    3    3  502    0 -0.11319039938E+03 -0.25706627510E+03 -0.78855900584E+03  0.83709142565E+03  0.12699999809E+01 0. -1.
       -4    1    3    3    0  502  0.11319039938E+03  0.25706627510E+03  0.81839930365E+03  0.86525959655E+03  0.12699999809E+01 0.  1.
</event>
<event>
 5   0  0.1204741E-04  0.1679135E+04  0.7818609E-02  0.8773355E-01
        1   -1    0    0  501    0  0.00000000000E+00  0.00000000000E+00  0.98029158926E+03  0.98029158928E+03  0.50400001928E-02 0. -1.
       -1   -1    0    0    0  501  0.00000000000E+00  0.00000000000E+00 -0.71904462374E+03  0.71904462376E+03  0.50400001928E-02 0.  1.
    10030    2    1    2    0    0  0.00000000000E+00  0.00000000000E+00  0.26124696552E+03  0.16993362130E+04  0.16791347736E+04 0.  0.
        1    1    3    3  502    0  0.14681164889E+03  0.78533709183E+03  0.39173016932E+03  0.88980926812E+03  0.50400001928E-02 0. -1.
       -1    1    3    3    0  502 -0.14681164889E+03 -0.78533709183E+03 -0.13048320380E+03  0.80952694492E+03  0.50400001928E-02 0.  1.
</event>
<event>
 5   0  0.1234158E-04  0.1704072E+04  0.7818609E-02  0.8759045E-01
       -1   -1    0    0    0  501  0.00000000000E+00  0.00000000000E+00  0.15323782817E+04  0.15323782817E+04  0.50400001928E-02 0. -1.
        1   -1    0    0  501    0  0.00000000000E+00  0.00000000000E+00 -0.47375068595E+03  0.47375068597E+03  0.50400001928E-02 0.  1.
    10030    2    1    2    0    0  0.00000000000E+00  0.00000000000E+00  0.10586275957E+04  0.20061289676E+04  0.17040719024E+04 0.  0.
        5    1    3    3  502    0  0.78741499950E+03 -0.18894637440E+03  0.21735191987E+03  0.83844323655E+03  0.46999998093E+01 0.  1.
       -5    1    3    3    0  502 -0.78741499950E+03  0.18894637440E+03  0.84127567583E+03  0.11676857311E+04  0.46999998093E+01 0. -1.
</event>
<event>
 5   0  0.2242967E-04  0.1690298E+04  0.7818609E-02  0.8766917E-01
       -2   -1    0    0    0  501  0.00000000000E+00  0.00000000000E+00  0.39281284636E+03  0.39281284637E+03  0.25500000920E-02 0.  1.
        2   -1    0    0  501    0  0.00000000000E+00  0.00000000000E+00 -0.18183644326E+04  0.18183644326E+04  0.25500000920E-02 0. -1.
    10030    2    1    2    0    0  0.00000000000E+00  0.00000000000E+00 -0.14255515863E+04  0.22111772790E+04  0.16902980903E+04 0.  0.
        4    1    3    3  502    0 -0.53893907152E+03 -0.38722948162E+03 -0.28178605339E+02  0.66422710043E+03  0.12699999809E+01 0.  1.
       -4    1    3    3    0  502  0.53893907152E+03  0.38722948162E+03 -0.13973729809E+04  0.15469501786E+04  0.12699999809E+01 0. -1.
</event>
<event>
 5   0  0.1215233E-04  0.1687679E+04  0.7818609E-02  0.8768423E-01
        1   -1    0    0  501    0  0.00000000000E+00  0.00000000000E+00  0.10153044198E+04  0.10153044199E+04  0.50400001928E-02 0. -1.
       -1   -1    0    0    0  501  0.00000000000E+00  0.00000000000E+00 -0.70133154349E+03  0.70133154350E+03  0.50400001928E-02 0.  1.
    10030    2    1    2    0    0  0.00000000000E+00  0.00000000000E+00  0.31397287636E+03  0.17166359634E+04  0.16876788983E+04 0.  0.
        2    1    3    3  502    0  0.57931074747E+03  0.26557742115E+02  0.78049574952E+03  0.97235789236E+03  0.25500000920E-02 0. -1.
       -2    1    3    3    0  502 -0.57931074747E+03 -0.26557742115E+02 -0.46652287316E+03  0.74427807101E+03  0.25500000920E-02 0.  1.
</event>
<event>
 5   0  0.2224454E-04  0.1682996E+04  0.7818609E-02  0.8771122E-01
        2   -1    0    0  501    0  0.00000000000E+00  0.00000000000E+00  0.16400850735E+04  0.16400850735E+04  0.25500000920E-02 0. -1.
       -2   -1    0    0    0  501  0.00000000000E+00  0.00000000000E+00 -0.43175718490E+03  0.43175718490E+03  0.25500000920E-02 0.  1.
    10030    2    1    2    0    0  0.00000000000E+00  0.00000000000E+00  0.12083278886E+04  0.20718422584E+04  0.16829955607E+04 0.  0.
        2    1    3    3  502    0 -0.56786156467E+03  0.38571345930E+03  0.12033132470E+04  0.13853535288E+04  0.25500000920E-02 0. -1.
       -2    1    3    3    0  502  0.56786156467E+03 -0.38571345930E+03  0.50146416460E+01  0.68648872966E+03  0.25500000920E-02 0.  1.
</event>
<event>
 5   0  0.2234723E-04  0.1698544E+04  0.7818609E-02  0.8762195E-01
        2   -1    0    0  501    0  0.00000000000E+00  0.00000000000E+00  0.11243747250E+04  0.11243747250E+04  0.25500000920E-02 0. -1.
       -2   -1    0    0    0  501  0.00000000000E+00  0.00000000000E+00 -0.64147903899E+03  0.64147903900E+03  0.25500000920E-02 0.  1.
    10030    2    1    2    0    0  0.00000000000E+00  0.00000000000E+00  0.48289568600E+03  0.17658537640E+04  0.16985438682E+04 0.  0.
        1    1    3    3  502    0 -0.51212279234E+03 -0.58178301079E+03  0.60236738482E+03  0.98162502637E+03  0.50400001928E-02 0. -1.
       -1    1    3    3    0  502  0.51212279234E+03  0.58178301079E+03 -0.11947169882E+03  0.78422873762E+03  0.50400001928E-02 0.  1.
</event>
<event>
 5   0  0.2356829E-04  0.1705432E+04  0.7818609E-02  0.8758272E-01
        2   -1    0    0  501    0  0.00000000000E+00  0.00000000000E+00  0.21562795382E+04  0.21562795382E+04  0.25500000920E-02 0.  1.
       -2   -1    0    0    0  501  0.00000000000E+00  0.00000000000E+00 -0.33721265545E+03  0.33721265546E+03  0.25500000920E-02 0. -1.
    10030    2    1    2    0    0  0.00000000000E+00  0.00000000000E+00  0.18190668827E+04  0.24934921936E+04  0.17054322021E+04 0.  0.
        5    1    3    3  502    0 -0.69640592362E+02 -0.31898207299E+03  0.20612499604E+04  0.20869530096E+04  0.46999998093E+01 0.  1.
       -5    1    3    3    0  502  0.69640592362E+02  0.31898207299E+03 -0.24218307772E+03  0.40653918400E+03  0.46999998093E+01 0. -1.
</event>
<event>
 5   0  0.1215233E-04  0.1687229E+04  0.7818609E-02  0.8768682E-01
       -1   -1    0    0    0  501  0.00000000000E+00  0.00000000000E+00  0.10412049027E+04  0.10412049027E+04  0.50400001928E-02 0. -1.
        1   -1    0    0  501    0  0.00000000000E+00  0.00000000000E+00 -0.68352078915E+03  0.68352078917E+03  0.50400001928E-02 0.  1.
    10030    2    1    2    0    0  0.00000000000E+00  0.00000000000E+00  0.35768411353E+03  0.17247256919E+04  0.16872287299E+04 0.  0.
        2    1    3    3  502    0 -0.60216071656E+03  0.39584029669E+03 -0.26953821058E+03  0.76937501650E+03  0.25500000920E-02 0.  1.
       -2    1    3    3    0  502  0.60216071656E+03 -0.39584029669E+03  0.62722232410E+03  0.95535067536E+03  0.25500000920E-02 0. -1.
</event>
<event>
 5   0  0.1126958E-04  0.1704344E+04  0.7818609E-02  0.8758891E-01
        1   -1    0    0  501    0  0.00000000000E+00  0.00000000000E+00  0.12378192522E+04  0.12378192522E+04  0.50400001928E-02 0. -1.
       -1   -1    0    0    0  501  0.00000000000E+00  0.00000000000E+00 -0.58667450552E+03  0.58667450555E+03  0.50400001928E-02 0.  1.
    10030    2    1    2    0    0  0.00000000000E+00  0.00000000000E+00  0.65114474669E+03  0.18244937578E+04  0.17043438594E+04 0.  0.
        4    1    3    3  502    0 -0.72773259311E+03  0.72071952743E+02 -0.14276979890E+03  0.74509994083E+03  0.12699999809E+01 0.  1.
       -4    1    3    3    0  502  0.72773259311E+03 -0.72071952743E+02  0.79391454560E+03  0.10793938169E+04  0.12699999809E+01 0. -1.
</event>
<event>
 5   0  0.2242967E-04  0.1705951E+04  0.7818609E-02  0.8757978E-01
        2   -1    0    0  501    0  0.00000000000E+00  0.00000000000E+00  0.98755837264E+03  0.98755837264E+03  0.25500000920E-02 0.  1.
       -2   -1    0    0    0  501  0.00000000000E+00  0.00000000000E+00 -0.73673309887E+03  0.73673309887E+03  0.25500000920E-02 0. -1.
    10030    2    1    2    0    0  0.00000000000E+00  0.00000000000E+00  0.25082527377E+03  0.17242914715E+04  0.17059506912E+04 0.  0.
        4    1    3    3  502    0  0.29005271860E+03  0.53984113456E+02  0.93434220577E+03  0.97981724543E+03  0.12699999809E+01 0.  1.
       -4    1    3    3    0  502 -0.29005271860E+03 -0.53984113456E+02 -0.68351693200E+03  0.74447422608E+03  0.12699999809E+01 0. -1.
</event>
<event>
 5   0  0.2288806E-04  0.1701762E+04  0.7818609E-02  0.8760360E-01
       -2   -1    0    0    0  501  0.00000000000E+00  0.00000000000E+00  0.37182367624E+03  0.37182367625E+03  0.25500000920E-02 0. -1.
        2   -1    0    0  501    0  0.00000000000E+00  0.00000000000E+00 -0.19471551167E+04  0.19471551167E+04  0.25500000920E-02 0.  1.
    10030    2    1    2    0    0  0.00000000000E+00  0.00000000000E+00 -0.15753314404E+04  0.23189787929E+04  0.17017618796E+04 0.  0.
        3    1    3    3  502    0  0.45354612835E+03  0.48270870306E+03 -0.59821130471E+02  0.66504914135E+03  0.10100000352E+00 0. -1.
       -3    1    3    3    0  502 -0.45354612835E+03 -0.48270870306E+03 -0.15155103099E+04  0.16539296516E+04  0.10100000352E+00 0.  1.
</event>
<event>
 5   0  0.1204741E-04  0.1692607E+04  0.7818609E-02  0.8765592E-01
        1   -1    0    0  501    0  0.00000000000E+00  0.00000000000E+00  0.50211770442E+03  0.50211770445E+03  0.50400001928E-02 0. -1.
       -1   -1    0    0    0  501  0.00000000000E+00  0.00000000000E+00 -0.14264184245E+04  0.14264184245E+04  0.50400001928E-02 0.  1.
    10030    2    1    2    0    0  0.00000000000E+00  0.00000000000E+00 -0.92430072011E+03  0.19285361290E+04  0.16926073909E+04 0.  0.
        1    1    3    3  502    0  0.29964118106E+03  0.47240777692E+03 -0.11857073355E+04  0.13110514218E+04  0.50400001928E-02 0.  1.
       -1    1    3    3    0  502 -0.29964118106E+03 -0.47240777692E+03  0.26140661536E+03  0.61748470723E+03  0.50400001928E-02 0. -1.
</event>
<event>
 5   0  0.1186302E-04  0.1704379E+04  0.7818609E-02  0.8758871E-01
       -1   -1    0    0    0  501  0.00000000000E+00  0.00000000000E+00  0.18271881865E+04  0.18271881865E+04  0.50400001928E-02 0.  1.
        1   -1    0    0  501    0  0.00000000000E+00  0.00000000000E+00 -0.39745612649E+03  0.39745612653E+03  0.50400001928E-02 0. -1.
    10030    2    1    2    0    0  0.00000000000E+00  0.00000000000E+00  0.14297320600E+04  0.22246443130E+04  0.17043792290E+04 0.  0.
        3    1    3    3  502    0  0.52929037219E+03 -0.61536919169E+03  0.10537281112E+04  0.13301016814E+04  0.10100000352E+00 0.  1.
       -3    1    3    3    0  502 -0.52929037219E+03  0.61536919169E+03  0.37600394878E+03  0.89454263167E+03  0.10100000352E+00 0. -1.
</event>
<event>
 5   0  0.1215233E-04  0.1711924E+04  0.7818609E-02  0.8754593E-01
       -1   -1    0    0    0  501  0.00000000000E+00  0.00000000000E+00  0.55181480144E+03  0.55181480146E+03  0.50400001928E-02 0. -1.
        1   -1    0    0  501    0  0.00000000000E+00  0.00000000000E+00 -0.13277483263E+04  0.13277483263E+04  0.50400001928E-02 0.  1.
    10030    2    1    2    0    0  0.00000000000E+00  0.00000000000E+00 -0.77593352486E+03  0.18795631278E+04  0.17119242729E+04 0.  0.
        2    1    3    3  502    0  0.12255974975E+02 -0.67494038052E+03  0.18985486287E+03  0.70124146707E+03  0.25500000920E-02 0. -1.
       -2    1    3    3    0  502 -0.12255974975E+02  0.67494038052E+03 -0.96578838774E+03  0.11783216607E+04  0.25500000920E-02 0.  1.
</event>
<event>
 5   0  0.1215233E-04  0.1703479E+04  0.7818609E-02  0.8759383E-01
        1   -1    0    0  501    0  0.00000000000E+00  0.00000000000E+00  0.13341261839E+04  0.13341261839E+04  0.50400001928E-02 0. -1.
       -1   -1    0    0    0  501  0.00000000000E+00  0.00000000000E+00 -0.54377165188E+03  0.54377165191E+03  0.50400001928E-02 0.  1.
    10030    2    1    2    0    0  0.00000000000E+00  0.00000000000E+00  0.79035453205E+03  0.18778978358E+04  0.17034787922E+04 0.  0.
        2    1    3    3  502    0 -0.39886876507E+03 -0.58043179493E+03  0.92324693322E+03  0.11611986307E+04  0.25500000920E-02 0. -1.
       -2    1    3    3    0  502  0.39886876507E+03  0.58043179493E+03 -0.13289240117E+03  0.71669920511E+03  0.25500000920E-02 0.  1.
</event>
<event>
 5   0  0.2356829E-04  0.1706239E+04  0.7818609E-02  0.8757814E-01
        2   -1    0    0  501    0  0.00000000000E+00  0.00000000000E+00  0.70900486352E+03  0.70900486353E+03  0.25500000920E-02 0. -1.
       -2   -1    0    0    0  501  0.00000000000E+00  0.00000000000E+00 -0.10265276934E+04  0.10265276934E+04  0.25500000920E-02 0.  1.
    10030    2    1    2    0    0  0.00000000000E+00  0.00000000000E+00 -0.31752282990E+03  0.17355325570E+04  0.17062392882E+04 0.  0.
        5    1    3    3  502    0  0.80005261371E+03 -0.18327056176E+03 -0.39538973496E+03  0.91105840429E+03  0.46999998093E+01 0.  1.
       -5    1    3    3    0  502 -0.80005261371E+03  0.18327056176E+03  0.77866905055E+02  0.82447415267E+03  0.46999998093E+01 0. -1.
</event>
<event>
 5   0  0.1234158E-04  0.1584540E+04  0.7818609E-02  0.8830103E-01
       -1   -1    0    0    0  501  0.00000000000E+00  0.00000000000E+00  0.72870617583E+03  0.72870617585E+03  0.50400001928E-02 0. -1.
        1   -1    0    0  501    0  0.00000000000E+00  0.00000000000E+00 -0.86137785402E+03  0.86137785403E+03  0.50400001928E-02 0.  1.
    10030    2    1    2    0    0  0.00000000000E+00  0.00000000000E+00 -0.13267167819E+03  0.15900840299E+04  0.15845395066E+04 0.  0.
        5    1    3    3  502    0 -0.36693914194E+03 -0.66859004148E+03  0.14891950854E+03  0.77708177657E+03  0.46999998093E+01 0. -1.
       -5    1    3    3    0  502  0.36693914194E+03  0.66859004148E+03 -0.28159118673E+03  0.81300225331E+03  0.46999998093E+01 0.  1.
</event>
<event>
 5   0  0.1186302E-04  0.1728156E+04  0.7818609E-02  0.8745467E-01
       -1   -1    0    0    0  501  0.00000000000E+00  0.00000000000E+00  0.55932364627E+03  0.55932364630E+03  0.50400001928E-02 0.  1.
        1   -1    0    0  501    0  0.00000000000E+00  0.00000000000E+00 -0.13348813859E+04  0.13348813859E+04  0.50400001928E-02 0. -1.
    10030    2    1    2    0    0  0.00000000000E+00  0.00000000000E+00 -0.77555773964E+03  0.18942050322E+04  0.17281559237E+04 0.  0.
        3    1    3    3  502    0 -0.85933024036E+02 -0.21746939787E+03 -0.12995428919E+04  0.13204124968E+04  0.10100000352E+00 0. -1.
       -3    1    3    3    0  502  0.85933024036E+02  0.21746939787E+03  0.52398515230E+03  0.57379253538E+03  0.10100000352E+00 0.  1.
</event>
<event>
 5   0  0.1234158E-04  0.1693832E+04  0.7818609E-02  0.8764890E-01
        1   -1    0    0  501    0  0.00000000000E+00  0.00000000000E+00  0.19584967287E+04  0.19584967287E+04  0.50400001928E-02 0.  1.
       -1   -1    0    0    0  501  0.00000000000E+00  0.00000000000E+00 -0.36623330077E+03  0.36623330080E+03  0.50400001928E-02 0. -1.
    10030    2    1    2    0    0  0.00000000000E+00  0.00000000000E+00  0.15922634279E+04  0.23247300295E+04  0.16938320124E+04 0.  0.
        5    1    3    3  502    0  0.73167573369E+03 -0.32796009108E+03  0.11703335922E+04  0.14186648680E+04  0.46999998093E+01 0.  1.
       -5    1    3    3    0  502 -0.73167573369E+03  0.32796009108E+03  0.42192983567E+03  0.90606516148E+03  0.46999998093E+01 0. -1.
</event>
<event>
 5   0  0.1126958E-04  0.1694009E+04  0.7818609E-02  0.8764789E-01
        1   -1    0    0  501    0  0.00000000000E+00  0.00000000000E+00  0.10272161698E+04  0.10272161698E+04  0.50400001928E-02 0. -1.
       -1   -1    0    0    0  501  0.00000000000E+00  0.00000000000E+00 -0.69840869935E+03  0.69840869937E+03  0.50400001928E-02 0.  1.
    10030    2    1    2    0    0  0.00000000000E+00  0.00000000000E+00  0.32880747049E+03  0.17256248692E+04  0.16940091017E+04 0.  0.
        4    1    3    3  502    0 -0.22629919716E+03 -0.26118181633E+03  0.95213271649E+03  0.10129094681E+04  0.12699999809E+01 0. -1.
       -4    1    3    3    0  502  0.22629919716E+03  0.26118181633E+03 -0.62332524600E+03  0.71271540114E+03  0.12699999809E+01 0.  1.
</event>
<event>
 5   0  0.2224454E-04  0.1694809E+04  0.7818609E-02  0.8764331E-01
        2   -1    0    0  501    0  0.00000000000E+00  0.00000000000E+00  0.13732489210E+04  0.13732489210E+04  0.25500000920E-02 0. -1.
       -2   -1    0    0    0  501  0.00000000000E+00  0.00000000000E+00 -0.52291634818E+03  0.52291634818E+03  0.25500000920E-02 0.  1.
    10030    2    1    2    0    0  0.00000000000E+00  0.00000000000E+00  0.85033257286E+03  0.18961652692E+04  0.16948089107E+04 0.  0.
        2    1    3    3  502    0  0.81001459968E+02 -0.58060710883E+03  0.11097709836E+04  0.12550926210E+04  0.25500000920E-02 0. -1.
       -2    1    3    3    0  502 -0.81001459968E+02  0.58060710883E+03 -0.25943841070E+03  0.64107264822E+03  0.25500000920E-02 0.  1.
</event>
<event>
 5   0  0.2234723E-04  0.1728491E+04  0.7818609E-02  0.8745280E-01
       -2   -1    0    0    0  501  0.00000000000E+00  0.00000000000E+00  0.69629640751E+03  0.69629640751E+03  0.25500000920E-02 0.  1.
        2   -1    0    0  501    0  0.00000000000E+00  0.00000000000E+00 -0.10727040406E+04  0.10727040406E+04  0.25500000920E-02 0. -1.
    10030    2    1    2    0    0  0.00000000000E+00  0.00000000000E+00 -0.37640763306E+03  0.17690004481E+04  0.17284906361E+04 0.  0.
        1    1    3    3  502    0 -0.19199466560E+03 -0.33141370882E+03  0.60469399313E+03  0.71578755463E+03  0.50400001928E-02 0.  1.
       -1    1    3    3    0  502  0.19199466560E+03  0.33141370882E+03 -0.98110162618E+03  0.10532128935E+04  0.50400001928E-02 0. -1.
</event>
<event>
 5   0  0.1234158E-04  0.1706256E+04  0.7818609E-02  0.8757804E-01
       -1   -1    0    0    0  501  0.00000000000E+00  0.00000000000E+00  0.77685897730E+03  0.77685897732E+03  0.50400001928E-02 0.  1.
        1   -1    0    0  501    0  0.00000000000E+00  0.00000000000E+00 -0.93688469121E+03  0.93688469122E+03  0.50400001928E-02 0. -1.
    10030    2    1    2    0    0  0.00000000000E+00  0.00000000000E+00 -0.16002571391E+03  0.17137436685E+04  0.17062558813E+04 0.  0.
        5    1    3    3  502    0  0.10414156080E+01 -0.31505958709E+02 -0.93628653125E+03  0.93682883632E+03  0.46999998093E+01 0. -1.
       -5    1    3    3    0  502 -0.10414156080E+01  0.31505958709E+02  0.77626081734E+03  0.77691483221E+03  0.46999998093E+01 0.  1.
</event>
<event>
 5   0  0.1215233E-04  0.1698997E+04  0.7818609E-02  0.8761936E-01
       -1   -1    0    0    0  501  0.00000000000E+00  0.00000000000E+00  0.55933893506E+03  0.55933893509E+03  0.50400001928E-02 0. -1.
        1   -1    0    0  501    0  0.00000000000E+00  0.00000000000E+00 -0.12901801379E+04  0.12901801379E+04  0.50400001928E-02 0.  1.
    10030    2    1    2    0    0  0.00000000000E+00  0.00000000000E+00 -0.73084120282E+03  0.18495190730E+04  0.16989973330E+04 0.  0.
        2    1    3    3  502    0  0.84485739714E+03 -0.42322698254E+01 -0.26899515136E+03  0.88665682486E+03  0.25500000920E-02 0. -1.
       -2    1    3    3    0  502 -0.84485739714E+03  0.42322698254E+01 -0.46184605146E+03  0.96286224812E+03  0.25500000920E-02 0.  1.
</event>
<event>
 5   0  0.1186302E-04  0.1714768E+04  0.7818609E-02  0.8752986E-01
       -1   -1    0    0    0  501  0.00000000000E+00  0.00000000000E+00  0.15681284767E+04  0.15681284767E+04  0.50400001928E-02 0. -1.
        1   -1    0    0  501    0  0.00000000000E+00  0.00000000000E+00 -0.46878023374E+03  0.46878023377E+03  0.50400001928E-02 0.  1.
    10030    2    1    2    0    0  0.00000000000E+00  0.00000000000E+00  0.10993482430E+04  0.20369087105E+04  0.17147683621E+04 0.  0.
        3    1    3    3  502    0  0.45359409665E+03 -0.55129821715E+02 -0.31209581209E+03  0.55334501704E+03  0.10100000352E+00 0.  1.
       -3    1    3    3    0  502 -0.45359409665E+03  0.55129821715E+02  0.14114440551E+04  0.14835636934E+04  0.10100000352E+00 0. -1.
</event>
<event>
 5   0  0.2224454E-04  0.1707326E+04  0.7818609E-02  0.8757197E-01
       -2   -1    0    0    0  501  0.00000000000E+00  0.00000000000E+00  0.73514609990E+03  0.73514609991E+03  0.25500000920E-02 0.  1.
        2   -1    0    0  501    0  0.00000000000E+00  0.00000000000E+00 -0.99128659751E+03  0.99128659751E+03  0.25500000920E-02 0. -1.
    10030    2    1    2    0    0  0.00000000000E+00  0.00000000000E+00 -0.25614049761E+03  0.17264326974E+04  0.17073259514E+04 0.  0.
        2    1    3    3  502    0 -0.53711753227E+03  0.31833504044E+03  0.46060278708E+03  0.77587844984E+03  0.25500000920E-02 0.  1.
       -2    1    3    3    0  502  0.53711753227E+03 -0.31833504044E+03 -0.71674328469E+03  0.95055424759E+03  0.25500000920E-02 0. -1.
</event>
<event>
 5   0  0.2234723E-04  0.1697659E+04  0.7818609E-02  0.8762701E-01
        2   -1    0    0  501    0  0.00000000000E+00  0.00000000000E+00  0.13014806058E+04  0.13014806058E+04  0.25500000920E-02 0.  1.
       -2   -1    0    0    0  501  0.00000000000E+00  0.00000000000E+00 -0.55360910648E+03  0.55360910649E+03  0.25500000920E-02 0. -1.
    10030    2    1    2    0    0  0.00000000000E+00  0.00000000000E+00  0.74787149928E+03  0.18550897123E+04  0.16976589943E+04 0.  0.
        1    1    3    3  502    0 -0.82487708650E+03  0.12178491941E+03  0.20027098607E+03  0.85753264796E+03  0.50400001928E-02 0. -1.
       -1    1    3    3    0  502  0.82487708650E+03 -0.12178491941E+03  0.54760051321E+03  0.99755706430E+03  0.50400001928E-02 0.  1.
</event>
<event>
 5   0  0.1204741E-04  0.1722540E+04  0.7818609E-02  0.8748612E-01
       -1   -1    0    0    0  501  0.00000000000E+00  0.00000000000E+00  0.48405015753E+03  0.48405015755E+03  0.50400001928E-02 0. -1.
        1   -1    0    0  501    0  0.00000000000E+00  0.00000000000E+00 -0.15324574157E+04  0.15324574157E+04  0.50400001928E-02 0.  1.
    10030    2    1    2    0    0  0.00000000000E+00  0.00000000000E+00 -0.10484072581E+04  0.20165075732E+04  0.17225402793E+04 0.  0.
        1    1    3    3  502    0  0.81125950437E+03 -0.17699873208E+03 -0.79196416586E+03  0.11474658054E+04  0.50400001928E-02 0. -1.
       -1    1    3    3    0  502 -0.81125950437E+03  0.17699873208E+03 -0.25644309227E+03  0.86904176780E+03  0.50400001928E-02 0.  1.
</event>
<event>
 5   0  0.2224454E-04  0.1693464E+04  0.7818609E-02  0.8765101E-01
        2   -1    0    0  501    0  0.00000000000E+00  0.00000000000E+00  0.71659221952E+03  0.71659221953E+03  0.25500000920E-02 0. -1.
       -2   -1    0    0    0  501  0.00000000000E+00  0.00000000000E+00 -0.10005060861E+04  0.10005060861E+04  0.25500000920E-02 0.  1.
    10030    2    1    2    0    0  0.00000000000E+00  0.00000000000E+00 -0.28391386662E+03  0.17170983057E+04  0.16934637604E+04 0.  0.
        2    1    3    3  502    0 -0.36759203057E+03 -0.75171131068E+03 -0.27322837948E+03  0.88025424901E+03  0.25500000920E-02 0. -1.
       -2    1    3    3    0  502  0.36759203057E+03  0.75171131068E+03 -0.10685487141E+02  0.83684405667E+03  0.25500000920E-02 0.  1.
</event>
<event>
 5   0  0.1126958E-04  0.1670779E+04  0.7818609E-02  0.8778208E-01
        1   -1    0    0  501    0  0.00000000000E+00  0.00000000000E+00  0.10078518086E+04  0.10078518086E+04  0.50400001928E-02 0. -1.
       -1   -1    0    0    0  501  0.00000000000E+00  0.00000000000E+00 -0.69243903890E+03  0.69243903891E+03  0.50400001928E-02 0.  1.
    10030    2    1    2    0    0  0.00000000000E+00  0.00000000000E+00  0.31541276971E+03  0.17002908475E+04  0.16707793843E+04 0.  0.
        4    1    3    3  502    0  0.17077581363E+03 -0.58393504766E+02  0.98777294477E+03  0.10041270752E+04  0.12699999809E+01 0. -1.
       -4    1    3    3    0  502 -0.17077581363E+03  0.58393504766E+02 -0.67236017507E+03  0.69616377228E+03  0.12699999809E+01 0.  1.
</event>
<event>
 5   0  0.1186302E-04  0.1673801E+04  0.7818609E-02  0.8776449E-01
       -1   -1    0    0    0  501  0.00000000000E+00  0.00000000000E+00  0.53390208270E+03  0.53390208272E+03  0.50400001928E-02 0. -1.
        1   -1    0    0  501    0  0.00000000000E+00  0.00000000000E+00 -0.13118552303E+04  0.13118552303E+04  0.50400001928E-02 0.  1.
    10030    2    1    2    0    0  0.00000000000E+00  0.00000000000E+00 -0.77795314762E+03  0.18457573130E+04  0.16738007524E+04 0.  0.
        3    1    3    3  502    0 -0.74728575139E+03  0.23056867123E+03 -0.60361188050E+02  0.78437324636E+03  0.10100000352E+00 0. -1.
       -3    1    3    3    0  502  0.74728575139E+03 -0.23056867123E+03 -0.71759195957E+03  0.10613840667E+04  0.10100000352E+00 0.  1.
</event>
<event>
 5   0  0.2356829E-04  0.1693005E+04  0.7818609E-02  0.8765364E-01
       -2   -1    0    0    0  501  0.00000000000E+00  0.00000000000E+00  0.14254936591E+04  0.14254936591E+04  0.25500000920E-02 0.  1.
        2   -1    0    0  501    0  0.00000000000E+00  0.00000000000E+00 -0.50267957105E+03  0.50267957106E+03  0.25500000920E-02 0. -1.
    10030    2    1    2    0    0  0.00000000000E+00  0.00000000000E+00  0.92281408802E+03  0.19281732301E+04  0.16930050692E+04 0.  0.
        5    1    3    3  502    0 -0.52432892620E+03 -0.63061421768E+03  0.22264573402E+03  0.84981664332E+03  0.46999998093E+01 0. -1.
       -5    1    3    3    0  502  0.52432892620E+03  0.63061421768E+03  0.70016835400E+03  0.10783565868E+04  0.46999998093E+01 0.  1.
</event>
<event>
 5   0  0.2224454E-04  0.1708186E+04  0.7818609E-02  0.8756709E-01
        2   -1    0    0  501    0  0.00000000000E+00  0.00000000000E+00  0.21447279962E+04  0.21447279963E+04  0.25500000920E-02 0.  1.
       -2   -1    0    0    0  501  0.00000000000E+00  0.00000000000E+00 -0.34012480145E+03  0.34012480146E+03  0.25500000920E-02 0. -1.
    10030    2    1    2    0    0  0.00000000000E+00  0.00000000000E+00  0.18046031948E+04  0.24848527977E+04  0.17081863878E+04 0.  0.
        2    1    3    3  502    0  0.54065306428E+03 -0.35101113932E+03  0.87216403633E+02  0.65047771438E+03  0.25500000920E-02 0. -1.
       -2    1    3    3    0  502 -0.54065306428E+03  0.35101113932E+03  0.17173867912E+04  0.18343750833E+04  0.25500000920E-02 0.  1.
</event>
<event>
 5   0  0.8372750E-05  0.1698387E+04  0.7818609E-02  0.8762285E-01
        3   -1    0    0  501    0  0.00000000000E+00  0.00000000000E+00  0.10876440952E+04  0.10876440999E+04  0.10100000352E+00 0. -1.
       -3   -1    0    0    0  501  0.00000000000E+00  0.00000000000E+00 -0.66301949480E+03  0.66301950249E+03  0.10100000352E+00 0.  1.
    10030    2    1    2    0    0  0.00000000000E+00  0.00000000000E+00  0.42462460042E+03  0.17506636024E+04  0.16983865866E+04 0.  0.
        1    1    3    3  502    0  0.46271806737E+03 -0.13310001028E+03 -0.50872255005E+03  0.70044432724E+03  0.50400001928E-02 0.  1.
       -1    1    3    3    0  502 -0.46271806737E+03  0.13310001028E+03  0.93334715046E+03  0.10502192752E+04  0.50400001928E-02 0. -1.
</event>
<event>
 5   0  0.1234158E-04  0.1688217E+04  0.7818609E-02  0.8768113E-01
        1   -1    0    0  501    0  0.00000000000E+00  0.00000000000E+00  0.98589358412E+03  0.98589358413E+03  0.50400001928E-02 0.  1.
       -1   -1    0    0    0  501  0.00000000000E+00  0.00000000000E+00 -0.72271422869E+03  0.72271422871E+03  0.50400001928E-02 0. -1.
    10030    2    1    2    0    0  0.00000000000E+00  0.00000000000E+00  0.26317935543E+03  0.17086078128E+04  0.16882171913E+04 0.  0.
        5    1    3    3  502    0  0.58837692372E+03 -0.55489451989E+03  0.37617340143E+03  0.89197749440E+03  0.46999998093E+01 0.  1.
       -5    1    3    3    0  502 -0.58837692372E+03  0.55489451989E+03 -0.11299404600E+03  0.81663031844E+03  0.46999998093E+01 0. -1.
</event>
<event>
 5   0  0.1215233E-04  0.1667707E+04  0.7818609E-02  0.8779999E-01
        1   -1    0    0  501    0  0.00000000000E+00  0.00000000000E+00  0.14284208387E+04  0.14284208387E+04  0.50400001928E-02 0. -1.
       -1   -1    0    0    0  501  0.00000000000E+00  0.00000000000E+00 -0.48676962124E+03  0.48676962127E+03  0.50400001928E-02 0.  1.
    10030    2    1    2    0    0  0.00000000000E+00  0.00000000000E+00  0.94165121746E+03  0.19151904600E+04  0.16677072533E+04 0.  0.
        2    1    3    3  502    0 -0.82365973370E+03  0.12799505036E+03  0.44479519339E+03  0.94479672623E+03  0.25500000920E-02 0.  1.
       -2    1    3    3    0  502  0.82365973370E+03 -0.12799505036E+03  0.49685602408E+03  0.97039373375E+03  0.25500000920E-02 0. -1.
</event>
<event>
 5   0  0.1204741E-04  0.1696646E+04  0.7818609E-02  0.8763279E-01
       -1   -1    0    0    0  501  0.00000000000E+00  0.00000000000E+00  0.13652960049E+04  0.13652960049E+04  0.50400001928E-02 0. -1.
        1   -1    0    0  501    0  0.00000000000E+00  0.00000000000E+00 -0.52710337195E+03  0.52710337198E+03  0.50400001928E-02 0.  1.
    10030    2    1    2    0    0  0.00000000000E+00  0.00000000000E+00  0.83819263296E+03  0.18923993769E+04  0.16966462542E+04 0.  0.
        1    1    3    3  502    0  0.23190235842E+03  0.42755790251E+03  0.11943172248E+04  0.12895650806E+04  0.50400001928E-02 0. -1.
       -1    1    3    3    0  502 -0.23190235842E+03 -0.42755790251E+03 -0.35612459179E+03  0.60283429626E+03  0.50400001928E-02 0.  1.
</event>
<event>
 5   0  0.2224454E-04  0.1692477E+04  0.7818609E-02  0.8765667E-01
       -2   -1    0    0    0  501  0.00000000000E+00  0.00000000000E+00  0.36780717167E+03  0.36780717168E+03  0.25500000920E-02 0.  1.
        2   -1    0    0  501    0  0.00000000000E+00  0.00000000000E+00 -0.19469968773E+04  0.19469968773E+04  0.25500000920E-02 0. -1.
    10030    2    1    2    0    0  0.00000000000E+00  0.00000000000E+00 -0.15791897056E+04  0.23148040490E+04  0.16924767824E+04 0.  0.
        2    1    3    3  502    0  0.20026980276E+03 -0.75222626364E+03 -0.33563503672E+03  0.84770467941E+03  0.25500000920E-02 0.  1.
       -2    1    3    3    0  502 -0.20026980276E+03  0.75222626364E+03 -0.12435546689E+04  0.14670993696E+04  0.25500000920E-02 0. -1.
</event>
<event>
 5   0  0.1204741E-04  0.1752350E+04  0.7818609E-02  0.8732058E-01
        1   -1    0    0  501    0  0.00000000000E+00  0.00000000000E+00  0.92642851545E+03  0.92642851546E+03  0.50400001928E-02 0.  1.
       -1   -1    0    0    0  501  0.00000000000E+00  0.00000000000E+00 -0.82864761370E+03  0.82864761372E+03  0.50400001928E-02 0. -1.
    10030    2    1    2    0    0  0.00000000000E+00  0.00000000000E+00  0.97780901743E+02  0.17550761292E+04  0.17523501689E+04 0.  0.
        1    1    3    3  502    0 -0.83856685558E+03 -0.25051214378E+03  0.90573374873E+02  0.87986035354E+03  0.50400001928E-02 0.  1.
       -1    1    3    3    0  502  0.83856685558E+03  0.25051214378E+03  0.72075268696E+01  0.87521577564E+03  0.50400001928E-02 0. -1.
</event>
<event>
 5   0  0.2356829E-04  0.1630318E+04  0.7818609E-02  0.8802136E-01
       -2   -1    0    0    0  501  0.00000000000E+00  0.00000000000E+00  0.66010885813E+03  0.66010885813E+03  0.25500000920E-02 0.  1.
        2   -1    0    0  501    0  0.00000000000E+00  0.00000000000E+00 -0.10066276929E+04  0.10066276929E+04  0.25500000920E-02 0. -1.
    10030    2    1    2    0    0  0.00000000000E+00  0.00000000000E+00 -0.34651883474E+03  0.16667365510E+04  0.16303175849E+04 0.  0.
        5    1    3    3  502    0  0.51230928853E+02  0.80753500854E+03 -0.27407448771E+03  0.85432798907E+03  0.46999998093E+01 0. -1.
       -5    1    3    3    0  502 -0.51230928853E+02 -0.80753500854E+03 -0.72444347027E+02  0.81240856193E+03  0.46999998093E+01 0.  1.
</event>
<event>
 5   0  0.1186302E-04  0.1717812E+04  0.7818609E-02  0.8751270E-01
        1   -1    0    0  501    0  0.00000000000E+00  0.00000000000E+00  0.18630906221E+04  0.18630906221E+04  0.50400001928E-02 0. -1.
       -1   -1    0    0    0  501  0.00000000000E+00  0.00000000000E+00 -0.39596528272E+03  0.39596528275E+03  0.50400001928E-02 0.  1.
    10030    2    1    2    0    0  0.00000000000E+00  0.00000000000E+00  0.14671253394E+04  0.22590559048E+04  0.17178116369E+04 0.  0.
        3    1    3    3  502    0  0.18603985617E+03 -0.57260633306E+03 -0.72002016496E+02  0.60636057039E+03  0.10100000352E+00 0.  1.
       -3    1    3    3    0  502 -0.18603985617E+03  0.57260633306E+03  0.15391273559E+04  0.16526953344E+04  0.10100000352E+00 0. -1.
</event>
<event>
 5   0  0.8372750E-05  0.1679558E+04  0.7818609E-02  0.8773110E-01
       -3   -1    0    0    0  501  0.00000000000E+00  0.00000000000E+00  0.17263295053E+04  0.17263295082E+04  0.10100000352E+00 0.  1.
        3   -1    0    0  501    0  0.00000000000E+00  0.00000000000E+00 -0.40851320929E+03  0.40851322177E+03  0.10100000352E+00 0. -1.
    10030    2    1    2    0    0  0.00000000000E+00  0.00000000000E+00  0.13178162960E+04  0.21348427300E+04  0.16795575881E+04 0.  0.
        4    1    3    3  502    0  0.16634394796E+03  0.81295636158E+03  0.49485357144E+03  0.96615217483E+03  0.12699999809E+01 0. -1.
       -4    1    3    3    0  502 -0.16634394796E+03 -0.81295636158E+03  0.82296272453E+03  0.11686905552E+04  0.12699999809E+01 0.  1.
</event>
<event>
 5   0  0.1234158E-04  0.1707089E+04  0.7818609E-02  0.8757331E-01
        1   -1    0    0  501    0  0.00000000000E+00  0.00000000000E+00  0.13518569193E+04  0.13518569193E+04  0.50400001928E-02 0. -1.
       -1   -1    0    0    0  501  0.00000000000E+00  0.00000000000E+00 -0.53891689517E+03  0.53891689520E+03  0.50400001928E-02 0.  1.
    10030    2    1    2    0    0  0.00000000000E+00  0.00000000000E+00  0.81294002415E+03  0.18907738145E+04  0.17070893752E+04 0.  0.
        5    1    3    3  502    0  0.52388451249E+03 -0.52025176165E+03  0.88080206313E+03  0.11493264298E+04  0.46999998093E+01 0. -1.
       -5    1    3    3    0  502 -0.52388451249E+03  0.52025176165E+03 -0.67862038979E+02  0.74144738469E+03  0.46999998093E+01 0.  1.
</event>
<event>
 5   0  0.2224454E-04  0.1727978E+04  0.7818609E-02  0.8745566E-01
       -2   -1    0    0    0  501  0.00000000000E+00  0.00000000000E+00  0.79019251645E+03  0.79019251646E+03  0.25500000920E-02 0.  1.
        2   -1    0    0  501    0  0.00000000000E+00  0.00000000000E+00 -0.94467753115E+03  0.94467753115E+03  0.25500000920E-02 0. -1.
    10030    2    1    2    0    0  0.00000000000E+00  0.00000000000E+00 -0.15448501469E+03  0.17348700476E+04  0.17279781429E+04 0.  0.
        2    1    3    3  502    0 -0.77377886317E+03  0.24528478480E+03  0.21987490374E+03  0.84097760258E+03  0.25500000920E-02 0.  1.
       -2    1    3    3    0  502  0.77377886317E+03 -0.24528478480E+03 -0.37435991843E+03  0.89389244503E+03  0.25500000920E-02 0. -1.
</event>
<event>
 5   0  0.8372750E-05  0.1700593E+04  0.7818609E-02  0.8761026E-01
       -3   -1    0    0    0  501  0.00000000000E+00  0.00000000000E+00  0.87967081671E+03  0.87967082250E+03  0.10100000352E+00 0. -1.
        3   -1    0    0  501    0  0.00000000000E+00  0.00000000000E+00 -0.82190315006E+03  0.82190315627E+03  0.10100000352E+00 0.  1.
    10030    2    1    2    0    0  0.00000000000E+00  0.00000000000E+00  0.57767666646E+02  0.17015739788E+04  0.17005931030E+04 0.  0.
        1    1    3    3  502    0  0.33133836772E+03  0.63871066614E+03  0.48221004628E+03  0.86617720919E+03  0.50400001928E-02 0. -1.
       -1    1    3    3    0  502 -0.33133836772E+03 -0.63871066614E+03 -0.42444237964E+03  0.83539676958E+03  0.50400001928E-02 0.  1.
</event>
<event>
 5   0  0.1204741E-04  0.1693673E+04  0.7818609E-02  0.8764981E-01
       -1   -1    0    0    0  501  0.00000000000E+00  0.00000000000E+00  0.79040158026E+03  0.79040158028E+03  0.50400001928E-02 0.  1.
        1   -1    0    0  501    0  0.00000000000E+00  0.00000000000E+00 -0.90730109627E+03  0.90730109629E+03  0.50400001928E-02 0. -1.
    10030    2    1    2    0    0  0.00000000000E+00  0.00000000000E+00 -0.11689951601E+03  0.16977026766E+04  0.16936731920E+04 0.  0.
        1    1    3    3  502    0 -0.49736498725E+02  0.48689385707E+03  0.63427536516E+03  0.80115203690E+03  0.50400001928E-02 0.  1.
       -1    1    3    3    0  502  0.49736498725E+02 -0.48689385707E+03 -0.75117488117E+03  0.89655063966E+03  0.50400001928E-02 0. -1.
</event>
<event>
 5   0  0.2224454E-04  0.1743507E+04  0.7818609E-02  0.8736932E-01
       -2   -1    0    0    0  501  0.00000000000E+00  0.00000000000E+00  0.11137177866E+04  0.11137177866E+04  0.25500000920E-02 0.  1.
        2   -1    0    0  501    0  0.00000000000E+00  0.00000000000E+00 -0.68235821706E+03  0.68235821707E+03  0.25500000920E-02 0. -1.
    10030    2    1    2    0    0  0.00000000000E+00  0.00000000000E+00  0.43135956956E+03  0.17960760037E+04  0.17435073653E+04 0.  0.
        2    1    3    3  502    0 -0.81500879585E+03  0.25481306721E+03  0.39642784854E+03  0.94144786135E+03  0.25500000920E-02 0. -1.
       -2    1    3    3    0  502  0.81500879585E+03 -0.25481306721E+03  0.34931721019E+02  0.85462814234E+03  0.25500000920E-02 0.  1.
</event>
<event>
 5   0  0.1215233E-04  0.1684236E+04  0.7818609E-02  0.8770406E-01
        1   -1    0    0  501    0  0.00000000000E+00  0.00000000000E+00  0.76358828081E+03  0.76358828083E+03  0.50400001928E-02 0.  1.
       -1   -1    0    0    0  501  0.00000000000E+00  0.00000000000E+00 -0.92872415893E+03  0.92872415895E+03  0.50400001928E-02 0. -1.
    10030    2    1    2    0    0  0.00000000000E+00  0.00000000000E+00 -0.16513587812E+03  0.16923124398E+04  0.16842361876E+04 0.  0.
        2    1    3    3  502    0  0.34349887252E+02 -0.56422107053E+03  0.54463481388E+03  0.78495376405E+03  0.25500000920E-02 0.  1.
       -2    1    3    3    0  502 -0.34349887252E+02  0.56422107053E+03 -0.70977069200E+03  0.90735867573E+03  0.25500000920E-02 0. -1.
</event>
<event>
 5   0  0.1215233E-04  0.1696661E+04  0.7818609E-02  0.8763271E-01
        1   -1    0    0  501    0  0.00000000000E+00  0.00000000000E+00  0.58744059438E+03  0.58744059440E+03  0.50400001928E-02 0. -1.
       -1   -1    0    0    0  501  0.00000000000E+00  0.00000000000E+00 -0.12250852841E+04  0.12250852841E+04  0.50400001928E-02 0.  1.
    10030    2    1    2    0    0  0.00000000000E+00  0.00000000000E+00 -0.63764468974E+03  0.18125258785E+04  0.16966612243E+04 0.  0.
        2    1    3    3  502    0 -0.54910872125E+03  0.44504644445E+03 -0.81998361063E+03  0.10825709433E+04  0.25500000920E-02 0.  1.
       -2    1    3    3    0  502  0.54910872125E+03 -0.44504644445E+03  0.18233892089E+03  0.72995493528E+03  0.25500000920E-02 0. -1.
</event>
<event>
 5   0  0.1126958E-04  0.1702035E+04  0.7818609E-02  0.8760205E-01
        1   -1    0    0  501    0  0.00000000000E+00  0.00000000000E+00  0.10359154543E+04  0.10359154543E+04  0.50400001928E-02 0. -1.
       -1   -1    0    0    0  501  0.00000000000E+00  0.00000000000E+00 -0.69912121183E+03  0.69912121185E+03  0.50400001928E-02 0.  1.
    10030    2    1    2    0    0  0.00000000000E+00  0.00000000000E+00  0.33679424246E+03  0.17350366662E+04  0.17020346269E+04 0.  0.
        4    1    3    3  502    0  0.43631815473E+03 -0.28299811200E+03  0.85508108830E+03  0.10008130415E+04  0.12699999809E+01 0. -1.
       -4    1    3    3    0  502 -0.43631815473E+03  0.28299811200E+03 -0.51828684584E+03  0.73422362466E+03  0.12699999809E+01 0.  1.
</event>
<event>
 5   0  0.1126958E-04  0.1699987E+04  0.7818609E-02  0.8761372E-01
       -1   -1    0    0    0  501  0.00000000000E+00  0.00000000000E+00  0.60394035264E+03  0.60394035266E+03  0.50400001928E-02 0. -1.
        1   -1    0    0  501    0  0.00000000000E+00  0.00000000000E+00 -0.11962920461E+04  0.11962920461E+04  0.50400001928E-02 0.  1.
    10030    2    1    2    0    0  0.00000000000E+00  0.00000000000E+00 -0.59235169345E+03  0.18002323988E+04  0.16999871061E+04 0.  0.
        4    1    3    3  502    0 -0.74970416594E+03 -0.24228534315E+03 -0.63393344475E+03  0.10112525645E+04  0.12699999809E+01 0.  1.
       -4    1    3    3    0  502  0.74970416594E+03  0.24228534315E+03  0.41581751292E+02  0.78897983426E+03  0.12699999809E+01 0. -1.
</event>
<event>
 5   0  0.1234158E-04  0.1698769E+04  0.7818609E-02  0.8762066E-01
       -1   -1    0    0    0  501  0.00000000000E+00  0.00000000000E+00  0.40645979749E+03  0.40645979752E+03  0.50400001928E-02 0.  1.
        1   -1    0    0  501    0  0.00000000000E+00  0.00000000000E+00 -0.17749711926E+04  0.17749711926E+04  0.50400001928E-02 0. -1.
    10030    2    1    2    0    0  0.00000000000E+00  0.00000000000E+00 -0.13685113951E+04  0.21814309901E+04  0.16987694741E+04 0.  0.
        5    1    3    3  502    0  0.71485450149E+03 -0.42355457800E+03 -0.45810067148E+03  0.94883810740E+03  0.46999998093E+01 0.  1.
       -5    1    3    3    0  502 -0.71485450149E+03  0.42355457800E+03 -0.91041072360E+03  0.12325928827E+04  0.46999998093E+01 0. -1.
</event>
<event>
 5   0  0.1186302E-04  0.1638242E+04  0.7818609E-02  0.8797393E-01
       -1   -1    0    0    0  501  0.00000000000E+00  0.00000000000E+00  0.86143145832E+03  0.86143145834E+03  0.50400001928E-02 0.  1.
        1   -1    0    0  501    0  0.00000000000E+00  0.00000000000E+00 -0.77888873174E+03  0.77888873176E+03  0.50400001928E-02 0. -1.
    10030    2    1    2    0    0  0.00000000000E+00  0.00000000000E+00  0.82542726579E+02  0.16403201901E+04  0.16382420530E+04 0.  0.
        3    1    3    3  502    0  0.41734268518E+03 -0.48020100953E+03  0.55786315954E+03  0.84615556572E+03  0.10100000352E+00 0.  1.
       -3    1    3    3    0  502 -0.41734268518E+03  0.48020100953E+03 -0.47532043296E+03  0.79416462438E+03  0.10100000352E+00 0. -1.
</event>
<event>
 5   0  0.2356829E-04  0.1695069E+04  0.7818609E-02  0.8764182E-01
       -2   -1    0    0    0  501  0.00000000000E+00  0.00000000000E+00  0.59854679278E+03  0.59854679278E+03  0.25500000920E-02 0.  1.
        2   -1    0    0  501    0  0.00000000000E+00  0.00000000000E+00 -0.12000977348E+04  0.12000977348E+04  0.25500000920E-02 0. -1.
    10030    2    1    2    0    0  0.00000000000E+00  0.00000000000E+00 -0.60155094207E+03  0.17986445276E+04  0.16950689074E+04 0.  0.
        5    1    3    3  502    0  0.21435737886E+02 -0.14567119320E+03  0.58485747052E+03  0.60312514307E+03  0.46999998093E+01 0.  1.
       -5    1    3    3    0  502 -0.21435737886E+02  0.14567119320E+03 -0.11864084126E+04  0.11955193846E+04  0.46999998093E+01 0. -1.
</event>
<event>
 5   0  0.1234158E-04  0.1679122E+04  0.7818609E-02  0.8773362E-01
       -1   -1    0    0    0  501  0.00000000000E+00  0.00000000000E+00  0.79024820565E+03  0.79024820567E+03  0.50400001928E-02 0. -1.
        1   -1    0    0  501    0  0.00000000000E+00  0.00000000000E+00 -0.89195104916E+03  0.89195104917E+03  0.50400001928E-02 0.  1.
    10030    2    1    2    0    0  0.00000000000E+00  0.00000000000E+00 -0.10170284350E+03  0.16821992548E+04  0.16791220517E+04 0.  0.
        5    1    3    3  502    0  0.69251767342E+03  0.47421286914E+03 -0.31269427248E+02  0.83991573406E+03  0.46999998093E+01 0.  1.
       -5    1    3    3    0  502 -0.69251767342E+03 -0.47421286914E+03 -0.70433416256E+02  0.84228352078E+03  0.46999998093E+01 0. -1.
</event>
<event>
 5   0  0.2234723E-04  0.1703447E+04  0.7818609E-02  0.8759401E-01
       -2   -1    0    0    0  501  0.00000000000E+00  0.00000000000E+00  0.36889267279E+03  0.36889267280E+03  0.25500000920E-02 0. -1.
        2   -1    0    0  501    0  0.00000000000E+00  0.00000000000E+00 -0.19665151238E+04  0.19665151238E+04  0.25500000920E-02 0.  1.
    10030    2    1    2    0    0  0.00000000000E+00  0.00000000000E+00 -0.15976224511E+04  0.23354077966E+04  0.17034471170E+04 0.  0.
        1    1    3    3  502    0 -0.51965388187E+03  0.47178494306E+02 -0.17217294753E+04  0.17990604085E+04  0.50400001928E-02 0.  1.
       -1    1    3    3    0  502  0.51965388187E+03 -0.47178494306E+02  0.12410702426E+03  0.53634738814E+03  0.50400001928E-02 0. -1.
</event>
<event>
 5   0  0.1186302E-04  0.1692161E+04  0.7818609E-02  0.8765848E-01
        1   -1    0    0  501    0  0.00000000000E+00  0.00000000000E+00  0.12706417235E+04  0.12706417235E+04  0.50400001928E-02 0.  1.
       -1   -1    0    0    0  501  0.00000000000E+00  0.00000000000E+00 -0.56337846870E+03  0.56337846873E+03  0.50400001928E-02 0. -1.
    10030    2    1    2    0    0  0.00000000000E+00  0.00000000000E+00  0.70726325481E+03  0.18340201923E+04  0.16921609717E+04 0.  0.
        3    1    3    3  502    0  0.34676089799E+03 -0.18968772634E+03  0.11644283989E+04  0.12296820972E+04  0.10100000352E+00 0.  1.
       -3    1    3    3    0  502 -0.34676089799E+03  0.18968772634E+03 -0.45716514410E+03  0.60433809501E+03  0.10100000352E+00 0. -1.
</event>
<event>
 5   0  0.1215233E-04  0.1704045E+04  0.7818609E-02  0.8759061E-01
        1   -1    0    0  501    0  0.00000000000E+00  0.00000000000E+00  0.76516339682E+03  0.76516339684E+03  0.50400001928E-02 0.  1.
       -1   -1    0    0    0  501  0.00000000000E+00  0.00000000000E+00 -0.94874169482E+03  0.94874169484E+03  0.50400001928E-02 0. -1.
    10030    2    1    2    0    0  0.00000000000E+00  0.00000000000E+00 -0.18357829800E+03  0.17139050917E+04  0.17040450909E+04 0.  0.
        2    1    3    3  502    0  0.16950907875E+03  0.81751684219E+03  0.79121436035E+02  0.83864612125E+03  0.25500000920E-02 0. -1.
       -2    1    3    3    0  502 -0.16950907875E+03 -0.81751684219E+03 -0.26269973404E+03  0.87525897043E+03  0.25500000920E-02 0.  1.
</event>
<event>
 5   0  0.2234723E-04  0.1652844E+04  0.7818609E-02  0.8788726E-01
       -2   -1    0    0    0  501  0.00000000000E+00  0.00000000000E+00  0.61929816435E+03  0.61929816436E+03  0.25500000920E-02 0. -1.
        2   -1    0    0  501    0  0.00000000000E+00  0.00000000000E+00 -0.11028187910E+04  0.11028187910E+04  0.25500000920E-02 0.  1.
    10030    2    1    2    0    0  0.00000000000E+00  0.00000000000E+00 -0.48352062669E+03  0.17221169554E+04  0.16528444003E+04 0.  0.
        1    1    3    3  502    0 -0.38753967593E+03 -0.60108020920E+03 -0.67322882127E+03  0.98220235396E+03  0.50400001928E-02 0.  1.
       -1    1    3    3    0  502  0.38753967593E+03  0.60108020920E+03  0.18970819458E+03  0.73991460144E+03  0.50400001928E-02 0. -1.
</event>
<event>
 5   0  0.2288806E-04  0.1706874E+04  0.7818609E-02  0.8757454E-01
        2   -1    0    0  501    0  0.00000000000E+00  0.00000000000E+00  0.10399167130E+04  0.10399167130E+04  0.25500000920E-02 0. -1.
       -2   -1    0    0    0  501  0.00000000000E+00  0.00000000000E+00 -0.70039697452E+03  0.70039697453E+03  0.25500000920E-02 0.  1.
    10030    2    1    2    0    0  0.00000000000E+00  0.00000000000E+00  0.33951973850E+03  0.17403136876E+04  0.17068737734E+04 0.  0.
        3    1    3    3  502    0 -0.36994319319E+03 -0.46716012293E+03 -0.45315783048E+03  0.74863113492E+03  0.10100000352E+00 0.  1.
       -3    1    3    3    0  502  0.36994319319E+03  0.46716012293E+03  0.79267756898E+03  0.99168255264E+03  0.10100000352E+00 0. -1.
</event>
<event>
 5   0  0.2234723E-04  0.1670152E+04  0.7818609E-02  0.8778573E-01
       -2   -1    0    0    0  501  0.00000000000E+00  0.00000000000E+00  0.68481422144E+03  0.68481422144E+03  0.25500000920E-02 0. -1.
        2   -1    0    0  501    0  0.00000000000E+00  0.00000000000E+00 -0.10183078064E+04  0.10183078064E+04  0.25500000920E-02 0.  1.
    10030    2    1    2    0    0  0.00000000000E+00  0.00000000000E+00 -0.33349358493E+03  0.17031220278E+04  0.16701516908E+04 0.  0.
        1    1    3    3  502    0  0.64011152459E+03  0.30568150290E+02  0.37924281235E+03  0.74464910291E+03  0.50400001928E-02 0. -1.
       -1    1    3    3    0  502 -0.64011152459E+03 -0.30568150290E+02 -0.71273639728E+03  0.95847292490E+03  0.50400001928E-02 0.  1.
</event>
<event>
 5   0  0.2288806E-04  0.1747890E+04  0.7818609E-02  0.8734513E-01
        2   -1    0    0  501    0  0.00000000000E+00  0.00000000000E+00  0.83045510918E+03  0.83045510919E+03  0.25500000920E-02 0. -1.
       -2   -1    0    0    0  501  0.00000000000E+00  0.00000000000E+00 -0.91971203496E+03  0.91971203496E+03  0.25500000920E-02 0.  1.
    10030    2    1    2    0    0  0.00000000000E+00  0.00000000000E+00 -0.89256925775E+02  0.17501671442E+04  0.17478896515E+04 0.  0.
        3    1    3    3  502    0  0.79366444567E+03  0.28347190909E+03  0.18701681790E+03  0.86326987434E+03  0.10100000352E+00 0.  1.
       -3    1    3    3    0  502 -0.79366444567E+03 -0.28347190909E+03 -0.27627374368E+03  0.88689726981E+03  0.10100000352E+00 0. -1.
</event>
<event>
 5   0  0.2224454E-04  0.1795714E+04  0.7818609E-02  0.8708582E-01
       -2   -1    0    0    0  501  0.00000000000E+00  0.00000000000E+00  0.74594630687E+03  0.74594630688E+03  0.25500000920E-02 0. -1.
        2   -1    0    0  501    0  0.00000000000E+00  0.00000000000E+00 -0.10807045196E+04  0.10807045196E+04  0.25500000920E-02 0.  1.
    10030    2    1    2    0    0  0.00000000000E+00  0.00000000000E+00 -0.33475821269E+03  0.18266508264E+04  0.17957143929E+04 0.  0.
        2    1    3    3  502    0 -0.64307559119E+03 -0.57071558322E+03  0.95697850506E+02  0.86511303973E+03  0.25500000920E-02 0. -1.
       -2    1    3    3    0  502  0.64307559119E+03  0.57071558322E+03 -0.43045606320E+03  0.96153778671E+03  0.25500000920E-02 0.  1.
</event>
<event>
 5   0  0.2234723E-04  0.1711601E+04  0.7818609E-02  0.8754775E-01
        2   -1    0    0  501    0  0.00000000000E+00  0.00000000000E+00  0.14118842482E+04  0.14118842482E+04  0.25500000920E-02 0.  1.
       -2   -1    0    0    0  501  0.00000000000E+00  0.00000000000E+00 -0.51873567089E+03  0.51873567089E+03  0.25500000920E-02 0. -1.
    10030    2    1    2    0    0  0.00000000000E+00  0.00000000000E+00  0.89314857730E+03  0.19306199191E+04  0.17116012651E+04 0.  0.
        1    1    3    3  502    0 -0.63591033477E+03  0.24640659330E+03 -0.13658992908E+03  0.69552496134E+03  0.50400001928E-02 0. -1.
       -1    1    3    3    0  502  0.63591033477E+03 -0.24640659330E+03  0.10297385064E+04  0.12350949577E+04  0.50400001928E-02 0.  1.
</event>
<event>
 5   0  0.1234158E-04  0.1702636E+04  0.7818609E-02  0.8759863E-01
        1   -1    0    0  501    0  0.00000000000E+00  0.00000000000E+00  0.20278972392E+04  0.20278972392E+04  0.50400001928E-02 0.  1.
       -1   -1    0    0    0  501  0.00000000000E+00  0.00000000000E+00 -0.35738596347E+03  0.35738596351E+03  0.50400001928E-02 0. -1.
    10030    2    1    2    0    0  0.00000000000E+00  0.00000000000E+00  0.16705112758E+04  0.23852832028E+04  0.17026356142E+04 0.  0.
        5    1    3    3  502    0  0.12685416377E+03  0.27887721890E+03  0.19479686368E+04  0.19719199735E+04  0.46999998093E+01 0.  1.
       -5    1    3    3    0  502 -0.12685416377E+03 -0.27887721890E+03 -0.27745736102E+03  0.41336322922E+03  0.46999998093E+01 0. -1.
</event>
<event>
 5   0  0.1234158E-04  0.1704410E+04  0.7818609E-02  0.8758853E-01
       -1   -1    0    0    0  501  0.00000000000E+00  0.00000000000E+00  0.60571449133E+03  0.60571449136E+03  0.50400001928E-02 0.  1.
        1   -1    0    0  501    0  0.00000000000E+00  0.00000000000E+00 -0.11990021098E+04  0.11990021098E+04  0.50400001928E-02 0. -1.
    10030    2    1    2    0    0  0.00000000000E+00  0.00000000000E+00 -0.59328761847E+03  0.18047166012E+04  0.17044095201E+04 0.  0.
        5    1    3    3  502    0 -0.10394484254E+01 -0.59159898790E+03  0.35283918974E+03  0.68884543023E+03  0.46999998093E+01 0.  1.
       -5    1    3    3    0  502  0.10394484254E+01  0.59159898790E+03 -0.94612680821E+03  0.11158711709E+04  0.46999998093E+01 0. -1.
</event>
<event>
 5   0  0.2224454E-04  0.1705103E+04  0.7818609E-02  0.8758459E-01
       -2   -1    0    0    0  501  0.00000000000E+00  0.00000000000E+00  0.32948024596E+03  0.32948024597E+03  0.25500000920E-02 0.  1.
        2   -1    0    0  501    0  0.00000000000E+00  0.00000000000E+00 -0.22060326312E+04  0.22060326312E+04  0.25500000920E-02 0. -1.
    10030    2    1    2    0    0  0.00000000000E+00  0.00000000000E+00 -0.18765523852E+04  0.25355128772E+04  0.17051031335E+04 0.  0.
        2    1    3    3  502    0  0.81377450782E+02 -0.67121168040E+03 -0.17105175139E+04  0.18392981201E+04  0.25500000920E-02 0.  1.
       -2    1    3    3    0  502 -0.81377450782E+02  0.67121168040E+03 -0.16603487133E+03  0.69621475703E+03  0.25500000920E-02 0. -1.
</event>
<event>
 5   0  0.1186302E-04  0.1673532E+04  0.7818609E-02  0.8776606E-01
       -1   -1    0    0    0  501  0.00000000000E+00  0.00000000000E+00  0.10545992861E+04  0.10545992861E+04  0.50400001928E-02 0.  1.
        1   -1    0    0  501    0  0.00000000000E+00  0.00000000000E+00 -0.66392710397E+03  0.66392710399E+03  0.50400001928E-02 0. -1.
    10030    2    1    2    0    0  0.00000000000E+00  0.00000000000E+00  0.39067218209E+03  0.17185263901E+04  0.16735316548E+04 0.  0.
        3    1    3    3  502    0 -0.20403579785E+03  0.37862000568E+03  0.93240380428E+03  0.10268206172E+04  0.10100000352E+00 0.  1.
       -3    1    3    3    0  502  0.20403579785E+03 -0.37862000568E+03 -0.54173162219E+03  0.69170577284E+03  0.10100000352E+00 0. -1.
</event>
<event>
 5   0  0.1234158E-04  0.1704693E+04  0.7818609E-02  0.8758692E-01
        1   -1    0    0  501    0  0.00000000000E+00  0.00000000000E+00  0.20372323191E+04  0.20372323191E+04  0.50400001928E-02 0.  1.
       -1   -1    0    0    0  501  0.00000000000E+00  0.00000000000E+00 -0.35660855311E+03  0.35660855315E+03  0.50400001928E-02 0. -1.
    10030    2    1    2    0    0  0.00000000000E+00  0.00000000000E+00  0.16806237660E+04  0.23938408722E+04  0.17046928987E+04 0.  0.
        5    1    3    3  502    0  0.77858090837E+03  0.15404404805E+03  0.40396129496E+03  0.89057544175E+03  0.46999998093E+01 0. -1.
       -5    1    3    3    0  502 -0.77858090837E+03 -0.15404404805E+03  0.12766624710E+04  0.15032654305E+04  0.46999998093E+01 0.  1.
</event>
<event>
 5   0  0.2356829E-04  0.1819449E+04  0.7818609E-02  0.8696025E-01
        2   -1    0    0  501    0  0.00000000000E+00  0.00000000000E+00  0.84510383435E+03  0.84510383435E+03  0.25500000920E-02 0. -1.
       -2   -1    0    0    0  501  0.00000000000E+00  0.00000000000E+00 -0.97928625036E+03  0.97928625036E+03  0.25500000920E-02 0.  1.
    10030    2    1    2    0    0  0.00000000000E+00  0.00000000000E+00 -0.13418241601E+03  0.18243900847E+04  0.18194488892E+04 0.  0.
        5    1    3    3  502    0 -0.15590615823E+03  0.84237119821E+03 -0.37399514865E+03  0.93476757911E+03  0.46999998093E+01 0.  1.
       -5    1    3    3    0  502  0.15590615823E+03 -0.84237119821E+03  0.23981273264E+03  0.88962250560E+03  0.46999998093E+01 0. -1.
</event>
<event>
 5   0  0.2288806E-04  0.1705393E+04  0.7818609E-02  0.8758295E-01
        2   -1    0    0  501    0  0.00000000000E+00  0.00000000000E+00  0.10733218731E+04  0.10733218731E+04  0.25500000920E-02 0.  1.
       -2   -1    0    0    0  501  0.00000000000E+00  0.00000000000E+00 -0.67742146243E+03  0.67742146244E+03  0.25500000920E-02 0. -1.
    10030    2    1    2    0    0  0.00000000000E+00  0.00000000000E+00  0.39590041072E+03  0.17507433356E+04  0.17053929435E+04 0.  0.
        3    1    3    3  502    0  0.75591765796E+03  0.39188875091E+03  0.24502776552E+03  0.88601744609E+03  0.10100000352E+00 0. -1.
       -3    1    3    3    0  502 -0.75591765796E+03 -0.39188875091E+03  0.15087264519E+03  0.86472588950E+03  0.10100000352E+00 0.  1.
</event>
<event>
 5   0  0.1234158E-04  0.1688632E+04  0.7818609E-02  0.8767875E-01
       -1   -1    0    0    0  501  0.00000000000E+00  0.00000000000E+00  0.87311708135E+03  0.87311708136E+03  0.50400001928E-02 0.  1.
        1   -1    0    0  501    0  0.00000000000E+00  0.00000000000E+00 -0.81646488673E+03  0.81646488674E+03  0.50400001928E-02 0. -1.
    10030    2    1    2    0    0  0.00000000000E+00  0.00000000000E+00  0.56652194620E+02  0.16895819681E+04  0.16886319184E+04 0.  0.
        5    1    3    3  502    0 -0.63084194315E+03  0.21907511829E+02  0.58936061593E+03  0.86360264122E+03  0.46999998093E+01 0.  1.
       -5    1    3    3    0  502  0.63084194315E+03 -0.21907511829E+02 -0.53270842131E+03  0.82597932689E+03  0.46999998093E+01 0. -1.
</event>
<event>
 5   0  0.2224454E-04  0.1639557E+04  0.7818609E-02  0.8796608E-01
        2   -1    0    0  501    0  0.00000000000E+00  0.00000000000E+00  0.15535228264E+04  0.15535228264E+04  0.25500000920E-02 0. -1.
       -2   -1    0    0    0  501  0.00000000000E+00  0.00000000000E+00 -0.43258907492E+03  0.43258907493E+03  0.25500000920E-02 0.  1.
    10030    2    1    2    0    0  0.00000000000E+00  0.00000000000E+00  0.11209337515E+04  0.19861119013E+04  0.16395572602E+04 0.  0.
        2    1    3    3  502    0  0.17691899785E+03  0.67223211721E+02  0.15266957295E+04  0.15383819885E+04  0.25500000920E-02 0. -1.
       -2    1    3    3    0  502 -0.17691899785E+03 -0.67223211721E+02 -0.40576197806E+03  0.44772991282E+03  0.25500000920E-02 0.  1.
</event>
<event>
 5   0  0.1204741E-04  0.1731981E+04  0.7818609E-02  0.8743332E-01
        1   -1    0    0  501    0  0.00000000000E+00  0.00000000000E+00  0.14902307012E+04  0.14902307012E+04  0.50400001928E-02 0. -1.
       -1   -1    0    0    0  501  0.00000000000E+00  0.00000000000E+00 -0.50323694954E+03  0.50323694957E+03  0.50400001928E-02 0.  1.
    10030    2    1    2    0    0  0.00000000000E+00  0.00000000000E+00  0.98699375168E+03  0.19934676508E+04  0.17319805452E+04 0.  0.
        1    1    3    3  502    0  0.50815282445E+03  0.35439151045E+03 -0.20294002603E+03  0.65191816194E+03  0.50400001928E-02 0.  1.
       -1    1    3    3    0  502 -0.50815282445E+03 -0.35439151045E+03  0.11899337777E+04  0.13415494889E+04  0.50400001928E-02 0. -1.
</event>
<event>
 5   0  0.8372750E-05  0.1783246E+04  0.7818609E-02  0.8715260E-01
       -3   -1    0    0    0  501  0.00000000000E+00  0.00000000000E+00  0.25169878088E+03  0.25169880114E+03  0.10100000352E+00 0. -1.
        3   -1    0    0  501    0  0.00000000000E+00  0.00000000000E+00 -0.31585025741E+04  0.31585025757E+04  0.10100000352E+00 0.  1.
    10030    2    1    2    0    0  0.00000000000E+00  0.00000000000E+00 -0.29068037932E+04  0.34102013768E+04  0.17832456753E+04 0.  0.
        5    1    3    3  502    0 -0.24967149673E+03  0.32698873836E+03  0.59309173185E+02  0.41568877699E+03  0.46999998093E+01 0. -1.
       -5    1    3    3    0  502  0.24967149673E+03 -0.32698873836E+03 -0.29661129664E+04  0.29945125998E+04  0.46999998093E+01 0.  1.
</event>
<event>
 5   0  0.2234723E-04  0.1704702E+04  0.7818609E-02  0.8758687E-01
       -2   -1    0    0    0  501  0.00000000000E+00  0.00000000000E+00  0.41360536960E+03  0.41360536961E+03  0.25500000920E-02 0. -1.
        2   -1    0    0  501    0  0.00000000000E+00  0.00000000000E+00 -0.17565108678E+04  0.17565108678E+04  0.25500000920E-02 0.  1.
    10030    2    1    2    0    0  0.00000000000E+00  0.00000000000E+00 -0.13429054982E+04  0.21701162374E+04  0.17047021167E+04 0.  0.
        1    1    3    3  502    0  0.69383092845E+03 -0.23299404017E+03 -0.11536866700E+03  0.74094366141E+03  0.50400001928E-02 0. -1.
       -1    1    3    3    0  502 -0.69383092845E+03  0.23299404017E+03 -0.12275368312E+04  0.14291725760E+04  0.50400001928E-02 0.  1.
</event>
<event>
 5   0  0.1215233E-04  0.1691212E+04  0.7818609E-02  0.8766392E-01
       -1   -1    0    0    0  501  0.00000000000E+00  0.00000000000E+00  0.79263442562E+03  0.79263442564E+03  0.50400001928E-02 0. -1.
        1   -1    0    0  501    0  0.00000000000E+00  0.00000000000E+00 -0.90211809062E+03  0.90211809063E+03  0.50400001928E-02 0.  1.
    10030    2    1    2    0    0  0.00000000000E+00  0.00000000000E+00 -0.10948366500E+03  0.16947525163E+04  0.16912124108E+04 0.  0.
        2    1    3    3  502    0  0.22789258689E+02 -0.71196155961E+03  0.40188869177E+03  0.81787721160E+03  0.25500000920E-02 0. -1.
       -2    1    3    3    0  502 -0.22789258689E+02  0.71196155961E+03 -0.51137235677E+03  0.87687530467E+03  0.25500000920E-02 0.  1.
</event>
<event>
 5   0  0.1186302E-04  0.1697501E+04  0.7818609E-02  0.8762791E-01
        1   -1    0    0  501    0  0.00000000000E+00  0.00000000000E+00  0.17529285406E+04  0.17529285406E+04  0.50400001928E-02 0. -1.
       -1   -1    0    0    0  501  0.00000000000E+00  0.00000000000E+00 -0.41095663632E+03  0.41095663635E+03  0.50400001928E-02 0.  1.
    10030    2    1    2    0    0  0.00000000000E+00  0.00000000000E+00  0.13419719042E+04  0.21638851769E+04  0.16975012422E+04 0.  0.
        3    1    3    3  502    0 -0.14647444572E+03 -0.80637738130E+03  0.38973623757E+03  0.90752057244E+03  0.10100000352E+00 0.  1.
       -3    1    3    3    0  502  0.14647444572E+03  0.80637738130E+03  0.95223566667E+03  0.12563646045E+04  0.10100000352E+00 0. -1.
</event>
<event>
 5   0  0.1234158E-04  0.1693277E+04  0.7818609E-02  0.8765208E-01
        1   -1    0    0  501    0  0.00000000000E+00  0.00000000000E+00  0.45303230088E+03  0.45303230091E+03  0.50400001928E-02 0. -1.
       -1   -1    0    0    0  501  0.00000000000E+00  0.00000000000E+00 -0.15822193979E+04  0.15822193979E+04  0.50400001928E-02 0.  1.
    10030    2    1    2    0    0  0.00000000000E+00  0.00000000000E+00 -0.11291870970E+04  0.20352516988E+04  0.16932766985E+04 0.  0.
        5    1    3    3  502    0 -0.19007175559E+03 -0.58314957827E+02  0.42455969145E+03  0.46882931669E+03  0.46999998093E+01 0. -1.
       -5    1    3    3    0  502  0.19007175559E+03  0.58314957827E+02 -0.15537467885E+04  0.15664223822E+04  0.46999998093E+01 0.  1.
</event>
<event>
 5   0  0.1215233E-04  0.1702716E+04  0.7818609E-02  0.8759817E-01
        1   -1    0    0  501    0  0.00000000000E+00  0.00000000000E+00  0.65363541933E+03  0.65363541935E+03  0.50400001928E-02 0. -1.
       -1   -1    0    0    0  501  0.00000000000E+00  0.00000000000E+00 -0.11088912364E+04  0.11088912364E+04  0.50400001928E-02 0.  1.
    10030    2    1    2    0    0  0.00000000000E+00  0.00000000000E+00 -0.45525581707E+03  0.17625266558E+04  0.17027161693E+04 0.  0.
        2    1    3    3  502    0 -0.10747273497E+03 -0.81701358556E+03 -0.44903128468E+03  0.93845121471E+03  0.25500000920E-02 0.  1.
       -2    1    3    3    0  502  0.10747273497E+03  0.81701358556E+03 -0.62245323922E+01  0.82407544106E+03  0.25500000920E-02 0. -1.
</event>
<event>
 5   0  0.2242967E-04  0.1496287E+04  0.7818609E-02  0.8886926E-01
       -2   -1    0    0    0  501  0.00000000000E+00  0.00000000000E+00  0.88237817298E+03  0.88237817299E+03  0.25500000920E-02 0.  1.
        2   -1    0    0  501    0  0.00000000000E+00  0.00000000000E+00 -0.63432969636E+03  0.63432969636E+03  0.25500000920E-02 0. -1.
    10030    2    1    2    0    0  0.00000000000E+00  0.00000000000E+00  0.24804847662E+03  0.15167078694E+04  0.14962869759E+04 0.  0.
        4    1    3    3  502    0  0.93234694670E+02 -0.72414483044E+03  0.28946515249E+03  0.78541080407E+03  0.12699999809E+01 0. -1.
       -4    1    3    3    0  502 -0.93234694670E+02  0.72414483044E+03 -0.41416675861E+02  0.73129706528E+03  0.12699999809E+01 0.  1.
</event>
<event>
 5   0  0.1126958E-04  0.1700593E+04  0.7818609E-02  0.8761026E-01
        1   -1    0    0  501    0  0.00000000000E+00  0.00000000000E+00  0.15889333572E+04  0.15889333572E+04  0.50400001928E-02 0. -1.
       -1   -1    0    0    0  501  0.00000000000E+00  0.00000000000E+00 -0.45502475734E+03  0.45502475737E+03  0.50400001928E-02 0.  1.
    10030    2    1    2    0    0  0.00000000000E+00  0.00000000000E+00  0.11339085999E+04  0.20439581146E+04  0.17005928558E+04 0.  0.
        4    1    3    3  502    0 -0.26915864425E+03 -0.44669158872E+03 -0.24022649139E+03  0.57418649520E+03  0.12699999809E+01 0.  1.
       -4    1    3    3    0  502  0.26915864425E+03  0.44669158872E+03  0.13741350913E+04  0.14697716194E+04  0.12699999809E+01 0. -1.
</event>
<event>
 5   0  0.1234158E-04  0.1699877E+04  0.7818609E-02  0.8761434E-01
        1   -1    0    0  501    0  0.00000000000E+00  0.00000000000E+00  0.12271245495E+04  0.12271245495E+04  0.50400001928E-02 0. -1.
       -1   -1    0    0    0  501  0.00000000000E+00  0.00000000000E+00 -0.58868964909E+03  0.58868964911E+03  0.50400001928E-02 0.  1.
    10030    2    1    2    0    0  0.00000000000E+00  0.00000000000E+00  0.63843490042E+03  0.18158141986E+04  0.16998770785E+04 0.  0.
        5    1    3    3  502    0 -0.49950024553E+03  0.10947576967E+03 -0.40597218120E+03  0.65293257028E+03  0.46999998093E+01 0.  1.
       -5    1    3    3    0  502  0.49950024553E+03 -0.10947576967E+03  0.10444070816E+04  0.11628816283E+04  0.46999998093E+01 0. -1.
</event>
<event>
 5   0  0.8372750E-05  0.1704514E+04  0.7818609E-02  0.8758794E-01
       -4   -1    0    0    0  501  0.00000000000E+00  0.00000000000E+00  0.14550874929E+04  0.14550880471E+04  0.12699999809E+01 0.  1.
        4   -1    0    0  501    0  0.00000000000E+00  0.00000000000E+00 -0.49917241829E+03  0.49917403386E+03  0.12699999809E+01 0. -1.
    10030    2    1    2    0    0  0.00000000000E+00  0.00000000000E+00  0.95591507460E+03  0.19542620810E+04  0.17045136114E+04 0.  0.
        1    1    3    3  502    0  0.14943577080E+01 -0.18889885140E+03  0.14307831697E+04  0.14431997394E+04  0.50400001928E-02 0.  1.
       -1    1    3    3    0  502 -0.14943577080E+01  0.18889885140E+03 -0.47486809511E+03  0.51106234154E+03  0.50400001928E-02 0. -1.
</event>
<event>
 5   0  0.2234723E-04  0.1698443E+04  0.7818609E-02  0.8762253E-01
        2   -1    0    0  501    0  0.00000000000E+00  0.00000000000E+00  0.13035948906E+04  0.13035948906E+04  0.25500000920E-02 0. -1.
       -2   -1    0    0    0  501  0.00000000000E+00  0.00000000000E+00 -0.55322166055E+03  0.55322166056E+03  0.25500000920E-02 0.  1.
    10030    2    1    2    0    0  0.00000000000E+00  0.00000000000E+00  0.75037323001E+03  0.18568165511E+04  0.16984427339E+04 0.  0.
        1    1    3    3  502    0  0.68703723720E+03  0.92294471817E+02  0.91147777933E+03  0.11451332573E+04  0.50400001928E-02 0. -1.
       -1    1    3    3    0  502 -0.68703723720E+03 -0.92294471817E+02 -0.16110454931E+03  0.71168329379E+03  0.50400001928E-02 0.  1.
</event>
<event>
 5   0  0.2288806E-04  0.1714032E+04  0.7818609E-02  0.8753402E-01
        2   -1    0    0  501    0  0.00000000000E+00  0.00000000000E+00  0.44162003358E+03  0.44162003358E+03  0.25500000920E-02 0. -1.
       -2   -1    0    0    0  501  0.00000000000E+00  0.00000000000E+00 -0.16631412987E+04  0.16631412987E+04  0.25500000920E-02 0.  1.
    10030    2    1    2    0    0  0.00000000000E+00  0.00000000000E+00 -0.12215212651E+04  0.21047613323E+04  0.17140321073E+04 0.  0.
        3    1    3    3  502    0  0.93573922680E+02 -0.60070413562E+03 -0.13525078723E+04  0.14828617914E+04  0.10100000352E+00 0.  1.
       -3    1    3    3    0  502 -0.93573922680E+02  0.60070413562E+03  0.13098660714E+03  0.62189954092E+03  0.10100000352E+00 0. -1.
</event>
<event>
 5   0  0.2288806E-04  0.1702921E+04  0.7818609E-02  0.8759700E-01
        2   -1    0    0  501    0  0.00000000000E+00  0.00000000000E+00  0.44837509319E+03  0.44837509320E+03  0.25500000920E-02 0.  1.
       -2   -1    0    0    0  501  0.00000000000E+00  0.00000000000E+00 -0.16169162105E+04  0.16169162105E+04  0.25500000920E-02 0. -1.
    10030    2    1    2    0    0  0.00000000000E+00  0.00000000000E+00 -0.11685411173E+04  0.20652913037E+04  0.17029209689E+04 0.  0.
        3    1    3    3  502    0 -0.69375185730E+03 -0.28306859077E+03 -0.10747633727E+04  0.13101663193E+04  0.10100000352E+00 0. -1.
       -3    1    3    3    0  502  0.69375185730E+03  0.28306859077E+03 -0.93777744614E+02  0.75512498447E+03  0.10100000352E+00 0.  1.
</event>
<event>
 5   0  0.1126958E-04  0.1708274E+04  0.7818609E-02  0.8756659E-01
        1   -1    0    0  501    0  0.00000000000E+00  0.00000000000E+00  0.92050911623E+03  0.92050911625E+03  0.50400001928E-02 0.  1.
       -1   -1    0    0    0  501  0.00000000000E+00  0.00000000000E+00 -0.79255063893E+03  0.79255063895E+03  0.50400001928E-02 0. -1.
    10030    2    1    2    0    0  0.00000000000E+00  0.00000000000E+00  0.12795847730E+03  0.17130597552E+04  0.17082740860E+04 0.  0.
        4    1    3    3  502    0  0.33888863460E+03  0.76240084412E+03  0.24737932154E+03  0.87022910512E+03  0.12699999809E+01 0. -1.
       -4    1    3    3    0  502 -0.33888863460E+03 -0.76240084412E+03 -0.11942084424E+03  0.84283065008E+03  0.12699999809E+01 0.  1.
</event>
<event>
 5   0  0.2234723E-04  0.1689386E+04  0.7818609E-02  0.8767441E-01
       -2   -1    0    0    0  501  0.00000000000E+00  0.00000000000E+00  0.11591834348E+04  0.11591834348E+04  0.25500000920E-02 0.  1.
        2   -1    0    0  501    0  0.00000000000E+00  0.00000000000E+00 -0.61552518869E+03  0.61552518869E+03  0.25500000920E-02 0. -1.
    10030    2    1    2    0    0  0.00000000000E+00  0.00000000000E+00  0.54365824610E+03  0.17747086235E+04  0.16893864004E+04 0.  0.
        1    1    3    3  502    0 -0.23053465288E+03 -0.77520222272E+03  0.15751696480E+02  0.80890841772E+03  0.50400001928E-02 0.  1.
       -1    1    3    3    0  502  0.23053465288E+03  0.77520222272E+03  0.52790654962E+03  0.96580020576E+03  0.50400001928E-02 0. -1.
</event>
<event>
 5   0  0.1215233E-04  0.1690128E+04  0.7818609E-02  0.8767015E-01
        1   -1    0    0  501    0  0.00000000000E+00  0.00000000000E+00  0.16040762388E+04  0.16040762388E+04  0.50400001928E-02 0.  1.
       -1   -1    0    0    0  501  0.00000000000E+00  0.00000000000E+00 -0.44519915472E+03  0.44519915475E+03  0.50400001928E-02 0. -1.
    10030    2    1    2    0    0  0.00000000000E+00  0.00000000000E+00  0.11588770841E+04  0.20492753935E+04  0.16901282622E+04 0.  0.
        2    1    3    3  502    0  0.30011597186E+03 -0.14027257064E+03 -0.36318517000E+03  0.49157853732E+03  0.25500000920E-02 0. -1.
       -2    1    3    3    0  502 -0.30011597186E+03  0.14027257064E+03  0.15220622541E+04  0.15576968562E+04  0.25500000920E-02 0.  1.
</event>
<event>
 5   0  0.1204741E-04  0.1584777E+04  0.7818609E-02  0.8829955E-01
       -1   -1    0    0    0  501  0.00000000000E+00  0.00000000000E+00  0.53536547420E+03  0.53536547423E+03  0.50400001928E-02 0. -1.
        1   -1    0    0  501    0  0.00000000000E+00  0.00000000000E+00 -0.11728056602E+04  0.11728056602E+04  0.50400001928E-02 0.  1.
    10030    2    1    2    0    0  0.00000000000E+00  0.00000000000E+00 -0.63744018601E+03  0.17081711344E+04  0.15847771559E+04 0.  0.
        1    1    3    3  502    0 -0.46950733814E+03  0.11147877674E+03  0.35871855591E+03  0.60128500780E+03  0.50400001928E-02 0. -1.
       -1    1    3    3    0  502  0.46950733814E+03 -0.11147877674E+03 -0.99615874192E+03  0.11068861266E+04  0.50400001928E-02 0.  1.
</event>
<event>
 5   0  0.1234158E-04  0.1692581E+04  0.7818609E-02  0.8765607E-01
        1   -1    0    0  501    0  0.00000000000E+00  0.00000000000E+00  0.14316819730E+04  0.14316819730E+04  0.50400001928E-02 0. -1.
       -1   -1    0    0    0  501  0.00000000000E+00  0.00000000000E+00 -0.50025584779E+03  0.50025584782E+03  0.50400001928E-02 0.  1.
    10030    2    1    2    0    0  0.00000000000E+00  0.00000000000E+00  0.93142612523E+03  0.19319378208E+04  0.16925806087E+04 0.  0.
        5    1    3    3  502    0 -0.35917402348E+03  0.53959403518E+03 -0.15530247683E+03  0.66656481399E+03  0.46999998093E+01 0.  1.
       -5    1    3    3    0  502  0.35917402348E+03 -0.53959403518E+03  0.10867286021E+04  0.12653730069E+04  0.46999998093E+01 0. -1.
</event>
<event>
 5   0  0.2224454E-04  0.1706974E+04  0.7818609E-02  0.8757397E-01
        2   -1    0    0  501    0  0.00000000000E+00  0.00000000000E+00  0.89384480757E+03  0.89384480757E+03  0.25500000920E-02 0. -1.
       -2   -1    0    0    0  501  0.00000000000E+00  0.00000000000E+00 -0.81495151505E+03  0.81495151505E+03  0.25500000920E-02 0.  1.
    10030    2    1    2    0    0  0.00000000000E+00  0.00000000000E+00  0.78893292516E+02  0.17087963226E+04  0.17069741418E+04 0.  0.
        2    1    3    3  502    0  0.72876799641E+03  0.42118872974E+03 -0.10190408886E+03  0.84787214955E+03  0.25500000920E-02 0. -1.
       -2    1    3    3    0  502 -0.72876799641E+03 -0.42118872974E+03  0.18079738138E+03  0.86092417307E+03  0.25500000920E-02 0.  1.
</event>
<event>
 5   0  0.2234723E-04  0.1688873E+04  0.7818609E-02  0.8767736E-01
        2   -1    0    0  501    0  0.00000000000E+00  0.00000000000E+00  0.69076347634E+03  0.69076347634E+03  0.25500000920E-02 0.  1.
       -2   -1    0    0    0  501  0.00000000000E+00  0.00000000000E+00 -0.10322974462E+04  0.10322974462E+04  0.25500000920E-02 0. -1.
    10030    2    1    2    0    0  0.00000000000E+00  0.00000000000E+00 -0.34153396988E+03  0.17230609226E+04  0.16888734382E+04 0.  0.
        1    1    3    3  502    0  0.22105135829E+03  0.27437958637E+03 -0.95371641427E+03  0.10167216233E+04  0.50400001928E-02 0. -1.
       -1    1    3    3    0  502 -0.22105135829E+03 -0.27437958637E+03  0.61218244439E+03  0.70633929925E+03  0.50400001928E-02 0.  1.
</event>
<event>
 5   0  0.2288806E-04  0.1704285E+04  0.7818609E-02  0.8758924E-01
       -2   -1    0    0    0  501  0.00000000000E+00  0.00000000000E+00  0.67222150705E+03  0.67222150705E+03  0.25500000920E-02 0.  1.
        2   -1    0    0  501    0  0.00000000000E+00  0.00000000000E+00 -0.10802194475E+04  0.10802194475E+04  0.25500000920E-02 0. -1.
    10030    2    1    2    0    0  0.00000000000E+00  0.00000000000E+00 -0.40799794049E+03  0.17524409546E+04  0.17042848881E+04 0.  0.
        3    1    3    3  502    0  0.18917909409E+03 -0.29327597741E+03  0.59536479930E+03  0.69011505056E+03  0.10100000352E+00 0.  1.
       -3    1    3    3    0  502 -0.18917909409E+03  0.29327597741E+03 -0.10033627398E+04  0.10623259040E+04  0.10100000352E+00 0. -1.
</event>
<event>
 5   0  0.8372750E-05  0.1692324E+04  0.7818609E-02  0.8765754E-01
        3   -1    0    0  501    0  0.00000000000E+00  0.00000000000E+00  0.91440767094E+03  0.91440767652E+03  0.10100000352E+00 0.  1.
       -3   -1    0    0    0  501  0.00000000000E+00  0.00000000000E+00 -0.78300970808E+03  0.78300971460E+03  0.10100000352E+00 0. -1.
    10030    2    1    2    0    0  0.00000000000E+00  0.00000000000E+00  0.13139796286E+03  0.16974173911E+04  0.16923239569E+04 0.  0.
        3    1    3    3  502    0  0.33860577222E+03 -0.76960729036E+03  0.16106845235E+03  0.85609129589E+03  0.10100000352E+00 0.  1.
       -3    1    3    3    0  502 -0.33860577222E+03  0.76960729036E+03 -0.29670489491E+02  0.84132609523E+03  0.10100000352E+00 0. -1.
</event>
<event>
 5   0  0.8372750E-05  0.1707452E+04  0.7818609E-02  0.8757126E-01
        4   -1    0    0  501    0  0.00000000000E+00  0.00000000000E+00  0.61965373532E+03  0.61965503677E+03  0.12699999809E+01 0.  1.
       -4   -1    0    0    0  501  0.00000000000E+00  0.00000000000E+00 -0.11762148885E+04  0.11762155742E+04  0.12699999809E+01 0. -1.
    10030    2    1    2    0    0  0.00000000000E+00  0.00000000000E+00 -0.55656115321E+03  0.17958706109E+04  0.17074515905E+04 0.  0.
        4    1    3    3  502    0  0.10579028573E+03  0.32459137532E+03  0.54473298502E+03  0.64287384716E+03  0.12699999809E+01 0.  1.
       -4    1    3    3    0  502 -0.10579028573E+03 -0.32459137532E+03 -0.11012941382E+04  0.11529967638E+04  0.12699999809E+01 0. -1.
</event>
<event>
 5   0  0.2242967E-04  0.1690536E+04  0.7818609E-02  0.8766780E-01
        2   -1    0    0  501    0  0.00000000000E+00  0.00000000000E+00  0.16278528011E+04  0.16278528011E+04  0.25500000920E-02 0.  1.
       -2   -1    0    0    0  501  0.00000000000E+00  0.00000000000E+00 -0.43890848081E+03  0.43890848081E+03  0.25500000920E-02 0. -1.
    10030    2    1    2    0    0  0.00000000000E+00  0.00000000000E+00  0.11889443203E+04  0.20667612819E+04  0.16905364828E+04 0.  0.
        4    1    3    3  502    0  0.20141478170E+02 -0.80231459942E+02  0.16228912311E+04  0.16249985622E+04  0.12699999809E+01 0.  1.
       -4    1    3    3    0  502 -0.20141478170E+02  0.80231459942E+02 -0.43394691076E+03  0.44176271975E+03  0.12699999809E+01 0. -1.
</event>
<event>
 5   0  0.2234723E-04  0.1751429E+04  0.7818609E-02  0.8732564E-01
       -2   -1    0    0    0  501  0.00000000000E+00  0.00000000000E+00  0.85426039612E+03  0.85426039612E+03  0.25500000920E-02 0. -1.
        2   -1    0    0  501    0  0.00000000000E+00  0.00000000000E+00 -0.89770770709E+03  0.89770770709E+03  0.25500000920E-02 0.  1.
    10030    2    1    2    0    0  0.00000000000E+00  0.00000000000E+00 -0.43447310971E+02  0.17519681032E+04  0.17514292923E+04 0.  0.
        1    1    3    3  502    0 -0.36487042260E+03  0.70397942338E+03  0.35008773104E+03  0.86676344713E+03  0.50400001928E-02 0.  1.
       -1    1    3    3    0  502  0.36487042260E+03 -0.70397942338E+03 -0.39353504201E+03  0.88520465608E+03  0.50400001928E-02 0. -1.
</event>
<event>
 5   0  0.1204741E-04  0.1698031E+04  0.7818609E-02  0.8762488E-01
       -1   -1    0    0    0  501  0.00000000000E+00  0.00000000000E+00  0.52763094670E+03  0.52763094672E+03  0.50400001928E-02 0. -1.
        1   -1    0    0  501    0  0.00000000000E+00  0.00000000000E+00 -0.13661586161E+04  0.13661586161E+04  0.50400001928E-02 0.  1.
    10030    2    1    2    0    0  0.00000000000E+00  0.00000000000E+00 -0.83852766940E+03  0.18937895628E+04  0.16980312883E+04 0.  0.
        1    1    3    3  502    0 -0.12892153654E+02  0.43479649234E+02  0.52627912699E+03  0.52822950226E+03  0.50400001928E-02 0. -1.
       -1    1    3    3    0  502  0.12892153654E+02 -0.43479649234E+02 -0.13648067964E+04  0.13655600606E+04  0.50400001928E-02 0.  1.
</event>
<event>
 5   0  0.1234158E-04  0.1699515E+04  0.7818609E-02  0.8761641E-01
       -1   -1    0    0    0  501  0.00000000000E+00  0.00000000000E+00  0.13637791186E+04  0.13637791186E+04  0.50400001928E-02 0.  1.
        1   -1    0    0  501    0  0.00000000000E+00  0.00000000000E+00 -0.52947536875E+03  0.52947536877E+03  0.50400001928E-02 0. -1.
    10030    2    1    2    0    0  0.00000000000E+00  0.00000000000E+00  0.83430374980E+03  0.18932544873E+04  0.16995145798E+04 0.  0.
        5    1    3    3  502    0 -0.59374813326E+03 -0.11566848713E+03  0.10819658774E+04  0.12395919872E+04  0.46999998093E+01 0.  1.
       -5    1    3    3    0  502  0.59374813326E+03  0.11566848713E+03 -0.24766212764E+03  0.65366250017E+03  0.46999998093E+01 0. -1.
</event>
<event>
 5   0  0.2356829E-04  0.1744533E+04  0.7818609E-02  0.8736365E-01
       -2   -1    0    0    0  501  0.00000000000E+00  0.00000000000E+00  0.63701493059E+03  0.63701493059E+03  0.25500000920E-02 0. -1.
        2   -1    0    0  501    0  0.00000000000E+00  0.00000000000E+00 -0.11943970444E+04  0.11943970444E+04  0.25500000920E-02 0.  1.
    10030    2    1    2    0    0  0.00000000000E+00  0.00000000000E+00 -0.55738211380E+03  0.18314119750E+04  0.17445328892E+04 0.  0.
        5    1    3    3  502    0  0.62268089049E+02 -0.56046537882E+02 -0.11901503912E+04  0.11931045943E+04  0.46999998093E+01 0.  1.
       -5    1    3    3    0  502 -0.62268089049E+02  0.56046537882E+02  0.63276827740E+03  0.63830738066E+03  0.46999998093E+01 0. -1.
</event>
<event>
 5   0  0.2356829E-04  0.1696581E+04  0.7818609E-02  0.8763317E-01
       -2   -1    0    0    0  501  0.00000000000E+00  0.00000000000E+00  0.46008827710E+03  0.46008827711E+03  0.25500000920E-02 0. -1.
        2   -1    0    0  501    0  0.00000000000E+00  0.00000000000E+00 -0.15640410987E+04  0.15640410987E+04  0.25500000920E-02 0.  1.
    10030    2    1    2    0    0  0.00000000000E+00  0.00000000000E+00 -0.11039528216E+04  0.20241293758E+04  0.16965812382E+04 0.  0.
        5    1    3    3  502    0 -0.51289026900E+03  0.85095980132E+02  0.24771192955E+03  0.57591756694E+03  0.46999998093E+01 0. -1.
       -5    1    3    3    0  502  0.51289026900E+03 -0.85095980132E+02 -0.13516647512E+04  0.14482118089E+04  0.46999998093E+01 0.  1.
</event>
<event>
 5   0  0.2356829E-04  0.1702465E+04  0.7818609E-02  0.8759960E-01
       -2   -1    0    0    0  501  0.00000000000E+00  0.00000000000E+00  0.52110862393E+03  0.52110862394E+03  0.25500000920E-02 0. -1.
        2   -1    0    0  501    0  0.00000000000E+00  0.00000000000E+00 -0.13904908992E+04  0.13904908992E+04  0.25500000920E-02 0.  1.
    10030    2    1    2    0    0  0.00000000000E+00  0.00000000000E+00 -0.86938227523E+03  0.19115995231E+04  0.17024650353E+04 0.  0.
        5    1    3    3  502    0  0.25580407286E+03 -0.57844651075E+03 -0.10743551303E+04  0.12467145325E+04  0.46999998093E+01 0.  1.
       -5    1    3    3    0  502 -0.25580407286E+03  0.57844651075E+03  0.20497285504E+03  0.66488499065E+03  0.46999998093E+01 0. -1.
</event>
<event>
 5   0  0.2242967E-04  0.1691252E+04  0.7818609E-02  0.8766369E-01
       -2   -1    0    0    0  501  0.00000000000E+00  0.00000000000E+00  0.48671088892E+03  0.48671088893E+03  0.25500000920E-02 0.  1.
        2   -1    0    0  501    0  0.00000000000E+00  0.00000000000E+00 -0.14692161467E+04  0.14692161468E+04  0.25500000920E-02 0. -1.
    10030    2    1    2    0    0  0.00000000000E+00  0.00000000000E+00 -0.98250525782E+03  0.19559270357E+04  0.16912521950E+04 0.  0.
        4    1    3    3  502    0  0.11421500548E+03 -0.40536314888E+03 -0.13393024670E+04  0.14039576422E+04  0.12699999809E+01 0. -1.
       -4    1    3    3    0  502 -0.11421500548E+03  0.40536314888E+03  0.35679720921E+03  0.55196939349E+03  0.12699999809E+01 0.  1.
</event>
<event>
 5   0  0.2242967E-04  0.1694202E+04  0.7818609E-02  0.8764678E-01
       -2   -1    0    0    0  501  0.00000000000E+00  0.00000000000E+00  0.85424914537E+03  0.85424914537E+03  0.25500000920E-02 0. -1.
        2   -1    0    0  501    0  0.00000000000E+00  0.00000000000E+00 -0.84001253781E+03  0.84001253782E+03  0.25500000920E-02 0.  1.
    10030    2    1    2    0    0  0.00000000000E+00  0.00000000000E+00  0.14236607553E+02  0.16942616832E+04  0.16942018682E+04 0.  0.
        4    1    3    3  502    0 -0.21290413272E+03  0.31970634994E+03 -0.74791700111E+03  0.84078640175E+03  0.12699999809E+01 0.  1.
       -4    1    3    3    0  502  0.21290413272E+03 -0.31970634994E+03  0.76215360866E+03  0.85347528143E+03  0.12699999809E+01 0. -1.
</event>
<event>
 5   0  0.1234158E-04  0.1745402E+04  0.7818609E-02  0.8735885E-01
        1   -1    0    0  501    0  0.00000000000E+00  0.00000000000E+00  0.26201993102E+04  0.26201993102E+04  0.50400001928E-02 0. -1.
       -1   -1    0    0    0  501  0.00000000000E+00  0.00000000000E+00 -0.29066756206E+03  0.29066756210E+03  0.50400001928E-02 0.  1.
    10030    2    1    2    0    0  0.00000000000E+00  0.00000000000E+00  0.23295317481E+04  0.29108668723E+04  0.17454018972E+04 0.  0.
        5    1    3    3  502    0 -0.71470617610E+03  0.26744930319E+03  0.18708516464E+04  0.20205053875E+04  0.46999998093E+01 0. -1.
       -5    1    3    3    0  502  0.71470617610E+03 -0.26744930319E+03  0.45868010173E+03  0.89036148482E+03  0.46999998093E+01 0.  1.
</event>
<event>
 5   0  0.2288806E-04  0.1690248E+04  0.7818609E-02  0.8766946E-01
       -2   -1    0    0    0  501  0.00000000000E+00  0.00000000000E+00  0.33116789973E+03  0.33116789973E+03  0.25500000920E-02 0. -1.
        2   -1    0    0  501    0  0.00000000000E+00  0.00000000000E+00 -0.21567141913E+04  0.21567141913E+04  0.25500000920E-02 0.  1.
    10030    2    1    2    0    0  0.00000000000E+00  0.00000000000E+00 -0.18255462916E+04  0.24878820910E+04  0.16902479215E+04 0.  0.
        3    1    3    3  502    0  0.78633734335E+01 -0.80077394715E+03 -0.51526717119E+03  0.95226100151E+03  0.10100000352E+00 0. -1.
       -3    1    3    3    0  502 -0.78633734335E+01  0.80077394715E+03 -0.13102791204E+04  0.15356210895E+04  0.10100000352E+00 0.  1.
</event>
<event>
 5   0  0.2224454E-04  0.1705052E+04  0.7818609E-02  0.8758488E-01
        2   -1    0    0  501    0  0.00000000000E+00  0.00000000000E+00  0.87774767007E+03  0.87774767008E+03  0.25500000920E-02 0.  1.
       -2   -1    0    0    0  501  0.00000000000E+00  0.00000000000E+00 -0.82802928910E+03  0.82802928910E+03  0.25500000920E-02 0. -1.
    10030    2    1    2    0    0  0.00000000000E+00  0.00000000000E+00  0.49718380977E+02  0.17057769592E+04  0.17050522329E+04 0.  0.
        2    1    3    3  502    0 -0.63762943940E+03  0.34247528478E+03 -0.42582108553E+03  0.83975247518E+03  0.25500000920E-02 0. -1.
       -2    1    3    3    0  502  0.63762943940E+03 -0.34247528478E+03  0.47553946651E+03  0.86602448400E+03  0.25500000920E-02 0.  1.
</event>
<event>
 5   0  0.1186302E-04  0.1701205E+04  0.7818609E-02  0.8760677E-01
       -1   -1    0    0    0  501  0.00000000000E+00  0.00000000000E+00  0.90246268506E+03  0.90246268507E+03  0.50400001928E-02 0. -1.
        1   -1    0    0  501    0  0.00000000000E+00  0.00000000000E+00 -0.80172293967E+03  0.80172293969E+03  0.50400001928E-02 0.  1.
    10030    2    1    2    0    0  0.00000000000E+00  0.00000000000E+00  0.10073974538E+03  0.17041856248E+04  0.17012054983E+04 0.  0.
        3    1    3    3  502    0  0.44855199511E+03 -0.48154048309E+03 -0.48950360881E+03  0.82017920140E+03  0.10100000352E+00 0.  1.
       -3    1    3    3    0  502 -0.44855199511E+03  0.48154048309E+03  0.59024335419E+03  0.88400642336E+03  0.10100000352E+00 0. -1.
</event>
<event>
 5   0  0.2356829E-04  0.1682223E+04  0.7818609E-02  0.8771569E-01
        2   -1    0    0  501    0  0.00000000000E+00  0.00000000000E+00  0.11260463365E+04  0.11260463365E+04  0.25500000920E-02 0.  1.
       -2   -1    0    0    0  501  0.00000000000E+00  0.00000000000E+00 -0.62827639146E+03  0.62827639146E+03  0.25500000920E-02 0. -1.
    10030    2    1    2    0    0  0.00000000000E+00  0.00000000000E+00  0.49776994504E+03  0.17543227280E+04  0.16822227307E+04 0.  0.
        5    1    3    3  502    0  0.11465065149E+03  0.81521797090E+03  0.42867211473E+03  0.92817400519E+03  0.46999998093E+01 0.  1.
       -5    1    3    3    0  502 -0.11465065149E+03 -0.81521797090E+03  0.69097830310E+02  0.82614872276E+03  0.46999998093E+01 0. -1.
</event>
<event>
 5   0  0.2224454E-04  0.1686392E+04  0.7818609E-02  0.8769164E-01
        2   -1    0    0  501    0  0.00000000000E+00  0.00000000000E+00  0.17160850204E+04  0.17160850204E+04  0.25500000920E-02 0.  1.
       -2   -1    0    0    0  501  0.00000000000E+00  0.00000000000E+00 -0.41430329897E+03  0.41430329898E+03  0.25500000920E-02 0. -1.
    10030    2    1    2    0    0  0.00000000000E+00  0.00000000000E+00  0.13017817214E+04  0.21303883194E+04  0.16863922264E+04 0.  0.
        2    1    3    3  502    0  0.25016467902E+03 -0.80301551024E+03  0.72630156797E+03  0.11112741534E+04  0.25500000920E-02 0. -1.
       -2    1    3    3    0  502 -0.25016467902E+03  0.80301551024E+03  0.57548015347E+03  0.10191141660E+04  0.25500000920E-02 0.  1.
</event>
<event>
 5   0  0.1204741E-04  0.1701933E+04  0.7818609E-02  0.8760263E-01
        1   -1    0    0  501    0  0.00000000000E+00  0.00000000000E+00  0.87876133944E+03  0.87876133946E+03  0.50400001928E-02 0. -1.
       -1   -1    0    0    0  501  0.00000000000E+00  0.00000000000E+00 -0.82405083847E+03  0.82405083848E+03  0.50400001928E-02 0.  1.
    10030    2    1    2    0    0  0.00000000000E+00  0.00000000000E+00  0.54710500977E+02  0.17028121779E+04  0.17019330405E+04 0.  0.
        1    1    3    3  502    0 -0.13679111297E+03  0.83050206152E+03  0.15271376926E+03  0.85543379529E+03  0.50400001928E-02 0. -1.
       -1    1    3    3    0  502  0.13679111297E+03 -0.83050206152E+03 -0.98003268286E+02  0.84737838265E+03  0.50400001928E-02 0.  1.
</event>
<event>
 5   0  0.2356829E-04  0.1667452E+04  0.7818609E-02  0.8780148E-01
       -2   -1    0    0    0  501  0.00000000000E+00  0.00000000000E+00  0.47890732355E+03  0.47890732356E+03  0.25500000920E-02 0. -1.
        2   -1    0    0  501    0  0.00000000000E+00  0.00000000000E+00 -0.14514273230E+04  0.14514273230E+04  0.25500000920E-02 0.  1.
    10030    2    1    2    0    0  0.00000000000E+00  0.00000000000E+00 -0.97251999945E+03  0.19303346466E+04  0.16674521577E+04 0.  0.
        5    1    3    3  502    0 -0.29019019445E+03 -0.55351224441E+03 -0.11250622018E+04  0.12870016323E+04  0.46999998093E+01 0.  1.
       -5    1    3    3    0  502  0.29019019445E+03  0.55351224441E+03  0.15254220238E+03  0.64333301422E+03  0.46999998093E+01 0. -1.
</event>
<event>
 5   0  0.2356829E-04  0.1687439E+04  0.7818609E-02  0.8768561E-01
       -2   -1    0    0    0  501  0.00000000000E+00  0.00000000000E+00  0.36499495660E+03  0.36499495661E+03  0.25500000920E-02 0. -1.
        2   -1    0    0  501    0  0.00000000000E+00  0.00000000000E+00 -0.19503363136E+04  0.19503363136E+04  0.25500000920E-02 0.  1.
    10030    2    1    2    0    0  0.00000000000E+00  0.00000000000E+00 -0.15853413570E+04  0.23153312702E+04  0.16874393834E+04 0.  0.
        5    1    3    3  502    0 -0.60026903668E+03  0.16806193776E+03 -0.15728056347E+04  0.16918355079E+04  0.46999998093E+01 0.  1.
       -5    1    3    3    0  502  0.60026903668E+03 -0.16806193776E+03 -0.12535722337E+02  0.62349576233E+03  0.46999998093E+01 0. -1.
</event>
<event>
 5   0  0.2288806E-04  0.1710529E+04  0.7818609E-02  0.8755382E-01
        2   -1    0    0  501    0  0.00000000000E+00  0.00000000000E+00  0.11163619843E+04  0.11163619843E+04  0.25500000920E-02 0. -1.
       -2   -1    0    0    0  501  0.00000000000E+00  0.00000000000E+00 -0.65523288042E+03  0.65523288042E+03  0.25500000920E-02 0.  1.
    10030    2    1    2    0    0  0.00000000000E+00  0.00000000000E+00  0.46112910386E+03  0.17715948647E+04  0.17105286651E+04 0.  0.
        3    1    3    3  502    0  0.61862067648E+03  0.23004432064E+02  0.84176485571E+03  0.10448869928E+04  0.10100000352E+00 0. -1.
       -3    1    3    3    0  502 -0.61862067648E+03 -0.23004432064E+02 -0.38063575185E+03  0.72670787188E+03  0.10100000352E+00 0.  1.
</event>
<event>
 5   0  0.1215233E-04  0.1716698E+04  0.7818609E-02  0.8751898E-01
        1   -1    0    0  501    0  0.00000000000E+00  0.00000000000E+00  0.12051247424E+04  0.12051247424E+04  0.50400001928E-02 0.  1.
       -1   -1    0    0    0  501  0.00000000000E+00  0.00000000000E+00 -0.61135857993E+03  0.61135857995E+03  0.50400001928E-02 0. -1.
    10030    2    1    2    0    0  0.00000000000E+00  0.00000000000E+00  0.59376616251E+03  0.18164833224E+04  0.17166984024E+04 0.  0.
        2    1    3    3  502    0  0.60108618521E+03 -0.17348097965E+02 -0.35122046501E+03  0.69639168117E+03  0.25500000920E-02 0. -1.
       -2    1    3    3    0  502 -0.60108618521E+03  0.17348097965E+02  0.94498662751E+03  0.11200916412E+04  0.25500000920E-02 0.  1.
</event>
<event>
 5   0  0.1234158E-04  0.1704939E+04  0.7818609E-02  0.8758553E-01
        1   -1    0    0  501    0  0.00000000000E+00  0.00000000000E+00  0.73725582365E+03  0.73725582366E+03  0.50400001928E-02 0.  1.
       -1   -1    0    0    0  501  0.00000000000E+00  0.00000000000E+00 -0.98568797353E+03  0.98568797354E+03  0.50400001928E-02 0. -1.
    10030    2    1    2    0    0  0.00000000000E+00  0.00000000000E+00 -0.24843214988E+03  0.17229437972E+04  0.17049389418E+04 0.  0.
        5    1    3    3  502    0  0.72246344528E+03 -0.30979230083E+02  0.33195873702E+03  0.79569581848E+03  0.46999998093E+01 0.  1.
       -5    1    3    3    0  502 -0.72246344528E+03  0.30979230083E+02 -0.58039088690E+03  0.92724797873E+03  0.46999998093E+01 0. -1.
</event>
<event>
 5   0  0.2224454E-04  0.1700865E+04  0.7818609E-02  0.8760871E-01
       -2   -1    0    0    0  501  0.00000000000E+00  0.00000000000E+00  0.22571639874E+03  0.22571639876E+03  0.25500000920E-02 0.  1.
        2   -1    0    0  501    0  0.00000000000E+00  0.00000000000E+00 -0.32041784380E+04  0.32041784380E+04  0.25500000920E-02 0. -1.
    10030    2    1    2    0    0  0.00000000000E+00  0.00000000000E+00 -0.29784620393E+04  0.34298948368E+04  0.17008652128E+04 0.  0.
        2    1    3    3  502    0  0.46549577686E+03  0.21170600678E+03 -0.11896499607E+03  0.52503182939E+03  0.25500000920E-02 0.  1.
       -2    1    3    3    0  502 -0.46549577686E+03 -0.21170600678E+03 -0.28594970432E+04  0.29048630074E+04  0.25500000920E-02 0. -1.
</event>
<event>
 5   0  0.2234723E-04  0.1702674E+04  0.7818609E-02  0.8759841E-01
       -2   -1    0    0    0  501  0.00000000000E+00  0.00000000000E+00  0.37389651242E+03  0.37389651243E+03  0.25500000920E-02 0. -1.
        2   -1    0    0  501    0  0.00000000000E+00  0.00000000000E+00 -0.19384364587E+04  0.19384364587E+04  0.25500000920E-02 0.  1.
    10030    2    1    2    0    0  0.00000000000E+00  0.00000000000E+00 -0.15645399463E+04  0.23123329711E+04  0.17026739341E+04 0.  0.
        1    1    3    3  502    0  0.53980681985E+02  0.42732794764E+03 -0.17795441697E+04  0.18309288738E+04  0.50400001928E-02 0.  1.
       -1    1    3    3    0  502 -0.53980681985E+02 -0.42732794764E+03  0.21500422341E+03  0.48140409737E+03  0.50400001928E-02 0. -1.
</event>
<event>
 5   0  0.1215233E-04  0.1699411E+04  0.7818609E-02  0.8761700E-01
        1   -1    0    0  501    0  0.00000000000E+00  0.00000000000E+00  0.82783860030E+03  0.82783860032E+03  0.50400001928E-02 0. -1.
       -1   -1    0    0    0  501  0.00000000000E+00  0.00000000000E+00 -0.87215015864E+03  0.87215015866E+03  0.50400001928E-02 0.  1.
    10030    2    1    2    0    0  0.00000000000E+00  0.00000000000E+00 -0.44311558343E+02  0.16999887590E+04  0.16994111529E+04 0.  0.
        2    1    3    3  502    0  0.64484812194E+03 -0.49351646013E+03  0.22815310784E+03  0.84346987937E+03  0.25500000920E-02 0. -1.
       -2    1    3    3    0  502 -0.64484812194E+03  0.49351646013E+03 -0.27246466618E+03  0.85651887960E+03  0.25500000920E-02 0.  1.
</event>
<event>
 5   0  0.1186302E-04  0.1696293E+04  0.7818609E-02  0.8763481E-01
        1   -1    0    0  501    0  0.00000000000E+00  0.00000000000E+00  0.87069839774E+03  0.87069839775E+03  0.50400001928E-02 0. -1.
       -1   -1    0    0    0  501  0.00000000000E+00  0.00000000000E+00 -0.82617888067E+03  0.82617888069E+03  0.50400001928E-02 0.  1.
    10030    2    1    2    0    0  0.00000000000E+00  0.00000000000E+00  0.44519517065E+02  0.16968772784E+04  0.16962931677E+04 0.  0.
        3    1    3    3  502    0  0.67170537835E+03 -0.41797726966E+03 -0.28355698397E+03  0.84041518705E+03  0.10100000352E+00 0.  1.
       -3    1    3    3    0  502 -0.67170537835E+03  0.41797726966E+03  0.32807650103E+03  0.85646209139E+03  0.10100000352E+00 0. -1.
</event>
<event>
 5   0  0.2224454E-04  0.1688885E+04  0.7818609E-02  0.8767729E-01
       -2   -1    0    0    0  501  0.00000000000E+00  0.00000000000E+00  0.88029488634E+03  0.88029488635E+03  0.25500000920E-02 0.  1.
        2   -1    0    0  501    0  0.00000000000E+00  0.00000000000E+00 -0.81005067097E+03  0.81005067097E+03  0.25500000920E-02 0. -1.
    10030    2    1    2    0    0  0.00000000000E+00  0.00000000000E+00  0.70244215372E+02  0.16903455573E+04  0.16888853879E+04 0.  0.
        2    1    3    3  502    0 -0.52586553955E+03 -0.16658019910E+03  0.67504953916E+03  0.87176568455E+03  0.25500000920E-02 0.  1.
       -2    1    3    3    0  502  0.52586553955E+03  0.16658019910E+03 -0.60480532379E+03  0.81857987278E+03  0.25500000920E-02 0. -1.
</event>
<event>
 5   0  0.1204741E-04  0.1706269E+04  0.7818609E-02  0.8757797E-01
       -1   -1    0    0    0  501  0.00000000000E+00  0.00000000000E+00  0.35314607867E+03  0.35314607870E+03  0.50400001928E-02 0.  1.
        1   -1    0    0  501    0  0.00000000000E+00  0.00000000000E+00 -0.20610114067E+04  0.20610114067E+04  0.50400001928E-02 0. -1.
    10030    2    1    2    0    0  0.00000000000E+00  0.00000000000E+00 -0.17078653280E+04  0.24141574854E+04  0.17062685561E+04 0.  0.
        1    1    3    3  502    0 -0.50483417350E+03  0.18000609449E+03  0.85206151682E+02  0.54269680771E+03  0.50400001928E-02 0.  1.
       -1    1    3    3    0  502  0.50483417350E+03 -0.18000609449E+03 -0.17930714797E+04  0.18714606777E+04  0.50400001928E-02 0. -1.
</event>
<event>
 5   0  0.1204741E-04  0.1707137E+04  0.7818609E-02  0.8757305E-01
        1   -1    0    0  501    0  0.00000000000E+00  0.00000000000E+00  0.70797202493E+03  0.70797202494E+03  0.50400001928E-02 0. -1.
       -1   -1    0    0    0  501  0.00000000000E+00  0.00000000000E+00 -0.10291068156E+04  0.10291068156E+04  0.50400001928E-02 0.  1.
    10030    2    1    2    0    0  0.00000000000E+00  0.00000000000E+00 -0.32113479069E+03  0.17370788406E+04  0.17071365922E+04 0.  0.
        1    1    3    3  502    0 -0.48061978775E+03  0.32828285923E+03 -0.79586888654E+03  0.98598798199E+03  0.50400001928E-02 0.  1.
       -1    1    3    3    0  502  0.48061978775E+03 -0.32828285923E+03  0.47473409586E+03  0.75109085858E+03  0.50400001928E-02 0. -1.
</event>
<event>
 5   0  0.1215233E-04  0.1707150E+04  0.7818609E-02  0.8757297E-01
        1   -1    0    0  501    0  0.00000000000E+00  0.00000000000E+00  0.11610116814E+04  0.11610116814E+04  0.50400001928E-02 0.  1.
       -1   -1    0    0    0  501  0.00000000000E+00  0.00000000000E+00 -0.62754775930E+03  0.62754775932E+03  0.50400001928E-02 0. -1.
    10030    2    1    2    0    0  0.00000000000E+00  0.00000000000E+00  0.53346392207E+03  0.17885594407E+04  0.17071499983E+04 0.  0.
        2    1    3    3  502    0  0.20915529073E+03 -0.81107514731E+03  0.94574744987E+02  0.84293132141E+03  0.25500000920E-02 0.  1.
       -2    1    3    3    0  502 -0.20915529073E+03  0.81107514731E+03  0.43888917708E+03  0.94562811929E+03  0.25500000920E-02 0. -1.
</event>
<event>
 5   0  0.2242967E-04  0.1692777E+04  0.7818609E-02  0.8765495E-01
       -2   -1    0    0    0  501  0.00000000000E+00  0.00000000000E+00  0.67303339531E+03  0.67303339531E+03  0.25500000920E-02 0.  1.
        2   -1    0    0  501    0  0.00000000000E+00  0.00000000000E+00 -0.10643947968E+04  0.10643947968E+04  0.25500000920E-02 0. -1.
    10030    2    1    2    0    0  0.00000000000E+00  0.00000000000E+00 -0.39136140148E+03  0.17374281921E+04  0.16927767059E+04 0.  0.
        4    1    3    3  502    0 -0.12737221161E+02  0.51326889965E+03 -0.88630736332E+03  0.10242800180E+04  0.12699999809E+01 0. -1.
       -4    1    3    3    0  502  0.12737221161E+02 -0.51326889965E+03  0.49494596184E+03  0.71314817408E+03  0.12699999809E+01 0.  1.
</event>
<event>
 5   0  0.2356829E-04  0.1711688E+04  0.7818609E-02  0.8754726E-01
        2   -1    0    0  501    0  0.00000000000E+00  0.00000000000E+00  0.22685050410E+04  0.22685050410E+04  0.25500000920E-02 0. -1.
       -2   -1    0    0    0  501  0.00000000000E+00  0.00000000000E+00 -0.32288603476E+03  0.32288603477E+03  0.25500000920E-02 0.  1.
    10030    2    1    2    0    0  0.00000000000E+00  0.00000000000E+00  0.19456190063E+04  0.25913910758E+04  0.17116875855E+04 0.  0.
        5    1    3    3  502    0 -0.24953015330E+03  0.67431225361E+03  0.16755842844E+04  0.18233395451E+04  0.46999998093E+01 0. -1.
       -5    1    3    3    0  502  0.24953015330E+03 -0.67431225361E+03  0.27003472191E+03  0.76805153069E+03  0.46999998093E+01 0.  1.
</event>
<event>
 5   0  0.2242967E-04  0.1699900E+04  0.7818609E-02  0.8761421E-01
        2   -1    0    0  501    0  0.00000000000E+00  0.00000000000E+00  0.13256729998E+04  0.13256729998E+04  0.25500000920E-02 0. -1.
       -2   -1    0    0    0  501  0.00000000000E+00  0.00000000000E+00 -0.54494238295E+03  0.54494238296E+03  0.25500000920E-02 0.  1.
    10030    2    1    2    0    0  0.00000000000E+00  0.00000000000E+00  0.78073061687E+03  0.18706153828E+04  0.16999004718E+04 0.  0.
        4    1    3    3  502    0 -0.59281831163E+03 -0.59749692738E+03  0.26026501646E+03  0.88100829764E+03  0.12699999809E+01 0.  1.
       -4    1    3    3    0  502  0.59281831163E+03  0.59749692738E+03  0.52046560041E+03  0.98960708513E+03  0.12699999809E+01 0. -1.
</event>
<event>
 5   0  0.2234723E-04  0.1659081E+04  0.7818609E-02  0.8785052E-01
       -2   -1    0    0    0  501  0.00000000000E+00  0.00000000000E+00  0.54978364232E+03  0.54978364232E+03  0.25500000920E-02 0.  1.
        2   -1    0    0  501    0  0.00000000000E+00  0.00000000000E+00 -0.12516514704E+04  0.12516514704E+04  0.25500000920E-02 0. -1.
    10030    2    1    2    0    0  0.00000000000E+00  0.00000000000E+00 -0.70186782803E+03  0.18014351127E+04  0.16590810761E+04 0.  0.
        1    1    3    3  502    0  0.24125276537E+03  0.71685459248E+03 -0.72083129739E+03  0.10448354717E+04  0.50400001928E-02 0.  1.
       -1    1    3    3    0  502 -0.24125276537E+03 -0.71685459248E+03  0.18963469361E+02  0.75659964100E+03  0.50400001928E-02 0. -1.
</event>
<event>
 5   0  0.2356829E-04  0.1694263E+04  0.7818609E-02  0.8764643E-01
        2   -1    0    0  501    0  0.00000000000E+00  0.00000000000E+00  0.15881669155E+04  0.15881669155E+04  0.25500000920E-02 0.  1.
       -2   -1    0    0    0  501  0.00000000000E+00  0.00000000000E+00 -0.45186158703E+03  0.45186158704E+03  0.25500000920E-02 0. -1.
    10030    2    1    2    0    0  0.00000000000E+00  0.00000000000E+00  0.11363053284E+04  0.20400285025E+04  0.16942628166E+04 0.  0.
        5    1    3    3  502    0 -0.36983065163E+03 -0.58609173547E+03  0.11547403807E+04  0.13467463273E+04  0.46999998093E+01 0.  1.
       -5    1    3    3    0  502  0.36983065163E+03  0.58609173547E+03 -0.18435052301E+02  0.69328217518E+03  0.46999998093E+01 0. -1.
</event>
<event>
 5   0  0.2288806E-04  0.1698663E+04  0.7818609E-02  0.8762127E-01
       -2   -1    0    0    0  501  0.00000000000E+00  0.00000000000E+00  0.80182456052E+03  0.80182456052E+03  0.25500000920E-02 0. -1.
        2   -1    0    0  501    0  0.00000000000E+00  0.00000000000E+00 -0.89965334862E+03  0.89965334862E+03  0.25500000920E-02 0.  1.
    10030    2    1    2    0    0  0.00000000000E+00  0.00000000000E+00 -0.97828788095E+02  0.17014779091E+04  0.16986631813E+04 0.  0.
        3    1    3    3  502    0  0.10260657991E+03 -0.84163543100E+03 -0.98855126116E+02  0.85361036493E+03  0.10100000352E+00 0.  1.
       -3    1    3    3    0  502 -0.10260657991E+03  0.84163543100E+03  0.10263380215E+01  0.84786754421E+03  0.10100000352E+00 0. -1.
</event>
<event>
 5   0  0.2242967E-04  0.1690810E+04  0.7818609E-02  0.8766623E-01
        2   -1    0    0  501    0  0.00000000000E+00  0.00000000000E+00  0.10543544637E+04  0.10543544637E+04  0.25500000920E-02 0. -1.
       -2   -1    0    0    0  501  0.00000000000E+00  0.00000000000E+00 -0.67786503718E+03  0.67786503719E+03  0.25500000920E-02 0.  1.
    10030    2    1    2    0    0  0.00000000000E+00  0.00000000000E+00  0.37648942653E+03  0.17322195009E+04  0.16908104894E+04 0.  0.
        4    1    3    3  502    0 -0.25949535354E+03  0.31900288207E+03 -0.56849800452E+03  0.70163542621E+03  0.12699999809E+01 0.  1.
       -4    1    3    3    0  502  0.25949535354E+03 -0.31900288207E+03  0.94498743104E+03  0.10305840747E+04  0.12699999809E+01 0. -1.
</event>
<event>
 5   0  0.1186302E-04  0.1719735E+04  0.7818609E-02  0.8750188E-01
       -1   -1    0    0    0  501  0.00000000000E+00  0.00000000000E+00  0.45428334210E+03  0.45428334213E+03  0.50400001928E-02 0. -1.
        1   -1    0    0  501    0  0.00000000000E+00  0.00000000000E+00 -0.16275570471E+04  0.16275570471E+04  0.50400001928E-02 0.  1.
    10030    2    1    2    0    0  0.00000000000E+00  0.00000000000E+00 -0.11732737050E+04  0.20818403892E+04  0.17197349271E+04 0.  0.
        3    1    3    3  502    0  0.69710183770E+03  0.44812009153E+03 -0.30897397241E+03  0.88443626926E+03  0.10100000352E+00 0. -1.
       -3    1    3    3    0  502 -0.69710183770E+03 -0.44812009153E+03 -0.86429973256E+03  0.11974041199E+04  0.10100000352E+00 0.  1.
</event>
<event>
 5   0  0.1215233E-04  0.1696217E+04  0.7818609E-02  0.8763525E-01
        1   -1    0    0  501    0  0.00000000000E+00  0.00000000000E+00  0.73976234469E+03  0.73976234470E+03  0.50400001928E-02 0.  1.
       -1   -1    0    0    0  501  0.00000000000E+00  0.00000000000E+00 -0.97232329286E+03  0.97232329288E+03  0.50400001928E-02 0. -1.
    10030    2    1    2    0    0  0.00000000000E+00  0.00000000000E+00 -0.23256094818E+03  0.17120856376E+04  0.16962171547E+04 0.  0.
        2    1    3    3  502    0 -0.15299705941E+03  0.65604683860E+03  0.40378984345E+03  0.78539912930E+03  0.25500000920E-02 0.  1.
       -2    1    3    3    0  502  0.15299705941E+03 -0.65604683860E+03 -0.63635079163E+03  0.92668650828E+03  0.25500000920E-02 0. -1.
</event>
<event>
 5   0  0.1234158E-04  0.1703026E+04  0.7818609E-02  0.8759641E-01
       -1   -1    0    0    0  501  0.00000000000E+00  0.00000000000E+00  0.48230167919E+03  0.48230167922E+03  0.50400001928E-02 0. -1.
        1   -1    0    0  501    0  0.00000000000E+00  0.00000000000E+00 -0.15033620743E+04  0.15033620743E+04  0.50400001928E-02 0.  1.
    10030    2    1    2    0    0  0.00000000000E+00  0.00000000000E+00 -0.10210603951E+04  0.19856637535E+04  0.17030256051E+04 0.  0.
        5    1    3    3  502    0  0.13675858303E+03 -0.59311617062E+03  0.18374361554E+03  0.63582506095E+03  0.46999998093E+01 0. -1.
       -5    1    3    3    0  502 -0.13675858303E+03  0.59311617062E+03 -0.12048040106E+04  0.13498386925E+04  0.46999998093E+01 0.  1.
</event>
<event>
 5   0  0.2242967E-04  0.1699039E+04  0.7818609E-02  0.8761913E-01
       -2   -1    0    0    0  501  0.00000000000E+00  0.00000000000E+00  0.12663006797E+04  0.12663006797E+04  0.25500000920E-02 0. -1.
        2   -1    0    0  501    0  0.00000000000E+00  0.00000000000E+00 -0.56991485578E+03  0.56991485579E+03  0.25500000920E-02 0.  1.
    10030    2    1    2    0    0  0.00000000000E+00  0.00000000000E+00  0.69638582391E+03  0.18362155355E+04  0.16990392217E+04 0.  0.
        4    1    3    3  502    0 -0.41631140751E+03 -0.51197088832E+03 -0.23002954684E+03  0.69881655950E+03  0.12699999809E+01 0.  1.
       -4    1    3    3    0  502  0.41631140751E+03  0.51197088832E+03  0.92641537076E+03  0.11373989760E+04  0.12699999809E+01 0. -1.
</event>
<event>
 5   0  0.1204741E-04  0.1698180E+04  0.7818609E-02  0.8762403E-01
       -1   -1    0    0    0  501  0.00000000000E+00  0.00000000000E+00  0.31560390985E+03  0.31560390989E+03  0.50400001928E-02 0.  1.
        1   -1    0    0  501    0  0.00000000000E+00  0.00000000000E+00 -0.22843640477E+04  0.22843640477E+04  0.50400001928E-02 0. -1.
    10030    2    1    2    0    0  0.00000000000E+00  0.00000000000E+00 -0.19687601379E+04  0.25999679576E+04  0.16981804675E+04 0.  0.
        1    1    3    3  502    0  0.17104734061E+03  0.63910722621E+03 -0.16956196525E+03  0.68298352792E+03  0.50400001928E-02 0.  1.
       -1    1    3    3    0  502 -0.17104734061E+03 -0.63910722621E+03 -0.17991981726E+04  0.19169844297E+04  0.50400001928E-02 0. -1.
</event>
<event>
 5   0  0.1234158E-04  0.1701848E+04  0.7818609E-02  0.8760311E-01
       -1   -1    0    0    0  501  0.00000000000E+00  0.00000000000E+00  0.45691547023E+03  0.45691547026E+03  0.50400001928E-02 0. -1.
        1   -1    0    0  501    0  0.00000000000E+00  0.00000000000E+00 -0.15846942113E+04  0.15846942114E+04  0.50400001928E-02 0.  1.
    10030    2    1    2    0    0  0.00000000000E+00  0.00000000000E+00 -0.11277787411E+04  0.20416096816E+04  0.17018475852E+04 0.  0.
        5    1    3    3  502    0 -0.43681455297E+03 -0.49003772037E+03  0.85587787915E+02  0.66203570939E+03  0.46999998093E+01 0. -1.
       -5    1    3    3    0  502  0.43681455297E+03  0.49003772037E+03 -0.12133665290E+04  0.13795739722E+04  0.46999998093E+01 0.  1.
</event>
<event>
 5   0  0.1204741E-04  0.1705952E+04  0.7818609E-02  0.8757977E-01
        1   -1    0    0  501    0  0.00000000000E+00  0.00000000000E+00  0.82754690007E+03  0.82754690009E+03  0.50400001928E-02 0. -1.
       -1   -1    0    0    0  501  0.00000000000E+00  0.00000000000E+00 -0.87918680951E+03  0.87918680953E+03  0.50400001928E-02 0.  1.
    10030    2    1    2    0    0  0.00000000000E+00  0.00000000000E+00 -0.51639909437E+02  0.17067337096E+04  0.17059523074E+04 0.  0.
        1    1    3    3  502    0  0.64008067113E+03 -0.16211525877E+03  0.51441228603E+03  0.83702127973E+03  0.50400001928E-02 0. -1.
       -1    1    3    3    0  502 -0.64008067113E+03  0.16211525877E+03 -0.56605219547E+03  0.86971242989E+03  0.50400001928E-02 0.  1.
</event>
<event>
 5   0  0.1215233E-04  0.1709389E+04  0.7818609E-02  0.8756027E-01
        1   -1    0    0  501    0  0.00000000000E+00  0.00000000000E+00  0.74607145031E+03  0.74607145033E+03  0.50400001928E-02 0.  1.
       -1   -1    0    0    0  501  0.00000000000E+00  0.00000000000E+00 -0.97913245236E+03  0.97913245237E+03  0.50400001928E-02 0. -1.
    10030    2    1    2    0    0  0.00000000000E+00  0.00000000000E+00 -0.23306100205E+03  0.17252039027E+04  0.17093890942E+04 0.  0.
        2    1    3    3  502    0 -0.40178470899E+03  0.45147127304E+03  0.49341627994E+03  0.78020310693E+03  0.25500000920E-02 0.  1.
       -2    1    3    3    0  502  0.40178470899E+03 -0.45147127304E+03 -0.72647728198E+03  0.94500079577E+03  0.25500000920E-02 0. -1.
</event>
<event>
 5   0  0.2356829E-04  0.1699622E+04  0.7818609E-02  0.8761580E-01
        2   -1    0    0  501    0  0.00000000000E+00  0.00000000000E+00  0.15451216358E+04  0.15451216358E+04  0.25500000920E-02 0.  1.
       -2   -1    0    0    0  501  0.00000000000E+00  0.00000000000E+00 -0.46739254394E+03  0.46739254395E+03  0.25500000920E-02 0. -1.
    10030    2    1    2    0    0  0.00000000000E+00  0.00000000000E+00  0.10777290919E+04  0.20125141797E+04  0.16996215250E+04 0.  0.
        5    1    3    3  502    0  0.75858774810E+03  0.30492329157E+03  0.81331595652E+03  0.11532296044E+04  0.46999998093E+01 0. -1.
       -5    1    3    3    0  502 -0.75858774810E+03 -0.30492329157E+03  0.26441313533E+03  0.85928457535E+03  0.46999998093E+01 0.  1.
</event>
<event>
 5   0  0.2242967E-04  0.1700282E+04  0.7818609E-02  0.8761204E-01
        2   -1    0    0  501    0  0.00000000000E+00  0.00000000000E+00  0.20867993535E+04  0.20867993535E+04  0.25500000920E-02 0.  1.
       -2   -1    0    0    0  501  0.00000000000E+00  0.00000000000E+00 -0.34633873863E+03  0.34633873864E+03  0.25500000920E-02 0. -1.
    10030    2    1    2    0    0  0.00000000000E+00  0.00000000000E+00  0.17404606149E+04  0.24331380922E+04  0.17002816895E+04 0.  0.
        4    1    3    3  502    0  0.32014081527E+03  0.33349527008E+03  0.18912096961E+04  0.19468911023E+04  0.12699999809E+01 0.  1.
       -4    1    3    3    0  502 -0.32014081527E+03 -0.33349527008E+03 -0.15074908119E+03  0.48624698986E+03  0.12699999809E+01 0. -1.
</event>
<event>
 5   0  0.1186302E-04  0.1702504E+04  0.7818609E-02  0.8759938E-01
        1   -1    0    0  501    0  0.00000000000E+00  0.00000000000E+00  0.88808924218E+03  0.88808924219E+03  0.50400001928E-02 0. -1.
       -1   -1    0    0    0  501  0.00000000000E+00  0.00000000000E+00 -0.81594251916E+03  0.81594251917E+03  0.50400001928E-02 0.  1.
    10030    2    1    2    0    0  0.00000000000E+00  0.00000000000E+00  0.72146723019E+02  0.17040317614E+04  0.17025037721E+04 0.  0.
        3    1    3    3  502    0 -0.30766734641E+03 -0.31194196681E+03  0.76656588743E+03  0.88294408468E+03  0.10100000352E+00 0. -1.
       -3    1    3    3    0  502  0.30766734641E+03  0.31194196681E+03 -0.69441916441E+03  0.82108767668E+03  0.10100000352E+00 0.  1.
</event>
<event>
 5   0  0.1215233E-04  0.1722063E+04  0.7818609E-02  0.8748880E-01
       -1   -1    0    0    0  501  0.00000000000E+00  0.00000000000E+00  0.59293903781E+03  0.59293903783E+03  0.50400001928E-02 0.  1.
        1   -1    0    0  501    0  0.00000000000E+00  0.00000000000E+00 -0.12503390887E+04  0.12503390887E+04  0.50400001928E-02 0. -1.
    10030    2    1    2    0    0  0.00000000000E+00  0.00000000000E+00 -0.65740005088E+03  0.18432781265E+04  0.17220625496E+04 0.  0.
        2    1    3    3  502    0 -0.43267033463E+03  0.63927502973E+03 -0.73699258460E+03  0.10672554764E+04  0.25500000920E-02 0. -1.
       -2    1    3    3    0  502  0.43267033463E+03 -0.63927502973E+03  0.79592533724E+02  0.77602265015E+03  0.25500000920E-02 0.  1.
</event>
<event>
 5   0  0.2242967E-04  0.1698739E+04  0.7818609E-02  0.8762084E-01
        2   -1    0    0  501    0  0.00000000000E+00  0.00000000000E+00  0.23252791090E+04  0.23252791090E+04  0.25500000920E-02 0. -1.
       -2   -1    0    0    0  501  0.00000000000E+00  0.00000000000E+00 -0.31025463197E+03  0.31025463198E+03  0.25500000920E-02 0.  1.
    10030    2    1    2    0    0  0.00000000000E+00  0.00000000000E+00  0.20150244771E+04  0.26355337410E+04  0.16987390785E+04 0.  0.
        4    1    3    3  502    0 -0.73164106522E+03 -0.21434574357E+03  0.15883990580E+04  0.17618898735E+04  0.12699999809E+01 0. -1.
       -4    1    3    3    0  502  0.73164106522E+03  0.21434574357E+03  0.42662541909E+03  0.87364386750E+03  0.12699999809E+01 0.  1.
</event>
<event>
 5   0  0.1204741E-04  0.1662472E+04  0.7818609E-02  0.8783062E-01
        1   -1    0    0  501    0  0.00000000000E+00  0.00000000000E+00  0.57697243944E+03  0.57697243946E+03  0.50400001928E-02 0. -1.
       -1   -1    0    0    0  501  0.00000000000E+00  0.00000000000E+00 -0.11975492085E+04  0.11975492085E+04  0.50400001928E-02 0.  1.
    10030    2    1    2    0    0  0.00000000000E+00  0.00000000000E+00 -0.62057676902E+03  0.17745216479E+04  0.16624715194E+04 0.  0.
        1    1    3    3  502    0 -0.61035952666E+03 -0.56411224623E+03 -0.32505982532E+03  0.89242661782E+03  0.50400001928E-02 0.  1.
       -1    1    3    3    0  502  0.61035952666E+03  0.56411224623E+03 -0.29551694370E+03  0.88209503012E+03  0.50400001928E-02 0. -1.
</event>
<event>
 5   0  0.2242967E-04  0.1699576E+04  0.7818609E-02  0.8761606E-01
        2   -1    0    0  501    0  0.00000000000E+00  0.00000000000E+00  0.70777679621E+03  0.70777679621E+03  0.25500000920E-02 0. -1.
       -2   -1    0    0    0  501  0.00000000000E+00  0.00000000000E+00 -0.10202930430E+04  0.10202930430E+04  0.25500000920E-02 0.  1.
    10030    2    1    2    0    0  0.00000000000E+00  0.00000000000E+00 -0.31251624682E+03  0.17280698392E+04  0.16995761133E+04 0.  0.
        4    1    3    3  502    0 -0.79232635903E+03 -0.30528070761E+03 -0.12161702664E+03  0.85777018118E+03  0.12699999809E+01 0.  1.
       -4    1    3    3    0  502  0.79232635903E+03  0.30528070761E+03 -0.19089922018E+03  0.87029965806E+03  0.12699999809E+01 0. -1.
</event>
<event>
 5   0  0.1204741E-04  0.1725612E+04  0.7818609E-02  0.8746890E-01
       -1   -1    0    0    0  501  0.00000000000E+00  0.00000000000E+00  0.74993256697E+03  0.74993256698E+03  0.50400001928E-02 0.  1.
        1   -1    0    0  501    0  0.00000000000E+00  0.00000000000E+00 -0.99266811575E+03  0.99266811576E+03  0.50400001928E-02 0. -1.
    10030    2    1    2    0    0  0.00000000000E+00  0.00000000000E+00 -0.24273554878E+03  0.17426006827E+04  0.17256119474E+04 0.  0.
        1    1    3    3  502    0 -0.61448346172E+03  0.21142022056E+03  0.45179888453E+03  0.79146109600E+03  0.50400001928E-02 0.  1.
       -1    1    3    3    0  502  0.61448346172E+03 -0.21142022056E+03 -0.69453443332E+03  0.95113958675E+03  0.50400001928E-02 0. -1.
</event>
<event>
 5   0  0.1204741E-04  0.1711461E+04  0.7818609E-02  0.8754855E-01
       -1   -1    0    0    0  501  0.00000000000E+00  0.00000000000E+00  0.25881947855E+03  0.25881947860E+03  0.50400001928E-02 0.  1.
        1   -1    0    0  501    0  0.00000000000E+00  0.00000000000E+00 -0.28292861483E+04  0.28292861483E+04  0.50400001928E-02 0. -1.
    10030    2    1    2    0    0  0.00000000000E+00  0.00000000000E+00 -0.25704666697E+04  0.30881056269E+04  0.17114606226E+04 0.  0.
        1    1    3    3  502    0  0.52476708460E+02  0.77161575085E+03 -0.19460602175E+04  0.20941096060E+04  0.50400001928E-02 0. -1.
       -1    1    3    3    0  502 -0.52476708460E+02 -0.77161575085E+03 -0.62440645228E+03  0.99399602090E+03  0.50400001928E-02 0.  1.
</event>
<event>
 5   0  0.2288806E-04  0.1701020E+04  0.7818609E-02  0.8760783E-01
       -2   -1    0    0    0  501  0.00000000000E+00  0.00000000000E+00  0.58424617484E+03  0.58424617485E+03  0.25500000920E-02 0. -1.
        2   -1    0    0  501    0  0.00000000000E+00  0.00000000000E+00 -0.12381209545E+04  0.12381209546E+04  0.25500000920E-02 0.  1.
    10030    2    1    2    0    0  0.00000000000E+00  0.00000000000E+00 -0.65387477971E+03  0.18223671294E+04  0.17010202018E+04 0.  0.
        3    1    3    3  502    0 -0.20907812232E+03  0.79215890138E+03 -0.57156401982E+03  0.99895686855E+03  0.10100000352E+00 0.  1.
       -3    1    3    3    0  502  0.20907812232E+03 -0.79215890138E+03 -0.82310759880E+02  0.82341026085E+03  0.10100000352E+00 0. -1.
</event>
<event>
 5   0  0.1234158E-04  0.1695104E+04  0.7818609E-02  0.8764162E-01
       -1   -1    0    0    0  501  0.00000000000E+00  0.00000000000E+00  0.19489775459E+04  0.19489775459E+04  0.50400001928E-02 0. -1.
        1   -1    0    0  501    0  0.00000000000E+00  0.00000000000E+00 -0.36857478449E+03  0.36857478452E+03  0.50400001928E-02 0.  1.
    10030    2    1    2    0    0  0.00000000000E+00  0.00000000000E+00  0.15804027614E+04  0.23175523304E+04  0.16951035119E+04 0.  0.
        5    1    3    3  502    0 -0.48803247077E+03  0.45764795124E+03  0.78855038361E+02  0.67368950331E+03  0.46999998093E+01 0.  1.
       -5    1    3    3    0  502  0.48803247077E+03 -0.45764795124E+03  0.15015477230E+04  0.16438628271E+04  0.46999998093E+01 0. -1.
</event>
<event>
 5   0  0.2288806E-04  0.1695308E+04  0.7818609E-02  0.8764045E-01
        2   -1    0    0  501    0  0.00000000000E+00  0.00000000000E+00  0.15645384618E+04  0.15645384618E+04  0.25500000920E-02 0.  1.
       -2   -1    0    0    0  501  0.00000000000E+00  0.00000000000E+00 -0.45925212359E+03  0.45925212359E+03  0.25500000920E-02 0. -1.
    10030    2    1    2    0    0  0.00000000000E+00  0.00000000000E+00  0.11052863382E+04  0.20237905854E+04  0.16953083626E+04 0.  0.
        3    1    3    3  502    0  0.36480100393E+03  0.61309997958E+03  0.10991011923E+04  0.13103414817E+04  0.10100000352E+00 0.  1.
       -3    1    3    3    0  502 -0.36480100393E+03 -0.61309997958E+03  0.61851459384E+01  0.71344910377E+03  0.10100000352E+00 0. -1.
</event>
<event>
 5   0  0.2242967E-04  0.1714944E+04  0.7818609E-02  0.8752887E-01
        2   -1    0    0  501    0  0.00000000000E+00  0.00000000000E+00  0.78883332667E+03  0.78883332668E+03  0.25500000920E-02 0. -1.
       -2   -1    0    0    0  501  0.00000000000E+00  0.00000000000E+00 -0.93208264684E+03  0.93208264684E+03  0.25500000920E-02 0.  1.
    10030    2    1    2    0    0  0.00000000000E+00  0.00000000000E+00 -0.14324932016E+03  0.17209159735E+04  0.17149435618E+04 0.  0.
        4    1    3    3  502    0 -0.32335359903E+03 -0.60145216290E+03  0.44878916779E+03  0.81713865671E+03  0.12699999809E+01 0. -1.
       -4    1    3    3    0  502  0.32335359903E+03  0.60145216290E+03 -0.59203848796E+03  0.90377731681E+03  0.12699999809E+01 0.  1.
</event>
<event>
 5   0  0.2288806E-04  0.1698798E+04  0.7818609E-02  0.8762050E-01
        2   -1    0    0  501    0  0.00000000000E+00  0.00000000000E+00  0.13419239304E+04  0.13419239304E+04  0.25500000920E-02 0.  1.
       -2   -1    0    0    0  501  0.00000000000E+00  0.00000000000E+00 -0.53764513075E+03  0.53764513075E+03  0.25500000920E-02 0. -1.
    10030    2    1    2    0    0  0.00000000000E+00  0.00000000000E+00  0.80427879968E+03  0.18795690612E+04  0.16987982423E+04 0.  0.
        3    1    3    3  502    0  0.45270327082E+03  0.65257131512E+03  0.73533132783E+03  0.10823593417E+04  0.10100000352E+00 0.  1.
       -3    1    3    3    0  502 -0.45270327082E+03 -0.65257131512E+03  0.68947471855E+02  0.79720971946E+03  0.10100000352E+00 0. -1.
</event>
<event>
 5   0  0.2234723E-04  0.1700779E+04  0.7818609E-02  0.8760920E-01
       -2   -1    0    0    0  501  0.00000000000E+00  0.00000000000E+00  0.11316194323E+04  0.11316194323E+04  0.25500000920E-02 0.  1.
        2   -1    0    0  501    0  0.00000000000E+00  0.00000000000E+00 -0.63905105225E+03  0.63905105225E+03  0.25500000920E-02 0. -1.
    10030    2    1    2    0    0  0.00000000000E+00  0.00000000000E+00  0.49256838006E+03  0.17706704846E+04  0.17007793378E+04 0.  0.
        1    1    3    3  502    0 -0.24284836456E+03  0.12905443403E+03 -0.59147744160E+03  0.65228516698E+03  0.50400001928E-02 0. -1.
       -1    1    3    3    0  502  0.24284836456E+03 -0.12905443403E+03  0.10840458217E+04  0.11183853176E+04  0.50400001928E-02 0.  1.
</event>
<event>
 5   0  0.1215233E-04  0.1570367E+04  0.7818609E-02  0.8838963E-01
        1   -1    0    0  501    0  0.00000000000E+00  0.00000000000E+00  0.11991027341E+04  0.11991027341E+04  0.50400001928E-02 0.  1.
       -1   -1    0    0    0  501  0.00000000000E+00  0.00000000000E+00 -0.51414517074E+03  0.51414517076E+03  0.50400001928E-02 0. -1.
    10030    2    1    2    0    0  0.00000000000E+00  0.00000000000E+00  0.68495756336E+03  0.17132479049E+04  0.15703666833E+04 0.  0.
        2    1    3    3  502    0  0.34227551812E+03 -0.47419247522E+03  0.91407819114E+03  0.10851497470E+04  0.25500000920E-02 0.  1.
       -2    1    3    3    0  502 -0.34227551812E+03  0.47419247522E+03 -0.22912062778E+03  0.62809815788E+03  0.25500000920E-02 0. -1.
</event>
<event>
 5   0  0.1126958E-04  0.1698302E+04  0.7818609E-02  0.8762334E-01
        1   -1    0    0  501    0  0.00000000000E+00  0.00000000000E+00  0.11457648209E+04  0.11457648209E+04  0.50400001928E-02 0.  1.
       -1   -1    0    0    0  501  0.00000000000E+00  0.00000000000E+00 -0.62932378706E+03  0.62932378708E+03  0.50400001928E-02 0. -1.
    10030    2    1    2    0    0  0.00000000000E+00  0.00000000000E+00  0.51644103385E+03  0.17750886080E+04  0.16983015706E+04 0.  0.
        4    1    3    3  502    0 -0.13938044394E+03  0.64330582969E+03  0.81893292421E+03  0.10506769465E+04  0.12699999809E+01 0.  1.
       -4    1    3    3    0  502  0.13938044394E+03 -0.64330582969E+03 -0.30249189036E+03  0.72441166149E+03  0.12699999809E+01 0. -1.
</event>
<event>
 5   0  0.2356829E-04  0.1702665E+04  0.7818609E-02  0.8759846E-01
       -2   -1    0    0    0  501  0.00000000000E+00  0.00000000000E+00  0.77860540633E+03  0.77860540633E+03  0.25500000920E-02 0. -1.
        2   -1    0    0  501    0  0.00000000000E+00  0.00000000000E+00 -0.93085251387E+03  0.93085251387E+03  0.25500000920E-02 0.  1.
    10030    2    1    2    0    0  0.00000000000E+00  0.00000000000E+00 -0.15224710754E+03  0.17094579202E+04  0.17026647348E+04 0.  0.
        5    1    3    3  502    0 -0.24906178704E+03 -0.62199463704E+03 -0.60341950637E+03  0.90169079675E+03  0.46999998093E+01 0.  1.
       -5    1    3    3    0  502  0.24906178704E+03  0.62199463704E+03  0.45117239883E+03  0.80776712346E+03  0.46999998093E+01 0. -1.
</event>
<event>
 5   0  0.1204741E-04  0.1649677E+04  0.7818609E-02  0.8790598E-01
       -1   -1    0    0    0  501  0.00000000000E+00  0.00000000000E+00  0.52431030644E+03  0.52431030647E+03  0.50400001928E-02 0. -1.
        1   -1    0    0  501    0  0.00000000000E+00  0.00000000000E+00 -0.12976255041E+04  0.12976255041E+04  0.50400001928E-02 0.  1.
    10030    2    1    2    0    0  0.00000000000E+00  0.00000000000E+00 -0.77331519761E+03  0.18219358105E+04  0.16496768480E+04 0.  0.
        1    1    3    3  502    0  0.10686951310E+03 -0.41638279104E+03  0.39081214997E+03  0.58097319912E+03  0.50400001928E-02 0. -1.
       -1    1    3    3    0  502 -0.10686951310E+03  0.41638279104E+03 -0.11641273476E+04  0.12409626114E+04  0.50400001928E-02 0.  1.
</event>
<event>
 5   0  0.1126958E-04  0.1695201E+04  0.7818609E-02  0.8764106E-01
       -1   -1    0    0    0  501  0.00000000000E+00  0.00000000000E+00  0.14387212781E+04  0.14387212781E+04  0.50400001928E-02 0. -1.
        1   -1    0    0  501    0  0.00000000000E+00  0.00000000000E+00 -0.49935059476E+03  0.49935059479E+03  0.50400001928E-02 0.  1.
    10030    2    1    2    0    0  0.00000000000E+00  0.00000000000E+00  0.93937068336E+03  0.19380718729E+04  0.16952006677E+04 0.  0.
        4    1    3    3  502    0 -0.65224330244E+03  0.52988009716E+03  0.59612122278E+03  0.10303185760E+04  0.12699999809E+01 0.  1.
       -4    1    3    3    0  502  0.65224330244E+03 -0.52988009716E+03  0.34324946059E+03  0.90775329691E+03  0.12699999809E+01 0. -1.
</event>
<event>
 5   0  0.1234158E-04  0.1697361E+04  0.7818609E-02  0.8762871E-01
       -1   -1    0    0    0  501  0.00000000000E+00  0.00000000000E+00  0.51032381488E+03  0.51032381490E+03  0.50400001928E-02 0. -1.
        1   -1    0    0  501    0  0.00000000000E+00  0.00000000000E+00 -0.14113750988E+04  0.14113750988E+04  0.50400001928E-02 0.  1.
    10030    2    1    2    0    0  0.00000000000E+00  0.00000000000E+00 -0.90105128394E+03  0.19216989137E+04  0.16973606861E+04 0.  0.
        5    1    3    3  502    0 -0.47428869623E+03 -0.67409614942E+02 -0.12436439990E+04  0.13327288958E+04  0.46999998093E+01 0.  1.
       -5    1    3    3    0  502  0.47428869623E+03  0.67409614942E+02  0.34259271506E+03  0.58897001789E+03  0.46999998093E+01 0. -1.
</event>
<event>
 5   0  0.2242967E-04  0.1705698E+04  0.7818609E-02  0.8758121E-01
       -2   -1    0    0    0  501  0.00000000000E+00  0.00000000000E+00  0.11713766166E+04  0.11713766166E+04  0.25500000920E-02 0.  1.
        2   -1    0    0  501    0  0.00000000000E+00  0.00000000000E+00 -0.62093724199E+03  0.62093724200E+03  0.25500000920E-02 0. -1.
    10030    2    1    2    0    0  0.00000000000E+00  0.00000000000E+00  0.55043937456E+03  0.17923138586E+04  0.17056979400E+04 0.  0.
        4    1    3    3  502    0 -0.54469245048E+03  0.35438862278E+03 -0.30515797136E+03  0.71791654247E+03  0.12699999809E+01 0. -1.
       -4    1    3    3    0  502  0.54469245048E+03 -0.35438862278E+03  0.85559734592E+03  0.10743973161E+04  0.12699999809E+01 0.  1.
</event>
<event>
 5   0  0.1204741E-04  0.1762318E+04  0.7818609E-02  0.8726599E-01
       -1   -1    0    0    0  501  0.00000000000E+00  0.00000000000E+00  0.54049981060E+03  0.54049981062E+03  0.50400001928E-02 0.  1.
        1   -1    0    0  501    0  0.00000000000E+00  0.00000000000E+00 -0.14365240698E+04  0.14365240698E+04  0.50400001928E-02 0. -1.
    10030    2    1    2    0    0  0.00000000000E+00  0.00000000000E+00 -0.89602425922E+03  0.19770238804E+04  0.17623177780E+04 0.  0.
        1    1    3    3  502    0  0.21751947313E+03 -0.35257069994E+03 -0.13204626883E+04  0.13839228775E+04  0.50400001928E-02 0. -1.
       -1    1    3    3    0  502 -0.21751947313E+03  0.35257069994E+03  0.42443842905E+03  0.59310100297E+03  0.50400001928E-02 0.  1.
</event>
<event>
 5   0  0.2224454E-04  0.1693268E+04  0.7818609E-02  0.8765213E-01
       -2   -1    0    0    0  501  0.00000000000E+00  0.00000000000E+00  0.14298074415E+04  0.14298074415E+04  0.25500000920E-02 0.  1.
        2   -1    0    0  501    0  0.00000000000E+00  0.00000000000E+00 -0.50131881802E+03  0.50131881802E+03  0.25500000920E-02 0. -1.
    10030    2    1    2    0    0  0.00000000000E+00  0.00000000000E+00  0.92848862352E+03  0.19311262596E+04  0.16932682913E+04 0.  0.
        2    1    3    3  502    0  0.61079831852E+03  0.42703626972E+03  0.92236073219E+03  0.11858262444E+04  0.25500000920E-02 0.  1.
       -2    1    3    3    0  502 -0.61079831852E+03 -0.42703626972E+03  0.61278913294E+01  0.74530001518E+03  0.25500000920E-02 0. -1.
</event>
<event>
 5   0  0.2356829E-04  0.1691810E+04  0.7818609E-02  0.8766049E-01
       -2   -1    0    0    0  501  0.00000000000E+00  0.00000000000E+00  0.10918970110E+04  0.10918970110E+04  0.25500000920E-02 0.  1.
        2   -1    0    0  501    0  0.00000000000E+00  0.00000000000E+00 -0.65533254035E+03  0.65533254035E+03  0.25500000920E-02 0. -1.
    10030    2    1    2    0    0  0.00000000000E+00  0.00000000000E+00  0.43656447067E+03  0.17472295514E+04  0.16918104410E+04 0.  0.
        5    1    3    3  502    0 -0.97848586391E+02  0.47383975121E+03 -0.49830181760E+03  0.69456838907E+03  0.46999998093E+01 0. -1.
       -5    1    3    3    0  502  0.97848586391E+02 -0.47383975121E+03  0.93486628827E+03  0.10526611623E+04  0.46999998093E+01 0.  1.
</event>
<event>
 5   0  0.1186302E-04  0.1780858E+04  0.7818609E-02  0.8716546E-01
       -1   -1    0    0    0  501  0.00000000000E+00  0.00000000000E+00  0.60199465297E+03  0.60199465299E+03  0.50400001928E-02 0.  1.
        1   -1    0    0  501    0  0.00000000000E+00  0.00000000000E+00 -0.13170612911E+04  0.13170612911E+04  0.50400001928E-02 0. -1.
    10030    2    1    2    0    0  0.00000000000E+00  0.00000000000E+00 -0.71506663812E+03  0.19190559441E+04  0.17808580571E+04 0.  0.
        3    1    3    3  502    0 -0.17640866954E+03  0.27411240274E+02 -0.12975780163E+04  0.13098015550E+04  0.10100000352E+00 0. -1.
       -3    1    3    3    0  502  0.17640866954E+03 -0.27411240274E+02  0.58251137818E+03  0.60925438914E+03  0.10100000352E+00 0.  1.
</event>
<event>
 5   0  0.1234158E-04  0.1704268E+04  0.7818609E-02  0.8758934E-01
        1   -1    0    0  501    0  0.00000000000E+00  0.00000000000E+00  0.10150552172E+04  0.10150552172E+04  0.50400001928E-02 0. -1.
       -1   -1    0    0    0  501  0.00000000000E+00  0.00000000000E+00 -0.71536237331E+03  0.71536237333E+03  0.50400001928E-02 0.  1.
    10030    2    1    2    0    0  0.00000000000E+00  0.00000000000E+00  0.29969284389E+03  0.17304175905E+04  0.17042679475E+04 0.  0.
        5    1    3    3  502    0  0.36182574925E+03  0.67073432228E+03  0.53688791977E+03  0.93224091967E+03  0.46999998093E+01 0. -1.
       -5    1    3    3    0  502 -0.36182574925E+03 -0.67073432228E+03 -0.23719507589E+03  0.79817667088E+03  0.46999998093E+01 0.  1.
</event>
<event>
 5   0  0.2224454E-04  0.1697261E+04  0.7818609E-02  0.8762928E-01
       -2   -1    0    0    0  501  0.00000000000E+00  0.00000000000E+00  0.10025253337E+04  0.10025253337E+04  0.25500000920E-02 0.  1.
        2   -1    0    0  501    0  0.00000000000E+00  0.00000000000E+00 -0.71836001937E+03  0.71836001937E+03  0.25500000920E-02 0. -1.
    10030    2    1    2    0    0  0.00000000000E+00  0.00000000000E+00  0.28416531430E+03  0.17208853530E+04  0.16972614626E+04 0.  0.
        2    1    3    3  502    0 -0.75056108632E+03 -0.33894038511E+03  0.34975439452E+03  0.89473496939E+03  0.25500000920E-02 0.  1.
       -2    1    3    3    0  502  0.75056108632E+03  0.33894038511E+03 -0.65589080221E+02  0.82615038365E+03  0.25500000920E-02 0. -1.
</event>
<event>
 5   0  0.1126958E-04  0.1701080E+04  0.7818609E-02  0.8760749E-01
        1   -1    0    0  501    0  0.00000000000E+00  0.00000000000E+00  0.12284592828E+04  0.12284592828E+04  0.50400001928E-02 0. -1.
       -1   -1    0    0    0  501  0.00000000000E+00  0.00000000000E+00 -0.58888253903E+03  0.58888253905E+03  0.50400001928E-02 0.  1.
    10030    2    1    2    0    0  0.00000000000E+00  0.00000000000E+00  0.63957674375E+03  0.18173418218E+04  0.17010799177E+04 0.  0.
        4    1    3    3  502    0  0.32583818696E+03 -0.20826433446E+03 -0.48953007742E+03  0.62384763099E+03  0.12699999809E+01 0.  1.
       -4    1    3    3    0  502 -0.32583818696E+03  0.20826433446E+03  0.11291068212E+04  0.11934941909E+04  0.12699999809E+01 0. -1.
</event>
<event>
 5   0  0.2288806E-04  0.1667398E+04  0.7818609E-02  0.8780180E-01
       -2   -1    0    0    0  501  0.00000000000E+00  0.00000000000E+00  0.12493997991E+04  0.12493997991E+04  0.25500000920E-02 0.  1.
        2   -1    0    0  501    0  0.00000000000E+00  0.00000000000E+00 -0.55631015429E+03  0.55631015430E+03  0.25500000920E-02 0. -1.
    10030    2    1    2    0    0  0.00000000000E+00  0.00000000000E+00  0.69308964477E+03  0.18057099534E+04  0.16673977270E+04 0.  0.
        3    1    3    3  502    0  0.20744819496E+03 -0.30192644703E+03  0.11575727483E+04  0.12141536191E+04  0.10100000352E+00 0.  1.
       -3    1    3    3    0  502 -0.20744819496E+03  0.30192644703E+03 -0.46448310349E+03  0.59155633428E+03  0.10100000352E+00 0. -1.
</event>
<event>
 5   0  0.2356829E-04  0.1741262E+04  0.7818609E-02  0.8738175E-01
        2   -1    0    0  501    0  0.00000000000E+00  0.00000000000E+00  0.32522796031E+03  0.32522796032E+03  0.25500000920E-02 0. -1.
       -2   -1    0    0    0  501  0.00000000000E+00  0.00000000000E+00 -0.23306672095E+04  0.23306672095E+04  0.25500000920E-02 0.  1.
    10030    2    1    2    0    0  0.00000000000E+00  0.00000000000E+00 -0.20054392492E+04  0.26558951699E+04  0.17412617755E+04 0.  0.
        5    1    3    3  502    0  0.19289022435E+03 -0.25529287428E+03  0.23227386049E+03  0.39541664934E+03  0.46999998093E+01 0. -1.
       -5    1    3    3    0  502 -0.19289022435E+03  0.25529287428E+03 -0.22377131097E+04  0.22604785205E+04  0.46999998093E+01 0.  1.
</event>
<event>
 5   0  0.2242967E-04  0.1708435E+04  0.7818609E-02  0.8756568E-01
        2   -1    0    0  501    0  0.00000000000E+00  0.00000000000E+00  0.54426872994E+03  0.54426872995E+03  0.25500000920E-02 0. -1.
       -2   -1    0    0    0  501  0.00000000000E+00  0.00000000000E+00 -0.13406749333E+04  0.13406749333E+04  0.25500000920E-02 0.  1.
    10030    2    1    2    0    0  0.00000000000E+00  0.00000000000E+00 -0.79640620331E+03  0.18849436632E+04  0.17084348898E+04 0.  0.
        4    1    3    3  502    0  0.83823241128E+03  0.16420748546E+03 -0.40856233458E+03  0.94684870372E+03  0.12699999809E+01 0. -1.
       -4    1    3    3    0  502 -0.83823241128E+03 -0.16420748546E+03 -0.38784386873E+03  0.93809495949E+03  0.12699999809E+01 0.  1.
</event>
<event>
 5   0  0.1126958E-04  0.1695022E+04  0.7818609E-02  0.8764209E-01
        1   -1    0    0  501    0  0.00000000000E+00  0.00000000000E+00  0.11825000089E+04  0.11825000089E+04  0.50400001928E-02 0.  1.
       -1   -1    0    0    0  501  0.00000000000E+00  0.00000000000E+00 -0.60742046682E+03  0.60742046684E+03  0.50400001928E-02 0. -1.
    10030    2    1    2    0    0  0.00000000000E+00  0.00000000000E+00  0.57507954209E+03  0.17899204758E+04  0.16950217786E+04 0.  0.
        4    1    3    3  502    0  0.49461668093E+03  0.18858563689E+02 -0.43892366737E+03  0.66155642628E+03  0.12699999809E+01 0. -1.
       -4    1    3    3    0  502 -0.49461668093E+03 -0.18858563689E+02  0.10140032095E+04  0.11283640495E+04  0.12699999809E+01 0.  1.
</event>
<event>
 5   0  0.2234723E-04  0.1709326E+04  0.7818609E-02  0.8756063E-01
       -2   -1    0    0    0  501  0.00000000000E+00  0.00000000000E+00  0.51489133113E+03  0.51489133114E+03  0.25500000920E-02 0.  1.
        2   -1    0    0  501    0  0.00000000000E+00  0.00000000000E+00 -0.14186472426E+04  0.14186472426E+04  0.25500000920E-02 0. -1.
    10030    2    1    2    0    0  0.00000000000E+00  0.00000000000E+00 -0.90375591149E+03  0.19335385738E+04  0.17093263786E+04 0.  0.
        1    1    3    3  502    0  0.52250402315E+03 -0.46072639549E+03  0.10821669130E+03  0.70497526057E+03  0.50400001928E-02 0.  1.
       -1    1    3    3    0  502 -0.52250402315E+03  0.46072639549E+03 -0.10119726028E+04  0.12285633132E+04  0.50400001928E-02 0. -1.
</event>
<event>
 5   0  0.1126958E-04  0.1689676E+04  0.7818609E-02  0.8767274E-01
       -1   -1    0    0    0  501  0.00000000000E+00  0.00000000000E+00  0.47439056172E+03  0.47439056174E+03  0.50400001928E-02 0. -1.
        1   -1    0    0  501    0  0.00000000000E+00  0.00000000000E+00 -0.15045653677E+04  0.15045653677E+04  0.50400001928E-02 0.  1.
    10030    2    1    2    0    0  0.00000000000E+00  0.00000000000E+00 -0.10301748060E+04  0.19789559294E+04  0.16896764305E+04 0.  0.
        4    1    3    3  502    0  0.79705587646E+02 -0.16284645515E+03 -0.14815103714E+04  0.14925637480E+04  0.12699999809E+01 0.  1.
       -4    1    3    3    0  502 -0.79705587646E+02  0.16284645515E+03  0.45133556537E+03  0.48639218140E+03  0.12699999809E+01 0. -1.
</event>
<event>
 5   0  0.2242967E-04  0.1647913E+04  0.7818609E-02  0.8791642E-01
        2   -1    0    0  501    0  0.00000000000E+00  0.00000000000E+00  0.87486199295E+03  0.87486199295E+03  0.25500000920E-02 0. -1.
       -2   -1    0    0    0  501  0.00000000000E+00  0.00000000000E+00 -0.77601275194E+03  0.77601275195E+03  0.25500000920E-02 0.  1.
    10030    2    1    2    0    0  0.00000000000E+00  0.00000000000E+00  0.98849241007E+02  0.16508747449E+04  0.16479126952E+04 0.  0.
        4    1    3    3  502    0 -0.25204761993E+03  0.23485509449E+03 -0.70039754098E+03  0.78054035541E+03  0.12699999809E+01 0.  1.
       -4    1    3    3    0  502  0.25204761993E+03 -0.23485509449E+03  0.79924678198E+03  0.87033438949E+03  0.12699999809E+01 0. -1.
</event>
<event>
 5   0  0.1204741E-04  0.1690888E+04  0.7818609E-02  0.8766578E-01
       -1   -1    0    0    0  501  0.00000000000E+00  0.00000000000E+00  0.11759616613E+04  0.11759616613E+04  0.50400001928E-02 0. -1.
        1   -1    0    0  501    0  0.00000000000E+00  0.00000000000E+00 -0.60782221221E+03  0.60782221223E+03  0.50400001928E-02 0.  1.
    10030    2    1    2    0    0  0.00000000000E+00  0.00000000000E+00  0.56813944911E+03  0.17837838736E+04  0.16908880726E+04 0.  0.
        1    1    3    3  502    0 -0.10268810644E+03  0.83547078566E+03  0.20087430102E+03  0.86539399451E+03  0.50400001928E-02 0.  1.
       -1    1    3    3    0  502  0.10268810644E+03 -0.83547078566E+03  0.36726514809E+03  0.91838987904E+03  0.50400001928E-02 0. -1.
</event>
<event>
 5   0  0.2356829E-04  0.1689807E+04  0.7818609E-02  0.8767199E-01
       -2   -1    0    0    0  501  0.00000000000E+00  0.00000000000E+00  0.84014888860E+03  0.84014888860E+03  0.25500000920E-02 0.  1.
        2   -1    0    0  501    0  0.00000000000E+00  0.00000000000E+00 -0.84968510365E+03  0.84968510366E+03  0.25500000920E-02 0. -1.
    10030    2    1    2    0    0  0.00000000000E+00  0.00000000000E+00 -0.95362150560E+01  0.16898339923E+04  0.16898070843E+04 0.  0.
        5    1    3    3  502    0 -0.41076107980E+02  0.25759972779E+03 -0.80839464154E+03  0.84945208981E+03  0.46999998093E+01 0. -1.
       -5    1    3    3    0  502  0.41076107980E+02 -0.25759972779E+03  0.79885842649E+03  0.84038190245E+03  0.46999998093E+01 0.  1.
</event>
<event>
 5   0  0.2356829E-04  0.1719816E+04  0.7818609E-02  0.8750142E-01
        2   -1    0    0  501    0  0.00000000000E+00  0.00000000000E+00  0.70502150296E+03  0.70502150296E+03  0.25500000920E-02 0. -1.
       -2   -1    0    0    0  501  0.00000000000E+00  0.00000000000E+00 -0.10488218742E+04  0.10488218742E+04  0.25500000920E-02 0.  1.
    10030    2    1    2    0    0  0.00000000000E+00  0.00000000000E+00 -0.34380037123E+03  0.17538433772E+04  0.17198162391E+04 0.  0.
        5    1    3    3  502    0  0.27471565400E+03  0.81291688441E+03 -0.22883793940E+03  0.88808301640E+03  0.46999998093E+01 0.  1.
       -5    1    3    3    0  502 -0.27471565400E+03 -0.81291688441E+03 -0.11496243182E+03  0.86576036075E+03  0.46999998093E+01 0. -1.
</event>
<event>
 5   0  0.2224454E-04  0.1707647E+04  0.7818609E-02  0.8757015E-01
        2   -1    0    0  501    0  0.00000000000E+00  0.00000000000E+00  0.12834873793E+04  0.12834873793E+04  0.25500000920E-02 0.  1.
       -2   -1    0    0    0  501  0.00000000000E+00  0.00000000000E+00 -0.56799510070E+03  0.56799510071E+03  0.25500000920E-02 0. -1.
    10030    2    1    2    0    0  0.00000000000E+00  0.00000000000E+00  0.71549227859E+03  0.18514824800E+04  0.17076469697E+04 0.  0.
        2    1    3    3  502    0  0.31023720855E+03 -0.72060110010E+03 -0.75308061016E+01  0.78458255403E+03  0.25500000920E-02 0. -1.
       -2    1    3    3    0  502 -0.31023720855E+03  0.72060110010E+03  0.72302308469E+03  0.10668999260E+04  0.25500000920E-02 0.  1.
</event>
<event>
 5   0  0.2224454E-04  0.1701407E+04  0.7818609E-02  0.8760562E-01
        2   -1    0    0  501    0  0.00000000000E+00  0.00000000000E+00  0.11805670545E+04  0.11805670545E+04  0.25500000920E-02 0.  1.
       -2   -1    0    0    0  501  0.00000000000E+00  0.00000000000E+00 -0.61300736496E+03  0.61300736497E+03  0.25500000920E-02 0. -1.
    10030    2    1    2    0    0  0.00000000000E+00  0.00000000000E+00  0.56755968954E+03  0.17935744195E+04  0.17014068288E+04 0.  0.
        2    1    3    3  502    0 -0.54701929404E+03  0.32204504439E+03 -0.31325092647E+03  0.70786245953E+03  0.25500000920E-02 0. -1.
       -2    1    3    3    0  502  0.54701929404E+03 -0.32204504439E+03  0.88081061601E+03  0.10857119599E+04  0.25500000920E-02 0.  1.
</event>
<event>
 5   0  0.2234723E-04  0.1701480E+04  0.7818609E-02  0.8760521E-01
       -2   -1    0    0    0  501  0.00000000000E+00  0.00000000000E+00  0.77651179449E+03  0.77651179450E+03  0.25500000920E-02 0. -1.
        2   -1    0    0  501    0  0.00000000000E+00  0.00000000000E+00 -0.93206365920E+03  0.93206365921E+03  0.25500000920E-02 0.  1.
    10030    2    1    2    0    0  0.00000000000E+00  0.00000000000E+00 -0.15555186471E+03  0.17085754537E+04  0.17014798554E+04 0.  0.
        1    1    3    3  502    0 -0.27799693312E+03  0.10277931688E+03 -0.87854270921E+03  0.92719101308E+03  0.50400001928E-02 0.  1.
       -1    1    3    3    0  502  0.27799693312E+03 -0.10277931688E+03  0.72299084450E+03  0.78138444063E+03  0.50400001928E-02 0. -1.
</event>
<event>
 5   0  0.1186302E-04  0.1673815E+04  0.7818609E-02  0.8776441E-01
        1   -1    0    0  501    0  0.00000000000E+00  0.00000000000E+00  0.19707088379E+04  0.19707088379E+04  0.50400001928E-02 0. -1.
       -1   -1    0    0    0  501  0.00000000000E+00  0.00000000000E+00 -0.35541217567E+03  0.35541217571E+03  0.50400001928E-02 0.  1.
    10030    2    1    2    0    0  0.00000000000E+00  0.00000000000E+00  0.16152966623E+04  0.23261210136E+04  0.16738147039E+04 0.  0.
        3    1    3    3  502    0  0.30425358870E+02 -0.52122878111E+03 -0.10132211490E+03  0.53185648994E+03  0.10100000352E+00 0.  1.
       -3    1    3    3    0  502 -0.30425358870E+02  0.52122878111E+03  0.17166187772E+04  0.17942645237E+04  0.10100000352E+00 0. -1.
</event>
<event>
 5   0  0.1186302E-04  0.1690089E+04  0.7818609E-02  0.8767037E-01
        1   -1    0    0  501    0  0.00000000000E+00  0.00000000000E+00  0.88660273924E+03  0.88660273925E+03  0.50400001928E-02 0.  1.
       -1   -1    0    0    0  501  0.00000000000E+00  0.00000000000E+00 -0.80543466366E+03  0.80543466368E+03  0.50400001928E-02 0. -1.
    10030    2    1    2    0    0  0.00000000000E+00  0.00000000000E+00  0.81168075578E+02  0.16920374029E+04  0.16900894404E+04 0.  0.
        3    1    3    3  502    0 -0.32819974435E+03  0.50900919809E+02  0.81852184881E+03  0.88333685704E+03  0.10100000352E+00 0.  1.
       -3    1    3    3    0  502  0.32819974435E+03 -0.50900919809E+02 -0.73735377323E+03  0.80870054589E+03  0.10100000352E+00 0. -1.
</event>
<event>
 5   0  0.2288806E-04  0.1702753E+04  0.7818609E-02  0.8759796E-01
       -2   -1    0    0    0  501  0.00000000000E+00  0.00000000000E+00  0.35080743588E+03  0.35080743589E+03  0.25500000920E-02 0.  1.
        2   -1    0    0  501    0  0.00000000000E+00  0.00000000000E+00 -0.20662102307E+04  0.20662102307E+04  0.25500000920E-02 0. -1.
    10030    2    1    2    0    0  0.00000000000E+00  0.00000000000E+00 -0.17154027948E+04  0.24170176666E+04  0.17027529627E+04 0.  0.
        3    1    3    3  502    0  0.58951934669E+03  0.60039858194E+03 -0.10418528768E+04  0.13392045939E+04  0.10100000352E+00 0. -1.
       -3    1    3    3    0  502 -0.58951934669E+03 -0.60039858194E+03 -0.67354991806E+03  0.10778130727E+04  0.10100000352E+00 0.  1.
</event>
<event>
 5   0  0.1204741E-04  0.1757795E+04  0.7818609E-02  0.8729071E-01
       -1   -1    0    0    0  501  0.00000000000E+00  0.00000000000E+00  0.57999229941E+03  0.57999229943E+03  0.50400001928E-02 0.  1.
        1   -1    0    0  501    0  0.00000000000E+00  0.00000000000E+00 -0.13318465773E+04  0.13318465773E+04  0.50400001928E-02 0. -1.
    10030    2    1    2    0    0  0.00000000000E+00  0.00000000000E+00 -0.75185427788E+03  0.19118388767E+04  0.17577949355E+04 0.  0.
        1    1    3    3  502    0  0.80889795814E+03 -0.33605031239E+03 -0.29738334263E+03  0.92503111928E+03  0.50400001928E-02 0. -1.
       -1    1    3    3    0  502 -0.80889795814E+03  0.33605031239E+03 -0.45447093524E+03  0.98680775744E+03  0.50400001928E-02 0.  1.
</event>
<event>
 5   0  0.2224454E-04  0.1675833E+04  0.7818609E-02  0.8775269E-01
       -2   -1    0    0    0  501  0.00000000000E+00  0.00000000000E+00  0.65288836360E+03  0.65288836360E+03  0.25500000920E-02 0. -1.
        2   -1    0    0  501    0  0.00000000000E+00  0.00000000000E+00 -0.10753820920E+04  0.10753820920E+04  0.25500000920E-02 0.  1.
    10030    2    1    2    0    0  0.00000000000E+00  0.00000000000E+00 -0.42249372837E+03  0.17282704556E+04  0.16758334694E+04 0.  0.
        2    1    3    3  502    0 -0.29218944557E+03 -0.77393894326E+03 -0.34863814000E+03  0.89772195733E+03  0.25500000920E-02 0. -1.
       -2    1    3    3    0  502  0.29218944557E+03  0.77393894326E+03 -0.73855588371E+02  0.83054849825E+03  0.25500000920E-02 0.  1.
</event>
<event>
 5   0  0.1126958E-04  0.1682447E+04  0.7818609E-02  0.8771439E-01
        1   -1    0    0  501    0  0.00000000000E+00  0.00000000000E+00  0.81488128651E+03  0.81488128653E+03  0.50400001928E-02 0. -1.
       -1   -1    0    0    0  501  0.00000000000E+00  0.00000000000E+00 -0.86841686531E+03  0.86841686533E+03  0.50400001928E-02 0.  1.
    10030    2    1    2    0    0  0.00000000000E+00  0.00000000000E+00 -0.53535578798E+02  0.16832981519E+04  0.16824466143E+04 0.  0.
        4    1    3    3  502    0  0.18543577486E+03 -0.63064257664E+03 -0.55197018969E+03  0.85835260195E+03  0.12699999809E+01 0.  1.
       -4    1    3    3    0  502 -0.18543577486E+03  0.63064257664E+03  0.49843461089E+03  0.82494554990E+03  0.12699999809E+01 0. -1.
</event>
<event>
 5   0  0.1204741E-04  0.1722183E+04  0.7818609E-02  0.8748813E-01
       -1   -1    0    0    0  501  0.00000000000E+00  0.00000000000E+00  0.51997106581E+03  0.51997106583E+03  0.50400001928E-02 0.  1.
        1   -1    0    0  501    0  0.00000000000E+00  0.00000000000E+00 -0.14259993525E+04  0.14259993525E+04  0.50400001928E-02 0. -1.
    10030    2    1    2    0    0  0.00000000000E+00  0.00000000000E+00 -0.90602828668E+03  0.19459704183E+04  0.17221828047E+04 0.  0.
        1    1    3    3  502    0 -0.75840891072E+03 -0.23468798783E+03 -0.82983972503E+03  0.11484321908E+04  0.50400001928E-02 0. -1.
       -1    1    3    3    0  502  0.75840891072E+03  0.23468798783E+03 -0.76188561651E+02  0.79753822758E+03  0.50400001928E-02 0.  1.
</event>
<event>
 5   0  0.1215233E-04  0.1702334E+04  0.7818609E-02  0.8760034E-01
       -1   -1    0    0    0  501  0.00000000000E+00  0.00000000000E+00  0.80978197737E+03  0.80978197739E+03  0.50400001928E-02 0. -1.
        1   -1    0    0  501    0  0.00000000000E+00  0.00000000000E+00 -0.89466749065E+03  0.89466749066E+03  0.50400001928E-02 0.  1.
    10030    2    1    2    0    0  0.00000000000E+00  0.00000000000E+00 -0.84885513276E+02  0.17044494680E+04  0.17023344086E+04 0.  0.
        2    1    3    3  502    0  0.56850668795E+03  0.55813071541E+03 -0.34244122655E+03  0.86716534950E+03  0.25500000920E-02 0.  1.
       -2    1    3    3    0  502 -0.56850668795E+03 -0.55813071541E+03  0.25755571327E+03  0.83728411855E+03  0.25500000920E-02 0. -1.
</event>
<event>
 5   0  0.1186302E-04  0.1698554E+04  0.7818609E-02  0.8762190E-01
       -1   -1    0    0    0  501  0.00000000000E+00  0.00000000000E+00  0.78417326764E+03  0.78417326766E+03  0.50400001928E-02 0. -1.
        1   -1    0    0  501    0  0.00000000000E+00  0.00000000000E+00 -0.91978569139E+03  0.91978569140E+03  0.50400001928E-02 0.  1.
    10030    2    1    2    0    0  0.00000000000E+00  0.00000000000E+00 -0.13561242375E+03  0.17039589591E+04  0.16985539157E+04 0.  0.
        3    1    3    3  502    0  0.70571990711E+03 -0.43986108186E+03 -0.24084562984E+03  0.86575111103E+03  0.10100000352E+00 0.  1.
       -3    1    3    3    0  502 -0.70571990711E+03  0.43986108186E+03  0.10523320610E+03  0.83820784803E+03  0.10100000352E+00 0. -1.
</event>
<event>
 5   0  0.2242967E-04  0.1702705E+04  0.7818609E-02  0.8759823E-01
        2   -1    0    0  501    0  0.00000000000E+00  0.00000000000E+00  0.16464667119E+04  0.16464667119E+04  0.25500000920E-02 0.  1.
       -2   -1    0    0    0  501  0.00000000000E+00  0.00000000000E+00 -0.44021630134E+03  0.44021630135E+03  0.25500000920E-02 0. -1.
    10030    2    1    2    0    0  0.00000000000E+00  0.00000000000E+00  0.12062504105E+04  0.20866830132E+04  0.17027054780E+04 0.  0.
        4    1    3    3  502    0 -0.64130190603E+03  0.22127017361E+03  0.12334846599E+04  0.14077338681E+04  0.12699999809E+01 0.  1.
       -4    1    3    3    0  502  0.64130190603E+03 -0.22127017361E+03 -0.27234249334E+02  0.67894914511E+03  0.12699999809E+01 0. -1.
</event>
<event>
 5   0  0.2242967E-04  0.1667759E+04  0.7818609E-02  0.8779969E-01
        2   -1    0    0  501    0  0.00000000000E+00  0.00000000000E+00  0.68072760008E+03  0.68072760009E+03  0.25500000920E-02 0. -1.
       -2   -1    0    0    0  501  0.00000000000E+00  0.00000000000E+00 -0.10214873778E+04  0.10214873778E+04  0.25500000920E-02 0.  1.
    10030    2    1    2    0    0  0.00000000000E+00  0.00000000000E+00 -0.34075977768E+03  0.17022149779E+04  0.16677585571E+04 0.  0.
        4    1    3    3  502    0 -0.70445483894E+03 -0.59234746083E+02  0.28101013729E+03  0.76074548004E+03  0.12699999809E+01 0. -1.
       -4    1    3    3    0  502  0.70445483894E+03  0.59234746083E+02 -0.62176991497E+03  0.94146949781E+03  0.12699999809E+01 0.  1.
</event>
<event>
 5   0  0.1215233E-04  0.1706422E+04  0.7818609E-02  0.8757710E-01
       -1   -1    0    0    0  501  0.00000000000E+00  0.00000000000E+00  0.13713361989E+04  0.13713361989E+04  0.50400001928E-02 0. -1.
        1   -1    0    0  501    0  0.00000000000E+00  0.00000000000E+00 -0.53084622430E+03  0.53084622432E+03  0.50400001928E-02 0.  1.
    10030    2    1    2    0    0  0.00000000000E+00  0.00000000000E+00  0.84048997457E+03  0.19021824232E+04  0.17064215698E+04 0.  0.
        2    1    3    3  502    0 -0.25046646258E+03  0.76281741491E+03  0.98430900692E+02  0.80889585212E+03  0.25500000920E-02 0. -1.
       -2    1    3    3    0  502  0.25046646258E+03 -0.76281741491E+03  0.74205907388E+03  0.10932865711E+04  0.25500000920E-02 0.  1.
</event>
<event>
 5   0  0.2242967E-04  0.1688660E+04  0.7818609E-02  0.8767859E-01
        2   -1    0    0  501    0  0.00000000000E+00  0.00000000000E+00  0.12043750282E+04  0.12043750283E+04  0.25500000920E-02 0. -1.
       -2   -1    0    0    0  501  0.00000000000E+00  0.00000000000E+00 -0.59191931887E+03  0.59191931887E+03  0.25500000920E-02 0.  1.
    10030    2    1    2    0    0  0.00000000000E+00  0.00000000000E+00  0.61245570938E+03  0.17962943471E+04  0.16886596417E+04 0.  0.
        4    1    3    3  502    0  0.45343917253E+03  0.27381611249E+03  0.10056388585E+04  0.11366149187E+04  0.12699999809E+01 0. -1.
       -4    1    3    3    0  502 -0.45343917253E+03 -0.27381611249E+03 -0.39318314915E+03  0.65967942845E+03  0.12699999809E+01 0.  1.
</event>
<event>
 5   0  0.2234723E-04  0.1708960E+04  0.7818609E-02  0.8756270E-01
       -2   -1    0    0    0  501  0.00000000000E+00  0.00000000000E+00  0.11967211800E+04  0.11967211800E+04  0.25500000920E-02 0. -1.
        2   -1    0    0  501    0  0.00000000000E+00  0.00000000000E+00 -0.61011388007E+03  0.61011388007E+03  0.25500000920E-02 0.  1.
    10030    2    1    2    0    0  0.00000000000E+00  0.00000000000E+00  0.58660729993E+03  0.18068350601E+04  0.17089601546E+04 0.  0.
        1    1    3    3  502    0  0.39015710534E+03 -0.61497479483E+03 -0.17919106646E+03  0.75001733543E+03  0.50400001928E-02 0.  1.
       -1    1    3    3    0  502 -0.39015710534E+03  0.61497479483E+03  0.76579836640E+03  0.10568177246E+04  0.50400001928E-02 0. -1.
</event>
<event>
 5   0  0.2242967E-04  0.1713849E+04  0.7818609E-02  0.8753505E-01
        2   -1    0    0  501    0  0.00000000000E+00  0.00000000000E+00  0.65626246966E+03  0.65626246966E+03  0.25500000920E-02 0. -1.
       -2   -1    0    0    0  501  0.00000000000E+00  0.00000000000E+00 -0.11189422259E+04  0.11189422259E+04  0.25500000920E-02 0.  1.
    10030    2    1    2    0    0  0.00000000000E+00  0.00000000000E+00 -0.46267975626E+03  0.17752046956E+04  0.17138492216E+04 0.  0.
        4    1    3    3  502    0  0.35586831041E+03  0.53733861130E+03 -0.81630834789E+03  0.10400653678E+04  0.12699999809E+01 0.  1.
       -4    1    3    3    0  502 -0.35586831041E+03 -0.53733861130E+03  0.35362859163E+03  0.73513932779E+03  0.12699999809E+01 0. -1.
</event>
<event>
 5   0  0.1186302E-04  0.1695464E+04  0.7818609E-02  0.8763955E-01
        1   -1    0    0  501    0  0.00000000000E+00  0.00000000000E+00  0.27383517626E+04  0.27383517626E+04  0.50400001928E-02 0.  1.
       -1   -1    0    0    0  501  0.00000000000E+00  0.00000000000E+00 -0.26243884062E+03  0.26243884067E+03  0.50400001928E-02 0. -1.
    10030    2    1    2    0    0  0.00000000000E+00  0.00000000000E+00  0.24759129220E+04  0.30007906033E+04  0.16954643752E+04 0.  0.
        3    1    3    3  502    0  0.37399450715E+03  0.32648257582E+03  0.21759046429E+02  0.49692678534E+03  0.10100000352E+00 0. -1.
       -3    1    3    3    0  502 -0.37399450715E+03 -0.32648257582E+03  0.24541538755E+04  0.25038638179E+04  0.10100000352E+00 0.  1.
</event>
<event>
 5   0  0.2356829E-04  0.1705579E+04  0.7818609E-02  0.8758189E-01
        2   -1    0    0  501    0  0.00000000000E+00  0.00000000000E+00  0.17624366756E+04  0.17624366756E+04  0.25500000920E-02 0.  1.
       -2   -1    0    0    0  501  0.00000000000E+00  0.00000000000E+00 -0.41263906013E+03  0.41263906013E+03  0.25500000920E-02 0. -1.
    10030    2    1    2    0    0  0.00000000000E+00  0.00000000000E+00  0.13497976155E+04  0.21750757358E+04  0.17055793308E+04 0.  0.
        5    1    3    3  502    0  0.27276092624E+03  0.80769008363E+03  0.64735976696E+03  0.10704478278E+04  0.46999998093E+01 0.  1.
       -5    1    3    3    0  502 -0.27276092624E+03 -0.80769008363E+03  0.70243784856E+03  0.11046279080E+04  0.46999998093E+01 0. -1.
</event>
<event>
 5   0  0.1234158E-04  0.1697520E+04  0.7818609E-02  0.8762780E-01
       -1   -1    0    0    0  501  0.00000000000E+00  0.00000000000E+00  0.44433588464E+03  0.44433588467E+03  0.50400001928E-02 0. -1.
        1   -1    0    0  501    0  0.00000000000E+00  0.00000000000E+00 -0.16212805883E+04  0.16212805883E+04  0.50400001928E-02 0.  1.
    10030    2    1    2    0    0  0.00000000000E+00  0.00000000000E+00 -0.11769447037E+04  0.20656164730E+04  0.16975195368E+04 0.  0.
        5    1    3    3  502    0  0.75886914450E+03 -0.17941001692E+03 -0.99625259546E+03  0.12651528195E+04  0.46999998093E+01 0.  1.
       -5    1    3    3    0  502 -0.75886914450E+03  0.17941001692E+03 -0.18069210821E+03  0.80046365352E+03  0.46999998093E+01 0. -1.
</event>
<event>
 5   0  0.1186302E-04  0.1694980E+04  0.7818609E-02  0.8764232E-01
        1   -1    0    0  501    0  0.00000000000E+00  0.00000000000E+00  0.17467117453E+04  0.17467117453E+04  0.50400001928E-02 0. -1.
       -1   -1    0    0    0  501  0.00000000000E+00  0.00000000000E+00 -0.41119531604E+03  0.41119531607E+03  0.50400001928E-02 0.  1.
    10030    2    1    2    0    0  0.00000000000E+00  0.00000000000E+00  0.13355164292E+04  0.21579070613E+04  0.16949804579E+04 0.  0.
        3    1    3    3  502    0  0.56588024140E+03 -0.19306547547E+03 -0.96901433087E+02  0.60571001590E+03  0.10100000352E+00 0.  1.
       -3    1    3    3    0  502 -0.56588024140E+03  0.19306547547E+03  0.14324178623E+04  0.15521970454E+04  0.10100000352E+00 0. -1.
</event>
<event>
 5   0  0.2288806E-04  0.1695908E+04  0.7818609E-02  0.8763701E-01
       -2   -1    0    0    0  501  0.00000000000E+00  0.00000000000E+00  0.34947431163E+03  0.34947431164E+03  0.25500000920E-02 0. -1.
        2   -1    0    0  501    0  0.00000000000E+00  0.00000000000E+00 -0.20574509079E+04  0.20574509079E+04  0.25500000920E-02 0.  1.
    10030    2    1    2    0    0  0.00000000000E+00  0.00000000000E+00 -0.17079765963E+04  0.24069252196E+04  0.16959082991E+04 0.  0.
        3    1    3    3  502    0  0.39144394274E+02 -0.79320345387E+03 -0.43219931033E+03  0.90415720806E+03  0.10100000352E+00 0. -1.
       -3    1    3    3    0  502 -0.39144394274E+02  0.79320345387E+03 -0.12757772860E+04  0.15027680115E+04  0.10100000352E+00 0.  1.
</event>
<event>
 5   0  0.1204741E-04  0.1702188E+04  0.7818609E-02  0.8760118E-01
       -1   -1    0    0    0  501  0.00000000000E+00  0.00000000000E+00  0.10781779602E+04  0.10781779602E+04  0.50400001928E-02 0.  1.
        1   -1    0    0  501    0  0.00000000000E+00  0.00000000000E+00 -0.67183775234E+03  0.67183775236E+03  0.50400001928E-02 0. -1.
    10030    2    1    2    0    0  0.00000000000E+00  0.00000000000E+00  0.40634020789E+03  0.17500157126E+04  0.17021876012E+04 0.  0.
        1    1    3    3  502    0  0.32958005747E+03 -0.78451194883E+03  0.18600840116E+03  0.87102304072E+03  0.50400001928E-02 0. -1.
       -1    1    3    3    0  502 -0.32958005747E+03  0.78451194883E+03  0.22033180673E+03  0.87899267188E+03  0.50400001928E-02 0.  1.
</event>
<event>
 5   0  0.1126958E-04  0.1768142E+04  0.7818609E-02  0.8723427E-01
        1   -1    0    0  501    0  0.00000000000E+00  0.00000000000E+00  0.13011425922E+04  0.13011425922E+04  0.50400001928E-02 0.  1.
       -1   -1    0    0    0  501  0.00000000000E+00  0.00000000000E+00 -0.60068875827E+03  0.60068875829E+03  0.50400001928E-02 0. -1.
    10030    2    1    2    0    0  0.00000000000E+00  0.00000000000E+00  0.70045383397E+03  0.19018313505E+04  0.17681422206E+04 0.  0.
        4    1    3    3  502    0 -0.58460178145E+03  0.50633157227E+03 -0.11046726961E+03  0.78123974202E+03  0.12699999809E+01 0. -1.
       -4    1    3    3    0  502  0.58460178145E+03 -0.50633157227E+03  0.81092110358E+03  0.11205916085E+04  0.12699999809E+01 0.  1.
</event>
<event>
 5   0  0.1234158E-04  0.1749093E+04  0.7818609E-02  0.8733850E-01
        1   -1    0    0  501    0  0.00000000000E+00  0.00000000000E+00  0.46434880279E+03  0.46434880282E+03  0.50400001928E-02 0. -1.
       -1   -1    0    0    0  501  0.00000000000E+00  0.00000000000E+00 -0.16471054610E+04  0.16471054611E+04  0.50400001928E-02 0.  1.
    10030    2    1    2    0    0  0.00000000000E+00  0.00000000000E+00 -0.11827566583E+04  0.21114542639E+04  0.17490928494E+04 0.  0.
        5    1    3    3  502    0 -0.79810768318E+03  0.24071819154E+03 -0.27224595899E+03  0.87696127273E+03  0.46999998093E+01 0. -1.
       -5    1    3    3    0  502  0.79810768318E+03 -0.24071819154E+03 -0.91051069927E+03  0.12344929911E+04  0.46999998093E+01 0.  1.
</event>
<event>
 5   0  0.1126958E-04  0.1704640E+04  0.7818609E-02  0.8758723E-01
       -1   -1    0    0    0  501  0.00000000000E+00  0.00000000000E+00  0.11526042931E+04  0.11526042931E+04  0.50400001928E-02 0. -1.
        1   -1    0    0  501    0  0.00000000000E+00  0.00000000000E+00 -0.63026767189E+03  0.63026767191E+03  0.50400001928E-02 0.  1.
    10030    2    1    2    0    0  0.00000000000E+00  0.00000000000E+00  0.52233662116E+03  0.17828719650E+04  0.17046398146E+04 0.  0.
        4    1    3    3  502    0 -0.30530173056E+03  0.79329948597E+03  0.32660474034E+03  0.91060720975E+03  0.12699999809E+01 0.  1.
       -4    1    3    3    0  502  0.30530173056E+03 -0.79329948597E+03  0.19573188083E+03  0.87226475522E+03  0.12699999809E+01 0. -1.
</event>
<event>
 5   0  0.1204741E-04  0.1686812E+04  0.7818609E-02  0.8768922E-01
        1   -1    0    0  501    0  0.00000000000E+00  0.00000000000E+00  0.78172841561E+03  0.78172841562E+03  0.50400001928E-02 0.  1.
       -1   -1    0    0    0  501  0.00000000000E+00  0.00000000000E+00 -0.90995035776E+03  0.90995035778E+03  0.50400001928E-02 0. -1.
    10030    2    1    2    0    0  0.00000000000E+00  0.00000000000E+00 -0.12822194216E+03  0.16916787734E+04  0.16868124395E+04 0.  0.
        1    1    3    3  502    0 -0.39805384911E+03  0.45955987592E+02 -0.80839432480E+03  0.90225284925E+03  0.50400001928E-02 0. -1.
       -1    1    3    3    0  502  0.39805384911E+03 -0.45955987592E+02  0.68017238264E+03  0.78942592415E+03  0.50400001928E-02 0.  1.
</event>
<event>
 5   0  0.2242967E-04  0.1703535E+04  0.7818609E-02  0.8759351E-01
       -2   -1    0    0    0  501  0.00000000000E+00  0.00000000000E+00  0.10509900940E+04  0.10509900940E+04  0.25500000920E-02 0.  1.
        2   -1    0    0  501    0  0.00000000000E+00  0.00000000000E+00 -0.69030926883E+03  0.69030926883E+03  0.25500000920E-02 0. -1.
    10030    2    1    2    0    0  0.00000000000E+00  0.00000000000E+00  0.36068082519E+03  0.17412993629E+04  0.17035353866E+04 0.  0.
        4    1    3    3  502    0  0.25500057162E+03  0.44823782949E+03 -0.51259914060E+03  0.72711892779E+03  0.12699999809E+01 0. -1.
       -4    1    3    3    0  502 -0.25500057162E+03 -0.44823782949E+03  0.87327996579E+03  0.10141804351E+04  0.12699999809E+01 0.  1.
</event>
<event>
 5   0  0.1126958E-04  0.1708886E+04  0.7818609E-02  0.8756312E-01
        1   -1    0    0  501    0  0.00000000000E+00  0.00000000000E+00  0.39466518431E+03  0.39466518434E+03  0.50400001928E-02 0. -1.
       -1   -1    0    0    0  501  0.00000000000E+00  0.00000000000E+00 -0.18498540287E+04  0.18498540287E+04  0.50400001928E-02 0.  1.
    10030    2    1    2    0    0  0.00000000000E+00  0.00000000000E+00 -0.14551888444E+04  0.22445192131E+04  0.17088861650E+04 0.  0.
        4    1    3    3  502    0  0.57533594662E+03  0.33127229862E+02  0.10097951923E+03  0.58507037272E+03  0.12699999809E+01 0. -1.
       -4    1    3    3    0  502 -0.57533594662E+03 -0.33127229862E+02 -0.15561683636E+04  0.16594488403E+04  0.12699999809E+01 0.  1.
</event>
<event>
 5   0  0.1204741E-04  0.1712905E+04  0.7818609E-02  0.8754038E-01
        1   -1    0    0  501    0  0.00000000000E+00  0.00000000000E+00  0.11121968265E+04  0.11121968265E+04  0.50400001928E-02 0. -1.
       -1   -1    0    0    0  501  0.00000000000E+00  0.00000000000E+00 -0.65951539702E+03  0.65951539704E+03  0.50400001928E-02 0.  1.
    10030    2    1    2    0    0  0.00000000000E+00  0.00000000000E+00  0.45268142946E+03  0.17717122235E+04  0.17129050547E+04 0.  0.
        1    1    3    3  502    0  0.56283652153E+03  0.10009848177E+02  0.89396628632E+03  0.10564378203E+04  0.50400001928E-02 0. -1.
       -1    1    3    3    0  502 -0.56283652153E+03 -0.10009848177E+02 -0.44128485686E+03  0.71527440325E+03  0.50400001928E-02 0.  1.
</event>
<event>
 5   0  0.1186302E-04  0.1623693E+04  0.7818609E-02  0.8806123E-01
       -1   -1    0    0    0  501  0.00000000000E+00  0.00000000000E+00  0.79250653249E+03  0.79250653251E+03  0.50400001928E-02 0.  1.
        1   -1    0    0  501    0  0.00000000000E+00  0.00000000000E+00 -0.83165829902E+03  0.83165829904E+03  0.50400001928E-02 0. -1.
    10030    2    1    2    0    0  0.00000000000E+00  0.00000000000E+00 -0.39151766529E+02  0.16241648315E+04  0.16236928710E+04 0.  0.
        3    1    3    3  502    0 -0.48685517813E+03  0.48918417005E+03 -0.44721097613E+03  0.82239089493E+03  0.10100000352E+00 0. -1.
       -3    1    3    3    0  502  0.48685517813E+03 -0.48918417005E+03  0.40805920960E+03  0.80177393662E+03  0.10100000352E+00 0.  1.
</event>
<event>
 5   0  0.1186302E-04  0.1620149E+04  0.7818609E-02  0.8808264E-01
        1   -1    0    0  501    0  0.00000000000E+00  0.00000000000E+00  0.81490695965E+03  0.81490695967E+03  0.50400001928E-02 0. -1.
       -1   -1    0    0    0  501  0.00000000000E+00  0.00000000000E+00 -0.80527084275E+03  0.80527084277E+03  0.50400001928E-02 0.  1.
    10030    2    1    2    0    0  0.00000000000E+00  0.00000000000E+00  0.96361168965E+01  0.16201778024E+04  0.16201491465E+04 0.  0.
        3    1    3    3  502    0  0.13953920592E+03  0.50098942011E+03  0.62592421773E+03  0.81378297205E+03  0.10100000352E+00 0. -1.
       -3    1    3    3    0  502 -0.13953920592E+03 -0.50098942011E+03 -0.61628810083E+03  0.80639483039E+03  0.10100000352E+00 0.  1.
</event>
<event>
 5   0  0.2242967E-04  0.1699275E+04  0.7818609E-02  0.8761778E-01
       -2   -1    0    0    0  501  0.00000000000E+00  0.00000000000E+00  0.79822709847E+03  0.79822709847E+03  0.25500000920E-02 0. -1.
        2   -1    0    0  501    0  0.00000000000E+00  0.00000000000E+00 -0.90435853643E+03  0.90435853643E+03  0.25500000920E-02 0.  1.
    10030    2    1    2    0    0  0.00000000000E+00  0.00000000000E+00 -0.10613143796E+03  0.17025856349E+04  0.16992745399E+04 0.  0.
        4    1    3    3  502    0  0.24251098697E+03 -0.55390416780E+03  0.54497290515E+03  0.81401381202E+03  0.12699999809E+01 0. -1.
       -4    1    3    3    0  502 -0.24251098697E+03  0.55390416780E+03 -0.65110434311E+03  0.88857182288E+03  0.12699999809E+01 0.  1.
</event>
<event>
 5   0  0.1215233E-04  0.1713061E+04  0.7818609E-02  0.8753950E-01
        1   -1    0    0  501    0  0.00000000000E+00  0.00000000000E+00  0.13868269354E+04  0.13868269354E+04  0.50400001928E-02 0. -1.
       -1   -1    0    0    0  501  0.00000000000E+00  0.00000000000E+00 -0.52900959986E+03  0.52900959988E+03  0.50400001928E-02 0.  1.
    10030    2    1    2    0    0  0.00000000000E+00  0.00000000000E+00  0.85781733549E+03  0.19158365352E+04  0.17130613091E+04 0.  0.
        2    1    3    3  502    0  0.23556195327E+03  0.24508893417E+03 -0.45033704434E+03  0.56423529931E+03  0.25500000920E-02 0.  1.
       -2    1    3    3    0  502 -0.23556195327E+03 -0.24508893417E+03  0.13081543798E+04  0.13516012359E+04  0.25500000920E-02 0. -1.
</event>
<event>
 5   0  0.1126958E-04  0.1709740E+04  0.7818609E-02  0.8755829E-01
        1   -1    0    0  501    0  0.00000000000E+00  0.00000000000E+00  0.14908269635E+04  0.14908269635E+04  0.50400001928E-02 0.  1.
       -1   -1    0    0    0  501  0.00000000000E+00  0.00000000000E+00 -0.49019935731E+03  0.49019935733E+03  0.50400001928E-02 0. -1.
    10030    2    1    2    0    0  0.00000000000E+00  0.00000000000E+00  0.10006276062E+04  0.19810263209E+04  0.17097396520E+04 0.  0.
        4    1    3    3  502    0  0.31393406502E+03  0.78017197233E+03  0.67822891972E+03  0.10803790927E+04  0.12699999809E+01 0.  1.
       -4    1    3    3    0  502 -0.31393406502E+03 -0.78017197233E+03  0.32239868650E+03  0.90064722813E+03  0.12699999809E+01 0. -1.
</event>
<event>
 5   0  0.2242967E-04  0.1698515E+04  0.7818609E-02  0.8762212E-01
       -2   -1    0    0    0  501  0.00000000000E+00  0.00000000000E+00  0.75204445419E+03  0.75204445419E+03  0.25500000920E-02 0. -1.
        2   -1    0    0  501    0  0.00000000000E+00  0.00000000000E+00 -0.95903701980E+03  0.95903701981E+03  0.25500000920E-02 0.  1.
    10030    2    1    2    0    0  0.00000000000E+00  0.00000000000E+00 -0.20699256562E+03  0.17110814740E+04  0.16985152011E+04 0.  0.
        4    1    3    3  502    0  0.31957022773E+03  0.46460869009E+03 -0.74321448068E+03  0.93292858384E+03  0.12699999809E+01 0.  1.
       -4    1    3    3    0  502 -0.31957022773E+03 -0.46460869009E+03  0.53622191506E+03  0.77815289015E+03  0.12699999809E+01 0. -1.
</event>
<event>
 5   0  0.2356829E-04  0.1707451E+04  0.7818609E-02  0.8757126E-01
        2   -1    0    0  501    0  0.00000000000E+00  0.00000000000E+00  0.73793314986E+03  0.73793314986E+03  0.25500000920E-02 0.  1.
       -2   -1    0    0    0  501  0.00000000000E+00  0.00000000000E+00 -0.98768729908E+03  0.98768729908E+03  0.25500000920E-02 0. -1.
    10030    2    1    2    0    0  0.00000000000E+00  0.00000000000E+00 -0.24975414922E+03  0.17256204489E+04  0.17074509653E+04 0.  0.
        5    1    3    3  502    0  0.36900964041E+03  0.46752072783E+03 -0.74300743440E+03  0.95227405889E+03  0.46999998093E+01 0. -1.
       -5    1    3    3    0  502 -0.36900964041E+03 -0.46752072783E+03  0.49325328518E+03  0.77334639005E+03  0.46999998093E+01 0.  1.
</event>
<event>
 5   0  0.1126958E-04  0.1692435E+04  0.7818609E-02  0.8765691E-01
       -1   -1    0    0    0  501  0.00000000000E+00  0.00000000000E+00  0.73973948246E+03  0.73973948248E+03  0.50400001928E-02 0. -1.
        1   -1    0    0  501    0  0.00000000000E+00  0.00000000000E+00 -0.96802169258E+03  0.96802169260E+03  0.50400001928E-02 0.  1.
    10030    2    1    2    0    0  0.00000000000E+00  0.00000000000E+00 -0.22828221012E+03  0.17077611751E+04  0.16924347738E+04 0.  0.
        4    1    3    3  502    0 -0.53306355530E+03 -0.55066973405E+03 -0.47612129230E+03  0.90226770300E+03  0.12699999809E+01 0. -1.
       -4    1    3    3    0  502  0.53306355530E+03  0.55066973405E+03  0.24783908218E+03  0.80549347207E+03  0.12699999809E+01 0.  1.
</event>
<event>
 5   0  0.2242967E-04  0.1695287E+04  0.7818609E-02  0.8764057E-01
        2   -1    0    0  501    0  0.00000000000E+00  0.00000000000E+00  0.76597586533E+03  0.76597586534E+03  0.25500000920E-02 0. -1.
       -2   -1    0    0    0  501  0.00000000000E+00  0.00000000000E+00 -0.93801891583E+03  0.93801891583E+03  0.25500000920E-02 0.  1.
    10030    2    1    2    0    0  0.00000000000E+00  0.00000000000E+00 -0.17204305050E+03  0.17039947812E+04  0.16952874102E+04 0.  0.
        4    1    3    3  502    0 -0.63361224145E+03 -0.45654009671E+03  0.24522371340E+03  0.81855336719E+03  0.12699999809E+01 0. -1.
       -4    1    3    3    0  502  0.63361224145E+03  0.45654009671E+03 -0.41726676390E+03  0.88544141398E+03  0.12699999809E+01 0.  1.
</event>
<event>
 5   0  0.2288806E-04  0.1694531E+04  0.7818609E-02  0.8764490E-01
       -2   -1    0    0    0  501  0.00000000000E+00  0.00000000000E+00  0.47517796448E+03  0.47517796448E+03  0.25500000920E-02 0. -1.
        2   -1    0    0  501    0  0.00000000000E+00  0.00000000000E+00 -0.15107156977E+04  0.15107156977E+04  0.25500000920E-02 0.  1.
    10030    2    1    2    0    0  0.00000000000E+00  0.00000000000E+00 -0.10355377332E+04  0.19858936622E+04  0.16945309795E+04 0.  0.
        3    1    3    3  502    0  0.74609711615E+03  0.36362814918E+03 -0.71724878422E+03  0.10969649795E+04  0.10100000352E+00 0.  1.
       -3    1    3    3    0  502 -0.74609711615E+03 -0.36362814918E+03 -0.31828894898E+03  0.88892868266E+03  0.10100000352E+00 0. -1.
</event>
<event>
 5   0  0.1234158E-04  0.1691094E+04  0.7818609E-02  0.8766460E-01
        1   -1    0    0  501    0  0.00000000000E+00  0.00000000000E+00  0.12341422713E+04  0.12341422713E+04  0.50400001928E-02 0. -1.
       -1   -1    0    0    0  501  0.00000000000E+00  0.00000000000E+00 -0.57930911780E+03  0.57930911783E+03  0.50400001928E-02 0.  1.
    10030    2    1    2    0    0  0.00000000000E+00  0.00000000000E+00  0.65483315347E+03  0.18134513891E+04  0.16910941670E+04 0.  0.
        5    1    3    3  502    0  0.77952738104E+03  0.31001633826E+02  0.67704956479E+03  0.10329773677E+04  0.46999998093E+01 0. -1.
       -5    1    3    3    0  502 -0.77952738104E+03 -0.31001633826E+02 -0.22216411322E+02  0.78047402136E+03  0.46999998093E+01 0.  1.
</event>
<event>
 5   0  0.2224454E-04  0.1697579E+04  0.7818609E-02  0.8762746E-01
       -2   -1    0    0    0  501  0.00000000000E+00  0.00000000000E+00  0.50522414352E+03  0.50522414352E+03  0.25500000920E-02 0.  1.
        2   -1    0    0  501    0  0.00000000000E+00  0.00000000000E+00 -0.14259877216E+04  0.14259877216E+04  0.25500000920E-02 0. -1.
    10030    2    1    2    0    0  0.00000000000E+00  0.00000000000E+00 -0.92076357807E+03  0.19312118651E+04  0.16975787762E+04 0.  0.
        2    1    3    3  502    0  0.29391497641E+02 -0.20084717150E+03 -0.13979688473E+04  0.14126288771E+04  0.25500000920E-02 0. -1.
       -2    1    3    3    0  502 -0.29391497641E+02  0.20084717150E+03  0.47720526924E+03  0.51858298799E+03  0.25500000920E-02 0.  1.
</event>
<event>
 5   0  0.8372750E-05  0.1707400E+04  0.7818609E-02  0.8757155E-01
       -3   -1    0    0    0  501  0.00000000000E+00  0.00000000000E+00  0.81493285185E+03  0.81493285811E+03  0.10100000352E+00 0. -1.
        3   -1    0    0  501    0  0.00000000000E+00  0.00000000000E+00 -0.89431124122E+03  0.89431124693E+03  0.10100000352E+00 0.  1.
    10030    2    1    2    0    0  0.00000000000E+00  0.00000000000E+00 -0.79378389368E+02  0.17092441050E+04  0.17073999186E+04 0.  0.
        2    1    3    3  502    0 -0.28831492211E+03 -0.32425647604E+02  0.76406449656E+03  0.81729521707E+03  0.25500000920E-02 0. -1.
       -2    1    3    3    0  502  0.28831492211E+03  0.32425647604E+02 -0.84344288592E+03  0.89194888797E+03  0.25500000920E-02 0.  1.
</event>
<event>
 5   0  0.2224454E-04  0.1709485E+04  0.7818609E-02  0.8755973E-01
       -2   -1    0    0    0  501  0.00000000000E+00  0.00000000000E+00  0.60549682623E+03  0.60549682623E+03  0.25500000920E-02 0. -1.
        2   -1    0    0  501    0  0.00000000000E+00  0.00000000000E+00 -0.12065875020E+04  0.12065875020E+04  0.25500000920E-02 0.  1.
    10030    2    1    2    0    0  0.00000000000E+00  0.00000000000E+00 -0.60109067578E+03  0.18120843282E+04  0.17094851892E+04 0.  0.
        2    1    3    3  502    0  0.80172151501E+03 -0.28038963518E+03 -0.19882137824E+03  0.87229907463E+03  0.25500000920E-02 0. -1.
       -2    1    3    3    0  502 -0.80172151501E+03  0.28038963518E+03 -0.40226929755E+03  0.93978525361E+03  0.25500000920E-02 0.  1.
</event>
<event>
 5   0  0.1186302E-04  0.1708420E+04  0.7818609E-02  0.8756577E-01
        1   -1    0    0  501    0  0.00000000000E+00  0.00000000000E+00  0.98253771761E+03  0.98253771762E+03  0.50400001928E-02 0. -1.
       -1   -1    0    0    0  501  0.00000000000E+00  0.00000000000E+00 -0.74264314616E+03  0.74264314618E+03  0.50400001928E-02 0.  1.
    10030    2    1    2    0    0  0.00000000000E+00  0.00000000000E+00  0.23989457145E+03  0.17251808638E+04  0.17084202081E+04 0.  0.
        3    1    3    3  502    0  0.54423921131E+03  0.30569182652E+03  0.70878991006E+03  0.94447178821E+03  0.10100000352E+00 0. -1.
       -3    1    3    3    0  502 -0.54423921131E+03 -0.30569182652E+03 -0.46889533861E+03  0.78070907558E+03  0.10100000352E+00 0.  1.
</event>
<event>
 5   0  0.2288806E-04  0.1700918E+04  0.7818609E-02  0.8760841E-01
        2   -1    0    0  501    0  0.00000000000E+00  0.00000000000E+00  0.21391275985E+04  0.21391275985E+04  0.25500000920E-02 0. -1.
       -2   -1    0    0    0  501  0.00000000000E+00  0.00000000000E+00 -0.33811946145E+03  0.33811946146E+03  0.25500000920E-02 0.  1.
    10030    2    1    2    0    0  0.00000000000E+00  0.00000000000E+00  0.18010081371E+04  0.24772470600E+04  0.17009181892E+04 0.  0.
        3    1    3    3  502    0 -0.34007388445E+03  0.24810124547E+03 -0.17574432269E+03  0.45616943349E+03  0.10100000352E+00 0.  1.
       -3    1    3    3    0  502  0.34007388445E+03 -0.24810124547E+03  0.19767524597E+04  0.20210776265E+04  0.10100000352E+00 0. -1.
</event>
<event>
 5   0  0.1126958E-04  0.1703365E+04  0.7818609E-02  0.8759448E-01
       -1   -1    0    0    0  501  0.00000000000E+00  0.00000000000E+00  0.53380650749E+03  0.53380650752E+03  0.50400001928E-02 0.  1.
        1   -1    0    0  501    0  0.00000000000E+00  0.00000000000E+00 -0.13588496808E+04  0.13588496808E+04  0.50400001928E-02 0. -1.
    10030    2    1    2    0    0  0.00000000000E+00  0.00000000000E+00 -0.82504317330E+03  0.18926561883E+04  0.17033646730E+04 0.  0.
        4    1    3    3  502    0 -0.16336659245E+03  0.20237410906E+03 -0.13136438395E+04  0.13391436343E+04  0.12699999809E+01 0. -1.
       -4    1    3    3    0  502  0.16336659245E+03 -0.20237410906E+03  0.48860066616E+03  0.55351255398E+03  0.12699999809E+01 0.  1.
</event>
<event>
 5   0  0.1204741E-04  0.1702135E+04  0.7818609E-02  0.8760148E-01
        1   -1    0    0  501    0  0.00000000000E+00  0.00000000000E+00  0.11457827720E+04  0.11457827720E+04  0.50400001928E-02 0. -1.
       -1   -1    0    0    0  501  0.00000000000E+00  0.00000000000E+00 -0.63215809420E+03  0.63215809422E+03  0.50400001928E-02 0.  1.
    10030    2    1    2    0    0  0.00000000000E+00  0.00000000000E+00  0.51362467775E+03  0.17779408662E+04  0.17021349577E+04 0.  0.
        1    1    3    3  502    0 -0.55919831140E+03  0.62186736378E+03  0.42161772289E+03  0.93658062861E+03  0.50400001928E-02 0. -1.
       -1    1    3    3    0  502  0.55919831140E+03 -0.62186736378E+03  0.92006954862E+02  0.84136023758E+03  0.50400001928E-02 0.  1.
</event>
<event>
 5   0  0.2224454E-04  0.1720482E+04  0.7818609E-02  0.8749768E-01
        2   -1    0    0  501    0  0.00000000000E+00  0.00000000000E+00  0.14309245310E+04  0.14309245310E+04  0.25500000920E-02 0.  1.
       -2   -1    0    0    0  501  0.00000000000E+00  0.00000000000E+00 -0.51715822938E+03  0.51715822938E+03  0.25500000920E-02 0. -1.
    10030    2    1    2    0    0  0.00000000000E+00  0.00000000000E+00  0.91376630162E+03  0.19480827604E+04  0.17204817893E+04 0.  0.
        2    1    3    3  502    0  0.55901791826E+02  0.14756132340E+03 -0.50063117345E+03  0.52491039838E+03  0.25500000920E-02 0. -1.
       -2    1    3    3    0  502 -0.55901791826E+02 -0.14756132340E+03  0.14143974751E+04  0.14231723620E+04  0.25500000920E-02 0.  1.
</event>
<event>
 5   0  0.1186302E-04  0.1642644E+04  0.7818609E-02  0.8794770E-01
        1   -1    0    0  501    0  0.00000000000E+00  0.00000000000E+00  0.97209202592E+03  0.97209202593E+03  0.50400001928E-02 0.  1.
       -1   -1    0    0    0  501  0.00000000000E+00  0.00000000000E+00 -0.69393585109E+03  0.69393585111E+03  0.50400001928E-02 0. -1.
    10030    2    1    2    0    0  0.00000000000E+00  0.00000000000E+00  0.27815617482E+03  0.16660278770E+04  0.16426436100E+04 0.  0.
        3    1    3    3  502    0 -0.40040046012E+03 -0.14579626814E+03 -0.57305150799E+03  0.71411842245E+03  0.10100000352E+00 0. -1.
       -3    1    3    3    0  502  0.40040046012E+03  0.14579626814E+03  0.85120768281E+03  0.95190945459E+03  0.10100000352E+00 0.  1.
</event>
<event>
 5   0  0.2242967E-04  0.1689338E+04  0.7818609E-02  0.8767469E-01
        2   -1    0    0  501    0  0.00000000000E+00  0.00000000000E+00  0.10179460941E+04  0.10179460941E+04  0.25500000920E-02 0. -1.
       -2   -1    0    0    0  501  0.00000000000E+00  0.00000000000E+00 -0.70088736018E+03  0.70088736018E+03  0.25500000920E-02 0.  1.
    10030    2    1    2    0    0  0.00000000000E+00  0.00000000000E+00  0.31705873396E+03  0.17188334543E+04  0.16893378001E+04 0.  0.
        4    1    3    3  502    0  0.41060355839E+03 -0.15728120916E+03  0.89232273626E+03  0.99477341111E+03  0.12699999809E+01 0. -1.
       -4    1    3    3    0  502 -0.41060355839E+03  0.15728120916E+03 -0.57526400230E+03  0.72406004320E+03  0.12699999809E+01 0.  1.
</event>
<event>
 5   0  0.2288806E-04  0.1695545E+04  0.7818609E-02  0.8763909E-01
        2   -1    0    0  501    0  0.00000000000E+00  0.00000000000E+00  0.16238581303E+04  0.16238581303E+04  0.25500000920E-02 0. -1.
       -2   -1    0    0    0  501  0.00000000000E+00  0.00000000000E+00 -0.44259916712E+03  0.44259916713E+03  0.25500000920E-02 0.  1.
    10030    2    1    2    0    0  0.00000000000E+00  0.00000000000E+00  0.11812589631E+04  0.20664572974E+04  0.16955450522E+04 0.  0.
        3    1    3    3  502    0 -0.26311779060E+03 -0.64461483838E+03  0.11251984852E+01  0.69624746883E+03  0.10100000352E+00 0.  1.
       -3    1    3    3    0  502  0.26311779060E+03  0.64461483838E+03  0.11801337646E+04  0.13702098285E+04  0.10100000352E+00 0. -1.
</event>
<event>
 5   0  0.2356829E-04  0.1702531E+04  0.7818609E-02  0.8759922E-01
        2   -1    0    0  501    0  0.00000000000E+00  0.00000000000E+00  0.15183981654E+04  0.15183981654E+04  0.25500000920E-02 0. -1.
       -2   -1    0    0    0  501  0.00000000000E+00  0.00000000000E+00 -0.47724856698E+03  0.47724856699E+03  0.25500000920E-02 0.  1.
    10030    2    1    2    0    0  0.00000000000E+00  0.00000000000E+00  0.10411495984E+04  0.19956467324E+04  0.17025314665E+04 0.  0.
        5    1    3    3  502    0  0.55255012541E+03 -0.61340173470E+02 -0.23504585324E+03  0.60360823478E+03  0.46999998093E+01 0.  1.
       -5    1    3    3    0  502 -0.55255012541E+03  0.61340173470E+02  0.12761954517E+04  0.13920384976E+04  0.46999998093E+01 0. -1.
</event>
<event>
 5   0  0.1126958E-04  0.1711496E+04  0.7818609E-02  0.8754835E-01
       -1   -1    0    0    0  501  0.00000000000E+00  0.00000000000E+00  0.12587050458E+04  0.12587050458E+04  0.50400001928E-02 0. -1.
        1   -1    0    0  501    0  0.00000000000E+00  0.00000000000E+00 -0.58179213757E+03  0.58179213759E+03  0.50400001928E-02 0.  1.
    10030    2    1    2    0    0  0.00000000000E+00  0.00000000000E+00  0.67691290825E+03  0.18404971834E+04  0.17114960698E+04 0.  0.
        4    1    3    3  502    0 -0.70793612910E+03  0.48075584717E+03  0.34042142843E+03  0.92097128582E+03  0.12699999809E+01 0. -1.
       -4    1    3    3    0  502  0.70793612910E+03 -0.48075584717E+03  0.33649147983E+03  0.91952589761E+03  0.12699999809E+01 0.  1.
</event>
<event>
 5   0  0.1186302E-04  0.1701568E+04  0.7818609E-02  0.8760471E-01
       -1   -1    0    0    0  501  0.00000000000E+00  0.00000000000E+00  0.39234177920E+03  0.39234177923E+03  0.50400001928E-02 0.  1.
        1   -1    0    0  501    0  0.00000000000E+00  0.00000000000E+00 -0.18449042385E+04  0.18449042385E+04  0.50400001928E-02 0. -1.
    10030    2    1    2    0    0  0.00000000000E+00  0.00000000000E+00 -0.14525624593E+04  0.22372460177E+04  0.17015675260E+04 0.  0.
        3    1    3    3  502    0 -0.79939492232E+03 -0.48740766127E+02 -0.11037615274E+04  0.13637072353E+04  0.10100000352E+00 0. -1.
       -3    1    3    3    0  502  0.79939492232E+03  0.48740766127E+02 -0.34880093194E+03  0.87353878244E+03  0.10100000352E+00 0.  1.
</event>
<event>
 5   0  0.1234158E-04  0.1678377E+04  0.7818609E-02  0.8773794E-01
       -1   -1    0    0    0  501  0.00000000000E+00  0.00000000000E+00  0.24522683993E+03  0.24522683998E+03  0.50400001928E-02 0.  1.
        1   -1    0    0  501    0  0.00000000000E+00  0.00000000000E+00 -0.28717795572E+04  0.28717795572E+04  0.50400001928E-02 0. -1.
    10030    2    1    2    0    0  0.00000000000E+00  0.00000000000E+00 -0.26265527173E+04  0.31170063972E+04  0.16783771041E+04 0.  0.
        5    1    3    3  502    0 -0.79106258157E+03 -0.26452057426E+03 -0.11424161453E+04  0.14145274410E+04  0.46999998093E+01 0. -1.
       -5    1    3    3    0  502  0.79106258157E+03  0.26452057426E+03 -0.14841365719E+04  0.17024789562E+04  0.46999998093E+01 0.  1.
</event>
<event>
 5   0  0.2242967E-04  0.1696312E+04  0.7818609E-02  0.8763470E-01
        2   -1    0    0  501    0  0.00000000000E+00  0.00000000000E+00  0.13549168619E+04  0.13549168619E+04  0.25500000920E-02 0. -1.
       -2   -1    0    0    0  501  0.00000000000E+00  0.00000000000E+00 -0.53093212266E+03  0.53093212267E+03  0.25500000920E-02 0.  1.
    10030    2    1    2    0    0  0.00000000000E+00  0.00000000000E+00  0.82398473921E+03  0.18858489845E+04  0.16963123362E+04 0.  0.
        4    1    3    3  502    0 -0.13443314839E+03 -0.81724655187E+03  0.20880612006E+03  0.85414624427E+03  0.12699999809E+01 0. -1.
       -4    1    3    3    0  502  0.13443314839E+03  0.81724655187E+03  0.61517861915E+03  0.10317027403E+04  0.12699999809E+01 0.  1.
</event>
<event>
 5   0  0.2242967E-04  0.1700528E+04  0.7818609E-02  0.8761063E-01
       -2   -1    0    0    0  501  0.00000000000E+00  0.00000000000E+00  0.89907808364E+03  0.89907808364E+03  0.25500000920E-02 0.  1.
        2   -1    0    0  501    0  0.00000000000E+00  0.00000000000E+00 -0.80410054476E+03  0.80410054476E+03  0.25500000920E-02 0. -1.
    10030    2    1    2    0    0  0.00000000000E+00  0.00000000000E+00  0.94977538880E+02  0.17031786284E+04  0.17005283612E+04 0.  0.
        4    1    3    3  502    0 -0.65466823959E+03  0.23900081150E+03 -0.44033877198E+03  0.82438567360E+03  0.12699999809E+01 0. -1.
       -4    1    3    3    0  502  0.65466823959E+03 -0.23900081150E+03  0.53531631086E+03  0.87879295480E+03  0.12699999809E+01 0.  1.
</event>
<event>
 5   0  0.2356829E-04  0.1716757E+04  0.7818609E-02  0.8751865E-01
        2   -1    0    0  501    0  0.00000000000E+00  0.00000000000E+00  0.80492237395E+03  0.80492237395E+03  0.25500000920E-02 0.  1.
       -2   -1    0    0    0  501  0.00000000000E+00  0.00000000000E+00 -0.91538453767E+03  0.91538453767E+03  0.25500000920E-02 0. -1.
    10030    2    1    2    0    0  0.00000000000E+00  0.00000000000E+00 -0.11046216372E+03  0.17203069116E+04  0.17167568205E+04 0.  0.
        5    1    3    3  502    0  0.20093104271E+03 -0.74296142985E+03  0.32558957550E+03  0.83570068316E+03  0.46999998093E+01 0.  1.
       -5    1    3    3    0  502 -0.20093104271E+03  0.74296142985E+03 -0.43605173922E+03  0.88460622847E+03  0.46999998093E+01 0. -1.
</event>
<event>
 5   0  0.2242967E-04  0.1674403E+04  0.7818609E-02  0.8776099E-01
       -2   -1    0    0    0  501  0.00000000000E+00  0.00000000000E+00  0.13537426074E+04  0.13537426074E+04  0.25500000920E-02 0. -1.
        2   -1    0    0  501    0  0.00000000000E+00  0.00000000000E+00 -0.51775475355E+03  0.51775475356E+03  0.25500000920E-02 0.  1.
    10030    2    1    2    0    0  0.00000000000E+00  0.00000000000E+00  0.83598785388E+03  0.18714973610E+04  0.16744033804E+04 0.  0.
        4    1    3    3  502    0 -0.56679267673E+03  0.29914423539E+03  0.10200691786E+04  0.12046924728E+04  0.12699999809E+01 0. -1.
       -4    1    3    3    0  502  0.56679267673E+03 -0.29914423539E+03 -0.18408132469E+03  0.66680488823E+03  0.12699999809E+01 0.  1.
</event>
<event>
 5   0  0.2224454E-04  0.1698490E+04  0.7818609E-02  0.8762226E-01
       -2   -1    0    0    0  501  0.00000000000E+00  0.00000000000E+00  0.10387541920E+04  0.10387541920E+04  0.25500000920E-02 0.  1.
        2   -1    0    0  501    0  0.00000000000E+00  0.00000000000E+00 -0.69430970354E+03  0.69430970355E+03  0.25500000920E-02 0. -1.
    10030    2    1    2    0    0  0.00000000000E+00  0.00000000000E+00  0.34444448841E+03  0.17330638955E+04  0.16984900530E+04 0.  0.
        2    1    3    3  502    0  0.11449766911E+03 -0.41476971765E+03 -0.57485193865E+03  0.71805179916E+03  0.25500000920E-02 0. -1.
       -2    1    3    3    0  502 -0.11449766911E+03  0.41476971765E+03  0.91929642706E+03  0.10150120963E+04  0.25500000920E-02 0.  1.
</event>
<event>
 5   0  0.2356829E-04  0.1721347E+04  0.7818609E-02  0.8749282E-01
        2   -1    0    0  501    0  0.00000000000E+00  0.00000000000E+00  0.14503101295E+04  0.14503101295E+04  0.25500000920E-02 0.  1.
       -2   -1    0    0    0  501  0.00000000000E+00  0.00000000000E+00 -0.51075893871E+03  0.51075893871E+03  0.25500000920E-02 0. -1.
    10030    2    1    2    0    0  0.00000000000E+00  0.00000000000E+00  0.93955119075E+03  0.19610690682E+04  0.17213469871E+04 0.  0.
        5    1    3    3  502    0  0.17941874400E+03 -0.80435491921E+03  0.18711210482E+03  0.84511002332E+03  0.46999998093E+01 0. -1.
       -5    1    3    3    0  502 -0.17941874400E+03  0.80435491921E+03  0.75243908593E+03  0.11159590449E+04  0.46999998093E+01 0.  1.
</event>
<event>
 5   0  0.2356829E-04  0.1700697E+04  0.7818609E-02  0.8760967E-01
        2   -1    0    0  501    0  0.00000000000E+00  0.00000000000E+00  0.10775521975E+04  0.10775521975E+04  0.25500000920E-02 0. -1.
       -2   -1    0    0    0  501  0.00000000000E+00  0.00000000000E+00 -0.67105076222E+03  0.67105076222E+03  0.25500000920E-02 0.  1.
    10030    2    1    2    0    0  0.00000000000E+00  0.00000000000E+00  0.40650143532E+03  0.17486029598E+04  0.17006965908E+04 0.  0.
        5    1    3    3  502    0 -0.31280349504E+03 -0.36067162452E+01  0.10162266850E+04  0.10632957257E+04  0.46999998093E+01 0. -1.
       -5    1    3    3    0  502  0.31280349504E+03  0.36067162452E+01 -0.60972524972E+03  0.68530723406E+03  0.46999998093E+01 0.  1.
</event>
<event>
 5   0  0.1215233E-04  0.1691550E+04  0.7818609E-02  0.8766199E-01
        1   -1    0    0  501    0  0.00000000000E+00  0.00000000000E+00  0.10435846298E+04  0.10435846298E+04  0.50400001928E-02 0.  1.
       -1   -1    0    0    0  501  0.00000000000E+00  0.00000000000E+00 -0.68545952156E+03  0.68545952158E+03  0.50400001928E-02 0. -1.
    10030    2    1    2    0    0  0.00000000000E+00  0.00000000000E+00  0.35812510825E+03  0.17290441514E+04  0.16915496104E+04 0.  0.
        2    1    3    3  502    0  0.21772452521E+03  0.62417590323E+03 -0.36020667476E+03  0.75282692274E+03  0.25500000920E-02 0. -1.
       -2    1    3    3    0  502 -0.21772452521E+03 -0.62417590323E+03  0.71833178301E+03  0.97621722866E+03  0.25500000920E-02 0.  1.
</event>
<event>
 5   0  0.1215233E-04  0.1527615E+04  0.7818609E-02  0.8866294E-01
        1   -1    0    0  501    0  0.00000000000E+00  0.00000000000E+00  0.14057871531E+04  0.14057871531E+04  0.50400001928E-02 0.  1.
       -1   -1    0    0    0  501  0.00000000000E+00  0.00000000000E+00 -0.41500017160E+03  0.41500017163E+03  0.50400001928E-02 0. -1.
    10030    2    1    2    0    0  0.00000000000E+00  0.00000000000E+00  0.99078698145E+03  0.18207873247E+04  0.15276150167E+04 0.  0.
        2    1    3    3  502    0  0.26989303345E+03 -0.12881521679E+03 -0.34231701714E+03  0.45455093203E+03  0.25500000920E-02 0. -1.
       -2    1    3    3    0  502 -0.26989303345E+03  0.12881521679E+03  0.13331039986E+04  0.13662363927E+04  0.25500000920E-02 0.  1.
</event>
<event>
 5   0  0.8372750E-05  0.1713995E+04  0.7818609E-02  0.8753422E-01
        4   -1    0    0  501    0  0.00000000000E+00  0.00000000000E+00  0.72569290314E+03  0.72569401442E+03  0.12699999809E+01 0. -1.
       -4   -1    0    0    0  501  0.00000000000E+00  0.00000000000E+00 -0.10120579911E+04  0.10120587879E+04  0.12699999809E+01 0.  1.
    10030    2    1    2    0    0  0.00000000000E+00  0.00000000000E+00 -0.28636508794E+03  0.17377528023E+04  0.17139952854E+04 0.  0.
        1    1    3    3  502    0 -0.40063513270E+03 -0.67072242011E+03 -0.50029752087E+03  0.92772554336E+03  0.50400001928E-02 0.  1.
       -1    1    3    3    0  502  0.40063513270E+03  0.67072242011E+03  0.21393243293E+03  0.81002725897E+03  0.50400001928E-02 0. -1.
</event>
<event>
 5   0  0.1234158E-04  0.1718128E+04  0.7818609E-02  0.8751092E-01
        1   -1    0    0  501    0  0.00000000000E+00  0.00000000000E+00  0.95810150719E+03  0.95810150720E+03  0.50400001928E-02 0.  1.
       -1   -1    0    0    0  501  0.00000000000E+00  0.00000000000E+00 -0.77026356232E+03  0.77026356234E+03  0.50400001928E-02 0. -1.
    10030    2    1    2    0    0  0.00000000000E+00  0.00000000000E+00  0.18783794487E+03  0.17283650695E+04  0.17181276786E+04 0.  0.
        5    1    3    3  502    0  0.66781231619E+03  0.82966302242E+01  0.63744053921E+03  0.92325221622E+03  0.46999998093E+01 0.  1.
       -5    1    3    3    0  502 -0.66781231619E+03 -0.82966302242E+01 -0.44960259435E+03  0.80511285331E+03  0.46999998093E+01 0. -1.
</event>
<event>
 5   0  0.2288806E-04  0.1697413E+04  0.7818609E-02  0.8762841E-01
        2   -1    0    0  501    0  0.00000000000E+00  0.00000000000E+00  0.18588127910E+04  0.18588127910E+04  0.25500000920E-02 0.  1.
       -2   -1    0    0    0  501  0.00000000000E+00  0.00000000000E+00 -0.38750676230E+03  0.38750676231E+03  0.25500000920E-02 0. -1.
    10030    2    1    2    0    0  0.00000000000E+00  0.00000000000E+00  0.14713060287E+04  0.22463195533E+04  0.16974127682E+04 0.  0.
        3    1    3    3  502    0  0.15528070627E+03 -0.52947813654E+03 -0.11773971457E+03  0.56420018203E+03  0.10100000352E+00 0. -1.
       -3    1    3    3    0  502 -0.15528070627E+03  0.52947813654E+03  0.15890457433E+04  0.16821193713E+04  0.10100000352E+00 0.  1.
</event>
<event>
 5   0  0.1204741E-04  0.1770080E+04  0.7818609E-02  0.8722374E-01
        1   -1    0    0  501    0  0.00000000000E+00  0.00000000000E+00  0.13908601721E+04  0.13908601721E+04  0.50400001928E-02 0.  1.
       -1   -1    0    0    0  501  0.00000000000E+00  0.00000000000E+00 -0.56317363507E+03  0.56317363509E+03  0.50400001928E-02 0. -1.
    10030    2    1    2    0    0  0.00000000000E+00  0.00000000000E+00  0.82768653705E+03  0.19540338072E+04  0.17700799745E+04 0.  0.
        1    1    3    3  502    0  0.13968409388E+03  0.60359708706E+03 -0.28386351659E+03  0.68148337153E+03  0.50400001928E-02 0. -1.
       -1    1    3    3    0  502 -0.13968409388E+03 -0.60359708706E+03  0.11115500536E+04  0.12725504357E+04  0.50400001928E-02 0.  1.
</event>
<event>
 5   0  0.1215233E-04  0.1699895E+04  0.7818609E-02  0.8761424E-01
       -1   -1    0    0    0  501  0.00000000000E+00  0.00000000000E+00  0.70288123404E+03  0.70288123406E+03  0.50400001928E-02 0. -1.
        1   -1    0    0  501    0  0.00000000000E+00  0.00000000000E+00 -0.10277849091E+04  0.10277849091E+04  0.50400001928E-02 0.  1.
    10030    2    1    2    0    0  0.00000000000E+00  0.00000000000E+00 -0.32490367504E+03  0.17306661431E+04  0.16998949676E+04 0.  0.
        2    1    3    3  502    0 -0.13678156227E+03  0.19196708576E+03 -0.99384288139E+03  0.10214128601E+04  0.25500000920E-02 0.  1.
       -2    1    3    3    0  502  0.13678156227E+03 -0.19196708576E+03  0.66893920635E+03  0.70925328310E+03  0.25500000920E-02 0. -1.
</event>
<event>
 5   0  0.1234158E-04  0.1709950E+04  0.7818609E-02  0.8755710E-01
        1   -1    0    0  501    0  0.00000000000E+00  0.00000000000E+00  0.11746399850E+04  0.11746399850E+04  0.50400001928E-02 0.  1.
       -1   -1    0    0    0  501  0.00000000000E+00  0.00000000000E+00 -0.62230328307E+03  0.62230328309E+03  0.50400001928E-02 0. -1.
    10030    2    1    2    0    0  0.00000000000E+00  0.00000000000E+00  0.55233670190E+03  0.17969432681E+04  0.17099500801E+04 0.  0.
        5    1    3    3  502    0  0.25372695893E+03 -0.60196353942E+03  0.85579291572E+03  0.10766341426E+04  0.46999998093E+01 0.  1.
       -5    1    3    3    0  502 -0.25372695893E+03  0.60196353942E+03 -0.30345621382E+03  0.72030912544E+03  0.46999998093E+01 0. -1.
</event>
<event>
 5   0  0.2224454E-04  0.1683622E+04  0.7818609E-02  0.8770761E-01
        2   -1    0    0  501    0  0.00000000000E+00  0.00000000000E+00  0.94475008858E+03  0.94475008858E+03  0.25500000920E-02 0. -1.
       -2   -1    0    0    0  501  0.00000000000E+00  0.00000000000E+00 -0.75008767930E+03  0.75008767930E+03  0.25500000920E-02 0.  1.
    10030    2    1    2    0    0  0.00000000000E+00  0.00000000000E+00  0.19466240928E+03  0.16948377679E+04  0.16836215744E+04 0.  0.
        2    1    3    3  502    0  0.23763743852E+03  0.80635695814E+03  0.52738178796E+02  0.84229710414E+03  0.25500000920E-02 0.  1.
       -2    1    3    3    0  502 -0.23763743852E+03 -0.80635695814E+03  0.14192423048E+03  0.85254066374E+03  0.25500000920E-02 0. -1.
</event>
<event>
 5   0  0.2242967E-04  0.1705135E+04  0.7818609E-02  0.8758441E-01
        2   -1    0    0  501    0  0.00000000000E+00  0.00000000000E+00  0.14614446113E+04  0.14614446113E+04  0.25500000920E-02 0.  1.
       -2   -1    0    0    0  501  0.00000000000E+00  0.00000000000E+00 -0.49736511517E+03  0.49736511518E+03  0.25500000920E-02 0. -1.
    10030    2    1    2    0    0  0.00000000000E+00  0.00000000000E+00  0.96407949608E+03  0.19588097264E+04  0.17051352643E+04 0.  0.
        4    1    3    3  502    0  0.18701076207E+03  0.33015912441E+03 -0.39501644397E+03  0.54773869360E+03  0.12699999809E+01 0. -1.
       -4    1    3    3    0  502 -0.18701076207E+03 -0.33015912441E+03  0.13590959401E+04  0.14110710328E+04  0.12699999809E+01 0.  1.
</event>
<event>
 5   0  0.1186302E-04  0.1689684E+04  0.7818609E-02  0.8767270E-01
       -1   -1    0    0    0  501  0.00000000000E+00  0.00000000000E+00  0.62719249685E+03  0.62719249687E+03  0.50400001928E-02 0.  1.
        1   -1    0    0  501    0  0.00000000000E+00  0.00000000000E+00 -0.11380209346E+04  0.11380209346E+04  0.50400001928E-02 0. -1.
    10030    2    1    2    0    0  0.00000000000E+00  0.00000000000E+00 -0.51082843778E+03  0.17652134315E+04  0.16896842208E+04 0.  0.
        3    1    3    3  502    0 -0.51668041494E+03 -0.57290871528E+03  0.10432557963E+03  0.77850297623E+03  0.10100000352E+00 0. -1.
       -3    1    3    3    0  502  0.51668041494E+03  0.57290871528E+03 -0.61515401741E+03  0.98671045528E+03  0.10100000352E+00 0.  1.
</event>
<event>
 5   0  0.2224454E-04  0.1696686E+04  0.7818609E-02  0.8763257E-01
        2   -1    0    0  501    0  0.00000000000E+00  0.00000000000E+00  0.11953483758E+04  0.11953483758E+04  0.25500000920E-02 0.  1.
       -2   -1    0    0    0  501  0.00000000000E+00  0.00000000000E+00 -0.60207218465E+03  0.60207218465E+03  0.25500000920E-02 0. -1.
    10030    2    1    2    0    0  0.00000000000E+00  0.00000000000E+00  0.59327619114E+03  0.17974205604E+04  0.16966861914E+04 0.  0.
        2    1    3    3  502    0  0.23387812003E+03 -0.65710504965E+03  0.80821677978E+03  0.10675675081E+04  0.25500000920E-02 0.  1.
       -2    1    3    3    0  502 -0.23387812003E+03  0.65710504965E+03 -0.21494058864E+03  0.72985305230E+03  0.25500000920E-02 0. -1.
</event>
<event>
 5   0  0.1234158E-04  0.1699062E+04  0.7818609E-02  0.8761899E-01
       -1   -1    0    0    0  501  0.00000000000E+00  0.00000000000E+00  0.84651653541E+03  0.84651653542E+03  0.50400001928E-02 0. -1.
        1   -1    0    0  501    0  0.00000000000E+00  0.00000000000E+00 -0.85255635252E+03  0.85255635254E+03  0.50400001928E-02 0.  1.
    10030    2    1    2    0    0  0.00000000000E+00  0.00000000000E+00 -0.60398171165E+01  0.16990728880E+04  0.16990621528E+04 0.  0.
        5    1    3    3  502    0 -0.17654581660E+03 -0.37853954970E+03 -0.74276801348E+03  0.85216608000E+03  0.46999998093E+01 0.  1.
       -5    1    3    3    0  502  0.17654581660E+03  0.37853954970E+03  0.73672819637E+03  0.84690680796E+03  0.46999998093E+01 0. -1.
</event>
<event>
 5   0  0.1126958E-04  0.1715095E+04  0.7818609E-02  0.8752802E-01
        1   -1    0    0  501    0  0.00000000000E+00  0.00000000000E+00  0.61048597753E+03  0.61048597755E+03  0.50400001928E-02 0. -1.
       -1   -1    0    0    0  501  0.00000000000E+00  0.00000000000E+00 -0.12045943128E+04  0.12045943128E+04  0.50400001928E-02 0.  1.
    10030    2    1    2    0    0  0.00000000000E+00  0.00000000000E+00 -0.59410833528E+03  0.18150802904E+04  0.17150952587E+04 0.  0.
        4    1    3    3  502    0 -0.70829511827E+03 -0.28870904717E+03 -0.70741073059E+03  0.10418572086E+04  0.12699999809E+01 0.  1.
       -4    1    3    3    0  502  0.70829511827E+03  0.28870904717E+03  0.11330239530E+03  0.77322308176E+03  0.12699999809E+01 0. -1.
</event>
<event>
 5   0  0.1215233E-04  0.1694556E+04  0.7818609E-02  0.8764475E-01
       -1   -1    0    0    0  501  0.00000000000E+00  0.00000000000E+00  0.48367389670E+03  0.48367389673E+03  0.50400001928E-02 0. -1.
        1   -1    0    0  501    0  0.00000000000E+00  0.00000000000E+00 -0.14842227771E+04  0.14842227771E+04  0.50400001928E-02 0.  1.
    10030    2    1    2    0    0  0.00000000000E+00  0.00000000000E+00 -0.10005488804E+04  0.19678966738E+04  0.16945557698E+04 0.  0.
        2    1    3    3  502    0  0.65156607340E+02  0.75082666857E+03 -0.94988673595E+03  0.12125472695E+04  0.25500000920E-02 0. -1.
       -2    1    3    3    0  502 -0.65156607340E+02 -0.75082666857E+03 -0.50662144466E+02  0.75534940432E+03  0.25500000920E-02 0.  1.
</event>
<event>
 5   0  0.1234158E-04  0.1699484E+04  0.7818609E-02  0.8761659E-01
        1   -1    0    0  501    0  0.00000000000E+00  0.00000000000E+00  0.73847761357E+03  0.73847761359E+03  0.50400001928E-02 0. -1.
       -1   -1    0    0    0  501  0.00000000000E+00  0.00000000000E+00 -0.97776971716E+03  0.97776971717E+03  0.50400001928E-02 0.  1.
    10030    2    1    2    0    0  0.00000000000E+00  0.00000000000E+00 -0.23929210359E+03  0.17162473308E+04  0.16994835067E+04 0.  0.
        5    1    3    3  502    0  0.54742229476E+03  0.75198075189E+02  0.53225467473E+03  0.76723076586E+03  0.46999998093E+01 0. -1.
       -5    1    3    3    0  502 -0.54742229476E+03 -0.75198075189E+02 -0.77154677832E+03  0.94901656489E+03  0.46999998093E+01 0.  1.
</event>
<event>
 5   0  0.1204741E-04  0.1705782E+04  0.7818609E-02  0.8758073E-01
       -1   -1    0    0    0  501  0.00000000000E+00  0.00000000000E+00  0.53328370000E+03  0.53328370002E+03  0.50400001928E-02 0. -1.
        1   -1    0    0  501    0  0.00000000000E+00  0.00000000000E+00 -0.13640454908E+04  0.13640454908E+04  0.50400001928E-02 0.  1.
    10030    2    1    2    0    0  0.00000000000E+00  0.00000000000E+00 -0.83076179081E+03  0.18973291908E+04  0.17057821975E+04 0.  0.
        1    1    3    3  502    0  0.28513498109E+03 -0.15515987986E+03 -0.12926454845E+04  0.13327823883E+04  0.50400001928E-02 0.  1.
       -1    1    3    3    0  502 -0.28513498109E+03  0.15515987986E+03  0.46188369371E+03  0.56454680258E+03  0.50400001928E-02 0. -1.
</event>
<event>
 5   0  0.2288806E-04  0.1696092E+04  0.7818609E-02  0.8763596E-01
        2   -1    0    0  501    0  0.00000000000E+00  0.00000000000E+00  0.16646475681E+04  0.16646475681E+04  0.25500000920E-02 0.  1.
       -2   -1    0    0    0  501  0.00000000000E+00  0.00000000000E+00 -0.43203262071E+03  0.43203262072E+03  0.25500000920E-02 0. -1.
    10030    2    1    2    0    0  0.00000000000E+00  0.00000000000E+00  0.12326149474E+04  0.20966801888E+04  0.16960920393E+04 0.  0.
        3    1    3    3  502    0 -0.70178257434E+03  0.47159112688E+03  0.53538639436E+03  0.10007674925E+04  0.10100000352E+00 0.  1.
       -3    1    3    3    0  502  0.70178257434E+03 -0.47159112688E+03  0.69722855305E+03  0.10959126963E+04  0.10100000352E+00 0. -1.
</event>
<event>
 5   0  0.2288806E-04  0.1691362E+04  0.7818609E-02  0.8766306E-01
       -2   -1    0    0    0  501  0.00000000000E+00  0.00000000000E+00  0.14022741358E+04  0.14022741358E+04  0.25500000920E-02 0.  1.
        2   -1    0    0  501    0  0.00000000000E+00  0.00000000000E+00 -0.51001180932E+03  0.51001180933E+03  0.25500000920E-02 0. -1.
    10030    2    1    2    0    0  0.00000000000E+00  0.00000000000E+00  0.89226232652E+03  0.19122859452E+04  0.16913620182E+04 0.  0.
        3    1    3    3  502    0 -0.28078695110E+02 -0.83407932352E+03  0.60073944094E+03  0.10282823626E+04  0.10100000352E+00 0.  1.
       -3    1    3    3    0  502  0.28078695110E+02  0.83407932352E+03  0.29152288558E+03  0.88400358261E+03  0.10100000352E+00 0. -1.
</event>
<event>
 5   0  0.1234158E-04  0.1695792E+04  0.7818609E-02  0.8763768E-01
       -1   -1    0    0    0  501  0.00000000000E+00  0.00000000000E+00  0.88557906937E+03  0.88557906939E+03  0.50400001928E-02 0. -1.
        1   -1    0    0  501    0  0.00000000000E+00  0.00000000000E+00 -0.81181674623E+03  0.81181674625E+03  0.50400001928E-02 0.  1.
    10030    2    1    2    0    0  0.00000000000E+00  0.00000000000E+00  0.73762323141E+02  0.16973958156E+04  0.16957923442E+04 0.  0.
        5    1    3    3  502    0  0.43635151698E+03 -0.63386523185E+03 -0.31943022215E+03  0.83321397933E+03  0.46999998093E+01 0.  1.
       -5    1    3    3    0  502 -0.43635151698E+03  0.63386523185E+03  0.39319254529E+03  0.86418183630E+03  0.46999998093E+01 0. -1.
</event>
<event>
 5   0  0.1186302E-04  0.1700484E+04  0.7818609E-02  0.8761088E-01
       -1   -1    0    0    0  501  0.00000000000E+00  0.00000000000E+00  0.66145439395E+03  0.66145439397E+03  0.50400001928E-02 0. -1.
        1   -1    0    0  501    0  0.00000000000E+00  0.00000000000E+00 -0.10929118418E+04  0.10929118418E+04  0.50400001928E-02 0.  1.
    10030    2    1    2    0    0  0.00000000000E+00  0.00000000000E+00 -0.43145744783E+03  0.17543662358E+04  0.17004838605E+04 0.  0.
        3    1    3    3  502    0 -0.15917496525E+03  0.57682238731E+03  0.40743946362E+03  0.72392517761E+03  0.10100000352E+00 0. -1.
       -3    1    3    3    0  502  0.15917496525E+03 -0.57682238731E+03 -0.83889691146E+03  0.10304410581E+04  0.10100000352E+00 0.  1.
</event>
<event>
 5   0  0.1186302E-04  0.1708737E+04  0.7818609E-02  0.8756397E-01
        1   -1    0    0  501    0  0.00000000000E+00  0.00000000000E+00  0.91747622605E+03  0.91747622607E+03  0.50400001928E-02 0. -1.
       -1   -1    0    0    0  501  0.00000000000E+00  0.00000000000E+00 -0.79560172863E+03  0.79560172865E+03  0.50400001928E-02 0.  1.
    10030    2    1    2    0    0  0.00000000000E+00  0.00000000000E+00  0.12187449742E+03  0.17130779547E+04  0.17087371611E+04 0.  0.
        3    1    3    3  502    0  0.54088117286E+03 -0.19683439859E+03 -0.57205361215E+03  0.81150574181E+03  0.10100000352E+00 0.  1.
       -3    1    3    3    0  502 -0.54088117286E+03  0.19683439859E+03  0.69392810957E+03  0.90157221290E+03  0.10100000352E+00 0. -1.
</event>
<event>
 5   0  0.2224454E-04  0.1706913E+04  0.7818609E-02  0.8757432E-01
        2   -1    0    0  501    0  0.00000000000E+00  0.00000000000E+00  0.10547531000E+04  0.10547531000E+04  0.25500000920E-02 0. -1.
       -2   -1    0    0    0  501  0.00000000000E+00  0.00000000000E+00 -0.69057664135E+03  0.69057664136E+03  0.25500000920E-02 0.  1.
    10030    2    1    2    0    0  0.00000000000E+00  0.00000000000E+00  0.36417645866E+03  0.17453297414E+04  0.17069128311E+04 0.  0.
        2    1    3    3  502    0  0.35663306240E+03 -0.31918111685E+03  0.90462078778E+03  0.10234268397E+04  0.25500000920E-02 0. -1.
       -2    1    3    3    0  502 -0.35663306240E+03  0.31918111685E+03 -0.54044432912E+03  0.72190290166E+03  0.25500000920E-02 0.  1.
</event>
<event>
 5   0  0.2224454E-04  0.1662584E+04  0.7818609E-02  0.8782997E-01
        2   -1    0    0  501    0  0.00000000000E+00  0.00000000000E+00  0.89009978479E+03  0.89009978479E+03  0.25500000920E-02 0.  1.
       -2   -1    0    0    0  501  0.00000000000E+00  0.00000000000E+00 -0.77636956101E+03  0.77636956102E+03  0.25500000920E-02 0. -1.
    10030    2    1    2    0    0  0.00000000000E+00  0.00000000000E+00  0.11373022377E+03  0.16664693458E+04  0.16625839879E+04 0.  0.
        2    1    3    3  502    0 -0.16260625776E+03 -0.20698765752E+03 -0.73349627893E+03  0.77929550021E+03  0.25500000920E-02 0. -1.
       -2    1    3    3    0  502  0.16260625776E+03  0.20698765752E+03  0.84722650270E+03  0.88717384560E+03  0.25500000920E-02 0.  1.
</event>
<event>
 5   0  0.1126958E-04  0.1697599E+04  0.7818609E-02  0.8762735E-01
        1   -1    0    0  501    0  0.00000000000E+00  0.00000000000E+00  0.10981513215E+04  0.10981513216E+04  0.50400001928E-02 0.  1.
       -1   -1    0    0    0  501  0.00000000000E+00  0.00000000000E+00 -0.65606665900E+03  0.65606665902E+03  0.50400001928E-02 0. -1.
    10030    2    1    2    0    0  0.00000000000E+00  0.00000000000E+00  0.44208466255E+03  0.17542179806E+04  0.16975988556E+04 0.  0.
        4    1    3    3  502    0  0.18764573487E+03  0.48772020056E+03  0.91221297135E+03  0.10512925539E+04  0.12699999809E+01 0.  1.
       -4    1    3    3    0  502 -0.18764573487E+03 -0.48772020056E+03 -0.47012830880E+03  0.70292542669E+03  0.12699999809E+01 0. -1.
</event>
<event>
 5   0  0.2234723E-04  0.1684804E+04  0.7818609E-02  0.8770079E-01
       -2   -1    0    0    0  501  0.00000000000E+00  0.00000000000E+00  0.27431375826E+03  0.27431375827E+03  0.25500000920E-02 0.  1.
        2   -1    0    0  501    0  0.00000000000E+00  0.00000000000E+00 -0.25869698206E+04  0.25869698206E+04  0.25500000920E-02 0. -1.
    10030    2    1    2    0    0  0.00000000000E+00  0.00000000000E+00 -0.23126560623E+04  0.28612835789E+04  0.16848043376E+04 0.  0.
        1    1    3    3  502    0 -0.32254163488E+03  0.25362867164E+03 -0.24057891424E+04  0.24405290424E+04  0.50400001928E-02 0.  1.
       -1    1    3    3    0  502  0.32254163488E+03 -0.25362867164E+03  0.93133080051E+02  0.42075453644E+03  0.50400001928E-02 0. -1.
</event>
<event>
 5   0  0.8372750E-05  0.1677632E+04  0.7818609E-02  0.8774225E-01
       -3   -1    0    0    0  501  0.00000000000E+00  0.00000000000E+00  0.92785229970E+03  0.92785230520E+03  0.10100000352E+00 0. -1.
        3   -1    0    0  501    0  0.00000000000E+00  0.00000000000E+00 -0.75832379697E+03  0.75832380370E+03  0.10100000352E+00 0.  1.
    10030    2    1    2    0    0  0.00000000000E+00  0.00000000000E+00  0.16952850273E+03  0.16861761089E+04  0.16776322472E+04 0.  0.
        5    1    3    3  502    0 -0.70069365835E+02  0.82180643325E+03  0.23823395712E+03  0.85851793113E+03  0.46999998093E+01 0.  1.
       -5    1    3    3    0  502  0.70069365835E+02 -0.82180643325E+03 -0.68705454387E+02  0.82765817776E+03  0.46999998093E+01 0. -1.
</event>
<event>
 5   0  0.2356829E-04  0.1676798E+04  0.7818609E-02  0.8774709E-01
        2   -1    0    0  501    0  0.00000000000E+00  0.00000000000E+00  0.15881336107E+04  0.15881336107E+04  0.25500000920E-02 0.  1.
       -2   -1    0    0    0  501  0.00000000000E+00  0.00000000000E+00 -0.44260303553E+03  0.44260303553E+03  0.25500000920E-02 0. -1.
    10030    2    1    2    0    0  0.00000000000E+00  0.00000000000E+00  0.11455305752E+04  0.20307366462E+04  0.16767978494E+04 0.  0.
        5    1    3    3  502    0  0.70672634354E+03  0.22359608118E+03  0.10471522665E+04  0.12829681568E+04  0.46999998093E+01 0.  1.
       -5    1    3    3    0  502 -0.70672634354E+03 -0.22359608118E+03  0.98378308701E+02  0.74776848944E+03  0.46999998093E+01 0. -1.
</event>
<event>
 5   0  0.2356829E-04  0.1702081E+04  0.7818609E-02  0.8760178E-01
       -2   -1    0    0    0  501  0.00000000000E+00  0.00000000000E+00  0.54011918867E+03  0.54011918868E+03  0.25500000920E-02 0. -1.
        2   -1    0    0  501    0  0.00000000000E+00  0.00000000000E+00 -0.13409453719E+04  0.13409453719E+04  0.25500000920E-02 0.  1.
    10030    2    1    2    0    0  0.00000000000E+00  0.00000000000E+00 -0.80082618327E+03  0.18810645606E+04  0.17020814626E+04 0.  0.
        5    1    3    3  502    0  0.47371422869E+03 -0.59370711297E+03 -0.82464730922E+03  0.11211416418E+04  0.46999998093E+01 0. -1.
       -5    1    3    3    0  502 -0.47371422869E+03  0.59370711297E+03  0.23821125948E+02  0.75992291879E+03  0.46999998093E+01 0.  1.
</event>
<event>
 5   0  0.2224454E-04  0.1705467E+04  0.7818609E-02  0.8758252E-01
       -2   -1    0    0    0  501  0.00000000000E+00  0.00000000000E+00  0.79015607796E+03  0.79015607796E+03  0.25500000920E-02 0. -1.
        2   -1    0    0  501    0  0.00000000000E+00  0.00000000000E+00 -0.92026705050E+03  0.92026705051E+03  0.25500000920E-02 0.  1.
    10030    2    1    2    0    0  0.00000000000E+00  0.00000000000E+00 -0.13011097255E+03  0.17104231285E+04  0.17054672126E+04 0.  0.
        2    1    3    3  502    0  0.70871007765E+03  0.20453635748E+03  0.36403063581E+03  0.82257121243E+03  0.25500000920E-02 0.  1.
       -2    1    3    3    0  502 -0.70871007765E+03 -0.20453635748E+03 -0.49414160836E+03  0.88785191604E+03  0.25500000920E-02 0. -1.
</event>
<event>
 5   0  0.1234158E-04  0.1718120E+04  0.7818609E-02  0.8751097E-01
        1   -1    0    0  501    0  0.00000000000E+00  0.00000000000E+00  0.89845942010E+03  0.89845942012E+03  0.50400001928E-02 0.  1.
       -1   -1    0    0    0  501  0.00000000000E+00  0.00000000000E+00 -0.82138846763E+03  0.82138846764E+03  0.50400001928E-02 0. -1.
    10030    2    1    2    0    0  0.00000000000E+00  0.00000000000E+00  0.77070952477E+02  0.17198478878E+04  0.17181201429E+04 0.  0.
        5    1    3    3  502    0  0.63960172190E+03  0.43020586515E+03  0.41811947624E+03  0.87693411125E+03  0.46999998093E+01 0.  1.
       -5    1    3    3    0  502 -0.63960172190E+03 -0.43020586515E+03 -0.34104852376E+03  0.84291377651E+03  0.46999998093E+01 0. -1.
</event>
<event>
 5   0  0.2288806E-04  0.1700511E+04  0.7818609E-02  0.8761073E-01
       -2   -1    0    0    0  501  0.00000000000E+00  0.00000000000E+00  0.76763528095E+03  0.76763528095E+03  0.25500000920E-02 0. -1.
        2   -1    0    0  501    0  0.00000000000E+00  0.00000000000E+00 -0.94176781989E+03  0.94176781989E+03  0.25500000920E-02 0.  1.
    10030    2    1    2    0    0  0.00000000000E+00  0.00000000000E+00 -0.17413253894E+03  0.17094031008E+04  0.17005107527E+04 0.  0.
        3    1    3    3  502    0  0.11586004563E+03  0.40053487620E+03 -0.83194211160E+03  0.93058015478E+03  0.10100000352E+00 0.  1.
       -3    1    3    3    0  502 -0.11586004563E+03 -0.40053487620E+03  0.65780957266E+03  0.77882294606E+03  0.10100000352E+00 0. -1.
</event>
<event>
 5   0  0.1186302E-04  0.1706120E+04  0.7818609E-02  0.8757882E-01
       -1   -1    0    0    0  501  0.00000000000E+00  0.00000000000E+00  0.10503092713E+04  0.10503092713E+04  0.50400001928E-02 0. -1.
        1   -1    0    0  501    0  0.00000000000E+00  0.00000000000E+00 -0.69285437226E+03  0.69285437228E+03  0.50400001928E-02 0.  1.
    10030    2    1    2    0    0  0.00000000000E+00  0.00000000000E+00  0.35745489900E+03  0.17431636436E+04  0.17061200085E+04 0.  0.
        3    1    3    3  502    0  0.13267196906E+03 -0.82320031451E+03 -0.53247290366E+01  0.83383989598E+03  0.10100000352E+00 0.  1.
       -3    1    3    3    0  502 -0.13267196906E+03  0.82320031451E+03  0.36277962803E+03  0.90932374757E+03  0.10100000352E+00 0. -1.
</event>
<event>
 5   0  0.2242967E-04  0.1698536E+04  0.7818609E-02  0.8762200E-01
       -2   -1    0    0    0  501  0.00000000000E+00  0.00000000000E+00  0.92117165312E+03  0.92117165312E+03  0.25500000920E-02 0.  1.
        2   -1    0    0  501    0  0.00000000000E+00  0.00000000000E+00 -0.78297668043E+03  0.78297668043E+03  0.25500000920E-02 0. -1.
    10030    2    1    2    0    0  0.00000000000E+00  0.00000000000E+00  0.13819497269E+03  0.17041483336E+04  0.16985357495E+04 0.  0.
        4    1    3    3  502    0 -0.29344414938E+03 -0.59285060336E+03 -0.46527206723E+03  0.80874038860E+03  0.12699999809E+01 0. -1.
       -4    1    3    3    0  502  0.29344414938E+03  0.59285060336E+03  0.60346703992E+03  0.89540794495E+03  0.12699999809E+01 0.  1.
</event>
<event>
 5   0  0.1215233E-04  0.1699320E+04  0.7818609E-02  0.8761752E-01
        1   -1    0    0  501    0  0.00000000000E+00  0.00000000000E+00  0.10986501439E+04  0.10986501439E+04  0.50400001928E-02 0.  1.
       -1   -1    0    0    0  501  0.00000000000E+00  0.00000000000E+00 -0.65709913821E+03  0.65709913823E+03  0.50400001928E-02 0. -1.
    10030    2    1    2    0    0  0.00000000000E+00  0.00000000000E+00  0.44155100568E+03  0.17557492821E+04  0.16993199378E+04 0.  0.
        2    1    3    3  502    0 -0.17313882489E+03 -0.54765691199E+03  0.86767937533E+03  0.10405636186E+04  0.25500000920E-02 0.  1.
       -2    1    3    3    0  502  0.17313882489E+03  0.54765691199E+03 -0.42612836965E+03  0.71518566356E+03  0.25500000920E-02 0. -1.
</event>
<event>
 5   0  0.1204741E-04  0.1726761E+04  0.7818609E-02  0.8746247E-01
       -1   -1    0    0    0  501  0.00000000000E+00  0.00000000000E+00  0.13964354060E+04  0.13964354060E+04  0.50400001928E-02 0. -1.
        1   -1    0    0  501    0  0.00000000000E+00  0.00000000000E+00 -0.53380640591E+03  0.53380640593E+03  0.50400001928E-02 0.  1.
    10030    2    1    2    0    0  0.00000000000E+00  0.00000000000E+00  0.86262900013E+03  0.19302418120E+04  0.17267613213E+04 0.  0.
        1    1    3    3  502    0  0.35526528275E+03  0.75456133707E+03  0.18173339991E+03  0.85358260361E+03  0.50400001928E-02 0.  1.
       -1    1    3    3    0  502 -0.35526528275E+03 -0.75456133707E+03  0.68089560022E+03  0.10766592084E+04  0.50400001928E-02 0. -1.
</event>
<event>
 5   0  0.2356829E-04  0.1705626E+04  0.7818609E-02  0.8758162E-01
        2   -1    0    0  501    0  0.00000000000E+00  0.00000000000E+00  0.59808885190E+03  0.59808885191E+03  0.25500000920E-02 0. -1.
       -2   -1    0    0    0  501  0.00000000000E+00  0.00000000000E+00 -0.12160227454E+04  0.12160227454E+04  0.25500000920E-02 0.  1.
    10030    2    1    2    0    0  0.00000000000E+00  0.00000000000E+00 -0.61793389349E+03  0.18141115973E+04  0.17056255717E+04 0.  0.
        5    1    3    3  502    0 -0.53313141651E+03 -0.74046139224E+02 -0.10125201329E+04  0.11467044290E+04  0.46999998093E+01 0.  1.
       -5    1    3    3    0  502  0.53313141651E+03  0.74046139224E+02  0.39458623938E+03  0.66740716831E+03  0.46999998093E+01 0. -1.
</event>
<event>
 5   0  0.1234158E-04  0.1682625E+04  0.7818609E-02  0.8771336E-01
       -1   -1    0    0    0  501  0.00000000000E+00  0.00000000000E+00  0.82096501204E+03  0.82096501206E+03  0.50400001928E-02 0.  1.
        1   -1    0    0  501    0  0.00000000000E+00  0.00000000000E+00 -0.86216423282E+03  0.86216423284E+03  0.50400001928E-02 0. -1.
    10030    2    1    2    0    0  0.00000000000E+00  0.00000000000E+00 -0.41199220783E+02  0.16831292449E+04  0.16826249372E+04 0.  0.
        5    1    3    3  502    0  0.31522173106E+03  0.48543725000E+03  0.59013273655E+03  0.82661526732E+03  0.46999998093E+01 0.  1.
       -5    1    3    3    0  502 -0.31522173106E+03 -0.48543725000E+03 -0.63133195733E+03  0.85651397757E+03  0.46999998093E+01 0. -1.
</event>
<event>
 5   0  0.2288806E-04  0.1699552E+04  0.7818609E-02  0.8761620E-01
        2   -1    0    0  501    0  0.00000000000E+00  0.00000000000E+00  0.13288571818E+04  0.13288571818E+04  0.25500000920E-02 0.  1.
       -2   -1    0    0    0  501  0.00000000000E+00  0.00000000000E+00 -0.54341390228E+03  0.54341390229E+03  0.25500000920E-02 0. -1.
    10030    2    1    2    0    0  0.00000000000E+00  0.00000000000E+00  0.78544327950E+03  0.18722710841E+04  0.16995522548E+04 0.  0.
        3    1    3    3  502    0  0.53245547813E+03 -0.46841088496E+02  0.11204759817E+04  0.12414384236E+04  0.10100000352E+00 0.  1.
       -3    1    3    3    0  502 -0.53245547813E+03  0.46841088496E+02 -0.33503270222E+03  0.63083266047E+03  0.10100000352E+00 0. -1.
</event>
<event>
 5   0  0.2234723E-04  0.1700820E+04  0.7818609E-02  0.8760897E-01
       -2   -1    0    0    0  501  0.00000000000E+00  0.00000000000E+00  0.61886378100E+03  0.61886378100E+03  0.25500000920E-02 0.  1.
        2   -1    0    0  501    0  0.00000000000E+00  0.00000000000E+00 -0.11685884200E+04  0.11685884200E+04  0.25500000920E-02 0. -1.
    10030    2    1    2    0    0  0.00000000000E+00  0.00000000000E+00 -0.54972463896E+03  0.17874522010E+04  0.17008198588E+04 0.  0.
        1    1    3    3  502    0 -0.71360858906E+03 -0.23048136608E+03  0.14661157463E+03  0.76410328643E+03  0.50400001928E-02 0.  1.
       -1    1    3    3    0  502  0.71360858906E+03  0.23048136608E+03 -0.69633621359E+03  0.10233489145E+04  0.50400001928E-02 0. -1.
</event>
<event>
 5   0  0.1215233E-04  0.1633188E+04  0.7818609E-02  0.8800415E-01
       -1   -1    0    0    0  501  0.00000000000E+00  0.00000000000E+00  0.63569187149E+03  0.63569187151E+03  0.50400001928E-02 0.  1.
        1   -1    0    0  501    0  0.00000000000E+00  0.00000000000E+00 -0.10489763865E+04  0.10489763865E+04  0.50400001928E-02 0. -1.
    10030    2    1    2    0    0  0.00000000000E+00  0.00000000000E+00 -0.41328451501E+03  0.16846682580E+04  0.16331880018E+04 0.  0.
        2    1    3    3  502    0  0.33679766995E+03  0.74116328954E+03 -0.27245032764E+03  0.85847823111E+03  0.25500000920E-02 0. -1.
       -2    1    3    3    0  502 -0.33679766995E+03 -0.74116328954E+03 -0.14083418737E+03  0.82619002692E+03  0.25500000920E-02 0.  1.
</event>
<event>
 5   0  0.1215233E-04  0.1694367E+04  0.7818609E-02  0.8764584E-01
       -1   -1    0    0    0  501  0.00000000000E+00  0.00000000000E+00  0.69035404127E+03  0.69035404129E+03  0.50400001928E-02 0. -1.
        1   -1    0    0  501    0  0.00000000000E+00  0.00000000000E+00 -0.10396401489E+04  0.10396401489E+04  0.50400001928E-02 0.  1.
    10030    2    1    2    0    0  0.00000000000E+00  0.00000000000E+00 -0.34928610760E+03  0.17299941902E+04  0.16943668768E+04 0.  0.
        2    1    3    3  502    0 -0.20471988101E+03 -0.82206704825E+03 -0.17064709945E+03  0.86419031125E+03  0.25500000920E-02 0.  1.
       -2    1    3    3    0  502  0.20471988101E+03  0.82206704825E+03 -0.17863900816E+03  0.86580387892E+03  0.25500000920E-02 0. -1.
</event>
<event>
 5   0  0.2288806E-04  0.1697752E+04  0.7818609E-02  0.8762648E-01
       -2   -1    0    0    0  501  0.00000000000E+00  0.00000000000E+00  0.77009657538E+03  0.77009657538E+03  0.25500000920E-02 0.  1.
        2   -1    0    0  501    0  0.00000000000E+00  0.00000000000E+00 -0.93571419329E+03  0.93571419329E+03  0.25500000920E-02 0. -1.
    10030    2    1    2    0    0  0.00000000000E+00  0.00000000000E+00 -0.16561761791E+03  0.17058107687E+04  0.16977518026E+04 0.  0.
        3    1    3    3  502    0 -0.46637623866E+03 -0.55740900041E+03  0.35788316360E+03  0.81011848437E+03  0.10100000352E+00 0.  1.
       -3    1    3    3    0  502  0.46637623866E+03  0.55740900041E+03 -0.52350078150E+03  0.89569228431E+03  0.10100000352E+00 0. -1.
</event>
<event>
 5   0  0.2288806E-04  0.1706244E+04  0.7818609E-02  0.8757811E-01
       -2   -1    0    0    0  501  0.00000000000E+00  0.00000000000E+00  0.74929921961E+03  0.74929921961E+03  0.25500000920E-02 0.  1.
        2   -1    0    0  501    0  0.00000000000E+00  0.00000000000E+00 -0.97132999418E+03  0.97132999418E+03  0.25500000920E-02 0. -1.
    10030    2    1    2    0    0  0.00000000000E+00  0.00000000000E+00 -0.22203077457E+03  0.17206292138E+04  0.17062436012E+04 0.  0.
        3    1    3    3  502    0  0.41510308291E+03  0.50632199482E+03 -0.66256755645E+03  0.93148714910E+03  0.10100000352E+00 0. -1.
       -3    1    3    3    0  502 -0.41510308291E+03 -0.50632199482E+03  0.44053678188E+03  0.78914206469E+03  0.10100000352E+00 0.  1.
</event>
<event>
 5   0  0.1126958E-04  0.1702178E+04  0.7818609E-02  0.8760123E-01
        1   -1    0    0  501    0  0.00000000000E+00  0.00000000000E+00  0.85433297542E+03  0.85433297543E+03  0.50400001928E-02 0. -1.
       -1   -1    0    0    0  501  0.00000000000E+00  0.00000000000E+00 -0.84785779673E+03  0.84785779675E+03  0.50400001928E-02 0.  1.
    10030    2    1    2    0    0  0.00000000000E+00  0.00000000000E+00  0.64751786842E+01  0.17021907722E+04  0.17021784563E+04 0.  0.
        4    1    3    3  502    0  0.65808705137E+03 -0.45590401272E+03 -0.28559702175E+03  0.84999665160E+03  0.12699999809E+01 0.  1.
       -4    1    3    3    0  502 -0.65808705137E+03  0.45590401272E+03  0.29207220044E+03  0.85219412059E+03  0.12699999809E+01 0. -1.
</event>
<event>
 5   0  0.1126958E-04  0.1701775E+04  0.7818609E-02  0.8760353E-01
       -1   -1    0    0    0  501  0.00000000000E+00  0.00000000000E+00  0.55278182607E+03  0.55278182610E+03  0.50400001928E-02 0.  1.
        1   -1    0    0  501    0  0.00000000000E+00  0.00000000000E+00 -0.13097560324E+04  0.13097560324E+04  0.50400001928E-02 0. -1.
    10030    2    1    2    0    0  0.00000000000E+00  0.00000000000E+00 -0.75697420628E+03  0.18625378585E+04  0.17017747575E+04 0.  0.
        4    1    3    3  502    0  0.33886760621E+03  0.42521166827E+03 -0.10948173948E+04  0.12224004901E+04  0.12699999809E+01 0. -1.
       -4    1    3    3    0  502 -0.33886760621E+03 -0.42521166827E+03  0.33784318855E+03  0.64013736832E+03  0.12699999809E+01 0.  1.
</event>
<event>
 5   0  0.1204741E-04  0.1706089E+04  0.7818609E-02  0.8757899E-01
        1   -1    0    0  501    0  0.00000000000E+00  0.00000000000E+00  0.22573352500E+04  0.22573352500E+04  0.50400001928E-02 0.  1.
       -1   -1    0    0    0  501  0.00000000000E+00  0.00000000000E+00 -0.32236450246E+03  0.32236450250E+03  0.50400001928E-02 0. -1.
    10030    2    1    2    0    0  0.00000000000E+00  0.00000000000E+00  0.19349707476E+04  0.25796997525E+04  0.17060888076E+04 0.  0.
        1    1    3    3  502    0 -0.13652669253E+03 -0.81427489470E+03  0.12917906823E+04  0.15331034892E+04  0.50400001928E-02 0. -1.
       -1    1    3    3    0  502  0.13652669253E+03  0.81427489470E+03  0.64318006529E+03  0.10465962633E+04  0.50400001928E-02 0.  1.
</event>
<event>
 5   0  0.1204741E-04  0.1698986E+04  0.7818609E-02  0.8761943E-01
       -1   -1    0    0    0  501  0.00000000000E+00  0.00000000000E+00  0.57521627154E+03  0.57521627156E+03  0.50400001928E-02 0.  1.
        1   -1    0    0  501    0  0.00000000000E+00  0.00000000000E+00 -0.12545507727E+04  0.12545507727E+04  0.50400001928E-02 0. -1.
    10030    2    1    2    0    0  0.00000000000E+00  0.00000000000E+00 -0.67933450116E+03  0.18297670443E+04  0.16989856008E+04 0.  0.
        1    1    3    3  502    0 -0.96674330810E+02 -0.25920693260E+03  0.52534234004E+03  0.59373288136E+03  0.50400001928E-02 0.  1.
       -1    1    3    3    0  502  0.96674330810E+02  0.25920693260E+03 -0.12046768412E+04  0.12360341629E+04  0.50400001928E-02 0. -1.
</event>
<event>
 5   0  0.1215233E-04  0.1654350E+04  0.7818609E-02  0.8787837E-01
        1   -1    0    0  501    0  0.00000000000E+00  0.00000000000E+00  0.11289188495E+04  0.11289188495E+04  0.50400001928E-02 0. -1.
       -1   -1    0    0    0  501  0.00000000000E+00  0.00000000000E+00 -0.60608271786E+03  0.60608271788E+03  0.50400001928E-02 0.  1.
    10030    2    1    2    0    0  0.00000000000E+00  0.00000000000E+00  0.52283613165E+03  0.17350015674E+04  0.16543496663E+04 0.  0.
        2    1    3    3  502    0 -0.30294061126E+02 -0.67886405579E+03  0.75605094102E+03  0.10165565217E+04  0.25500000920E-02 0. -1.
       -2    1    3    3    0  502  0.30294061126E+02  0.67886405579E+03 -0.23321480937E+03  0.71844504571E+03  0.25500000920E-02 0.  1.
</event>
<event>
 5   0  0.1234158E-04  0.1700044E+04  0.7818609E-02  0.8761339E-01
        1   -1    0    0  501    0  0.00000000000E+00  0.00000000000E+00  0.13325565721E+04  0.13325565721E+04  0.50400001928E-02 0. -1.
       -1   -1    0    0    0  501  0.00000000000E+00  0.00000000000E+00 -0.54221917356E+03  0.54221917358E+03  0.50400001928E-02 0.  1.
    10030    2    1    2    0    0  0.00000000000E+00  0.00000000000E+00  0.79033739858E+03  0.18747757457E+04  0.17000443798E+04 0.  0.
        5    1    3    3  502    0 -0.40425223176E+03  0.71761593941E+03  0.62681332221E+03  0.10350408370E+04  0.46999998093E+01 0. -1.
       -5    1    3    3    0  502  0.40425223176E+03 -0.71761593941E+03  0.16352407636E+03  0.83973490872E+03  0.46999998093E+01 0.  1.
</event>
<event>
 5   0  0.1215233E-04  0.1629241E+04  0.7818609E-02  0.8802783E-01
       -1   -1    0    0    0  501  0.00000000000E+00  0.00000000000E+00  0.25749221992E+03  0.25749221997E+03  0.50400001928E-02 0.  1.
        1   -1    0    0  501    0  0.00000000000E+00  0.00000000000E+00 -0.25771918959E+04  0.25771918959E+04  0.50400001928E-02 0. -1.
    10030    2    1    2    0    0  0.00000000000E+00  0.00000000000E+00 -0.23196996760E+04  0.28346841159E+04  0.16292413725E+04 0.  0.
        2    1    3    3  502    0  0.24335733446E+02  0.71687836938E+03 -0.48802181119E+03  0.86756677703E+03  0.25500000920E-02 0.  1.
       -2    1    3    3    0  502 -0.24335733446E+02 -0.71687836938E+03 -0.18316778648E+04  0.19671173388E+04  0.25500000920E-02 0. -1.
</event>
<event>
 5   0  0.2234723E-04  0.1699286E+04  0.7818609E-02  0.8761772E-01
       -2   -1    0    0    0  501  0.00000000000E+00  0.00000000000E+00  0.67415744346E+03  0.67415744347E+03  0.25500000920E-02 0.  1.
        2   -1    0    0  501    0  0.00000000000E+00  0.00000000000E+00 -0.10708075352E+04  0.10708075352E+04  0.25500000920E-02 0. -1.
    10030    2    1    2    0    0  0.00000000000E+00  0.00000000000E+00 -0.39665009173E+03  0.17449649787E+04  0.16992855797E+04 0.  0.
        1    1    3    3  502    0  0.72797244297E+03 -0.18692965505E+03 -0.60521679008E+03  0.96497354196E+03  0.50400001928E-02 0. -1.
       -1    1    3    3    0  502 -0.72797244297E+03  0.18692965505E+03  0.20856669835E+03  0.77999143671E+03  0.50400001928E-02 0.  1.
</event>
<event>
 5   0  0.2234723E-04  0.1696950E+04  0.7818609E-02  0.8763106E-01
       -2   -1    0    0    0  501  0.00000000000E+00  0.00000000000E+00  0.58162476571E+03  0.58162476571E+03  0.25500000920E-02 0.  1.
        2   -1    0    0  501    0  0.00000000000E+00  0.00000000000E+00 -0.12377571778E+04  0.12377571778E+04  0.25500000920E-02 0. -1.
    10030    2    1    2    0    0  0.00000000000E+00  0.00000000000E+00 -0.65613241205E+03  0.18193819435E+04  0.16969504748E+04 0.  0.
        1    1    3    3  502    0 -0.21902349108E+03 -0.67676141626E+02 -0.12039256839E+04  0.12255563643E+04  0.50400001928E-02 0. -1.
       -1    1    3    3    0  502  0.21902349108E+03  0.67676141626E+02  0.54779327182E+03  0.59382557916E+03  0.50400001928E-02 0.  1.
</event>
<event>
 5   0  0.2224454E-04  0.1828646E+04  0.7818609E-02  0.8691213E-01
        2   -1    0    0  501    0  0.00000000000E+00  0.00000000000E+00  0.77459894929E+03  0.77459894929E+03  0.25500000920E-02 0. -1.
       -2   -1    0    0    0  501  0.00000000000E+00  0.00000000000E+00 -0.10792506524E+04  0.10792506524E+04  0.25500000920E-02 0.  1.
    10030    2    1    2    0    0  0.00000000000E+00  0.00000000000E+00 -0.30465170309E+03  0.18538496017E+04  0.18286458611E+04 0.  0.
        2    1    3    3  502    0  0.53571758733E+03 -0.64399836773E+03 -0.52378999826E+03  0.98796922690E+03  0.25500000920E-02 0.  1.
       -2    1    3    3    0  502 -0.53571758733E+03  0.64399836773E+03  0.21913829517E+03  0.86588037478E+03  0.25500000920E-02 0. -1.
</event>
<event>
 5   0  0.1126958E-04  0.1697973E+04  0.7818609E-02  0.8762521E-01
       -1   -1    0    0    0  501  0.00000000000E+00  0.00000000000E+00  0.41785983502E+03  0.41785983505E+03  0.50400001928E-02 0. -1.
        1   -1    0    0  501    0  0.00000000000E+00  0.00000000000E+00 -0.17249271750E+04  0.17249271750E+04  0.50400001928E-02 0.  1.
    10030    2    1    2    0    0  0.00000000000E+00  0.00000000000E+00 -0.13070673400E+04  0.21427870101E+04  0.16979726556E+04 0.  0.
        4    1    3    3  502    0 -0.28629913666E+03  0.63025250118E+03 -0.12738146635E+04  0.14497554348E+04  0.12699999809E+01 0.  1.
       -4    1    3    3    0  502  0.28629913666E+03 -0.63025250118E+03 -0.33252676483E+02  0.69303157525E+03  0.12699999809E+01 0. -1.
</event>
<event>
 5   0  0.1126958E-04  0.1636167E+04  0.7818609E-02  0.8798632E-01
        1   -1    0    0  501    0  0.00000000000E+00  0.00000000000E+00  0.71865311096E+03  0.71865311097E+03  0.50400001928E-02 0. -1.
       -1   -1    0    0    0  501  0.00000000000E+00  0.00000000000E+00 -0.93127100202E+03  0.93127100204E+03  0.50400001928E-02 0.  1.
    10030    2    1    2    0    0  0.00000000000E+00  0.00000000000E+00 -0.21261789107E+03  0.16499241130E+04  0.16361672320E+04 0.  0.
        4    1    3    3  502    0  0.18847215297E+03  0.39410594022E+02 -0.90809428742E+03  0.92828432881E+03  0.12699999809E+01 0.  1.
       -4    1    3    3    0  502 -0.18847215297E+03 -0.39410594022E+02  0.69547639635E+03  0.72163978420E+03  0.12699999809E+01 0. -1.
</event>
<event>
 5   0  0.1204741E-04  0.1694719E+04  0.7818609E-02  0.8764382E-01
        1   -1    0    0  501    0  0.00000000000E+00  0.00000000000E+00  0.13117844630E+04  0.13117844630E+04  0.50400001928E-02 0. -1.
       -1   -1    0    0    0  501  0.00000000000E+00  0.00000000000E+00 -0.54736011033E+03  0.54736011036E+03  0.50400001928E-02 0.  1.
    10030    2    1    2    0    0  0.00000000000E+00  0.00000000000E+00  0.76442435262E+03  0.18591445733E+04  0.16947194321E+04 0.  0.
        1    1    3    3  502    0 -0.50521024193E+03  0.35299973070E+03  0.10201588293E+04  0.11918767702E+04  0.50400001928E-02 0. -1.
       -1    1    3    3    0  502  0.50521024193E+03 -0.35299973070E+03 -0.25573447668E+03  0.66726780307E+03  0.50400001928E-02 0.  1.
</event>
<event>
 5   0  0.1215233E-04  0.1637217E+04  0.7818609E-02  0.8798005E-01
       -1   -1    0    0    0  501  0.00000000000E+00  0.00000000000E+00  0.90147176904E+03  0.90147176905E+03  0.50400001928E-02 0.  1.
        1   -1    0    0  501    0  0.00000000000E+00  0.00000000000E+00 -0.74336218994E+03  0.74336218996E+03  0.50400001928E-02 0. -1.
    10030    2    1    2    0    0  0.00000000000E+00  0.00000000000E+00  0.15810957910E+03  0.16448339590E+04  0.16372171859E+04 0.  0.
        2    1    3    3  502    0  0.39812155865E+03 -0.60385133141E+03 -0.30611220115E+03  0.78539282248E+03  0.25500000920E-02 0. -1.
       -2    1    3    3    0  502 -0.39812155865E+03  0.60385133141E+03  0.46422178025E+03  0.85944113653E+03  0.25500000920E-02 0.  1.
</event>
<event>
 5   0  0.1215233E-04  0.1695416E+04  0.7818609E-02  0.8763983E-01
        1   -1    0    0  501    0  0.00000000000E+00  0.00000000000E+00  0.65443140393E+03  0.65443140395E+03  0.50400001928E-02 0.  1.
       -1   -1    0    0    0  501  0.00000000000E+00  0.00000000000E+00 -0.10980665308E+04  0.10980665308E+04  0.50400001928E-02 0. -1.
    10030    2    1    2    0    0  0.00000000000E+00  0.00000000000E+00 -0.44363512686E+03  0.17524979347E+04  0.16954164342E+04 0.  0.
        2    1    3    3  502    0 -0.25693637890E+03 -0.77268836409E+03 -0.46543367033E+03  0.93791903291E+03  0.25500000920E-02 0.  1.
       -2    1    3    3    0  502  0.25693637890E+03  0.77268836409E+03  0.21798543475E+02  0.81457890183E+03  0.25500000920E-02 0. -1.
</event>
<event>
 5   0  0.2288806E-04  0.1695147E+04  0.7818609E-02  0.8764137E-01
        2   -1    0    0  501    0  0.00000000000E+00  0.00000000000E+00  0.12646082559E+04  0.12646082559E+04  0.25500000920E-02 0. -1.
       -2   -1    0    0    0  501  0.00000000000E+00  0.00000000000E+00 -0.56806605807E+03  0.56806605808E+03  0.25500000920E-02 0.  1.
    10030    2    1    2    0    0  0.00000000000E+00  0.00000000000E+00  0.69654219780E+03  0.18326743139E+04  0.16951472230E+04 0.  0.
        3    1    3    3  502    0  0.10598759026E+03  0.81154237369E+03  0.58647966978E+03  0.10068727858E+04  0.10100000352E+00 0. -1.
       -3    1    3    3    0  502 -0.10598759026E+03 -0.81154237369E+03  0.11006252802E+03  0.82580152812E+03  0.10100000352E+00 0.  1.
</event>
<event>
 5   0  0.2234723E-04  0.1689655E+04  0.7818609E-02  0.8767286E-01
       -2   -1    0    0    0  501  0.00000000000E+00  0.00000000000E+00  0.18991100603E+04  0.18991100603E+04  0.25500000920E-02 0.  1.
        2   -1    0    0  501    0  0.00000000000E+00  0.00000000000E+00 -0.37582542685E+03  0.37582542686E+03  0.25500000920E-02 0. -1.
    10030    2    1    2    0    0  0.00000000000E+00  0.00000000000E+00  0.15232846334E+04  0.22749354871E+04  0.16896554075E+04 0.  0.
        1    1    3    3  502    0  0.39176199503E+02  0.60812354548E+03 -0.26179854202E+02  0.60994623202E+03  0.50400001928E-02 0. -1.
       -1    1    3    3    0  502 -0.39176199503E+02 -0.60812354548E+03  0.15494644876E+04  0.16649892551E+04  0.50400001928E-02 0.  1.
</event>
<event>
 5   0  0.2288806E-04  0.1712638E+04  0.7818609E-02  0.8754189E-01
       -2   -1    0    0    0  501  0.00000000000E+00  0.00000000000E+00  0.32381914722E+03  0.32381914723E+03  0.25500000920E-02 0.  1.
        2   -1    0    0  501    0  0.00000000000E+00  0.00000000000E+00 -0.22644806395E+04  0.22644806395E+04  0.25500000920E-02 0. -1.
    10030    2    1    2    0    0  0.00000000000E+00  0.00000000000E+00 -0.19406614923E+04  0.25882997867E+04  0.17126379531E+04 0.  0.
        3    1    3    3  502    0  0.38512996223E+03 -0.75228275212E+03 -0.76186113381E+03  0.11378430579E+04  0.10100000352E+00 0. -1.
       -3    1    3    3    0  502 -0.38512996223E+03  0.75228275212E+03 -0.11788003585E+04  0.14504567289E+04  0.10100000352E+00 0.  1.
</event>
<event>
 5   0  0.1204741E-04  0.1710814E+04  0.7818609E-02  0.8755221E-01
        1   -1    0    0  501    0  0.00000000000E+00  0.00000000000E+00  0.95129315232E+03  0.95129315233E+03  0.50400001928E-02 0.  1.
       -1   -1    0    0    0  501  0.00000000000E+00  0.00000000000E+00 -0.76918574151E+03  0.76918574152E+03  0.50400001928E-02 0. -1.
    10030    2    1    2    0    0  0.00000000000E+00  0.00000000000E+00  0.18210741081E+03  0.17204788939E+04  0.17108139920E+04 0.  0.
        1    1    3    3  502    0  0.33045774856E+03  0.16063877321E+03 -0.68578287108E+03  0.77801367940E+03  0.50400001928E-02 0. -1.
       -1    1    3    3    0  502 -0.33045774856E+03 -0.16063877321E+03  0.86789028189E+03  0.94246521446E+03  0.50400001928E-02 0.  1.
</event>
<event>
 5   0  0.2224454E-04  0.1696404E+04  0.7818609E-02  0.8763418E-01
        2   -1    0    0  501    0  0.00000000000E+00  0.00000000000E+00  0.56087041858E+03  0.56087041859E+03  0.25500000920E-02 0.  1.
       -2   -1    0    0    0  501  0.00000000000E+00  0.00000000000E+00 -0.12827320570E+04  0.12827320570E+04  0.25500000920E-02 0. -1.
    10030    2    1    2    0    0  0.00000000000E+00  0.00000000000E+00 -0.72186163841E+03  0.18436024756E+04  0.16964038030E+04 0.  0.
        2    1    3    3  502    0 -0.16047843895E+03  0.77563243684E+03 -0.69072143275E+03  0.10509305896E+04  0.25500000920E-02 0.  1.
       -2    1    3    3    0  502  0.16047843895E+03 -0.77563243684E+03 -0.31140205666E+02  0.79267188601E+03  0.25500000920E-02 0. -1.
</event>
<event>
 5   0  0.2224454E-04  0.1697892E+04  0.7818609E-02  0.8762567E-01
       -2   -1    0    0    0  501  0.00000000000E+00  0.00000000000E+00  0.55167191804E+03  0.55167191804E+03  0.25500000920E-02 0. -1.
        2   -1    0    0  501    0  0.00000000000E+00  0.00000000000E+00 -0.13064096446E+04  0.13064096446E+04  0.25500000920E-02 0.  1.
    10030    2    1    2    0    0  0.00000000000E+00  0.00000000000E+00 -0.75473772657E+03  0.18580815627E+04  0.16978922397E+04 0.  0.
        2    1    3    3  502    0  0.79268800318E+03  0.17506653410E+02 -0.45349337960E+02  0.79417713123E+03  0.25500000920E-02 0. -1.
       -2    1    3    3    0  502 -0.79268800318E+03 -0.17506653410E+02 -0.70938838861E+03  0.10639044314E+04  0.25500000920E-02 0.  1.
</event>
<event>
 5   0  0.1126958E-04  0.1669936E+04  0.7818609E-02  0.8778699E-01
       -1   -1    0    0    0  501  0.00000000000E+00  0.00000000000E+00  0.82994025804E+03  0.82994025806E+03  0.50400001928E-02 0.  1.
        1   -1    0    0  501    0  0.00000000000E+00  0.00000000000E+00 -0.84002627168E+03  0.84002627169E+03  0.50400001928E-02 0. -1.
    10030    2    1    2    0    0  0.00000000000E+00  0.00000000000E+00 -0.10086013638E+02  0.16699665298E+04  0.16699360715E+04 0.  0.
        4    1    3    3  502    0  0.58135533002E+03 -0.59907839636E+03  0.12308478842E+02  0.83487846797E+03  0.12699999809E+01 0.  1.
       -4    1    3    3    0  502 -0.58135533002E+03  0.59907839636E+03 -0.22394492480E+02  0.83508806178E+03  0.12699999809E+01 0. -1.
</event>
<event>
 5   0  0.1126958E-04  0.1696749E+04  0.7818609E-02  0.8763221E-01
        1   -1    0    0  501    0  0.00000000000E+00  0.00000000000E+00  0.16784373245E+04  0.16784373245E+04  0.50400001928E-02 0. -1.
       -1   -1    0    0    0  501  0.00000000000E+00  0.00000000000E+00 -0.42881521450E+03  0.42881521453E+03  0.50400001928E-02 0.  1.
    10030    2    1    2    0    0  0.00000000000E+00  0.00000000000E+00  0.12496221100E+04  0.21072525391E+04  0.16967491994E+04 0.  0.
        4    1    3    3  502    0 -0.24517392688E+03  0.28323985596E+03 -0.32053152430E+03  0.49302854014E+03  0.12699999809E+01 0.  1.
       -4    1    3    3    0  502  0.24517392688E+03 -0.28323985596E+03  0.15701536343E+04  0.16142239989E+04  0.12699999809E+01 0. -1.
</event>
<event>
 5   0  0.1234158E-04  0.1728683E+04  0.7818609E-02  0.8745172E-01
       -1   -1    0    0    0  501  0.00000000000E+00  0.00000000000E+00  0.54146146121E+03  0.54146146124E+03  0.50400001928E-02 0. -1.
        1   -1    0    0  501    0  0.00000000000E+00  0.00000000000E+00 -0.13797595806E+04  0.13797595806E+04  0.50400001928E-02 0.  1.
    10030    2    1    2    0    0  0.00000000000E+00  0.00000000000E+00 -0.83829811935E+03  0.19212210418E+04  0.17286834744E+04 0.  0.
        5    1    3    3  502    0  0.22804468948E+03  0.69095198091E+03  0.99336575444E+02  0.73437651484E+03  0.46999998093E+01 0. -1.
       -5    1    3    3    0  502 -0.22804468948E+03 -0.69095198091E+03 -0.93763469479E+03  0.11868445270E+04  0.46999998093E+01 0.  1.
</event>
<event>
 5   0  0.2242967E-04  0.1692997E+04  0.7818609E-02  0.8765369E-01
        2   -1    0    0  501    0  0.00000000000E+00  0.00000000000E+00  0.95038953511E+03  0.95038953511E+03  0.25500000920E-02 0. -1.
       -2   -1    0    0    0  501  0.00000000000E+00  0.00000000000E+00 -0.75396402965E+03  0.75396402965E+03  0.25500000920E-02 0.  1.
    10030    2    1    2    0    0  0.00000000000E+00  0.00000000000E+00  0.19642550546E+03  0.17043535648E+04  0.16929967792E+04 0.  0.
        4    1    3    3  502    0  0.15172205004E+03 -0.49651772784E+02 -0.73867176617E+03  0.75572645187E+03  0.12699999809E+01 0.  1.
       -4    1    3    3    0  502 -0.15172205004E+03  0.49651772784E+02  0.93509727164E+03  0.94862711290E+03  0.12699999809E+01 0. -1.
</event>
<event>
 5   0  0.1234158E-04  0.1693252E+04  0.7818609E-02  0.8765223E-01
       -1   -1    0    0    0  501  0.00000000000E+00  0.00000000000E+00  0.64996460705E+03  0.64996460707E+03  0.50400001928E-02 0. -1.
        1   -1    0    0  501    0  0.00000000000E+00  0.00000000000E+00 -0.11027910930E+04  0.11027910930E+04  0.50400001928E-02 0.  1.
    10030    2    1    2    0    0  0.00000000000E+00  0.00000000000E+00 -0.45282648597E+03  0.17527557001E+04  0.16932515223E+04 0.  0.
        5    1    3    3  502    0 -0.84330586745E+03 -0.71094638807E+02 -0.20249595869E+03  0.87019879167E+03  0.46999998093E+01 0. -1.
       -5    1    3    3    0  502  0.84330586745E+03  0.71094638807E+02 -0.25033052728E+03  0.88255690843E+03  0.46999998093E+01 0.  1.
</event>
<event>
 5   0  0.2234723E-04  0.1710344E+04  0.7818609E-02  0.8755487E-01
        2   -1    0    0  501    0  0.00000000000E+00  0.00000000000E+00  0.62157993469E+03  0.62157993470E+03  0.25500000920E-02 0. -1.
       -2   -1    0    0    0  501  0.00000000000E+00  0.00000000000E+00 -0.11765490771E+04  0.11765490771E+04  0.25500000920E-02 0.  1.
    10030    2    1    2    0    0  0.00000000000E+00  0.00000000000E+00 -0.55496914240E+03  0.17981290118E+04  0.17103441741E+04 0.  0.
        1    1    3    3  502    0 -0.50097219030E+02 -0.38157965447E+03 -0.10803606640E+04  0.11468617739E+04  0.50400001928E-02 0.  1.
       -1    1    3    3    0  502  0.50097219030E+02  0.38157965447E+03  0.52539152165E+03  0.65126723786E+03  0.50400001928E-02 0. -1.
</event>
<event>
 5   0  0.1234158E-04  0.1669923E+04  0.7818609E-02  0.8778707E-01
       -1   -1    0    0    0  501  0.00000000000E+00  0.00000000000E+00  0.69727557735E+03  0.69727557737E+03  0.50400001928E-02 0. -1.
        1   -1    0    0  501    0  0.00000000000E+00  0.00000000000E+00 -0.99983497968E+03  0.99983497969E+03  0.50400001928E-02 0.  1.
    10030    2    1    2    0    0  0.00000000000E+00  0.00000000000E+00 -0.30255940233E+03  0.16971105571E+04  0.16699227680E+04 0.  0.
        5    1    3    3  502    0 -0.45760778968E+02  0.82628852757E+03 -0.38606996613E+02  0.82846808621E+03  0.46999998093E+01 0. -1.
       -5    1    3    3    0  502  0.45760778968E+02 -0.82628852757E+03 -0.26395240572E+03  0.86864247085E+03  0.46999998093E+01 0.  1.
</event>
<event>
 5   0  0.1186302E-04  0.1679824E+04  0.7818609E-02  0.8772956E-01
       -1   -1    0    0    0  501  0.00000000000E+00  0.00000000000E+00  0.50072984188E+03  0.50072984190E+03  0.50400001928E-02 0. -1.
        1   -1    0    0  501    0  0.00000000000E+00  0.00000000000E+00 -0.14088478419E+04  0.14088478419E+04  0.50400001928E-02 0.  1.
    10030    2    1    2    0    0  0.00000000000E+00  0.00000000000E+00 -0.90811799998E+03  0.19095776838E+04  0.16798239873E+04 0.  0.
        3    1    3    3  502    0  0.72039506773E+03  0.11708071268E+03 -0.92657253615E+03  0.11794971903E+04  0.10100000352E+00 0.  1.
       -3    1    3    3    0  502 -0.72039506773E+03 -0.11708071268E+03  0.18454536169E+02  0.73008049350E+03  0.10100000352E+00 0. -1.
</event>
<event>
 5   0  0.1186302E-04  0.1709368E+04  0.7818609E-02  0.8756039E-01
        1   -1    0    0  501    0  0.00000000000E+00  0.00000000000E+00  0.20353081935E+04  0.20353081935E+04  0.50400001928E-02 0. -1.
       -1   -1    0    0    0  501  0.00000000000E+00  0.00000000000E+00 -0.35890624026E+03  0.35890624029E+03  0.50400001928E-02 0.  1.
    10030    2    1    2    0    0  0.00000000000E+00  0.00000000000E+00  0.16764019532E+04  0.23942144338E+04  0.17093680839E+04 0.  0.
        3    1    3    3  502    0  0.50822016850E+03  0.31266925343E+03 -0.18867796803E+02  0.59699732467E+03  0.10100000352E+00 0.  1.
       -3    1    3    3    0  502 -0.50822016850E+03 -0.31266925343E+03  0.16952697500E+04  0.17972171091E+04  0.10100000352E+00 0. -1.
</event>
<event>
 5   0  0.1234158E-04  0.1692065E+04  0.7818609E-02  0.8765903E-01
       -1   -1    0    0    0  501  0.00000000000E+00  0.00000000000E+00  0.76313058317E+03  0.76313058318E+03  0.50400001928E-02 0. -1.
        1   -1    0    0  501    0  0.00000000000E+00  0.00000000000E+00 -0.93794011634E+03  0.93794011635E+03  0.50400001928E-02 0.  1.
    10030    2    1    2    0    0  0.00000000000E+00  0.00000000000E+00 -0.17480953317E+03  0.17010706995E+04  0.16920647600E+04 0.  0.
        5    1    3    3  502    0 -0.37948140814E+03 -0.73749534978E+03  0.80346074581E+02  0.83329653292E+03  0.46999998093E+01 0.  1.
       -5    1    3    3    0  502  0.37948140814E+03  0.73749534978E+03 -0.25515560775E+03  0.86777416661E+03  0.46999998093E+01 0. -1.
</event>
<event>
 5   0  0.2242967E-04  0.1685091E+04  0.7818609E-02  0.8769913E-01
        2   -1    0    0  501    0  0.00000000000E+00  0.00000000000E+00  0.12858771031E+04  0.12858771031E+04  0.25500000920E-02 0. -1.
       -2   -1    0    0    0  501  0.00000000000E+00  0.00000000000E+00 -0.55206136030E+03  0.55206136031E+03  0.25500000920E-02 0.  1.
    10030    2    1    2    0    0  0.00000000000E+00  0.00000000000E+00  0.73381574275E+03  0.18379384634E+04  0.16850911699E+04 0.  0.
        4    1    3    3  502    0  0.30283955899E+03 -0.49409125036E+03  0.10339735751E+04  0.11853020413E+04  0.12699999809E+01 0. -1.
       -4    1    3    3    0  502 -0.30283955899E+03  0.49409125036E+03 -0.30015783237E+03  0.65263642206E+03  0.12699999809E+01 0.  1.
</event>
<event>
 5   0  0.2288806E-04  0.1707512E+04  0.7818609E-02  0.8757092E-01
        2   -1    0    0  501    0  0.00000000000E+00  0.00000000000E+00  0.98419675816E+03  0.98419675817E+03  0.25500000920E-02 0. -1.
       -2   -1    0    0    0  501  0.00000000000E+00  0.00000000000E+00 -0.74060314769E+03  0.74060314769E+03  0.25500000920E-02 0.  1.
    10030    2    1    2    0    0  0.00000000000E+00  0.00000000000E+00  0.24359361047E+03  0.17247999059E+04  0.17075118940E+04 0.  0.
        3    1    3    3  502    0 -0.32421974324E+03  0.76274509475E+03 -0.85218841114E+02  0.83316311882E+03  0.10100000352E+00 0. -1.
       -3    1    3    3    0  502  0.32421974324E+03 -0.76274509475E+03  0.32881245159E+03  0.89163678704E+03  0.10100000352E+00 0.  1.
</event>
<event>
 5   0  0.2224454E-04  0.1674704E+04  0.7818609E-02  0.8775924E-01
        2   -1    0    0  501    0  0.00000000000E+00  0.00000000000E+00  0.23849362385E+04  0.23849362385E+04  0.25500000920E-02 0.  1.
       -2   -1    0    0    0  501  0.00000000000E+00  0.00000000000E+00 -0.29399471888E+03  0.29399471889E+03  0.25500000920E-02 0. -1.
    10030    2    1    2    0    0  0.00000000000E+00  0.00000000000E+00  0.20909415196E+04  0.26789309573E+04  0.16747043428E+04 0.  0.
        2    1    3    3  502    0  0.31868309405E+03 -0.73732861596E+03  0.66710755882E+03  0.10441479289E+04  0.25500000920E-02 0. -1.
       -2    1    3    3    0  502 -0.31868309405E+03  0.73732861596E+03  0.14238339608E+04  0.16347830285E+04  0.25500000920E-02 0.  1.
</event>
<event>
 5   0  0.2234723E-04  0.1655976E+04  0.7818609E-02  0.8786879E-01
       -2   -1    0    0    0  501  0.00000000000E+00  0.00000000000E+00  0.38755940081E+03  0.38755940082E+03  0.25500000920E-02 0.  1.
        2   -1    0    0  501    0  0.00000000000E+00  0.00000000000E+00 -0.17689268665E+04  0.17689268665E+04  0.25500000920E-02 0. -1.
    10030    2    1    2    0    0  0.00000000000E+00  0.00000000000E+00 -0.13813674657E+04  0.21564862673E+04  0.16559761308E+04 0.  0.
        1    1    3    3  502    0  0.60284381054E+03 -0.34153193689E+03 -0.12810180393E+04  0.14563900374E+04  0.50400001928E-02 0. -1.
       -1    1    3    3    0  502 -0.60284381054E+03  0.34153193689E+03 -0.10034942637E+03  0.70009622997E+03  0.50400001928E-02 0.  1.
</event>
<event>
 5   0  0.2356829E-04  0.1699304E+04  0.7818609E-02  0.8761762E-01
        2   -1    0    0  501    0  0.00000000000E+00  0.00000000000E+00  0.11177799563E+04  0.11177799563E+04  0.25500000920E-02 0.  1.
       -2   -1    0    0    0  501  0.00000000000E+00  0.00000000000E+00 -0.64584105082E+03  0.64584105083E+03  0.25500000920E-02 0. -1.
    10030    2    1    2    0    0  0.00000000000E+00  0.00000000000E+00  0.47193890547E+03  0.17636210071E+04  0.16993036004E+04 0.  0.
        5    1    3    3  502    0  0.39770910227E+02  0.76825123953E+03  0.61030716822E+03  0.98198198655E+03  0.46999998093E+01 0. -1.
       -5    1    3    3    0  502 -0.39770910227E+02 -0.76825123953E+03 -0.13836826274E+03  0.78163902057E+03  0.46999998093E+01 0.  1.
</event>
<event>
 5   0  0.2288806E-04  0.1700211E+04  0.7818609E-02  0.8761244E-01
       -2   -1    0    0    0  501  0.00000000000E+00  0.00000000000E+00  0.35694295157E+03  0.35694295158E+03  0.25500000920E-02 0. -1.
        2   -1    0    0  501    0  0.00000000000E+00  0.00000000000E+00 -0.20246354686E+04  0.20246354686E+04  0.25500000920E-02 0.  1.
    10030    2    1    2    0    0  0.00000000000E+00  0.00000000000E+00 -0.16676925170E+04  0.23815784202E+04  0.17002109987E+04 0.  0.
        3    1    3    3  502    0 -0.28756727882E+03 -0.31169398123E+03  0.19818890460E+03  0.46810995492E+03  0.10100000352E+00 0. -1.
       -3    1    3    3    0  502  0.28756727882E+03  0.31169398123E+03 -0.18658814216E+04  0.19134684653E+04  0.10100000352E+00 0.  1.
</event>
<event>
 5   0  0.1204741E-04  0.1705684E+04  0.7818609E-02  0.8758129E-01
        1   -1    0    0  501    0  0.00000000000E+00  0.00000000000E+00  0.12515955157E+04  0.12515955157E+04  0.50400001928E-02 0. -1.
       -1   -1    0    0    0  501  0.00000000000E+00  0.00000000000E+00 -0.58113000554E+03  0.58113000556E+03  0.50400001928E-02 0.  1.
    10030    2    1    2    0    0  0.00000000000E+00  0.00000000000E+00  0.67046551014E+03  0.18327255212E+04  0.17056842721E+04 0.  0.
        1    1    3    3  502    0 -0.14289234854E+03 -0.15426291916E+03 -0.55284030028E+03  0.59147922122E+03  0.50400001928E-02 0.  1.
       -1    1    3    3    0  502  0.14289234854E+03  0.15426291916E+03  0.12233058104E+04  0.12412463000E+04  0.50400001928E-02 0. -1.
</event>
<event>
 5   0  0.1186302E-04  0.1685973E+04  0.7818609E-02  0.8769405E-01
       -1   -1    0    0    0  501  0.00000000000E+00  0.00000000000E+00  0.91424854279E+03  0.91424854280E+03  0.50400001928E-02 0.  1.
        1   -1    0    0  501    0  0.00000000000E+00  0.00000000000E+00 -0.77727904595E+03  0.77727904597E+03  0.50400001928E-02 0. -1.
    10030    2    1    2    0    0  0.00000000000E+00  0.00000000000E+00  0.13696949683E+03  0.16915275888E+04  0.16859729952E+04 0.  0.
        3    1    3    3  502    0 -0.47304001384E+03 -0.16174635434E+02  0.76834853193E+03  0.90243445759E+03  0.10100000352E+00 0.  1.
       -3    1    3    3    0  502  0.47304001384E+03  0.16174635434E+02 -0.63137903509E+03  0.78909313119E+03  0.10100000352E+00 0. -1.
</event>
<event>
 5   0  0.1234158E-04  0.1699178E+04  0.7818609E-02  0.8761833E-01
       -1   -1    0    0    0  501  0.00000000000E+00  0.00000000000E+00  0.69688232550E+03  0.69688232552E+03  0.50400001928E-02 0.  1.
        1   -1    0    0  501    0  0.00000000000E+00  0.00000000000E+00 -0.10357579830E+04  0.10357579830E+04  0.50400001928E-02 0. -1.
    10030    2    1    2    0    0  0.00000000000E+00  0.00000000000E+00 -0.33887565749E+03  0.17326403085E+04  0.16991779564E+04 0.  0.
        5    1    3    3  502    0 -0.14929274135E+03  0.83454788501E+03 -0.11339321201E+03  0.85535875838E+03  0.46999998093E+01 0. -1.
       -5    1    3    3    0  502  0.14929274135E+03 -0.83454788501E+03 -0.22548244548E+03  0.87728155014E+03  0.46999998093E+01 0.  1.
</event>
<event>
 5   0  0.1186302E-04  0.1702808E+04  0.7818609E-02  0.8759764E-01
       -1   -1    0    0    0  501  0.00000000000E+00  0.00000000000E+00  0.60264335256E+03  0.60264335258E+03  0.50400001928E-02 0.  1.
        1   -1    0    0  501    0  0.00000000000E+00  0.00000000000E+00 -0.12028490772E+04  0.12028490772E+04  0.50400001928E-02 0. -1.
    10030    2    1    2    0    0  0.00000000000E+00  0.00000000000E+00 -0.60020572460E+03  0.18054924298E+04  0.17028082693E+04 0.  0.
        3    1    3    3  502    0  0.13753759106E+00 -0.12460588690E+03 -0.11931286223E+04  0.11996176747E+04  0.10100000352E+00 0. -1.
       -3    1    3    3    0  502 -0.13753759106E+00  0.12460588690E+03  0.59292289770E+03  0.60587475503E+03  0.10100000352E+00 0.  1.
</event>
<event>
 5   0  0.2224454E-04  0.1719115E+04  0.7818609E-02  0.8750537E-01
       -2   -1    0    0    0  501  0.00000000000E+00  0.00000000000E+00  0.34743512071E+03  0.34743512071E+03  0.25500000920E-02 0.  1.
        2   -1    0    0  501    0  0.00000000000E+00  0.00000000000E+00 -0.21265538465E+04  0.21265538465E+04  0.25500000920E-02 0. -1.
    10030    2    1    2    0    0  0.00000000000E+00  0.00000000000E+00 -0.17791187258E+04  0.24739889672E+04  0.17191154613E+04 0.  0.
        2    1    3    3  502    0 -0.73580551908E+03  0.40747291061E+03 -0.11445515138E+04  0.14203668901E+04  0.25500000920E-02 0. -1.
       -2    1    3    3    0  502  0.73580551908E+03 -0.40747291061E+03 -0.63456721195E+03  0.10536220771E+04  0.25500000920E-02 0.  1.
</event>
<event>
 5   0  0.2288806E-04  0.1699740E+04  0.7818609E-02  0.8761512E-01
       -2   -1    0    0    0  501  0.00000000000E+00  0.00000000000E+00  0.10100769783E+04  0.10100769783E+04  0.25500000920E-02 0.  1.
        2   -1    0    0  501    0  0.00000000000E+00  0.00000000000E+00 -0.71507362945E+03  0.71507362946E+03  0.25500000920E-02 0. -1.
    10030    2    1    2    0    0  0.00000000000E+00  0.00000000000E+00  0.29500334886E+03  0.17251506078E+04  0.16997404636E+04 0.  0.
        3    1    3    3  502    0 -0.25876746975E+03  0.77500987041E+03  0.38483170252E+03  0.90315909568E+03  0.10100000352E+00 0.  1.
       -3    1    3    3    0  502  0.25876746975E+03 -0.77500987041E+03 -0.89828353655E+02  0.82199151210E+03  0.10100000352E+00 0. -1.
</event>
<event>
 5   0  0.1186302E-04  0.1672456E+04  0.7818609E-02  0.8777232E-01
       -1   -1    0    0    0  501  0.00000000000E+00  0.00000000000E+00  0.50202084311E+03  0.50202084314E+03  0.50400001928E-02 0. -1.
        1   -1    0    0  501    0  0.00000000000E+00  0.00000000000E+00 -0.13929242160E+04  0.13929242161E+04  0.50400001928E-02 0.  1.
    10030    2    1    2    0    0  0.00000000000E+00  0.00000000000E+00 -0.89090337294E+03  0.18949450592E+04  0.16724556668E+04 0.  0.
        3    1    3    3  502    0 -0.52377192325E+03 -0.20324745593E+03 -0.11472277143E+04  0.12774106601E+04  0.10100000352E+00 0.  1.
       -3    1    3    3    0  502  0.52377192325E+03  0.20324745593E+03  0.25632434132E+03  0.61753439911E+03  0.10100000352E+00 0. -1.
</event>
<event>
 5   0  0.1215233E-04  0.1698040E+04  0.7818609E-02  0.8762483E-01
       -1   -1    0    0    0  501  0.00000000000E+00  0.00000000000E+00  0.55077182268E+03  0.55077182270E+03  0.50400001928E-02 0. -1.
        1   -1    0    0  501    0  0.00000000000E+00  0.00000000000E+00 -0.13087717528E+04  0.13087717528E+04  0.50400001928E-02 0.  1.
    10030    2    1    2    0    0  0.00000000000E+00  0.00000000000E+00 -0.75799993010E+03  0.18595435755E+04  0.16980395800E+04 0.  0.
        2    1    3    3  502    0  0.86698514686E+01  0.39682712360E+03 -0.12009088471E+04  0.12648039340E+04  0.25500000920E-02 0.  1.
       -2    1    3    3    0  502 -0.86698514686E+01 -0.39682712360E+03  0.44290891703E+03  0.59473964148E+03  0.25500000920E-02 0. -1.
</event>
<event>
 5   0  0.2224454E-04  0.1687509E+04  0.7818609E-02  0.8768521E-01
        2   -1    0    0  501    0  0.00000000000E+00  0.00000000000E+00  0.55266117089E+03  0.55266117090E+03  0.25500000920E-02 0. -1.
       -2   -1    0    0    0  501  0.00000000000E+00  0.00000000000E+00 -0.12881696102E+04  0.12881696102E+04  0.25500000920E-02 0.  1.
    10030    2    1    2    0    0  0.00000000000E+00  0.00000000000E+00 -0.73550843926E+03  0.18408307811E+04  0.16875086075E+04 0.  0.
        2    1    3    3  502    0 -0.15047006413E+03 -0.56355504131E+03  0.29729816631E+03  0.65469208372E+03  0.25500000920E-02 0. -1.
       -2    1    3    3    0  502  0.15047006413E+03  0.56355504131E+03 -0.10328066056E+04  0.11861386973E+04  0.25500000920E-02 0.  1.
</event>
<event>
 5   0  0.1126958E-04  0.1656228E+04  0.7818609E-02  0.8786730E-01
       -1   -1    0    0    0  501  0.00000000000E+00  0.00000000000E+00  0.66158516699E+03  0.66158516701E+03  0.50400001928E-02 0.  1.
        1   -1    0    0  501    0  0.00000000000E+00  0.00000000000E+00 -0.10365604503E+04  0.10365604503E+04  0.50400001928E-02 0. -1.
    10030    2    1    2    0    0  0.00000000000E+00  0.00000000000E+00 -0.37497528330E+03  0.16981456173E+04  0.16562282676E+04 0.  0.
        4    1    3    3  502    0  0.16653174560E+03  0.42769544996E+03  0.51924343979E+03  0.69301629337E+03  0.12699999809E+01 0.  1.
       -4    1    3    3    0  502 -0.16653174560E+03 -0.42769544996E+03 -0.89421872309E+03  0.10051293239E+04  0.12699999809E+01 0. -1.
</event>
<event>
 5   0  0.2234723E-04  0.1709627E+04  0.7818609E-02  0.8755893E-01
        2   -1    0    0  501    0  0.00000000000E+00  0.00000000000E+00  0.21766264637E+04  0.21766264637E+04  0.25500000920E-02 0.  1.
       -2   -1    0    0    0  501  0.00000000000E+00  0.00000000000E+00 -0.33570586649E+03  0.33570586650E+03  0.25500000920E-02 0. -1.
    10030    2    1    2    0    0  0.00000000000E+00  0.00000000000E+00  0.18409205972E+04  0.25123323302E+04  0.17096271793E+04 0.  0.
        1    1    3    3  502    0  0.37527448424E+02  0.18789654173E+03 -0.30374194941E+03  0.35912754229E+03  0.50400001928E-02 0. -1.
       -1    1    3    3    0  502 -0.37527448424E+02 -0.18789654173E+03  0.21446625466E+04  0.21532047879E+04  0.50400001928E-02 0.  1.
</event>
<event>
 5   0  0.1126958E-04  0.1692446E+04  0.7818609E-02  0.8765684E-01
        1   -1    0    0  501    0  0.00000000000E+00  0.00000000000E+00  0.17371208812E+04  0.17371208812E+04  0.50400001928E-02 0.  1.
       -1   -1    0    0    0  501  0.00000000000E+00  0.00000000000E+00 -0.41223018493E+03  0.41223018496E+03  0.50400001928E-02 0. -1.
    10030    2    1    2    0    0  0.00000000000E+00  0.00000000000E+00  0.13248906963E+04  0.21493510662E+04  0.16924463503E+04 0.  0.
        4    1    3    3  502    0  0.40393363774E+03  0.16509598749E+03  0.15832134677E+04  0.16422501533E+04  0.12699999809E+01 0.  1.
       -4    1    3    3    0  502 -0.40393363774E+03 -0.16509598749E+03 -0.25832277137E+03  0.50710091293E+03  0.12699999809E+01 0. -1.
</event>
<event>
 5   0  0.1186302E-04  0.1692126E+04  0.7818609E-02  0.8765868E-01
        1   -1    0    0  501    0  0.00000000000E+00  0.00000000000E+00  0.13571530965E+04  0.13571530965E+04  0.50400001928E-02 0.  1.
       -1   -1    0    0    0  501  0.00000000000E+00  0.00000000000E+00 -0.52744454620E+03  0.52744454622E+03  0.50400001928E-02 0. -1.
    10030    2    1    2    0    0  0.00000000000E+00  0.00000000000E+00  0.82970855027E+03  0.18845976427E+04  0.16921264718E+04 0.  0.
        3    1    3    3  502    0 -0.16803428748E+02  0.56001251306E+03 -0.29123433952E+03  0.63143789934E+03  0.10100000352E+00 0. -1.
       -3    1    3    3    0  502  0.16803428748E+02 -0.56001251306E+03  0.11209428898E+04  0.12531597434E+04  0.10100000352E+00 0.  1.
</event>
<event>
 5   0  0.1215233E-04  0.1699319E+04  0.7818609E-02  0.8761753E-01
       -1   -1    0    0    0  501  0.00000000000E+00  0.00000000000E+00  0.42701008788E+03  0.42701008791E+03  0.50400001928E-02 0. -1.
        1   -1    0    0  501    0  0.00000000000E+00  0.00000000000E+00 -0.16906421879E+04  0.16906421880E+04  0.50400001928E-02 0.  1.
    10030    2    1    2    0    0  0.00000000000E+00  0.00000000000E+00 -0.12636321001E+04  0.21176522759E+04  0.16993190039E+04 0.  0.
        2    1    3    3  502    0 -0.74135029942E+03 -0.26249545759E+03 -0.10325683205E+04  0.12979605033E+04  0.25500000920E-02 0. -1.
       -2    1    3    3    0  502  0.74135029942E+03  0.26249545759E+03 -0.23106377957E+03  0.81969177253E+03  0.25500000920E-02 0.  1.
</event>
<event>
 5   0  0.2234723E-04  0.1692666E+04  0.7818609E-02  0.8765558E-01
        2   -1    0    0  501    0  0.00000000000E+00  0.00000000000E+00  0.15771036392E+04  0.15771036392E+04  0.25500000920E-02 0. -1.
       -2   -1    0    0    0  501  0.00000000000E+00  0.00000000000E+00 -0.45417397040E+03  0.45417397041E+03  0.25500000920E-02 0.  1.
    10030    2    1    2    0    0  0.00000000000E+00  0.00000000000E+00  0.11229296688E+04  0.20312776096E+04  0.16926658519E+04 0.  0.
        1    1    3    3  502    0  0.75504413106E+02 -0.79432822562E+03  0.22284504126E+03  0.82844321402E+03  0.50400001928E-02 0.  1.
       -1    1    3    3    0  502 -0.75504413106E+02  0.79432822562E+03  0.90008462749E+03  0.12028343955E+04  0.50400001928E-02 0. -1.
</event>
<event>
 5   0  0.2356829E-04  0.1670775E+04  0.7818609E-02  0.8778210E-01
       -2   -1    0    0    0  501  0.00000000000E+00  0.00000000000E+00  0.33553732985E+03  0.33553732986E+03  0.25500000920E-02 0.  1.
        2   -1    0    0  501    0  0.00000000000E+00  0.00000000000E+00 -0.20798647151E+04  0.20798647151E+04  0.25500000920E-02 0. -1.
    10030    2    1    2    0    0  0.00000000000E+00  0.00000000000E+00 -0.17443273852E+04  0.24154020449E+04  0.16707749734E+04 0.  0.
        5    1    3    3  502    0  0.59230243147E+02 -0.35149802431E+03 -0.19643835226E+04  0.19964678301E+04  0.46999998093E+01 0. -1.
       -5    1    3    3    0  502 -0.59230243147E+02  0.35149802431E+03  0.22005613735E+03  0.41893421486E+03  0.46999998093E+01 0.  1.
</event>
<event>
 5   0  0.1234158E-04  0.1695853E+04  0.7818609E-02  0.8763733E-01
       -1   -1    0    0    0  501  0.00000000000E+00  0.00000000000E+00  0.55931584006E+03  0.55931584008E+03  0.50400001928E-02 0.  1.
        1   -1    0    0  501    0  0.00000000000E+00  0.00000000000E+00 -0.12854615728E+04  0.12854615728E+04  0.50400001928E-02 0. -1.
    10030    2    1    2    0    0  0.00000000000E+00  0.00000000000E+00 -0.72614573270E+03  0.18447774128E+04  0.16958526109E+04 0.  0.
        5    1    3    3  502    0 -0.78551614412E+03 -0.28988996715E+03 -0.50855238069E+03  0.97965270359E+03  0.46999998093E+01 0. -1.
       -5    1    3    3    0  502  0.78551614412E+03  0.28988996715E+03 -0.21759335200E+03  0.86512470926E+03  0.46999998093E+01 0.  1.
</event>
<event>
 5   0  0.2242967E-04  0.1720358E+04  0.7818609E-02  0.8749838E-01
       -2   -1    0    0    0  501  0.00000000000E+00  0.00000000000E+00  0.35140866166E+03  0.35140866166E+03  0.25500000920E-02 0. -1.
        2   -1    0    0  501    0  0.00000000000E+00  0.00000000000E+00 -0.21055472709E+04  0.21055472709E+04  0.25500000920E-02 0.  1.
    10030    2    1    2    0    0  0.00000000000E+00  0.00000000000E+00 -0.17541386092E+04  0.24569559325E+04  0.17203575774E+04 0.  0.
        4    1    3    3  502    0  0.13107936370E+03  0.52215626342E+02 -0.20889062431E+04  0.20936664435E+04  0.12699999809E+01 0.  1.
       -4    1    3    3    0  502 -0.13107936370E+03 -0.52215626342E+02  0.33476763391E+03  0.36328948902E+03  0.12699999809E+01 0. -1.
</event>
<event>
 5   0  0.1204741E-04  0.1702672E+04  0.7818609E-02  0.8759842E-01
        1   -1    0    0  501    0  0.00000000000E+00  0.00000000000E+00  0.21079427918E+04  0.21079427918E+04  0.50400001928E-02 0.  1.
       -1   -1    0    0    0  501  0.00000000000E+00  0.00000000000E+00 -0.34382947347E+03  0.34382947350E+03  0.50400001928E-02 0. -1.
    10030    2    1    2    0    0  0.00000000000E+00  0.00000000000E+00  0.17641133183E+04  0.24517722653E+04  0.17026718536E+04 0.  0.
        1    1    3    3  502    0 -0.67608372524E+03  0.43183449835E+03  0.47172578132E+03  0.93064249327E+03  0.50400001928E-02 0.  1.
       -1    1    3    3    0  502  0.67608372524E+03 -0.43183449835E+03  0.12923875370E+04  0.15211297720E+04  0.50400001928E-02 0. -1.
</event>
<event>
 5   0  0.1234158E-04  0.1616288E+04  0.7818609E-02  0.8810604E-01
       -1   -1    0    0    0  501  0.00000000000E+00  0.00000000000E+00  0.85192845614E+03  0.85192845616E+03  0.50400001928E-02 0.  1.
        1   -1    0    0  501    0  0.00000000000E+00  0.00000000000E+00 -0.76661006737E+03  0.76661006739E+03  0.50400001928E-02 0. -1.
    10030    2    1    2    0    0  0.00000000000E+00  0.00000000000E+00  0.85318388768E+02  0.16185385235E+04  0.16162882555E+04 0.  0.
        5    1    3    3  502    0 -0.34630986864E+03 -0.45113902568E+03  0.61758210378E+03  0.83957530366E+03  0.46999998093E+01 0.  1.
       -5    1    3    3    0  502  0.34630986864E+03  0.45113902568E+03 -0.53226371501E+03  0.77896321988E+03  0.46999998093E+01 0. -1.
</event>
<event>
 5   0  0.1215233E-04  0.1707338E+04  0.7818609E-02  0.8757190E-01
        1   -1    0    0  501    0  0.00000000000E+00  0.00000000000E+00  0.13133879758E+04  0.13133879758E+04  0.50400001928E-02 0.  1.
       -1   -1    0    0    0  501  0.00000000000E+00  0.00000000000E+00 -0.55486339850E+03  0.55486339852E+03  0.50400001928E-02 0. -1.
    10030    2    1    2    0    0  0.00000000000E+00  0.00000000000E+00  0.75852457732E+03  0.18682513743E+04  0.17073381807E+04 0.  0.
        2    1    3    3  502    0  0.86151362207E+02  0.16574654441E+03 -0.53222523136E+03  0.56405467031E+03  0.25500000920E-02 0. -1.
       -2    1    3    3    0  502 -0.86151362207E+02 -0.16574654441E+03  0.12907498087E+04  0.13041967040E+04  0.25500000920E-02 0.  1.
</event>
<event>
 5   0  0.1215233E-04  0.1709479E+04  0.7818609E-02  0.8755976E-01
        1   -1    0    0  501    0  0.00000000000E+00  0.00000000000E+00  0.67987393231E+03  0.67987393232E+03  0.50400001928E-02 0.  1.
       -1   -1    0    0    0  501  0.00000000000E+00  0.00000000000E+00 -0.10745811580E+04  0.10745811580E+04  0.50400001928E-02 0. -1.
    10030    2    1    2    0    0  0.00000000000E+00  0.00000000000E+00 -0.39470722573E+03  0.17544550904E+04  0.17094791224E+04 0.  0.
        2    1    3    3  502    0  0.24029342221E+03  0.52191734424E+03 -0.84680666733E+03  0.10233377618E+04  0.25500000920E-02 0. -1.
       -2    1    3    3    0  502 -0.24029342221E+03 -0.52191734424E+03  0.45209944160E+03  0.73111732853E+03  0.25500000920E-02 0.  1.
</event>
<event>
 5   0  0.1234158E-04  0.1698961E+04  0.7818609E-02  0.8761957E-01
       -1   -1    0    0    0  501  0.00000000000E+00  0.00000000000E+00  0.10006376427E+04  0.10006376427E+04  0.50400001928E-02 0. -1.
        1   -1    0    0  501    0  0.00000000000E+00  0.00000000000E+00 -0.72115728738E+03  0.72115728740E+03  0.50400001928E-02 0.  1.
    10030    2    1    2    0    0  0.00000000000E+00  0.00000000000E+00  0.27948035536E+03  0.17217949301E+04  0.16989610097E+04 0.  0.
        5    1    3    3  502    0  0.44451960159E+03  0.68030808270E+03 -0.11092651132E+03  0.82020945160E+03  0.46999998093E+01 0.  1.
       -5    1    3    3    0  502 -0.44451960159E+03 -0.68030808270E+03  0.39040686667E+03  0.90158547855E+03  0.46999998093E+01 0. -1.
</event>
<event>
 5   0  0.1234158E-04  0.1708001E+04  0.7818609E-02  0.8756814E-01
        1   -1    0    0  501    0  0.00000000000E+00  0.00000000000E+00  0.10159442712E+04  0.10159442712E+04  0.50400001928E-02 0. -1.
       -1   -1    0    0    0  501  0.00000000000E+00  0.00000000000E+00 -0.71787081975E+03  0.71787081976E+03  0.50400001928E-02 0.  1.
    10030    2    1    2    0    0  0.00000000000E+00  0.00000000000E+00  0.29807345148E+03  0.17338150910E+04  0.17080008745E+04 0.  0.
        5    1    3    3  502    0 -0.65783666947E+03  0.75295106139E+02  0.69651740699E+03  0.96102914885E+03  0.46999998093E+01 0. -1.
       -5    1    3    3    0  502  0.65783666947E+03 -0.75295106139E+02 -0.39844395551E+03  0.77278594215E+03  0.46999998093E+01 0.  1.
</event>
<event>
 5   0  0.1215233E-04  0.1701830E+04  0.7818609E-02  0.8760321E-01
       -1   -1    0    0    0  501  0.00000000000E+00  0.00000000000E+00  0.36575213521E+03  0.36575213525E+03  0.50400001928E-02 0.  1.
        1   -1    0    0  501    0  0.00000000000E+00  0.00000000000E+00 -0.19796363530E+04  0.19796363530E+04  0.50400001928E-02 0. -1.
    10030    2    1    2    0    0  0.00000000000E+00  0.00000000000E+00 -0.16138842178E+04  0.23453884883E+04  0.17018298659E+04 0.  0.
        2    1    3    3  502    0  0.15342931554E+03  0.14639087450E+03  0.32875060255E+03  0.39121324325E+03  0.25500000920E-02 0.  1.
       -2    1    3    3    0  502 -0.15342931554E+03 -0.14639087450E+03 -0.19426348204E+04  0.19541752450E+04  0.25500000920E-02 0. -1.
</event>
<event>
 5   0  0.1215233E-04  0.1724671E+04  0.7818609E-02  0.8747417E-01
        1   -1    0    0  501    0  0.00000000000E+00  0.00000000000E+00  0.10040694650E+04  0.10040694650E+04  0.50400001928E-02 0.  1.
       -1   -1    0    0    0  501  0.00000000000E+00  0.00000000000E+00 -0.74060844384E+03  0.74060844386E+03  0.50400001928E-02 0. -1.
    10030    2    1    2    0    0  0.00000000000E+00  0.00000000000E+00  0.26346102112E+03  0.17446779088E+04  0.17246707790E+04 0.  0.
        2    1    3    3  502    0  0.36836399944E+03  0.77933471641E+03  0.10762791596E+03  0.86869926015E+03  0.25500000920E-02 0. -1.
       -2    1    3    3    0  502 -0.36836399944E+03 -0.77933471641E+03  0.15583310516E+03  0.87597864868E+03  0.25500000920E-02 0.  1.
</event>
<event>
 5   0  0.8372750E-05  0.1704414E+04  0.7818609E-02  0.8758851E-01
       -4   -1    0    0    0  501  0.00000000000E+00  0.00000000000E+00  0.99005180449E+03  0.99005261904E+03  0.12699999809E+01 0.  1.
        4   -1    0    0  501    0  0.00000000000E+00  0.00000000000E+00 -0.73355288706E+03  0.73355398644E+03  0.12699999809E+01 0. -1.
    10030    2    1    2    0    0  0.00000000000E+00  0.00000000000E+00  0.25649891743E+03  0.17236066055E+04  0.17044142794E+04 0.  0.
        1    1    3    3  502    0  0.53365782146E+03 -0.31735559357E+03  0.71856204526E+03  0.94965080745E+03  0.50400001928E-02 0.  1.
       -1    1    3    3    0  502 -0.53365782146E+03  0.31735559357E+03 -0.46206312784E+03  0.77395579803E+03  0.50400001928E-02 0. -1.
</event>
<event>
 5   0  0.2234723E-04  0.1702352E+04  0.7818609E-02  0.8760024E-01
       -2   -1    0    0    0  501  0.00000000000E+00  0.00000000000E+00  0.61794667010E+03  0.61794667010E+03  0.25500000920E-02 0. -1.
        2   -1    0    0  501    0  0.00000000000E+00  0.00000000000E+00 -0.11724321027E+04  0.11724321027E+04  0.25500000920E-02 0.  1.
    10030    2    1    2    0    0  0.00000000000E+00  0.00000000000E+00 -0.55448543255E+03  0.17903787728E+04  0.17023519187E+04 0.  0.
        1    1    3    3  502    0  0.89231542122E+02  0.73904901816E+03 -0.71131295351E+03  0.10296221818E+04  0.50400001928E-02 0.  1.
       -1    1    3    3    0  502 -0.89231542122E+02 -0.73904901816E+03  0.15682752095E+03  0.76075659098E+03  0.50400001928E-02 0. -1.
</event>
<event>
 5   0  0.1234158E-04  0.1704874E+04  0.7818609E-02  0.8758589E-01
        1   -1    0    0  501    0  0.00000000000E+00  0.00000000000E+00  0.14755606796E+04  0.14755606797E+04  0.50400001928E-02 0. -1.
       -1   -1    0    0    0  501  0.00000000000E+00  0.00000000000E+00 -0.49245629555E+03  0.49245629557E+03  0.50400001928E-02 0.  1.
    10030    2    1    2    0    0  0.00000000000E+00  0.00000000000E+00  0.98310438410E+03  0.19680169752E+04  0.17048743604E+04 0.  0.
        5    1    3    3  502    0  0.27543092755E+03  0.61120426437E+03 -0.11620280174E+03  0.68041019228E+03  0.46999998093E+01 0.  1.
       -5    1    3    3    0  502 -0.27543092755E+03 -0.61120426437E+03  0.10993071858E+04  0.12876067829E+04  0.46999998093E+01 0. -1.
</event>
<event>
 5   0  0.1215233E-04  0.1702767E+04  0.7818609E-02  0.8759788E-01
       -1   -1    0    0    0  501  0.00000000000E+00  0.00000000000E+00  0.99077804293E+03  0.99077804294E+03  0.50400001928E-02 0. -1.
        1   -1    0    0  501    0  0.00000000000E+00  0.00000000000E+00 -0.73160062479E+03  0.73160062481E+03  0.50400001928E-02 0.  1.
    10030    2    1    2    0    0  0.00000000000E+00  0.00000000000E+00  0.25917741814E+03  0.17223786678E+04  0.17027669662E+04 0.  0.
        2    1    3    3  502    0 -0.52020371150E+03  0.67175289100E+03  0.18489927331E+03  0.86951227093E+03  0.25500000920E-02 0.  1.
       -2    1    3    3    0  502  0.52020371150E+03 -0.67175289100E+03  0.74278144825E+02  0.85286639682E+03  0.25500000920E-02 0. -1.
</event>
<event>
 5   0  0.1204741E-04  0.1703502E+04  0.7818609E-02  0.8759369E-01
        1   -1    0    0  501    0  0.00000000000E+00  0.00000000000E+00  0.12981648150E+04  0.12981648150E+04  0.50400001928E-02 0. -1.
       -1   -1    0    0    0  501  0.00000000000E+00  0.00000000000E+00 -0.55885039048E+03  0.55885039050E+03  0.50400001928E-02 0.  1.
    10030    2    1    2    0    0  0.00000000000E+00  0.00000000000E+00  0.73931442447E+03  0.18570152055E+04  0.17035021735E+04 0.  0.
        1    1    3    3  502    0  0.14172432531E+03  0.31348622673E+03 -0.47973880817E+03  0.59034627366E+03  0.50400001928E-02 0.  1.
       -1    1    3    3    0  502 -0.14172432531E+03 -0.31348622673E+03  0.12190532326E+04  0.12666689318E+04  0.50400001928E-02 0. -1.
</event>
<event>
 5   0  0.2356829E-04  0.1698121E+04  0.7818609E-02  0.8762437E-01
        2   -1    0    0  501    0  0.00000000000E+00  0.00000000000E+00  0.12657680745E+04  0.12657680745E+04  0.25500000920E-02 0. -1.
       -2   -1    0    0    0  501  0.00000000000E+00  0.00000000000E+00 -0.56953826335E+03  0.56953826336E+03  0.25500000920E-02 0.  1.
    10030    2    1    2    0    0  0.00000000000E+00  0.00000000000E+00  0.69622981111E+03  0.18353063378E+04  0.16981205504E+04 0.  0.
        5    1    3    3  502    0 -0.55616656873E+03 -0.50778555727E+03  0.77185204239E+03  0.10783993183E+04  0.46999998093E+01 0.  1.
       -5    1    3    3    0  502  0.55616656873E+03  0.50778555727E+03 -0.75622231281E+02  0.75690701953E+03  0.46999998093E+01 0. -1.
</event>
<event>
 5   0  0.2356829E-04  0.1711397E+04  0.7818609E-02  0.8754891E-01
       -2   -1    0    0    0  501  0.00000000000E+00  0.00000000000E+00  0.16075003068E+04  0.16075003068E+04  0.25500000920E-02 0.  1.
        2   -1    0    0  501    0  0.00000000000E+00  0.00000000000E+00 -0.45550204753E+03  0.45550204754E+03  0.25500000920E-02 0. -1.
    10030    2    1    2    0    0  0.00000000000E+00  0.00000000000E+00  0.11519982592E+04  0.20630023543E+04  0.17113967175E+04 0.  0.
        5    1    3    3  502    0 -0.28102320470E+03  0.13363598326E+03  0.15368603448E+04  0.15680543444E+04  0.46999998093E+01 0.  1.
       -5    1    3    3    0  502  0.28102320470E+03 -0.13363598326E+03 -0.38486208556E+03  0.49494800990E+03  0.46999998093E+01 0. -1.
</event>
<event>
 5   0  0.2242967E-04  0.1687645E+04  0.7818609E-02  0.8768442E-01
        2   -1    0    0  501    0  0.00000000000E+00  0.00000000000E+00  0.15011563378E+04  0.15011563378E+04  0.25500000920E-02 0. -1.
       -2   -1    0    0    0  501  0.00000000000E+00  0.00000000000E+00 -0.47432521585E+03  0.47432521585E+03  0.25500000920E-02 0.  1.
    10030    2    1    2    0    0  0.00000000000E+00  0.00000000000E+00  0.10268311219E+04  0.19754815536E+04  0.16876448725E+04 0.  0.
        4    1    3    3  502    0  0.23567403561E+03  0.44893741217E+03  0.13029528075E+04  0.13981325697E+04  0.12699999809E+01 0. -1.
       -4    1    3    3    0  502 -0.23567403561E+03 -0.44893741217E+03 -0.27612168554E+03  0.57734898392E+03  0.12699999809E+01 0.  1.
</event>
<event>
 5   0  0.1234158E-04  0.1691984E+04  0.7818609E-02  0.8765949E-01
       -1   -1    0    0    0  501  0.00000000000E+00  0.00000000000E+00  0.73609445368E+03  0.73609445370E+03  0.50400001928E-02 0.  1.
        1   -1    0    0  501    0  0.00000000000E+00  0.00000000000E+00 -0.97229692354E+03  0.97229692355E+03  0.50400001928E-02 0. -1.
    10030    2    1    2    0    0  0.00000000000E+00  0.00000000000E+00 -0.23620246986E+03  0.17083913772E+04  0.16919838921E+04 0.  0.
        5    1    3    3  502    0  0.37122971064E+03  0.35727690611E+03  0.55939128031E+03  0.76052546321E+03  0.46999998093E+01 0.  1.
       -5    1    3    3    0  502 -0.37122971064E+03 -0.35727690611E+03 -0.79559375016E+03  0.94786591404E+03  0.46999998093E+01 0. -1.
</event>
<event>
 5   0  0.2224454E-04  0.1718756E+04  0.7818609E-02  0.8750739E-01
       -2   -1    0    0    0  501  0.00000000000E+00  0.00000000000E+00  0.38961262635E+03  0.38961262635E+03  0.25500000920E-02 0. -1.
        2   -1    0    0  501    0  0.00000000000E+00  0.00000000000E+00 -0.18955515129E+04  0.18955515129E+04  0.25500000920E-02 0.  1.
    10030    2    1    2    0    0  0.00000000000E+00  0.00000000000E+00 -0.15059388866E+04  0.22851641393E+04  0.17187562984E+04 0.  0.
        2    1    3    3  502    0  0.78487230099E+03 -0.12909823131E+03 -0.11855110122E+04  0.14276299389E+04  0.25500000920E-02 0.  1.
       -2    1    3    3    0  502 -0.78487230099E+03  0.12909823131E+03 -0.32042787432E+03  0.85753420039E+03  0.25500000920E-02 0. -1.
</event>
<event>
 5   0  0.1215233E-04  0.1673433E+04  0.7818609E-02  0.8776663E-01
       -1   -1    0    0    0  501  0.00000000000E+00  0.00000000000E+00  0.93200025623E+03  0.93200025624E+03  0.50400001928E-02 0. -1.
        1   -1    0    0  501    0  0.00000000000E+00  0.00000000000E+00 -0.75117383090E+03  0.75117383091E+03  0.50400001928E-02 0.  1.
    10030    2    1    2    0    0  0.00000000000E+00  0.00000000000E+00  0.18082642533E+03  0.16831740872E+04  0.16734326433E+04 0.  0.
        2    1    3    3  502    0 -0.24306095599E+03 -0.30135491520E+03  0.83648635240E+03  0.92173902543E+03  0.25500000920E-02 0. -1.
       -2    1    3    3    0  502  0.24306095599E+03  0.30135491520E+03 -0.65565992707E+03  0.76143506172E+03  0.25500000920E-02 0.  1.
</event>
<event>
 5   0  0.2224454E-04  0.1701524E+04  0.7818609E-02  0.8760496E-01
        2   -1    0    0  501    0  0.00000000000E+00  0.00000000000E+00  0.94553317280E+03  0.94553317280E+03  0.25500000920E-02 0.  1.
       -2   -1    0    0    0  501  0.00000000000E+00  0.00000000000E+00 -0.76548958723E+03  0.76548958724E+03  0.25500000920E-02 0. -1.
    10030    2    1    2    0    0  0.00000000000E+00  0.00000000000E+00  0.18004358557E+03  0.17110227600E+04  0.17015237855E+04 0.  0.
        2    1    3    3  502    0  0.69270740314E+03  0.31404983590E+03  0.47336507478E+03  0.89584894922E+03  0.25500000920E-02 0.  1.
       -2    1    3    3    0  502 -0.69270740314E+03 -0.31404983590E+03 -0.29332148922E+03  0.81517381081E+03  0.25500000920E-02 0. -1.
</event>
<event>
 5   0  0.1234158E-04  0.1702768E+04  0.7818609E-02  0.8759787E-01
        1   -1    0    0  501    0  0.00000000000E+00  0.00000000000E+00  0.10044289522E+04  0.10044289522E+04  0.50400001928E-02 0.  1.
       -1   -1    0    0    0  501  0.00000000000E+00  0.00000000000E+00 -0.72165887719E+03  0.72165887721E+03  0.50400001928E-02 0. -1.
    10030    2    1    2    0    0  0.00000000000E+00  0.00000000000E+00  0.28277007499E+03  0.17260878294E+04  0.17027684163E+04 0.  0.
        5    1    3    3  502    0 -0.21846579717E+03 -0.81793075818E+03  0.50180930770E+02  0.84810273288E+03  0.46999998093E+01 0. -1.
       -5    1    3    3    0  502  0.21846579717E+03  0.81793075818E+03  0.23258914423E+03  0.87798509653E+03  0.46999998093E+01 0.  1.
</event>
<event>
 5   0  0.2242967E-04  0.1675363E+04  0.7818609E-02  0.8775542E-01
       -2   -1    0    0    0  501  0.00000000000E+00  0.00000000000E+00  0.58087309844E+03  0.58087309845E+03  0.25500000920E-02 0.  1.
        2   -1    0    0  501    0  0.00000000000E+00  0.00000000000E+00 -0.12080264737E+04  0.12080264737E+04  0.25500000920E-02 0. -1.
    10030    2    1    2    0    0  0.00000000000E+00  0.00000000000E+00 -0.62715337522E+03  0.17888995721E+04  0.16753627437E+04 0.  0.
        4    1    3    3  502    0  0.78361621847E+03  0.15597313458E+03 -0.58227797740E+03  0.98865122891E+03  0.12699999809E+01 0. -1.
       -4    1    3    3    0  502 -0.78361621847E+03 -0.15597313458E+03 -0.44875397821E+02  0.80024834320E+03  0.12699999809E+01 0.  1.
</event>
<event>
 5   0  0.1204741E-04  0.1706420E+04  0.7818609E-02  0.8757712E-01
       -1   -1    0    0    0  501  0.00000000000E+00  0.00000000000E+00  0.80627446862E+03  0.80627446864E+03  0.50400001928E-02 0. -1.
        1   -1    0    0  501    0  0.00000000000E+00  0.00000000000E+00 -0.90287730588E+03  0.90287730590E+03  0.50400001928E-02 0.  1.
    10030    2    1    2    0    0  0.00000000000E+00  0.00000000000E+00 -0.96602837259E+02  0.17091517745E+04  0.17064195499E+04 0.  0.
        1    1    3    3  502    0 -0.38996704773E+03  0.50120553378E+03  0.52242286190E+03  0.82231802368E+03  0.50400001928E-02 0. -1.
       -1    1    3    3    0  502  0.38996704773E+03 -0.50120553378E+03 -0.61902569916E+03  0.88683375085E+03  0.50400001928E-02 0.  1.
</event>
<event>
 5   0  0.1234158E-04  0.1696417E+04  0.7818609E-02  0.8763410E-01
       -1   -1    0    0    0  501  0.00000000000E+00  0.00000000000E+00  0.49267600709E+03  0.49267600712E+03  0.50400001928E-02 0.  1.
        1   -1    0    0  501    0  0.00000000000E+00  0.00000000000E+00 -0.14603065856E+04  0.14603065856E+04  0.50400001928E-02 0. -1.
    10030    2    1    2    0    0  0.00000000000E+00  0.00000000000E+00 -0.96763057849E+03  0.19529825927E+04  0.16964174224E+04 0.  0.
        5    1    3    3  502    0  0.42097585625E+03 -0.67892756681E+03 -0.81201467638E+03  0.11391019433E+04  0.46999998093E+01 0. -1.
       -5    1    3    3    0  502 -0.42097585625E+03  0.67892756681E+03 -0.15561590211E+03  0.81388064943E+03  0.46999998093E+01 0.  1.
</event>
<event>
 5   0  0.1126958E-04  0.1716314E+04  0.7818609E-02  0.8752114E-01
        1   -1    0    0  501    0  0.00000000000E+00  0.00000000000E+00  0.11437232099E+04  0.11437232099E+04  0.50400001928E-02 0. -1.
       -1   -1    0    0    0  501  0.00000000000E+00  0.00000000000E+00 -0.64389103908E+03  0.64389103910E+03  0.50400001928E-02 0.  1.
    10030    2    1    2    0    0  0.00000000000E+00  0.00000000000E+00  0.49983217081E+03  0.17876142490E+04  0.17163136381E+04 0.  0.
        4    1    3    3  502    0 -0.75317978925E+03 -0.86488568957E+02 -0.16887151570E+03  0.77671054403E+03  0.12699999809E+01 0.  1.
       -4    1    3    3    0  502  0.75317978925E+03  0.86488568957E+02  0.66870368651E+03  0.10109037050E+04  0.12699999809E+01 0. -1.
</event>
<event>
 5   0  0.2224454E-04  0.1822593E+04  0.7818609E-02  0.8694376E-01
        2   -1    0    0  501    0  0.00000000000E+00  0.00000000000E+00  0.12204599395E+04  0.12204599395E+04  0.25500000920E-02 0.  1.
       -2   -1    0    0    0  501  0.00000000000E+00  0.00000000000E+00 -0.68044969862E+03  0.68044969862E+03  0.25500000920E-02 0. -1.
    10030    2    1    2    0    0  0.00000000000E+00  0.00000000000E+00  0.54001024092E+03  0.19009096382E+04  0.18225933151E+04 0.  0.
        2    1    3    3  502    0 -0.20354499648E+02 -0.39322296493E+03  0.11271606278E+04  0.11939554794E+04  0.25500000920E-02 0.  1.
       -2    1    3    3    0  502  0.20354499648E+02  0.39322296493E+03 -0.58715038689E+03  0.70695415880E+03  0.25500000920E-02 0. -1.
</event>
<event>
 5   0  0.2234723E-04  0.1703954E+04  0.7818609E-02  0.8759112E-01
       -2   -1    0    0    0  501  0.00000000000E+00  0.00000000000E+00  0.77044209460E+03  0.77044209460E+03  0.25500000920E-02 0. -1.
        2   -1    0    0  501    0  0.00000000000E+00  0.00000000000E+00 -0.94214068653E+03  0.94214068653E+03  0.25500000920E-02 0.  1.
    10030    2    1    2    0    0  0.00000000000E+00  0.00000000000E+00 -0.17169859193E+03  0.17125827811E+04  0.17039540416E+04 0.  0.
        1    1    3    3  502    0 -0.15553153450E+03 -0.98710986899E+02  0.75018687478E+03  0.77247282430E+03  0.50400001928E-02 0. -1.
       -1    1    3    3    0  502  0.15553153450E+03  0.98710986899E+02 -0.92188546672E+03  0.94010995683E+03  0.50400001928E-02 0.  1.
</event>
<event>
 5   0  0.1234158E-04  0.1701040E+04  0.7818609E-02  0.8760771E-01
        1   -1    0    0  501    0  0.00000000000E+00  0.00000000000E+00  0.17575394827E+04  0.17575394827E+04  0.50400001928E-02 0.  1.
       -1   -1    0    0    0  501  0.00000000000E+00  0.00000000000E+00 -0.41158917287E+03  0.41158917290E+03  0.50400001928E-02 0. -1.
    10030    2    1    2    0    0  0.00000000000E+00  0.00000000000E+00  0.13459503098E+04  0.21691286556E+04  0.17010399431E+04 0.  0.
        5    1    3    3  502    0  0.11810219513E+03  0.18835437280E+03  0.17198152114E+04  0.17341314684E+04  0.46999998093E+01 0.  1.
       -5    1    3    3    0  502 -0.11810219513E+03 -0.18835437280E+03 -0.37386490159E+03  0.43499718721E+03  0.46999998093E+01 0. -1.
</event>
<event>
 5   0  0.2356829E-04  0.1702244E+04  0.7818609E-02  0.8760086E-01
        2   -1    0    0  501    0  0.00000000000E+00  0.00000000000E+00  0.73998320007E+03  0.73998320008E+03  0.25500000920E-02 0. -1.
       -2   -1    0    0    0  501  0.00000000000E+00  0.00000000000E+00 -0.97895231028E+03  0.97895231028E+03  0.25500000920E-02 0.  1.
    10030    2    1    2    0    0  0.00000000000E+00  0.00000000000E+00 -0.23896911020E+03  0.17189355104E+04  0.17022435352E+04 0.  0.
        5    1    3    3  502    0  0.40996788393E+03  0.59421334294E+03  0.33573858512E+03  0.79618192037E+03  0.46999998093E+01 0. -1.
       -5    1    3    3    0  502 -0.40996788393E+03 -0.59421334294E+03 -0.57470769532E+03  0.92275358999E+03  0.46999998093E+01 0.  1.
</event>
<event>
 5   0  0.2356829E-04  0.1697447E+04  0.7818609E-02  0.8762822E-01
       -2   -1    0    0    0  501  0.00000000000E+00  0.00000000000E+00  0.13387969044E+04  0.13387969044E+04  0.25500000920E-02 0. -1.
        2   -1    0    0  501    0  0.00000000000E+00  0.00000000000E+00 -0.53804375552E+03  0.53804375553E+03  0.25500000920E-02 0.  1.
    10030    2    1    2    0    0  0.00000000000E+00  0.00000000000E+00  0.80075314888E+03  0.18768406599E+04  0.16974466876E+04 0.  0.
        5    1    3    3  502    0 -0.51682569767E+03 -0.26211525038E+03 -0.28523348903E+03  0.64590513198E+03  0.46999998093E+01 0.  1.
       -5    1    3    3    0  502  0.51682569767E+03  0.26211525038E+03  0.10859866379E+04  0.12309355279E+04  0.46999998093E+01 0. -1.
</event>
<event>
 5   0  0.2356829E-04  0.1607314E+04  0.7818609E-02  0.8816067E-01
        2   -1    0    0  501    0  0.00000000000E+00  0.00000000000E+00  0.48659027487E+03  0.48659027487E+03  0.25500000920E-02 0.  1.
       -2   -1    0    0    0  501  0.00000000000E+00  0.00000000000E+00 -0.13273276848E+04  0.13273276848E+04  0.25500000920E-02 0. -1.
    10030    2    1    2    0    0  0.00000000000E+00  0.00000000000E+00 -0.84073740992E+03  0.18139179597E+04  0.16073142107E+04 0.  0.
        5    1    3    3  502    0  0.64810546024E+02  0.18293341762E+03  0.45973139525E+03  0.49903916473E+03  0.46999998093E+01 0.  1.
       -5    1    3    3    0  502 -0.64810546024E+02 -0.18293341762E+03 -0.13004688052E+04  0.13148787949E+04  0.46999998093E+01 0. -1.
</event>
<event>
 5   0  0.1204741E-04  0.1708422E+04  0.7818609E-02  0.8756576E-01
       -1   -1    0    0    0  501  0.00000000000E+00  0.00000000000E+00  0.43109406838E+03  0.43109406841E+03  0.50400001928E-02 0. -1.
        1   -1    0    0  501    0  0.00000000000E+00  0.00000000000E+00 -0.16926152104E+04  0.16926152105E+04  0.50400001928E-02 0.  1.
    10030    2    1    2    0    0  0.00000000000E+00  0.00000000000E+00 -0.12615211421E+04  0.21237092789E+04  0.17084219354E+04 0.  0.
        1    1    3    3  502    0 -0.39856329871E+03 -0.55807600703E+03  0.23270949382E+01  0.68578928841E+03  0.50400001928E-02 0. -1.
       -1    1    3    3    0  502  0.39856329871E+03  0.55807600703E+03 -0.12638482370E+04  0.14379199904E+04  0.50400001928E-02 0.  1.
</event>
<event>
 5   0  0.2242967E-04  0.1706810E+04  0.7818609E-02  0.8757490E-01
        2   -1    0    0  501    0  0.00000000000E+00  0.00000000000E+00  0.21595430190E+04  0.21595430190E+04  0.25500000920E-02 0. -1.
       -2   -1    0    0    0  501  0.00000000000E+00  0.00000000000E+00 -0.33724745197E+03  0.33724745198E+03  0.25500000920E-02 0.  1.
    10030    2    1    2    0    0  0.00000000000E+00  0.00000000000E+00  0.18222955670E+04  0.24967904709E+04  0.17068103358E+04 0.  0.
        4    1    3    3  502    0  0.80294029410E+03  0.16840536211E+03  0.12549160784E+04  0.14992963212E+04  0.12699999809E+01 0. -1.
       -4    1    3    3    0  502 -0.80294029410E+03 -0.16840536211E+03  0.56737948856E+03  0.99749414977E+03  0.12699999809E+01 0.  1.
</event>
<event>
 5   0  0.1204741E-04  0.1711113E+04  0.7818609E-02  0.8755051E-01
        1   -1    0    0  501    0  0.00000000000E+00  0.00000000000E+00  0.12126677394E+04  0.12126677395E+04  0.50400001928E-02 0. -1.
       -1   -1    0    0    0  501  0.00000000000E+00  0.00000000000E+00 -0.60360904959E+03  0.60360904961E+03  0.50400001928E-02 0.  1.
    10030    2    1    2    0    0  0.00000000000E+00  0.00000000000E+00  0.60905868986E+03  0.18162767891E+04  0.17111133472E+04 0.  0.
        1    1    3    3  502    0 -0.31357912399E+03  0.74926711377E+03  0.58983119479E+03  0.10038096997E+04  0.50400001928E-02 0. -1.
       -1    1    3    3    0  502  0.31357912399E+03 -0.74926711377E+03  0.19227495069E+02  0.81246708940E+03  0.50400001928E-02 0.  1.
</event>
<event>
 5   0  0.1204741E-04  0.1673322E+04  0.7818609E-02  0.8776728E-01
        1   -1    0    0  501    0  0.00000000000E+00  0.00000000000E+00  0.14781787514E+04  0.14781787514E+04  0.50400001928E-02 0.  1.
       -1   -1    0    0    0  501  0.00000000000E+00  0.00000000000E+00 -0.47355678046E+03  0.47355678048E+03  0.50400001928E-02 0. -1.
    10030    2    1    2    0    0  0.00000000000E+00  0.00000000000E+00  0.10046219709E+04  0.19517355319E+04  0.16733219301E+04 0.  0.
        1    1    3    3  502    0 -0.59195420344E+03 -0.27397400168E+03  0.11134449218E+04  0.12904383466E+04  0.50400001928E-02 0.  1.
       -1    1    3    3    0  502  0.59195420344E+03  0.27397400168E+03 -0.10882295086E+03  0.66129718525E+03  0.50400001928E-02 0. -1.
</event>
<event>
 5   0  0.1215233E-04  0.1750279E+04  0.7818609E-02  0.8733197E-01
       -1   -1    0    0    0  501  0.00000000000E+00  0.00000000000E+00  0.73961843489E+03  0.73961843491E+03  0.50400001928E-02 0. -1.
        1   -1    0    0  501    0  0.00000000000E+00  0.00000000000E+00 -0.10354926661E+04  0.10354926661E+04  0.50400001928E-02 0.  1.
    10030    2    1    2    0    0  0.00000000000E+00  0.00000000000E+00 -0.29587423123E+03  0.17751111010E+04  0.17502793664E+04 0.  0.
        2    1    3    3  502    0 -0.93655450276E+02 -0.55209443184E+03 -0.83000341634E+03  0.10012418670E+04  0.25500000920E-02 0.  1.
       -2    1    3    3    0  502  0.93655450276E+02  0.55209443184E+03  0.53412918511E+03  0.77386923406E+03  0.25500000920E-02 0. -1.
</event>
<event>
 5   0  0.2242967E-04  0.1671922E+04  0.7818609E-02  0.8777542E-01
        2   -1    0    0  501    0  0.00000000000E+00  0.00000000000E+00  0.20068308113E+04  0.20068308113E+04  0.25500000920E-02 0.  1.
       -2   -1    0    0    0  501  0.00000000000E+00  0.00000000000E+00 -0.34822605090E+03  0.34822605091E+03  0.25500000920E-02 0. -1.
    10030    2    1    2    0    0  0.00000000000E+00  0.00000000000E+00  0.16586047604E+04  0.23550568622E+04  0.16719219698E+04 0.  0.
        4    1    3    3  502    0 -0.80063686189E+02 -0.23325771151E+03  0.19544229593E+04  0.19699213361E+04  0.12699999809E+01 0.  1.
       -4    1    3    3    0  502  0.80063686189E+02  0.23325771151E+03 -0.29581819884E+03  0.38513552614E+03  0.12699999809E+01 0. -1.
</event>
<event>
 5   0  0.1126958E-04  0.1716690E+04  0.7818609E-02  0.8751902E-01
       -1   -1    0    0    0  501  0.00000000000E+00  0.00000000000E+00  0.84920430714E+03  0.84920430715E+03  0.50400001928E-02 0. -1.
        1   -1    0    0  501    0  0.00000000000E+00  0.00000000000E+00 -0.86758435777E+03  0.86758435778E+03  0.50400001928E-02 0.  1.
    10030    2    1    2    0    0  0.00000000000E+00  0.00000000000E+00 -0.18380050632E+02  0.17167886649E+04  0.17166902731E+04 0.  0.
        4    1    3    3  502    0  0.47672154988E+03  0.61383716499E+03 -0.37348450860E+03  0.86229449280E+03  0.12699999809E+01 0.  1.
       -4    1    3    3    0  502 -0.47672154988E+03 -0.61383716499E+03  0.35510445796E+03  0.85449417214E+03  0.12699999809E+01 0. -1.
</event>
<event>
 5   0  0.1186302E-04  0.1700040E+04  0.7818609E-02  0.8761341E-01
       -1   -1    0    0    0  501  0.00000000000E+00  0.00000000000E+00  0.44978996951E+03  0.44978996954E+03  0.50400001928E-02 0. -1.
        1   -1    0    0  501    0  0.00000000000E+00  0.00000000000E+00 -0.16063814734E+04  0.16063814734E+04  0.50400001928E-02 0.  1.
    10030    2    1    2    0    0  0.00000000000E+00  0.00000000000E+00 -0.11565915039E+04  0.20561714429E+04  0.17000403218E+04 0.  0.
        3    1    3    3  502    0 -0.47745865743E+03 -0.57779309326E+03 -0.93410892151E+02  0.75533915108E+03  0.10100000352E+00 0. -1.
       -3    1    3    3    0  502  0.47745865743E+03  0.57779309326E+03 -0.10631806117E+04  0.13008322919E+04  0.10100000352E+00 0.  1.
</event>
<event>
 5   0  0.2234723E-04  0.1715775E+04  0.7818609E-02  0.8752418E-01
       -2   -1    0    0    0  501  0.00000000000E+00  0.00000000000E+00  0.53417933567E+03  0.53417933568E+03  0.25500000920E-02 0. -1.
        2   -1    0    0  501    0  0.00000000000E+00  0.00000000000E+00 -0.13777600020E+04  0.13777600020E+04  0.25500000920E-02 0.  1.
    10030    2    1    2    0    0  0.00000000000E+00  0.00000000000E+00 -0.84358066631E+03  0.19119393377E+04  0.17157749533E+04 0.  0.
        1    1    3    3  502    0 -0.40799943707E+03 -0.35835345012E+03 -0.11618683138E+04  0.12825048594E+04  0.50400001928E-02 0.  1.
       -1    1    3    3    0  502  0.40799943707E+03  0.35835345012E+03  0.31828764746E+03  0.62943447825E+03  0.50400001928E-02 0. -1.
</event>
<event>
 5   0  0.2356829E-04  0.1720935E+04  0.7818609E-02  0.8749514E-01
        2   -1    0    0  501    0  0.00000000000E+00  0.00000000000E+00  0.19875215724E+04  0.19875215724E+04  0.25500000920E-02 0. -1.
       -2   -1    0    0    0  501  0.00000000000E+00  0.00000000000E+00 -0.37252652127E+03  0.37252652128E+03  0.25500000920E-02 0.  1.
    10030    2    1    2    0    0  0.00000000000E+00  0.00000000000E+00  0.16149950512E+04  0.23600480937E+04  0.17209352078E+04 0.  0.
        5    1    3    3  502    0 -0.21472590356E+03  0.70565869591E+03  0.19986682190E+03  0.76421871560E+03  0.46999998093E+01 0.  1.
       -5    1    3    3    0  502  0.21472590356E+03 -0.70565869591E+03  0.14151282293E+04  0.15958293781E+04  0.46999998093E+01 0. -1.
</event>
<event>
 5   0  0.1126958E-04  0.1685425E+04  0.7818609E-02  0.8769721E-01
       -1   -1    0    0    0  501  0.00000000000E+00  0.00000000000E+00  0.85392471430E+03  0.85392471431E+03  0.50400001928E-02 0. -1.
        1   -1    0    0  501    0  0.00000000000E+00  0.00000000000E+00 -0.83164783298E+03  0.83164783300E+03  0.50400001928E-02 0.  1.
    10030    2    1    2    0    0  0.00000000000E+00  0.00000000000E+00  0.22276881316E+02  0.16855725473E+04  0.16854253329E+04 0.  0.
        4    1    3    3  502    0  0.64044116055E+02  0.70543330588E+03  0.46771443551E+03  0.84882047804E+03  0.12699999809E+01 0. -1.
       -4    1    3    3    0  502 -0.64044116055E+02 -0.70543330588E+03 -0.44543755420E+03  0.83675206928E+03  0.12699999809E+01 0.  1.
</event>
<event>
 5   0  0.2242967E-04  0.1707476E+04  0.7818609E-02  0.8757112E-01
        2   -1    0    0  501    0  0.00000000000E+00  0.00000000000E+00  0.15384689487E+04  0.15384689487E+04  0.25500000920E-02 0. -1.
       -2   -1    0    0    0  501  0.00000000000E+00  0.00000000000E+00 -0.47376240452E+03  0.47376240453E+03  0.25500000920E-02 0.  1.
    10030    2    1    2    0    0  0.00000000000E+00  0.00000000000E+00  0.10647065442E+04  0.20122313532E+04  0.17074762059E+04 0.  0.
        4    1    3    3  502    0 -0.44998361295E+01  0.82775835429E+03  0.77860540838E+03  0.11364119572E+04  0.12699999809E+01 0. -1.
       -4    1    3    3    0  502  0.44998361295E+01 -0.82775835429E+03  0.28610113578E+03  0.87581939601E+03  0.12699999809E+01 0.  1.
</event>
<event>
 5   0  0.2224454E-04  0.1717789E+04  0.7818609E-02  0.8751283E-01
        2   -1    0    0  501    0  0.00000000000E+00  0.00000000000E+00  0.10635942920E+04  0.10635942920E+04  0.25500000920E-02 0. -1.
       -2   -1    0    0    0  501  0.00000000000E+00  0.00000000000E+00 -0.69359091890E+03  0.69359091890E+03  0.25500000920E-02 0.  1.
    10030    2    1    2    0    0  0.00000000000E+00  0.00000000000E+00  0.37000337306E+03  0.17571852109E+04  0.17177885112E+04 0.  0.
        2    1    3    3  502    0 -0.37258672408E+03  0.99370528970E+02 -0.60006573922E+03  0.71328413720E+03  0.25500000920E-02 0.  1.
       -2    1    3    3    0  502  0.37258672408E+03 -0.99370528970E+02  0.97006911228E+03  0.10439010737E+04  0.25500000920E-02 0. -1.
</event>
<event>
 5   0  0.1204741E-04  0.1703332E+04  0.7818609E-02  0.8759466E-01
        1   -1    0    0  501    0  0.00000000000E+00  0.00000000000E+00  0.12070199910E+04  0.12070199910E+04  0.50400001928E-02 0. -1.
       -1   -1    0    0    0  501  0.00000000000E+00  0.00000000000E+00 -0.60093050362E+03  0.60093050364E+03  0.50400001928E-02 0.  1.
    10030    2    1    2    0    0  0.00000000000E+00  0.00000000000E+00  0.60608948738E+03  0.18079504947E+04  0.17033321826E+04 0.  0.
        1    1    3    3  502    0  0.50394978625E+03 -0.32672461678E+03 -0.33788124741E+03  0.68911399612E+03  0.50400001928E-02 0.  1.
       -1    1    3    3    0  502 -0.50394978625E+03  0.32672461678E+03  0.94397073480E+03  0.11188364985E+04  0.50400001928E-02 0. -1.
</event>
<event>
 5   0  0.2224454E-04  0.1674188E+04  0.7818609E-02  0.8776224E-01
        2   -1    0    0  501    0  0.00000000000E+00  0.00000000000E+00  0.21913518653E+04  0.21913518653E+04  0.25500000920E-02 0. -1.
       -2   -1    0    0    0  501  0.00000000000E+00  0.00000000000E+00 -0.31976909989E+03  0.31976909990E+03  0.25500000920E-02 0.  1.
    10030    2    1    2    0    0  0.00000000000E+00  0.00000000000E+00  0.18715827654E+04  0.25111209652E+04  0.16741882971E+04 0.  0.
        2    1    3    3  502    0  0.47485379552E+03 -0.31422609395E+03  0.18561291293E+04  0.19415044450E+04  0.25500000920E-02 0. -1.
       -2    1    3    3    0  502 -0.47485379552E+03  0.31422609395E+03  0.15453636118E+02  0.56961652023E+03  0.25500000920E-02 0.  1.
</event>
<event>
 5   0  0.1215233E-04  0.1701911E+04  0.7818609E-02  0.8760275E-01
        1   -1    0    0  501    0  0.00000000000E+00  0.00000000000E+00  0.19454677600E+04  0.19454677600E+04  0.50400001928E-02 0. -1.
       -1   -1    0    0    0  501  0.00000000000E+00  0.00000000000E+00 -0.37221127839E+03  0.37221127842E+03  0.50400001928E-02 0.  1.
    10030    2    1    2    0    0  0.00000000000E+00  0.00000000000E+00  0.15732564816E+04  0.23176790384E+04  0.17019107404E+04 0.  0.
        2    1    3    3  502    0  0.75926817254E+03 -0.11077151945E+03  0.12876680135E+04  0.14989487650E+04  0.25500000920E-02 0. -1.
       -2    1    3    3    0  502 -0.75926817254E+03  0.11077151945E+03  0.28558846813E+03  0.81873027335E+03  0.25500000920E-02 0.  1.
</event>
<event>
 5   0  0.1126958E-04  0.1734559E+04  0.7818609E-02  0.8741896E-01
       -1   -1    0    0    0  501  0.00000000000E+00  0.00000000000E+00  0.46627877700E+03  0.46627877702E+03  0.50400001928E-02 0. -1.
        1   -1    0    0  501    0  0.00000000000E+00  0.00000000000E+00 -0.16131423167E+04  0.16131423167E+04  0.50400001928E-02 0.  1.
    10030    2    1    2    0    0  0.00000000000E+00  0.00000000000E+00 -0.11468635397E+04  0.20794210937E+04  0.17345593407E+04 0.  0.
        4    1    3    3  502    0 -0.40839612235E+03 -0.28039585471E+03  0.27997446599E+03  0.56903123165E+03  0.12699999809E+01 0. -1.
       -4    1    3    3    0  502  0.40839612235E+03  0.28039585471E+03 -0.14268380056E+04  0.15103898620E+04  0.12699999809E+01 0.  1.
</event>
<event>
 5   0  0.2234723E-04  0.1701097E+04  0.7818609E-02  0.8760739E-01
        2   -1    0    0  501    0  0.00000000000E+00  0.00000000000E+00  0.15450274728E+04  0.15450274728E+04  0.25500000920E-02 0. -1.
       -2   -1    0    0    0  501  0.00000000000E+00  0.00000000000E+00 -0.46823272463E+03  0.46823272463E+03  0.25500000920E-02 0.  1.
    10030    2    1    2    0    0  0.00000000000E+00  0.00000000000E+00  0.10767947482E+04  0.20132601974E+04  0.17010966148E+04 0.  0.
        1    1    3    3  502    0  0.81112189435E+03 -0.63770452451E+02  0.83177119565E+03  0.11635414561E+04  0.50400001928E-02 0.  1.
       -1    1    3    3    0  502 -0.81112189435E+03  0.63770452451E+02  0.24502355253E+03  0.84971874136E+03  0.50400001928E-02 0. -1.
</event>
<event>
 5   0  0.2224454E-04  0.1703814E+04  0.7818609E-02  0.8759192E-01
       -2   -1    0    0    0  501  0.00000000000E+00  0.00000000000E+00  0.44913514501E+03  0.44913514502E+03  0.25500000920E-02 0.  1.
        2   -1    0    0  501    0  0.00000000000E+00  0.00000000000E+00 -0.16158733997E+04  0.16158733997E+04  0.25500000920E-02 0. -1.
    10030    2    1    2    0    0  0.00000000000E+00  0.00000000000E+00 -0.11667382547E+04  0.20650085447E+04  0.17038139965E+04 0.  0.
        2    1    3    3  502    0 -0.19984090585E+03  0.39692620626E+03 -0.14642618337E+04  0.15302122462E+04  0.25500000920E-02 0. -1.
       -2    1    3    3    0  502  0.19984090585E+03 -0.39692620626E+03  0.29752357898E+03  0.53479629853E+03  0.25500000920E-02 0.  1.
</event>
<event>
 5   0  0.1204741E-04  0.1698694E+04  0.7818609E-02  0.8762110E-01
       -1   -1    0    0    0  501  0.00000000000E+00  0.00000000000E+00  0.14072085979E+04  0.14072085979E+04  0.50400001928E-02 0. -1.
        1   -1    0    0  501    0  0.00000000000E+00  0.00000000000E+00 -0.51263906507E+03  0.51263906509E+03  0.50400001928E-02 0.  1.
    10030    2    1    2    0    0  0.00000000000E+00  0.00000000000E+00  0.89456953284E+03  0.19198476630E+04  0.16986937334E+04 0.  0.
        1    1    3    3  502    0  0.24465526632E+02 -0.37230000197E+03  0.13096314740E+04  0.13617416977E+04  0.50400001928E-02 0. -1.
       -1    1    3    3    0  502 -0.24465526632E+02  0.37230000197E+03 -0.41506194119E+03  0.55810596530E+03  0.50400001928E-02 0.  1.
</event>
<event>
 5   0  0.1215233E-04  0.1692808E+04  0.7818609E-02  0.8765477E-01
        1   -1    0    0  501    0  0.00000000000E+00  0.00000000000E+00  0.19981347034E+04  0.19981347034E+04  0.50400001928E-02 0.  1.
       -1   -1    0    0    0  501  0.00000000000E+00  0.00000000000E+00 -0.35853441499E+03  0.35853441503E+03  0.50400001928E-02 0. -1.
    10030    2    1    2    0    0  0.00000000000E+00  0.00000000000E+00  0.16396002884E+04  0.23566691184E+04  0.16928083849E+04 0.  0.
        2    1    3    3  502    0  0.65781492509E+03  0.53058365634E+03  0.88451060189E+03  0.12233554254E+04  0.25500000920E-02 0. -1.
       -2    1    3    3    0  502 -0.65781492509E+03 -0.53058365634E+03  0.75508968647E+03  0.11333136930E+04  0.25500000920E-02 0.  1.
</event>
<event>
 5   0  0.2234723E-04  0.1693715E+04  0.7818609E-02  0.8764957E-01
       -2   -1    0    0    0  501  0.00000000000E+00  0.00000000000E+00  0.39915048646E+03  0.39915048647E+03  0.25500000920E-02 0. -1.
        2   -1    0    0  501    0  0.00000000000E+00  0.00000000000E+00 -0.17967351801E+04  0.17967351801E+04  0.25500000920E-02 0.  1.
    10030    2    1    2    0    0  0.00000000000E+00  0.00000000000E+00 -0.13975846937E+04  0.21958856666E+04  0.16937151132E+04 0.  0.
        1    1    3    3  502    0  0.31159262502E+03  0.25899242002E+03  0.26533010198E+03  0.48432127832E+03  0.50400001928E-02 0. -1.
       -1    1    3    3    0  502 -0.31159262502E+03 -0.25899242002E+03 -0.16629147956E+04  0.17115643883E+04  0.50400001928E-02 0.  1.
</event>
<event>
 5   0  0.1215233E-04  0.1721656E+04  0.7818609E-02  0.8749108E-01
       -1   -1    0    0    0  501  0.00000000000E+00  0.00000000000E+00  0.74515705473E+03  0.74515705474E+03  0.50400001928E-02 0. -1.
        1   -1    0    0  501    0  0.00000000000E+00  0.00000000000E+00 -0.99445507455E+03  0.99445507457E+03  0.50400001928E-02 0.  1.
    10030    2    1    2    0    0  0.00000000000E+00  0.00000000000E+00 -0.24929801983E+03  0.17396121293E+04  0.17216564285E+04 0.  0.
        2    1    3    3  502    0  0.37374066038E+03  0.72886662513E+03  0.14286981050E+03  0.83146883357E+03  0.25500000920E-02 0. -1.
       -2    1    3    3    0  502 -0.37374066038E+03 -0.72886662513E+03 -0.39216783033E+03  0.90814329574E+03  0.25500000920E-02 0.  1.
</event>
<event>
 5   0  0.1186302E-04  0.1703554E+04  0.7818609E-02  0.8759340E-01
       -1   -1    0    0    0  501  0.00000000000E+00  0.00000000000E+00  0.29525229404E+03  0.29525229409E+03  0.50400001928E-02 0.  1.
        1   -1    0    0  501    0  0.00000000000E+00  0.00000000000E+00 -0.24573006105E+04  0.24573006105E+04  0.50400001928E-02 0. -1.
    10030    2    1    2    0    0  0.00000000000E+00  0.00000000000E+00 -0.21620483165E+04  0.27525529046E+04  0.17035535125E+04 0.  0.
        3    1    3    3  502    0 -0.83763800838E+03 -0.13174853618E+02 -0.83221309462E+03  0.11808427732E+04  0.10100000352E+00 0. -1.
       -3    1    3    3    0  502  0.83763800838E+03  0.13174853618E+02 -0.13298352218E+04  0.15717101314E+04  0.10100000352E+00 0.  1.
</event>
<event>
 5   0  0.2242967E-04  0.1709858E+04  0.7818609E-02  0.8755762E-01
        2   -1    0    0  501    0  0.00000000000E+00  0.00000000000E+00  0.10239789399E+04  0.10239789399E+04  0.25500000920E-02 0.  1.
       -2   -1    0    0    0  501  0.00000000000E+00  0.00000000000E+00 -0.71378807594E+03  0.71378807594E+03  0.25500000920E-02 0. -1.
    10030    2    1    2    0    0  0.00000000000E+00  0.00000000000E+00  0.31019086398E+03  0.17377670159E+04  0.17098584238E+04 0.  0.
        4    1    3    3  502    0  0.15449199112E+03 -0.83642191659E+03  0.24271717789E+03  0.88452396192E+03  0.12699999809E+01 0. -1.
       -4    1    3    3    0  502 -0.15449199112E+03  0.83642191659E+03  0.67473686084E+02  0.85324305393E+03  0.12699999809E+01 0.  1.
</event>
<event>
 5   0  0.2242967E-04  0.1692455E+04  0.7818609E-02  0.8765679E-01
        2   -1    0    0  501    0  0.00000000000E+00  0.00000000000E+00  0.64724204519E+03  0.64724204519E+03  0.25500000920E-02 0. -1.
       -2   -1    0    0    0  501  0.00000000000E+00  0.00000000000E+00 -0.11063888487E+04  0.11063888487E+04  0.25500000920E-02 0.  1.
    10030    2    1    2    0    0  0.00000000000E+00  0.00000000000E+00 -0.45914680347E+03  0.17536308939E+04  0.16924554720E+04 0.  0.
        4    1    3    3  502    0  0.27202350846E+02  0.54437657185E+03 -0.90028401196E+03  0.10524251683E+04  0.12699999809E+01 0.  1.
       -4    1    3    3    0  502 -0.27202350846E+02 -0.54437657185E+03  0.44113720849E+03  0.70120572551E+03  0.12699999809E+01 0. -1.
</event>
<event>
 5   0  0.2242967E-04  0.1701642E+04  0.7818609E-02  0.8760428E-01
       -2   -1    0    0    0  501  0.00000000000E+00  0.00000000000E+00  0.46286892896E+03  0.46286892897E+03  0.25500000920E-02 0. -1.
        2   -1    0    0  501    0  0.00000000000E+00  0.00000000000E+00 -0.15639338519E+04  0.15639338519E+04  0.25500000920E-02 0.  1.
    10030    2    1    2    0    0  0.00000000000E+00  0.00000000000E+00 -0.11010649230E+04  0.20268027809E+04  0.17016420153E+04 0.  0.
        4    1    3    3  502    0 -0.10253129435E+03  0.15876668489E+03  0.43754914586E+03  0.47662395501E+03  0.12699999809E+01 0. -1.
       -4    1    3    3    0  502  0.10253129435E+03 -0.15876668489E+03 -0.15386140688E+04  0.15501788259E+04  0.12699999809E+01 0.  1.
</event>
<event>
 5   0  0.2288806E-04  0.1685401E+04  0.7818609E-02  0.8769735E-01
       -2   -1    0    0    0  501  0.00000000000E+00  0.00000000000E+00  0.35506023408E+03  0.35506023409E+03  0.25500000920E-02 0. -1.
        2   -1    0    0  501    0  0.00000000000E+00  0.00000000000E+00 -0.20000672690E+04  0.20000672690E+04  0.25500000920E-02 0.  1.
    10030    2    1    2    0    0  0.00000000000E+00  0.00000000000E+00 -0.16450070350E+04  0.23551275031E+04  0.16854012611E+04 0.  0.
        3    1    3    3  502    0 -0.40809187886E+03 -0.71628107902E+03 -0.57827644408E+03  0.10069762766E+04  0.10100000352E+00 0. -1.
       -3    1    3    3    0  502  0.40809187886E+03  0.71628107902E+03 -0.10667305909E+04  0.13481512265E+04  0.10100000352E+00 0.  1.
</event>
<event>
 5   0  0.1204741E-04  0.1706991E+04  0.7818609E-02  0.8757387E-01
        1   -1    0    0  501    0  0.00000000000E+00  0.00000000000E+00  0.10887510789E+04  0.10887510790E+04  0.50400001928E-02 0. -1.
       -1   -1    0    0    0  501  0.00000000000E+00  0.00000000000E+00 -0.66907386658E+03  0.66907386660E+03  0.50400001928E-02 0.  1.
    10030    2    1    2    0    0  0.00000000000E+00  0.00000000000E+00  0.41967721236E+03  0.17578249456E+04  0.17069913815E+04 0.  0.
        1    1    3    3  502    0 -0.29138677726E+03  0.51063755024E+03 -0.42729290754E+03  0.72679859007E+03  0.50400001928E-02 0.  1.
       -1    1    3    3    0  502  0.29138677726E+03 -0.51063755024E+03  0.84697011990E+03  0.10310263555E+04  0.50400001928E-02 0. -1.
</event>
<event>
 5   0  0.2224454E-04  0.1695216E+04  0.7818609E-02  0.8764097E-01
        2   -1    0    0  501    0  0.00000000000E+00  0.00000000000E+00  0.83808428754E+03  0.83808428754E+03  0.25500000920E-02 0.  1.
       -2   -1    0    0    0  501  0.00000000000E+00  0.00000000000E+00 -0.85724015078E+03  0.85724015078E+03  0.25500000920E-02 0. -1.
    10030    2    1    2    0    0  0.00000000000E+00  0.00000000000E+00 -0.19155863242E+02  0.16953244383E+04  0.16952162116E+04 0.  0.
        2    1    3    3  502    0 -0.63796868040E+03 -0.94272842787E+02 -0.55965676870E+03  0.85387768727E+03  0.25500000920E-02 0. -1.
       -2    1    3    3    0  502  0.63796868040E+03  0.94272842787E+02  0.54050090546E+03  0.84144675106E+03  0.25500000920E-02 0.  1.
</event>
<event>
 5   0  0.2234723E-04  0.1688633E+04  0.7818609E-02  0.8767874E-01
       -2   -1    0    0    0  501  0.00000000000E+00  0.00000000000E+00  0.47763233370E+03  0.47763233371E+03  0.25500000920E-02 0. -1.
        2   -1    0    0  501    0  0.00000000000E+00  0.00000000000E+00 -0.14925093261E+04  0.14925093261E+04  0.25500000920E-02 0.  1.
    10030    2    1    2    0    0  0.00000000000E+00  0.00000000000E+00 -0.10148769924E+04  0.19701416598E+04  0.16886334268E+04 0.  0.
        1    1    3    3  502    0  0.21747269185E+03 -0.59856421302E+03  0.13931888051E+03  0.65190738553E+03  0.50400001928E-02 0. -1.
       -1    1    3    3    0  502 -0.21747269185E+03  0.59856421302E+03 -0.11541958729E+04  0.13182342743E+04  0.50400001928E-02 0.  1.
</event>
<event>
 5   0  0.1215233E-04  0.1686720E+04  0.7818609E-02  0.8768975E-01
        1   -1    0    0  501    0  0.00000000000E+00  0.00000000000E+00  0.13143454403E+04  0.13143454403E+04  0.50400001928E-02 0. -1.
       -1   -1    0    0    0  501  0.00000000000E+00  0.00000000000E+00 -0.54114821401E+03  0.54114821404E+03  0.50400001928E-02 0.  1.
    10030    2    1    2    0    0  0.00000000000E+00  0.00000000000E+00  0.77319722628E+03  0.18554936543E+04  0.16867195234E+04 0.  0.
        2    1    3    3  502    0  0.39113503162E+02  0.14976606102E+03  0.12985852894E+04  0.13077780748E+04  0.25500000920E-02 0. -1.
       -2    1    3    3    0  502 -0.39113503162E+02 -0.14976606102E+03 -0.52538806312E+03  0.54771557951E+03  0.25500000920E-02 0.  1.
</event>
<event>
 5   0  0.1215233E-04  0.1705050E+04  0.7818609E-02  0.8758489E-01
       -1   -1    0    0    0  501  0.00000000000E+00  0.00000000000E+00  0.10041788591E+04  0.10041788591E+04  0.50400001928E-02 0. -1.
        1   -1    0    0  501    0  0.00000000000E+00  0.00000000000E+00 -0.72377426102E+03  0.72377426103E+03  0.50400001928E-02 0.  1.
    10030    2    1    2    0    0  0.00000000000E+00  0.00000000000E+00  0.28040459808E+03  0.17279531201E+04  0.17050499250E+04 0.  0.
        2    1    3    3  502    0 -0.72202578330E+03  0.26546996686E+03  0.51256571904E+03  0.92440205073E+03  0.25500000920E-02 0.  1.
       -2    1    3    3    0  502  0.72202578330E+03 -0.26546996686E+03 -0.23216112096E+03  0.80355106941E+03  0.25500000920E-02 0. -1.
</event>
<event>
 5   0  0.2242967E-04  0.1759697E+04  0.7818609E-02  0.8728031E-01
        2   -1    0    0  501    0  0.00000000000E+00  0.00000000000E+00  0.10691822105E+04  0.10691822105E+04  0.25500000920E-02 0. -1.
       -2   -1    0    0    0  501  0.00000000000E+00  0.00000000000E+00 -0.72404252404E+03  0.72404252405E+03  0.25500000920E-02 0.  1.
    10030    2    1    2    0    0  0.00000000000E+00  0.00000000000E+00  0.34513968642E+03  0.17932247345E+04  0.17596970038E+04 0.  0.
        4    1    3    3  502    0 -0.37165710296E+03  0.70741808829E+03  0.54777299849E+03  0.96882724187E+03  0.12699999809E+01 0. -1.
       -4    1    3    3    0  502  0.37165710296E+03 -0.70741808829E+03 -0.20263331206E+03  0.82439749265E+03  0.12699999809E+01 0.  1.
</event>
<event>
 5   0  0.2242967E-04  0.1689707E+04  0.7818609E-02  0.8767257E-01
        2   -1    0    0  501    0  0.00000000000E+00  0.00000000000E+00  0.79823707303E+03  0.79823707303E+03  0.25500000920E-02 0. -1.
       -2   -1    0    0    0  501  0.00000000000E+00  0.00000000000E+00 -0.89419258322E+03  0.89419258322E+03  0.25500000920E-02 0.  1.
    10030    2    1    2    0    0  0.00000000000E+00  0.00000000000E+00 -0.95955510194E+02  0.16924296563E+04  0.16897072768E+04 0.  0.
        4    1    3    3  502    0 -0.44285978135E+03 -0.51960619631E+03 -0.54643472852E+03  0.87447579189E+03  0.12699999809E+01 0.  1.
       -4    1    3    3    0  502  0.44285978135E+03  0.51960619631E+03  0.45047921833E+03  0.81795386436E+03  0.12699999809E+01 0. -1.
</event>
<event>
 5   0  0.2242967E-04  0.1706836E+04  0.7818609E-02  0.8757475E-01
       -2   -1    0    0    0  501  0.00000000000E+00  0.00000000000E+00  0.42168805361E+03  0.42168805362E+03  0.25500000920E-02 0.  1.
        2   -1    0    0  501    0  0.00000000000E+00  0.00000000000E+00 -0.17271580653E+04  0.17271580653E+04  0.25500000920E-02 0. -1.
    10030    2    1    2    0    0  0.00000000000E+00  0.00000000000E+00 -0.13054700117E+04  0.21488461189E+04  0.17068355783E+04 0.  0.
        4    1    3    3  502    0 -0.50393991929E+02 -0.79258412336E+03 -0.10460304140E+04  0.13133584381E+04  0.12699999809E+01 0. -1.
       -4    1    3    3    0  502  0.50393991929E+02  0.79258412336E+03 -0.25943959767E+03  0.83548768080E+03  0.12699999809E+01 0.  1.
</event>
<event>
 5   0  0.1186302E-04  0.1697390E+04  0.7818609E-02  0.8762854E-01
        1   -1    0    0  501    0  0.00000000000E+00  0.00000000000E+00  0.10800939465E+04  0.10800939465E+04  0.50400001928E-02 0. -1.
       -1   -1    0    0    0  501  0.00000000000E+00  0.00000000000E+00 -0.66687075019E+03  0.66687075021E+03  0.50400001928E-02 0.  1.
    10030    2    1    2    0    0  0.00000000000E+00  0.00000000000E+00  0.41322319629E+03  0.17469646967E+04  0.16973898319E+04 0.  0.
        3    1    3    3  502    0 -0.14129432049E+03  0.75001942270E+03 -0.17543040700E+03  0.78311497070E+03  0.10100000352E+00 0.  1.
       -3    1    3    3    0  502  0.14129432049E+03 -0.75001942270E+03  0.58865360329E+03  0.96384972599E+03  0.10100000352E+00 0. -1.
</event>
<event>
 5   0  0.1234158E-04  0.1698707E+04  0.7818609E-02  0.8762102E-01
       -1   -1    0    0    0  501  0.00000000000E+00  0.00000000000E+00  0.10852223764E+04  0.10852223764E+04  0.50400001928E-02 0. -1.
        1   -1    0    0  501    0  0.00000000000E+00  0.00000000000E+00 -0.66474986587E+03  0.66474986589E+03  0.50400001928E-02 0.  1.
    10030    2    1    2    0    0  0.00000000000E+00  0.00000000000E+00  0.42047251050E+03  0.17499722423E+04  0.16987070720E+04 0.  0.
        5    1    3    3  502    0  0.15014321878E+03  0.73596811066E+03 -0.19819726988E+03  0.77685023901E+03  0.46999998093E+01 0.  1.
       -5    1    3    3    0  502 -0.15014321878E+03 -0.73596811066E+03  0.61866978038E+03  0.97312200325E+03  0.46999998093E+01 0. -1.
</event>
<event>
 5   0  0.2224454E-04  0.1718247E+04  0.7818609E-02  0.8751025E-01
       -2   -1    0    0    0  501  0.00000000000E+00  0.00000000000E+00  0.50083285612E+03  0.50083285612E+03  0.25500000920E-02 0. -1.
        2   -1    0    0  501    0  0.00000000000E+00  0.00000000000E+00 -0.14737316995E+04  0.14737316995E+04  0.25500000920E-02 0.  1.
    10030    2    1    2    0    0  0.00000000000E+00  0.00000000000E+00 -0.97289884337E+03  0.19745645556E+04  0.17182470791E+04 0.  0.
        2    1    3    3  502    0 -0.27654213059E+03 -0.18664982501E+03 -0.13962435538E+04  0.14355520780E+04  0.25500000920E-02 0.  1.
       -2    1    3    3    0  502  0.27654213059E+03  0.18664982501E+03  0.42334471042E+03  0.53901247761E+03  0.25500000920E-02 0. -1.
</event>
<event>
 5   0  0.1215233E-04  0.1649824E+04  0.7818609E-02  0.8790510E-01
       -1   -1    0    0    0  501  0.00000000000E+00  0.00000000000E+00  0.96150903011E+03  0.96150903012E+03  0.50400001928E-02 0. -1.
        1   -1    0    0  501    0  0.00000000000E+00  0.00000000000E+00 -0.70772103628E+03  0.70772103630E+03  0.50400001928E-02 0.  1.
    10030    2    1    2    0    0  0.00000000000E+00  0.00000000000E+00  0.25378799383E+03  0.16692300664E+04  0.16498244358E+04 0.  0.
        2    1    3    3  502    0 -0.74684310828E+03  0.31667414240E+03 -0.24610519876E+02  0.81158044490E+03  0.25500000920E-02 0. -1.
       -2    1    3    3    0  502  0.74684310828E+03 -0.31667414240E+03  0.27839851370E+03  0.85764962152E+03  0.25500000920E-02 0.  1.
</event>
<event>
 5   0  0.1215233E-04  0.1682083E+04  0.7818609E-02  0.8771649E-01
       -1   -1    0    0    0  501  0.00000000000E+00  0.00000000000E+00  0.59547467952E+03  0.59547467954E+03  0.50400001928E-02 0. -1.
        1   -1    0    0  501    0  0.00000000000E+00  0.00000000000E+00 -0.11878776945E+04  0.11878776945E+04  0.50400001928E-02 0.  1.
    10030    2    1    2    0    0  0.00000000000E+00  0.00000000000E+00 -0.59240301500E+03  0.17833523741E+04  0.16820833386E+04 0.  0.
        2    1    3    3  502    0 -0.36422938634E+03 -0.74926497679E+03 -0.41842445960E+03  0.93227682569E+03  0.25500000920E-02 0. -1.
       -2    1    3    3    0  502  0.36422938634E+03  0.74926497679E+03 -0.17397855540E+03  0.85107554839E+03  0.25500000920E-02 0.  1.
</event>
<event>
 5   0  0.1204741E-04  0.1704142E+04  0.7818609E-02  0.8759005E-01
       -1   -1    0    0    0  501  0.00000000000E+00  0.00000000000E+00  0.58028758672E+03  0.58028758675E+03  0.50400001928E-02 0.  1.
        1   -1    0    0  501    0  0.00000000000E+00  0.00000000000E+00 -0.12511471208E+04  0.12511471208E+04  0.50400001928E-02 0. -1.
    10030    2    1    2    0    0  0.00000000000E+00  0.00000000000E+00 -0.67085953405E+03  0.18314347075E+04  0.17041421811E+04 0.  0.
        1    1    3    3  502    0 -0.42450210502E+03 -0.56735377293E+03 -0.84399242896E+03  0.11020052454E+04  0.50400001928E-02 0. -1.
       -1    1    3    3    0  502  0.42450210502E+03  0.56735377293E+03  0.17313289491E+03  0.72942946208E+03  0.50400001928E-02 0.  1.
</event>
<event>
 5   0  0.2224454E-04  0.1689783E+04  0.7818609E-02  0.8767213E-01
       -2   -1    0    0    0  501  0.00000000000E+00  0.00000000000E+00  0.10982033306E+04  0.10982033306E+04  0.25500000920E-02 0.  1.
        2   -1    0    0  501    0  0.00000000000E+00  0.00000000000E+00 -0.65000881756E+03  0.65000881756E+03  0.25500000920E-02 0. -1.
    10030    2    1    2    0    0  0.00000000000E+00  0.00000000000E+00  0.44819451301E+03  0.17482121481E+04  0.16897832386E+04 0.  0.
        2    1    3    3  502    0 -0.56504769823E+03  0.54464552749E+03 -0.99651526169E+02  0.79110560519E+03  0.25500000920E-02 0. -1.
       -2    1    3    3    0  502  0.56504769823E+03 -0.54464552749E+03  0.54784603918E+03  0.95710654294E+03  0.25500000920E-02 0.  1.
</event>
<event>
 5   0  0.2242967E-04  0.1716117E+04  0.7818609E-02  0.8752225E-01
        2   -1    0    0  501    0  0.00000000000E+00  0.00000000000E+00  0.11503895320E+04  0.11503895320E+04  0.25500000920E-02 0. -1.
       -2   -1    0    0    0  501  0.00000000000E+00  0.00000000000E+00 -0.64001297214E+03  0.64001297215E+03  0.25500000920E-02 0.  1.
    10030    2    1    2    0    0  0.00000000000E+00  0.00000000000E+00  0.51037655987E+03  0.17904025042E+04  0.17161168066E+04 0.  0.
        4    1    3    3  502    0 -0.46963662025E+03  0.58616837087E+03  0.68800872086E+03  0.10185821160E+04  0.12699999809E+01 0. -1.
       -4    1    3    3    0  502  0.46963662025E+03 -0.58616837087E+03 -0.17763216100E+03  0.77182038818E+03  0.12699999809E+01 0.  1.
</event>
<event>
 5   0  0.1204741E-04  0.1784748E+04  0.7818609E-02  0.8714453E-01
       -1   -1    0    0    0  501  0.00000000000E+00  0.00000000000E+00  0.52385163251E+03  0.52385163254E+03  0.50400001928E-02 0. -1.
        1   -1    0    0  501    0  0.00000000000E+00  0.00000000000E+00 -0.15201465840E+04  0.15201465840E+04  0.50400001928E-02 0.  1.
    10030    2    1    2    0    0  0.00000000000E+00  0.00000000000E+00 -0.99629495146E+03  0.20439982165E+04  0.17847479034E+04 0.  0.
        1    1    3    3  502    0 -0.32259938698E+03  0.56783576965E+03  0.19832001795E+03  0.68252373974E+03  0.50400001928E-02 0. -1.
       -1    1    3    3    0  502  0.32259938698E+03 -0.56783576965E+03 -0.11946149694E+04  0.13614744768E+04  0.50400001928E-02 0.  1.
</event>
<event>
 5   0  0.2234723E-04  0.1704139E+04  0.7818609E-02  0.8759007E-01
        2   -1    0    0  501    0  0.00000000000E+00  0.00000000000E+00  0.13663356758E+04  0.13663356758E+04  0.25500000920E-02 0.  1.
       -2   -1    0    0    0  501  0.00000000000E+00  0.00000000000E+00 -0.53136436627E+03  0.53136436628E+03  0.25500000920E-02 0. -1.
    10030    2    1    2    0    0  0.00000000000E+00  0.00000000000E+00  0.83497130952E+03  0.18977000421E+04  0.17041385982E+04 0.  0.
        1    1    3    3  502    0 -0.51815787296E+03  0.41274724874E+03  0.10142397080E+04  0.12114165501E+04  0.50400001928E-02 0.  1.
       -1    1    3    3    0  502  0.51815787296E+03 -0.41274724874E+03 -0.17926839844E+03  0.68628349197E+03  0.50400001928E-02 0. -1.
</event>
<event>
 5   0  0.1215233E-04  0.1704953E+04  0.7818609E-02  0.8758545E-01
        1   -1    0    0  501    0  0.00000000000E+00  0.00000000000E+00  0.14339552165E+04  0.14339552165E+04  0.50400001928E-02 0.  1.
       -1   -1    0    0    0  501  0.00000000000E+00  0.00000000000E+00 -0.50679130786E+03  0.50679130788E+03  0.50400001928E-02 0. -1.
    10030    2    1    2    0    0  0.00000000000E+00  0.00000000000E+00  0.92716390861E+03  0.19407465244E+04  0.17049528317E+04 0.  0.
        2    1    3    3  502    0 -0.39846506988E+02 -0.46293496479E+03 -0.34997917077E+03  0.58170606471E+03  0.25500000920E-02 0. -1.
       -2    1    3    3    0  502  0.39846506988E+02  0.46293496479E+03  0.12771430794E+04  0.13590404596E+04  0.25500000920E-02 0.  1.
</event>
<event>
 5   0  0.1204741E-04  0.1695994E+04  0.7818609E-02  0.8763652E-01
        1   -1    0    0  501    0  0.00000000000E+00  0.00000000000E+00  0.15804081984E+04  0.15804081984E+04  0.50400001928E-02 0.  1.
       -1   -1    0    0    0  501  0.00000000000E+00  0.00000000000E+00 -0.45500844250E+03  0.45500844253E+03  0.50400001928E-02 0. -1.
    10030    2    1    2    0    0  0.00000000000E+00  0.00000000000E+00  0.11253997559E+04  0.20354166409E+04  0.16959941897E+04 0.  0.
        1    1    3    3  502    0 -0.34093747497E+03 -0.26341564328E+03  0.14392669370E+04  0.15023699541E+04  0.50400001928E-02 0.  1.
       -1    1    3    3    0  502  0.34093747497E+03  0.26341564328E+03 -0.31386718110E+03  0.53304668685E+03  0.50400001928E-02 0. -1.
</event>
<event>
 5   0  0.1204741E-04  0.1702573E+04  0.7818609E-02  0.8759898E-01
       -1   -1    0    0    0  501  0.00000000000E+00  0.00000000000E+00  0.55696748926E+03  0.55696748929E+03  0.50400001928E-02 0. -1.
        1   -1    0    0  501    0  0.00000000000E+00  0.00000000000E+00 -0.13011327812E+04  0.13011327812E+04  0.50400001928E-02 0.  1.
    10030    2    1    2    0    0  0.00000000000E+00  0.00000000000E+00 -0.74416529193E+03  0.18581002705E+04  0.17025729451E+04 0.  0.
        1    1    3    3  502    0 -0.81687794263E+03  0.20558138982E+03 -0.23781850262E+03  0.87527762522E+03  0.50400001928E-02 0. -1.
       -1    1    3    3    0  502  0.81687794263E+03 -0.20558138982E+03 -0.50634678931E+03  0.98282264527E+03  0.50400001928E-02 0.  1.
</event>
<event>
 5   0  0.1204741E-04  0.1704923E+04  0.7818609E-02  0.8758562E-01
        1   -1    0    0  501    0  0.00000000000E+00  0.00000000000E+00  0.10510001813E+04  0.10510001813E+04  0.50400001928E-02 0.  1.
       -1   -1    0    0    0  501  0.00000000000E+00  0.00000000000E+00 -0.69142776532E+03  0.69142776534E+03  0.50400001928E-02 0. -1.
    10030    2    1    2    0    0  0.00000000000E+00  0.00000000000E+00  0.35957241598E+03  0.17424279466E+04  0.17049231147E+04 0.  0.
        1    1    3    3  502    0 -0.10438837105E+03  0.84539821550E+03  0.21361467878E+03  0.87819491333E+03  0.50400001928E-02 0. -1.
       -1    1    3    3    0  502  0.10438837105E+03 -0.84539821550E+03  0.14595773720E+03  0.86423303331E+03  0.50400001928E-02 0.  1.
</event>
<event>
 5   0  0.1204741E-04  0.1691106E+04  0.7818609E-02  0.8766453E-01
        1   -1    0    0  501    0  0.00000000000E+00  0.00000000000E+00  0.72354648931E+03  0.72354648932E+03  0.50400001928E-02 0. -1.
       -1   -1    0    0    0  501  0.00000000000E+00  0.00000000000E+00 -0.98813240818E+03  0.98813240820E+03  0.50400001928E-02 0.  1.
    10030    2    1    2    0    0  0.00000000000E+00  0.00000000000E+00 -0.26458591888E+03  0.17116788975E+04  0.16911058334E+04 0.  0.
        1    1    3    3  502    0  0.53871150927E+03 -0.12680591278E+03  0.51475703438E+03  0.75582050396E+03  0.50400001928E-02 0. -1.
       -1    1    3    3    0  502 -0.53871150927E+03  0.12680591278E+03 -0.77934295325E+03  0.95585839356E+03  0.50400001928E-02 0.  1.
</event>
<event>
 5   0  0.1215233E-04  0.1698176E+04  0.7818609E-02  0.8762405E-01
       -1   -1    0    0    0  501  0.00000000000E+00  0.00000000000E+00  0.10455918320E+04  0.10455918320E+04  0.50400001928E-02 0. -1.
        1   -1    0    0  501    0  0.00000000000E+00  0.00000000000E+00 -0.68951452211E+03  0.68951452213E+03  0.50400001928E-02 0.  1.
    10030    2    1    2    0    0  0.00000000000E+00  0.00000000000E+00  0.35607730987E+03  0.17351063541E+04  0.16981763776E+04 0.  0.
        2    1    3    3  502    0  0.13299225734E+03 -0.71584030520E+03 -0.26830975436E+03  0.77595386935E+03  0.25500000920E-02 0.  1.
       -2    1    3    3    0  502 -0.13299225734E+03  0.71584030520E+03  0.62438706423E+03  0.95915248477E+03  0.25500000920E-02 0. -1.
</event>
<event>
 5   0  0.1126958E-04  0.1658505E+04  0.7818609E-02  0.8785391E-01
        1   -1    0    0  501    0  0.00000000000E+00  0.00000000000E+00  0.58567380228E+03  0.58567380230E+03  0.50400001928E-02 0. -1.
       -1   -1    0    0    0  501  0.00000000000E+00  0.00000000000E+00 -0.11741344955E+04  0.11741344955E+04  0.50400001928E-02 0.  1.
    10030    2    1    2    0    0  0.00000000000E+00  0.00000000000E+00 -0.58846069319E+03  0.17598082978E+04  0.16585051274E+04 0.  0.
        4    1    3    3  502    0 -0.51682179688E+03  0.26776145584E+03  0.33248800149E+03  0.67033637153E+03  0.12699999809E+01 0. -1.
       -4    1    3    3    0  502  0.51682179688E+03 -0.26776145584E+03 -0.92094869468E+03  0.10894719263E+04  0.12699999809E+01 0.  1.
</event>
<event>
 5   0  0.2224454E-04  0.1703372E+04  0.7818609E-02  0.8759443E-01
        2   -1    0    0  501    0  0.00000000000E+00  0.00000000000E+00  0.15866325815E+04  0.15866325815E+04  0.25500000920E-02 0.  1.
       -2   -1    0    0    0  501  0.00000000000E+00  0.00000000000E+00 -0.45717528032E+03  0.45717528032E+03  0.25500000920E-02 0. -1.
    10030    2    1    2    0    0  0.00000000000E+00  0.00000000000E+00  0.11294573012E+04  0.20438078618E+04  0.17033721792E+04 0.  0.
        2    1    3    3  502    0  0.47789926556E+03 -0.10984863805E+02  0.14104901113E+04  0.14892920229E+04  0.25500000920E-02 0.  1.
       -2    1    3    3    0  502 -0.47789926556E+03  0.10984863805E+02 -0.28103281014E+03  0.55451583895E+03  0.25500000920E-02 0. -1.
</event>
<event>
 5   0  0.1215233E-04  0.1702290E+04  0.7818609E-02  0.8760060E-01
       -1   -1    0    0    0  501  0.00000000000E+00  0.00000000000E+00  0.18653436059E+04  0.18653436059E+04  0.50400001928E-02 0. -1.
        1   -1    0    0  501    0  0.00000000000E+00  0.00000000000E+00 -0.38837215155E+03  0.38837215158E+03  0.50400001928E-02 0.  1.
    10030    2    1    2    0    0  0.00000000000E+00  0.00000000000E+00  0.14769714544E+04  0.22537157575E+04  0.17022896459E+04 0.  0.
        2    1    3    3  502    0  0.58312393583E+03  0.78348555780E+02 -0.75786803587E+02  0.59322479747E+03  0.25500000920E-02 0.  1.
       -2    1    3    3    0  502 -0.58312393583E+03 -0.78348555780E+02  0.15527582580E+04  0.16604909600E+04  0.25500000920E-02 0. -1.
</event>
<event>
 5   0  0.1234158E-04  0.1673360E+04  0.7818609E-02  0.8776706E-01
        1   -1    0    0  501    0  0.00000000000E+00  0.00000000000E+00  0.32832368877E+03  0.32832368881E+03  0.50400001928E-02 0.  1.
       -1   -1    0    0    0  501  0.00000000000E+00  0.00000000000E+00 -0.21321435614E+04  0.21321435614E+04  0.50400001928E-02 0. -1.
    10030    2    1    2    0    0  0.00000000000E+00  0.00000000000E+00 -0.18038198727E+04  0.24604672502E+04  0.16733597810E+04 0.  0.
        5    1    3    3  502    0  0.10566103271E+03 -0.71932594644E+03 -0.15106828293E+04  0.16765377335E+04  0.46999998093E+01 0. -1.
       -5    1    3    3    0  502 -0.10566103271E+03  0.71932594644E+03 -0.29313704333E+03  0.78392951674E+03  0.46999998093E+01 0.  1.
</event>
<event>
 5   0  0.2234723E-04  0.1907384E+04  0.7818609E-02  0.8651189E-01
        2   -1    0    0  501    0  0.00000000000E+00  0.00000000000E+00  0.14664124611E+04  0.14664124611E+04  0.25500000920E-02 0. -1.
       -2   -1    0    0    0  501  0.00000000000E+00  0.00000000000E+00 -0.62024082367E+03  0.62024082368E+03  0.25500000920E-02 0.  1.
    10030    2    1    2    0    0  0.00000000000E+00  0.00000000000E+00  0.84617163740E+03  0.20866532848E+04  0.19073844633E+04 0.  0.
        1    1    3    3  502    0  0.24814793748E+02  0.23601875191E+02 -0.61956793041E+03  0.62051369277E+03  0.50400001928E-02 0.  1.
       -1    1    3    3    0  502 -0.24814793748E+02 -0.23601875191E+02  0.14657395678E+04  0.14661395920E+04  0.50400001928E-02 0. -1.
</event>
<event>
 5   0  0.2234723E-04  0.1846790E+04  0.7818609E-02  0.8681805E-01
       -2   -1    0    0    0  501  0.00000000000E+00  0.00000000000E+00  0.57983448278E+03  0.57983448278E+03  0.25500000920E-02 0.  1.
        2   -1    0    0  501    0  0.00000000000E+00  0.00000000000E+00 -0.14705209881E+04  0.14705209881E+04  0.25500000920E-02 0. -1.
    10030    2    1    2    0    0  0.00000000000E+00  0.00000000000E+00 -0.89068650530E+03  0.20503554709E+04  0.18467904879E+04 0.  0.
        1    1    3    3  502    0  0.27850016245E+03  0.68854977234E+03  0.16376101145E+03  0.76057925187E+03  0.50400001928E-02 0.  1.
       -1    1    3    3    0  502 -0.27850016245E+03 -0.68854977234E+03 -0.10544475167E+04  0.12897762190E+04  0.50400001928E-02 0. -1.
</event>
<event>
 5   0  0.2224454E-04  0.1699417E+04  0.7818609E-02  0.8761697E-01
       -2   -1    0    0    0  501  0.00000000000E+00  0.00000000000E+00  0.41868193154E+03  0.41868193155E+03  0.25500000920E-02 0.  1.
        2   -1    0    0  501    0  0.00000000000E+00  0.00000000000E+00 -0.17244696599E+04  0.17244696599E+04  0.25500000920E-02 0. -1.
    10030    2    1    2    0    0  0.00000000000E+00  0.00000000000E+00 -0.13057877284E+04  0.21431515915E+04  0.16994167095E+04 0.  0.
        2    1    3    3  502    0  0.62090977379E+03  0.45662101198E+03 -0.20175370267E+03  0.79670336533E+03  0.25500000920E-02 0.  1.
       -2    1    3    3    0  502 -0.62090977379E+03 -0.45662101198E+03 -0.11040340257E+04  0.13464482261E+04  0.25500000920E-02 0. -1.
</event>
<event>
 5   0  0.2356829E-04  0.1704756E+04  0.7818609E-02  0.8758656E-01
       -2   -1    0    0    0  501  0.00000000000E+00  0.00000000000E+00  0.95174855599E+03  0.95174855599E+03  0.25500000920E-02 0. -1.
        2   -1    0    0  501    0  0.00000000000E+00  0.00000000000E+00 -0.76338263415E+03  0.76338263416E+03  0.25500000920E-02 0.  1.
    10030    2    1    2    0    0  0.00000000000E+00  0.00000000000E+00  0.18836592183E+03  0.17151311901E+04  0.17047560761E+04 0.  0.
        5    1    3    3  502    0  0.74197187861E+03 -0.12211614979E+03 -0.30962191133E+03  0.81321733913E+03  0.46999998093E+01 0.  1.
       -5    1    3    3    0  502 -0.74197187861E+03  0.12211614979E+03  0.49798783317E+03  0.90191385102E+03  0.46999998093E+01 0. -1.
</event>
<event>
 5   0  0.1126958E-04  0.1708712E+04  0.7818609E-02  0.8756411E-01
        1   -1    0    0  501    0  0.00000000000E+00  0.00000000000E+00  0.78663447223E+03  0.78663447224E+03  0.50400001928E-02 0.  1.
       -1   -1    0    0    0  501  0.00000000000E+00  0.00000000000E+00 -0.92790799175E+03  0.92790799176E+03  0.50400001928E-02 0. -1.
    10030    2    1    2    0    0  0.00000000000E+00  0.00000000000E+00 -0.14127351952E+03  0.17145424640E+04  0.17087122793E+04 0.  0.
        4    1    3    3  502    0  0.11281512539E+02  0.67974598120E+03  0.44856563665E+03  0.81449040188E+03  0.12699999809E+01 0.  1.
       -4    1    3    3    0  502 -0.11281512539E+02 -0.67974598120E+03 -0.58983915617E+03  0.90005206212E+03  0.12699999809E+01 0. -1.
</event>
<event>
 5   0  0.2234723E-04  0.1694059E+04  0.7818609E-02  0.8764760E-01
       -2   -1    0    0    0  501  0.00000000000E+00  0.00000000000E+00  0.63902115261E+03  0.63902115261E+03  0.25500000920E-02 0. -1.
        2   -1    0    0  501    0  0.00000000000E+00  0.00000000000E+00 -0.11227473255E+04  0.11227473255E+04  0.25500000920E-02 0.  1.
    10030    2    1    2    0    0  0.00000000000E+00  0.00000000000E+00 -0.48372617289E+03  0.17617684781E+04  0.16940593733E+04 0.  0.
        1    1    3    3  502    0 -0.74333546969E+03 -0.17283971845E+03 -0.62402585035E+03  0.98581410555E+03  0.50400001928E-02 0. -1.
       -1    1    3    3    0  502  0.74333546969E+03  0.17283971845E+03  0.14029967746E+03  0.77595437256E+03  0.50400001928E-02 0.  1.
</event>
<event>
 5   0  0.1204741E-04  0.1698967E+04  0.7818609E-02  0.8761954E-01
        1   -1    0    0  501    0  0.00000000000E+00  0.00000000000E+00  0.77283631424E+03  0.77283631425E+03  0.50400001928E-02 0.  1.
       -1   -1    0    0    0  501  0.00000000000E+00  0.00000000000E+00 -0.93373265797E+03  0.93373265798E+03  0.50400001928E-02 0. -1.
    10030    2    1    2    0    0  0.00000000000E+00  0.00000000000E+00 -0.16089634373E+03  0.17065689722E+04  0.16989673403E+04 0.  0.
        1    1    3    3  502    0 -0.96155888003E+02 -0.14120880784E+03 -0.91629910172E+03  0.93208901187E+03  0.50400001928E-02 0. -1.
       -1    1    3    3    0  502  0.96155888003E+02  0.14120880784E+03  0.75540275799E+03  0.77447996037E+03  0.50400001928E-02 0.  1.
</event>
<event>
 5   0  0.1215233E-04  0.1708913E+04  0.7818609E-02  0.8756297E-01
       -1   -1    0    0    0  501  0.00000000000E+00  0.00000000000E+00  0.48622782866E+03  0.48622782868E+03  0.50400001928E-02 0.  1.
        1   -1    0    0  501    0  0.00000000000E+00  0.00000000000E+00 -0.15015504147E+04  0.15015504147E+04  0.50400001928E-02 0. -1.
    10030    2    1    2    0    0  0.00000000000E+00  0.00000000000E+00 -0.10153225860E+04  0.19877782434E+04  0.17089126341E+04 0.  0.
        2    1    3    3  502    0  0.20413840767E+03 -0.82742127748E+03 -0.57933770460E+03  0.10305001872E+04  0.25500000920E-02 0. -1.
       -2    1    3    3    0  502 -0.20413840767E+03  0.82742127748E+03 -0.43598488141E+03  0.95727805612E+03  0.25500000920E-02 0.  1.
</event>
<event>
 5   0  0.1204741E-04  0.1700077E+04  0.7818609E-02  0.8761321E-01
        1   -1    0    0  501    0  0.00000000000E+00  0.00000000000E+00  0.17514370271E+04  0.17514370271E+04  0.50400001928E-02 0. -1.
       -1   -1    0    0    0  501  0.00000000000E+00  0.00000000000E+00 -0.41255559631E+03  0.41255559634E+03  0.50400001928E-02 0.  1.
    10030    2    1    2    0    0  0.00000000000E+00  0.00000000000E+00  0.13388814308E+04  0.21639926234E+04  0.17000766420E+04 0.  0.
        1    1    3    3  502    0 -0.45117171873E+03  0.53569433071E+03  0.12825945706E+04  0.14613600406E+04  0.50400001928E-02 0. -1.
       -1    1    3    3    0  502  0.45117171873E+03 -0.53569433071E+03  0.56286860124E+02  0.70263258278E+03  0.50400001928E-02 0.  1.
</event>
<event>
 5   0  0.1234158E-04  0.1694322E+04  0.7818609E-02  0.8764609E-01
        1   -1    0    0  501    0  0.00000000000E+00  0.00000000000E+00  0.23378508710E+04  0.23378508710E+04  0.50400001928E-02 0.  1.
       -1   -1    0    0    0  501  0.00000000000E+00  0.00000000000E+00 -0.30698357449E+03  0.30698357453E+03  0.50400001928E-02 0. -1.
    10030    2    1    2    0    0  0.00000000000E+00  0.00000000000E+00  0.20308672965E+04  0.26448344455E+04  0.16943220674E+04 0.  0.
        5    1    3    3  502    0  0.74896028650E+03  0.28147651695E+03  0.14499669610E+04  0.16560787476E+04  0.46999998093E+01 0.  1.
       -5    1    3    3    0  502 -0.74896028650E+03 -0.28147651695E+03  0.58090033552E+03  0.98875569791E+03  0.46999998093E+01 0. -1.
</event>
<event>
 5   0  0.1215233E-04  0.1711343E+04  0.7818609E-02  0.8754922E-01
        1   -1    0    0  501    0  0.00000000000E+00  0.00000000000E+00  0.13738751020E+04  0.13738751020E+04  0.50400001928E-02 0.  1.
       -1   -1    0    0    0  501  0.00000000000E+00  0.00000000000E+00 -0.53292577042E+03  0.53292577044E+03  0.50400001928E-02 0. -1.
    10030    2    1    2    0    0  0.00000000000E+00  0.00000000000E+00  0.84094933157E+03  0.19068008724E+04  0.17113426860E+04 0.  0.
        2    1    3    3  502    0  0.45538495161E+03 -0.32428620828E+03  0.11422548589E+04  0.12717244834E+04  0.25500000920E-02 0.  1.
       -2    1    3    3    0  502 -0.45538495161E+03  0.32428620828E+03 -0.30130552736E+03  0.63507638900E+03  0.25500000920E-02 0. -1.
</event>
<event>
 5   0  0.2234723E-04  0.1698702E+04  0.7818609E-02  0.8762105E-01
        2   -1    0    0  501    0  0.00000000000E+00  0.00000000000E+00  0.15140341998E+04  0.15140341998E+04  0.25500000920E-02 0.  1.
       -2   -1    0    0    0  501  0.00000000000E+00  0.00000000000E+00 -0.47647357336E+03  0.47647357337E+03  0.25500000920E-02 0. -1.
    10030    2    1    2    0    0  0.00000000000E+00  0.00000000000E+00  0.10375606265E+04  0.19905077732E+04  0.16987021933E+04 0.  0.
        1    1    3    3  502    0  0.27210172914E+03 -0.34206103974E+03  0.13721334895E+04  0.14400678522E+04  0.50400001928E-02 0.  1.
       -1    1    3    3    0  502 -0.27210172914E+03  0.34206103974E+03 -0.33457286304E+03  0.55043992099E+03  0.50400001928E-02 0. -1.
</event>
<event>
 5   0  0.2288806E-04  0.1693531E+04  0.7818609E-02  0.8765063E-01
        2   -1    0    0  501    0  0.00000000000E+00  0.00000000000E+00  0.13117655485E+04  0.13117655485E+04  0.25500000920E-02 0. -1.
       -2   -1    0    0    0  501  0.00000000000E+00  0.00000000000E+00 -0.54660051569E+03  0.54660051570E+03  0.25500000920E-02 0.  1.
    10030    2    1    2    0    0  0.00000000000E+00  0.00000000000E+00  0.76516503281E+03  0.18583660642E+04  0.16935308976E+04 0.  0.
        3    1    3    3  502    0  0.82433684029E+03  0.19223891477E+03  0.40771809597E+03  0.93953237442E+03  0.10100000352E+00 0.  1.
       -3    1    3    3    0  502 -0.82433684029E+03 -0.19223891477E+03  0.35744693684E+03  0.91883368977E+03  0.10100000352E+00 0. -1.
</event>
<event>
 5   0  0.1204741E-04  0.1684966E+04  0.7818609E-02  0.8769986E-01
        1   -1    0    0  501    0  0.00000000000E+00  0.00000000000E+00  0.53913730095E+03  0.53913730097E+03  0.50400001928E-02 0.  1.
       -1   -1    0    0    0  501  0.00000000000E+00  0.00000000000E+00 -0.13165054921E+04  0.13165054921E+04  0.50400001928E-02 0. -1.
    10030    2    1    2    0    0  0.00000000000E+00  0.00000000000E+00 -0.77736819111E+03  0.18556427930E+04  0.16849655399E+04 0.  0.
        1    1    3    3  502    0 -0.67231622820E+03  0.48317288456E+03 -0.56040150578E+03  0.99975746798E+03  0.50400001928E-02 0.  1.
       -1    1    3    3    0  502  0.67231622820E+03 -0.48317288456E+03 -0.21696668533E+03  0.85588532506E+03  0.50400001928E-02 0. -1.
</event>
<event>
 5   0  0.1215233E-04  0.1693322E+04  0.7818609E-02  0.8765182E-01
       -1   -1    0    0    0  501  0.00000000000E+00  0.00000000000E+00  0.61408082629E+03  0.61408082631E+03  0.50400001928E-02 0. -1.
        1   -1    0    0  501    0  0.00000000000E+00  0.00000000000E+00 -0.11673297572E+04  0.11673297572E+04  0.50400001928E-02 0.  1.
    10030    2    1    2    0    0  0.00000000000E+00  0.00000000000E+00 -0.55324893087E+03  0.17814105835E+04  0.16933219680E+04 0.  0.
        2    1    3    3  502    0  0.43592830752E+03  0.63246271109E+03  0.97978182284E+02  0.77436573686E+03  0.25500000920E-02 0. -1.
       -2    1    3    3    0  502 -0.43592830752E+03 -0.63246271109E+03 -0.65122711316E+03  0.10070448466E+04  0.25500000920E-02 0.  1.
</event>
<event>
 5   0  0.1204741E-04  0.1704948E+04  0.7818609E-02  0.8758547E-01
       -1   -1    0    0    0  501  0.00000000000E+00  0.00000000000E+00  0.14015910375E+04  0.14015910375E+04  0.50400001928E-02 0.  1.
        1   -1    0    0  501    0  0.00000000000E+00  0.00000000000E+00 -0.51849086627E+03  0.51849086630E+03  0.50400001928E-02 0. -1.
    10030    2    1    2    0    0  0.00000000000E+00  0.00000000000E+00  0.88310017118E+03  0.19200819038E+04  0.17049482704E+04 0.  0.
        1    1    3    3  502    0 -0.30344198502E+03 -0.25470498400E+03  0.12916201264E+04  0.13510122938E+04  0.50400001928E-02 0.  1.
       -1    1    3    3    0  502  0.30344198502E+03  0.25470498400E+03 -0.40851995520E+03  0.56906960995E+03  0.50400001928E-02 0. -1.
</event>
<event>
 5   0  0.1215233E-04  0.1667013E+04  0.7818609E-02  0.8780405E-01
        1   -1    0    0  501    0  0.00000000000E+00  0.00000000000E+00  0.87470508880E+03  0.87470508882E+03  0.50400001928E-02 0. -1.
       -1   -1    0    0    0  501  0.00000000000E+00  0.00000000000E+00 -0.79424824691E+03  0.79424824693E+03  0.50400001928E-02 0.  1.
    10030    2    1    2    0    0  0.00000000000E+00  0.00000000000E+00  0.80456841893E+02  0.16689533357E+04  0.16670128774E+04 0.  0.
        2    1    3    3  502    0  0.10247179943E+03 -0.15891331971E+03  0.85294861291E+03  0.87365625342E+03  0.25500000920E-02 0. -1.
       -2    1    3    3    0  502 -0.10247179943E+03  0.15891331971E+03 -0.77249177102E+03  0.79529708233E+03  0.25500000920E-02 0.  1.
</event>
<event>
 5   0  0.1186302E-04  0.1703075E+04  0.7818609E-02  0.8759613E-01
        1   -1    0    0  501    0  0.00000000000E+00  0.00000000000E+00  0.67960279193E+03  0.67960279195E+03  0.50400001928E-02 0.  1.
       -1   -1    0    0    0  501  0.00000000000E+00  0.00000000000E+00 -0.10669700567E+04  0.10669700567E+04  0.50400001928E-02 0. -1.
    10030    2    1    2    0    0  0.00000000000E+00  0.00000000000E+00 -0.38736726478E+03  0.17465728487E+04  0.17030746660E+04 0.  0.
        3    1    3    3  502    0  0.28738068411E+03 -0.17463562280E+03  0.60862149959E+03  0.69534552440E+03  0.10100000352E+00 0.  1.
       -3    1    3    3    0  502 -0.28738068411E+03  0.17463562280E+03 -0.99598876437E+03  0.10512273243E+04  0.10100000352E+00 0. -1.
</event>
<event>
 5   0  0.2234723E-04  0.1694368E+04  0.7818609E-02  0.8764583E-01
       -2   -1    0    0    0  501  0.00000000000E+00  0.00000000000E+00  0.52367573627E+03  0.52367573628E+03  0.25500000920E-02 0.  1.
        2   -1    0    0  501    0  0.00000000000E+00  0.00000000000E+00 -0.13705445259E+04  0.13705445259E+04  0.25500000920E-02 0. -1.
    10030    2    1    2    0    0  0.00000000000E+00  0.00000000000E+00 -0.84686878960E+03  0.18942202621E+04  0.16943682170E+04 0.  0.
        1    1    3    3  502    0 -0.90943478707E+02  0.56526650595E+03 -0.11215263784E+04  0.12592133880E+04  0.50400001928E-02 0. -1.
       -1    1    3    3    0  502  0.90943478707E+02 -0.56526650595E+03  0.27465758882E+03  0.63500687412E+03  0.50400001928E-02 0.  1.
</event>
<event>
 5   0  0.1234158E-04  0.1699996E+04  0.7818609E-02  0.8761367E-01
       -1   -1    0    0    0  501  0.00000000000E+00  0.00000000000E+00  0.46329728266E+03  0.46329728268E+03  0.50400001928E-02 0.  1.
        1   -1    0    0  501    0  0.00000000000E+00  0.00000000000E+00 -0.15594665086E+04  0.15594665086E+04  0.50400001928E-02 0. -1.
    10030    2    1    2    0    0  0.00000000000E+00  0.00000000000E+00 -0.10961692260E+04  0.20227637913E+04  0.16999959951E+04 0.  0.
        5    1    3    3  502    0  0.74033699669E+03  0.18685201176E+03 -0.99243458733E+03  0.12521825119E+04  0.46999998093E+01 0. -1.
       -5    1    3    3    0  502 -0.74033699669E+03 -0.18685201176E+03 -0.10373463865E+03  0.77058127943E+03  0.46999998093E+01 0.  1.
</event>
<event>
 5   0  0.2224454E-04  0.1701485E+04  0.7818609E-02  0.8760518E-01
        2   -1    0    0  501    0  0.00000000000E+00  0.00000000000E+00  0.70115772149E+03  0.70115772149E+03  0.25500000920E-02 0.  1.
       -2   -1    0    0    0  501  0.00000000000E+00  0.00000000000E+00 -0.10322400437E+04  0.10322400437E+04  0.25500000920E-02 0. -1.
    10030    2    1    2    0    0  0.00000000000E+00  0.00000000000E+00 -0.33108232217E+03  0.17333977652E+04  0.17014853241E+04 0.  0.
        2    1    3    3  502    0 -0.16937343379E+03 -0.76428736649E+03 -0.50486561540E+03  0.93151050895E+03  0.25500000920E-02 0. -1.
       -2    1    3    3    0  502  0.16937343379E+03  0.76428736649E+03  0.17378329323E+03  0.80188725621E+03  0.25500000920E-02 0.  1.
</event>
<event>
 5   0  0.1215233E-04  0.1712707E+04  0.7818609E-02  0.8754150E-01
       -1   -1    0    0    0  501  0.00000000000E+00  0.00000000000E+00  0.10318288959E+04  0.10318288959E+04  0.50400001928E-02 0. -1.
        1   -1    0    0  501    0  0.00000000000E+00  0.00000000000E+00 -0.71071952532E+03  0.71071952534E+03  0.50400001928E-02 0.  1.
    10030    2    1    2    0    0  0.00000000000E+00  0.00000000000E+00  0.32110937055E+03  0.17425484212E+04  0.17127065634E+04 0.  0.
        2    1    3    3  502    0  0.77858869445E+03  0.23327761481E+03 -0.11381443153E+03  0.82071464318E+03  0.25500000920E-02 0.  1.
       -2    1    3    3    0  502 -0.77858869445E+03 -0.23327761481E+03  0.43492380208E+03  0.92183377804E+03  0.25500000920E-02 0. -1.
</event>
<event>
 5   0  0.2288806E-04  0.1717772E+04  0.7818609E-02  0.8751293E-01
       -2   -1    0    0    0  501  0.00000000000E+00  0.00000000000E+00  0.66855872942E+03  0.66855872942E+03  0.25500000920E-02 0. -1.
        2   -1    0    0  501    0  0.00000000000E+00  0.00000000000E+00 -0.11033958173E+04  0.11033958173E+04  0.25500000920E-02 0.  1.
    10030    2    1    2    0    0  0.00000000000E+00  0.00000000000E+00 -0.43483708784E+03  0.17719545467E+04  0.17177717027E+04 0.  0.
        3    1    3    3  502    0  0.78328452751E+03 -0.31404894267E+03 -0.38221857848E+03  0.92641914993E+03  0.10100000352E+00 0.  1.
       -3    1    3    3    0  502 -0.78328452751E+03  0.31404894267E+03 -0.52618509365E+02  0.84553539675E+03  0.10100000352E+00 0. -1.
</event>
<event>
 5   0  0.1204741E-04  0.1692597E+04  0.7818609E-02  0.8765598E-01
       -1   -1    0    0    0  501  0.00000000000E+00  0.00000000000E+00  0.25349025885E+03  0.25349025890E+03  0.50400001928E-02 0. -1.
        1   -1    0    0  501    0  0.00000000000E+00  0.00000000000E+00 -0.28254372735E+04  0.28254372735E+04  0.50400001928E-02 0.  1.
    10030    2    1    2    0    0  0.00000000000E+00  0.00000000000E+00 -0.25719470147E+04  0.30789275324E+04  0.16925966157E+04 0.  0.
        1    1    3    3  502    0 -0.12554714124E+03  0.12419794886E+03  0.21959991353E+03  0.28180017251E+03  0.50400001928E-02 0. -1.
       -1    1    3    3    0  502  0.12554714124E+03 -0.12419794886E+03 -0.27915469282E+04  0.27971273599E+04  0.50400001928E-02 0.  1.
</event>
<event>
 5   0  0.2288806E-04  0.1700015E+04  0.7818609E-02  0.8761356E-01
        2   -1    0    0  501    0  0.00000000000E+00  0.00000000000E+00  0.10888305919E+04  0.10888305919E+04  0.25500000920E-02 0. -1.
       -2   -1    0    0    0  501  0.00000000000E+00  0.00000000000E+00 -0.66356792578E+03  0.66356792578E+03  0.25500000920E-02 0.  1.
    10030    2    1    2    0    0  0.00000000000E+00  0.00000000000E+00  0.42526266612E+03  0.17523985177E+04  0.17000153616E+04 0.  0.
        3    1    3    3  502    0 -0.12163094686E+03 -0.20779370330E+03 -0.62768118983E+03  0.67227672623E+03  0.10100000352E+00 0.  1.
       -3    1    3    3    0  502  0.12163094686E+03  0.20779370330E+03  0.10529438560E+04  0.10801217915E+04  0.10100000352E+00 0. -1.
</event>
<event>
 5   0  0.1186302E-04  0.1617744E+04  0.7818609E-02  0.8809721E-01
        1   -1    0    0  501    0  0.00000000000E+00  0.00000000000E+00  0.25661212192E+04  0.25661212192E+04  0.50400001928E-02 0.  1.
       -1   -1    0    0    0  501  0.00000000000E+00  0.00000000000E+00 -0.25496617557E+03  0.25496617562E+03  0.50400001928E-02 0. -1.
    10030    2    1    2    0    0  0.00000000000E+00  0.00000000000E+00  0.23111550436E+04  0.28210873948E+04  0.16177442485E+04 0.  0.
        3    1    3    3  502    0 -0.40426465845E+03  0.50023616599E+03  0.30019242758E+03  0.70977576714E+03  0.10100000352E+00 0. -1.
       -3    1    3    3    0  502  0.40426465845E+03 -0.50023616599E+03  0.20109626160E+04  0.21113116276E+04  0.10100000352E+00 0.  1.
</event>
<event>
 5   0  0.1234158E-04  0.1718427E+04  0.7818609E-02  0.8750924E-01
       -1   -1    0    0    0  501  0.00000000000E+00  0.00000000000E+00  0.49616681994E+03  0.49616681997E+03  0.50400001928E-02 0. -1.
        1   -1    0    0  501    0  0.00000000000E+00  0.00000000000E+00 -0.14879024418E+04  0.14879024418E+04  0.50400001928E-02 0.  1.
    10030    2    1    2    0    0  0.00000000000E+00  0.00000000000E+00 -0.99173562183E+03  0.19840692618E+04  0.17184269818E+04 0.  0.
        5    1    3    3  502    0 -0.78481081170E+02  0.21214192186E+03 -0.14528939326E+04  0.14704034631E+04  0.46999998093E+01 0.  1.
       -5    1    3    3    0  502  0.78481081170E+02 -0.21214192186E+03  0.46115831073E+03  0.51366579862E+03  0.46999998093E+01 0. -1.
</event>
<event>
 5   0  0.1186302E-04  0.1716199E+04  0.7818609E-02  0.8752179E-01
        1   -1    0    0  501    0  0.00000000000E+00  0.00000000000E+00  0.24819757914E+04  0.24819757914E+04  0.50400001928E-02 0. -1.
       -1   -1    0    0    0  501  0.00000000000E+00  0.00000000000E+00 -0.29667277402E+03  0.29667277406E+03  0.50400001928E-02 0.  1.
    10030    2    1    2    0    0  0.00000000000E+00  0.00000000000E+00  0.21853030173E+04  0.27786485654E+04  0.17161988733E+04 0.  0.
        3    1    3    3  502    0 -0.28208020791E+03  0.58809492561E+03  0.18986891127E+03  0.67931958524E+03  0.10100000352E+00 0.  1.
       -3    1    3    3    0  502  0.28208020791E+03 -0.58809492561E+03  0.19954341061E+04  0.20993289802E+04  0.10100000352E+00 0. -1.
</event>
<event>
 5   0  0.2356829E-04  0.1673136E+04  0.7818609E-02  0.8776836E-01
       -2   -1    0    0    0  501  0.00000000000E+00  0.00000000000E+00  0.87950039780E+03  0.87950039780E+03  0.25500000920E-02 0.  1.
        2   -1    0    0  501    0  0.00000000000E+00  0.00000000000E+00 -0.79573153206E+03  0.79573153206E+03  0.25500000920E-02 0. -1.
    10030    2    1    2    0    0  0.00000000000E+00  0.00000000000E+00  0.83768865742E+02  0.16752319299E+04  0.16731362156E+04 0.  0.
        5    1    3    3  502    0  0.38127420450E+03  0.26667369301E+03  0.73798127868E+03  0.87242382776E+03  0.46999998093E+01 0.  1.
       -5    1    3    3    0  502 -0.38127420450E+03 -0.26667369301E+03 -0.65421241294E+03  0.80280810211E+03  0.46999998093E+01 0. -1.
</event>
<event>
 5   0  0.2234723E-04  0.1708572E+04  0.7818609E-02  0.8756491E-01
        2   -1    0    0  501    0  0.00000000000E+00  0.00000000000E+00  0.10491172567E+04  0.10491172567E+04  0.25500000920E-02 0.  1.
       -2   -1    0    0    0  501  0.00000000000E+00  0.00000000000E+00 -0.69563660879E+03  0.69563660880E+03  0.25500000920E-02 0. -1.
    10030    2    1    2    0    0  0.00000000000E+00  0.00000000000E+00  0.35348064791E+03  0.17447538655E+04  0.17085717669E+04 0.  0.
        1    1    3    3  502    0  0.25787680857E+03  0.81441217631E+03  0.18292913940E+03  0.87363076376E+03  0.50400001928E-02 0.  1.
       -1    1    3    3    0  502 -0.25787680857E+03 -0.81441217631E+03  0.17055150851E+03  0.87112310175E+03  0.50400001928E-02 0. -1.
</event>
<event>
 5   0  0.2234723E-04  0.1710406E+04  0.7818609E-02  0.8755451E-01
        2   -1    0    0  501    0  0.00000000000E+00  0.00000000000E+00  0.88590336886E+03  0.88590336887E+03  0.25500000920E-02 0. -1.
       -2   -1    0    0    0  501  0.00000000000E+00  0.00000000000E+00 -0.82556680777E+03  0.82556680777E+03  0.25500000920E-02 0.  1.
    10030    2    1    2    0    0  0.00000000000E+00  0.00000000000E+00  0.60336561097E+02  0.17114701766E+04  0.17104062865E+04 0.  0.
        1    1    3    3  502    0 -0.31616876748E+02 -0.77912522173E+03 -0.32124338578E+03  0.84334634105E+03  0.50400001928E-02 0.  1.
       -1    1    3    3    0  502  0.31616876748E+02  0.77912522173E+03  0.38157994688E+03  0.86812383559E+03  0.50400001928E-02 0. -1.
</event>
<event>
 5   0  0.1215233E-04  0.1689136E+04  0.7818609E-02  0.8767585E-01
        1   -1    0    0  501    0  0.00000000000E+00  0.00000000000E+00  0.93907689375E+03  0.93907689376E+03  0.50400001928E-02 0.  1.
       -1   -1    0    0    0  501  0.00000000000E+00  0.00000000000E+00 -0.75957007452E+03  0.75957007453E+03  0.50400001928E-02 0. -1.
    10030    2    1    2    0    0  0.00000000000E+00  0.00000000000E+00  0.17950681923E+03  0.16986469683E+04  0.16891355259E+04 0.  0.
        2    1    3    3  502    0 -0.32805298123E+03  0.73721147777E+03 -0.16104051595E+03  0.82282049636E+03  0.25500000920E-02 0. -1.
       -2    1    3    3    0  502  0.32805298123E+03 -0.73721147777E+03  0.34054733518E+03  0.87582647194E+03  0.25500000920E-02 0.  1.
</event>
<event>
 5   0  0.8372750E-05  0.1697925E+04  0.7818609E-02  0.8762549E-01
        4   -1    0    0  501    0  0.00000000000E+00  0.00000000000E+00  0.84172153674E+03  0.84172249484E+03  0.12699999809E+01 0.  1.
       -4   -1    0    0    0  501  0.00000000000E+00  0.00000000000E+00 -0.85626359612E+03  0.85626453795E+03  0.12699999809E+01 0. -1.
    10030    2    1    2    0    0  0.00000000000E+00  0.00000000000E+00 -0.14542059378E+02  0.16979870328E+04  0.16979247604E+04 0.  0.
        4    1    3    3  502    0 -0.38671778516E+03  0.68302994618E+03 -0.33078707887E+03  0.85176420280E+03  0.12699999809E+01 0. -1.
       -4    1    3    3    0  502  0.38671778516E+03 -0.68302994618E+03  0.31624501949E+03  0.84622282998E+03  0.12699999809E+01 0.  1.
</event>
<event>
 5   0  0.2224454E-04  0.1690453E+04  0.7818609E-02  0.8766828E-01
        2   -1    0    0  501    0  0.00000000000E+00  0.00000000000E+00  0.52005074003E+03  0.52005074004E+03  0.25500000920E-02 0. -1.
       -2   -1    0    0    0  501  0.00000000000E+00  0.00000000000E+00 -0.13737270723E+04  0.13737270723E+04  0.25500000920E-02 0.  1.
    10030    2    1    2    0    0  0.00000000000E+00  0.00000000000E+00 -0.85367633225E+03  0.18937778123E+04  0.16904529340E+04 0.  0.
        2    1    3    3  502    0  0.65293694808E+02 -0.34729566797E+03 -0.12869976487E+04  0.13346312207E+04  0.25500000920E-02 0.  1.
       -2    1    3    3    0  502 -0.65293694808E+02  0.34729566797E+03  0.43332131647E+03  0.55914659159E+03  0.25500000920E-02 0. -1.
</event>
<event>
 5   0  0.1234158E-04  0.1704154E+04  0.7818609E-02  0.8758999E-01
       -1   -1    0    0    0  501  0.00000000000E+00  0.00000000000E+00  0.78758080221E+03  0.78758080223E+03  0.50400001928E-02 0.  1.
        1   -1    0    0  501    0  0.00000000000E+00  0.00000000000E+00 -0.92185445137E+03  0.92185445138E+03  0.50400001928E-02 0. -1.
    10030    2    1    2    0    0  0.00000000000E+00  0.00000000000E+00 -0.13427364916E+03  0.17094352536E+04  0.17041535944E+04 0.  0.
        5    1    3    3  502    0  0.75768675491E+03 -0.19283454913E+03  0.27264356446E+03  0.82802837218E+03  0.46999998093E+01 0.  1.
       -5    1    3    3    0  502 -0.75768675491E+03  0.19283454913E+03 -0.40691721361E+03  0.88140688143E+03  0.46999998093E+01 0. -1.
</event>
<event>
 5   0  0.1126958E-04  0.1712203E+04  0.7818609E-02  0.8754435E-01
        1   -1    0    0  501    0  0.00000000000E+00  0.00000000000E+00  0.13778138394E+04  0.13778138394E+04  0.50400001928E-02 0.  1.
       -1   -1    0    0    0  501  0.00000000000E+00  0.00000000000E+00 -0.53193691709E+03  0.53193691711E+03  0.50400001928E-02 0. -1.
    10030    2    1    2    0    0  0.00000000000E+00  0.00000000000E+00  0.84587692233E+03  0.19097507565E+04  0.17122033128E+04 0.  0.
        4    1    3    3  502    0  0.76480152468E+03 -0.15965422458E+03  0.81331627652E+03  0.11277835883E+04  0.12699999809E+01 0.  1.
       -4    1    3    3    0  502 -0.76480152468E+03  0.15965422458E+03  0.32560645807E+02  0.78196716819E+03  0.12699999809E+01 0. -1.
</event>
<event>
 5   0  0.1186302E-04  0.1761519E+04  0.7818609E-02  0.8727035E-01
       -1   -1    0    0    0  501  0.00000000000E+00  0.00000000000E+00  0.80341317240E+03  0.80341317242E+03  0.50400001928E-02 0.  1.
        1   -1    0    0  501    0  0.00000000000E+00  0.00000000000E+00 -0.96555251464E+03  0.96555251465E+03  0.50400001928E-02 0. -1.
    10030    2    1    2    0    0  0.00000000000E+00  0.00000000000E+00 -0.16213934224E+03  0.17689656871E+04  0.17615193543E+04 0.  0.
        3    1    3    3  502    0 -0.25451577082E+03  0.54024643059E+03  0.56904093738E+03  0.82489519454E+03  0.10100000352E+00 0.  1.
       -3    1    3    3    0  502  0.25451577082E+03 -0.54024643059E+03 -0.73118027962E+03  0.94407049253E+03  0.10100000352E+00 0. -1.
</event>
<event>
 5   0  0.1234158E-04  0.1709818E+04  0.7818609E-02  0.8755785E-01
        1   -1    0    0  501    0  0.00000000000E+00  0.00000000000E+00  0.15828961932E+04  0.15828961932E+04  0.50400001928E-02 0. -1.
       -1   -1    0    0    0  501  0.00000000000E+00  0.00000000000E+00 -0.46172910502E+03  0.46172910505E+03  0.50400001928E-02 0.  1.
    10030    2    1    2    0    0  0.00000000000E+00  0.00000000000E+00  0.11211670882E+04  0.20446252983E+04  0.17098178180E+04 0.  0.
        5    1    3    3  502    0  0.94955636850E+02  0.52944845539E+03 -0.23399453593E+03  0.58660700024E+03  0.46999998093E+01 0.  1.
       -5    1    3    3    0  502 -0.94955636850E+02 -0.52944845539E+03  0.13551616241E+04  0.14580182980E+04  0.46999998093E+01 0. -1.
</event>
<event>
 5   0  0.2224454E-04  0.1638479E+04  0.7818609E-02  0.8797252E-01
        2   -1    0    0  501    0  0.00000000000E+00  0.00000000000E+00  0.74857503983E+03  0.74857503984E+03  0.25500000920E-02 0.  1.
       -2   -1    0    0    0  501  0.00000000000E+00  0.00000000000E+00 -0.89657418199E+03  0.89657418200E+03  0.25500000920E-02 0. -1.
    10030    2    1    2    0    0  0.00000000000E+00  0.00000000000E+00 -0.14799914216E+03  0.16451492218E+04  0.16384786285E+04 0.  0.
        2    1    3    3  502    0 -0.97924601807E+02  0.47752665030E+02 -0.88926799453E+03  0.89591691063E+03  0.25500000920E-02 0. -1.
       -2    1    3    3    0  502  0.97924601807E+02 -0.47752665030E+02  0.74126885237E+03  0.74923231120E+03  0.25500000920E-02 0.  1.
</event>
<event>
 5   0  0.2224454E-04  0.1710530E+04  0.7818609E-02  0.8755381E-01
        2   -1    0    0  501    0  0.00000000000E+00  0.00000000000E+00  0.19963941971E+04  0.19963941971E+04  0.25500000920E-02 0.  1.
       -2   -1    0    0    0  501  0.00000000000E+00  0.00000000000E+00 -0.36639969703E+03  0.36639969703E+03  0.25500000920E-02 0. -1.
    10030    2    1    2    0    0  0.00000000000E+00  0.00000000000E+00  0.16299945001E+04  0.23627938941E+04  0.17105300102E+04 0.  0.
        2    1    3    3  502    0 -0.30405027207E+03 -0.31057428352E+03  0.18324755171E+04  0.18833134297E+04  0.25500000920E-02 0.  1.
       -2    1    3    3    0  502  0.30405027207E+03  0.31057428352E+03 -0.20248101705E+03  0.47948046446E+03  0.25500000920E-02 0. -1.
</event>
<event>
 5   0  0.1126958E-04  0.1708063E+04  0.7818609E-02  0.8756779E-01
       -1   -1    0    0    0  501  0.00000000000E+00  0.00000000000E+00  0.82200410742E+03  0.82200410743E+03  0.50400001928E-02 0. -1.
        1   -1    0    0  501    0  0.00000000000E+00  0.00000000000E+00 -0.88730714653E+03  0.88730714655E+03  0.50400001928E-02 0.  1.
    10030    2    1    2    0    0  0.00000000000E+00  0.00000000000E+00 -0.65303039117E+02  0.17093112540E+04  0.17080633700E+04 0.  0.
        4    1    3    3  502    0 -0.38527601943E+03  0.61094789480E+02  0.72763922324E+03  0.82560925173E+03  0.12699999809E+01 0. -1.
       -4    1    3    3    0  502  0.38527601943E+03 -0.61094789480E+02 -0.79294226235E+03  0.88370200225E+03  0.12699999809E+01 0.  1.
</event>
<event>
 5   0  0.1204741E-04  0.1787120E+04  0.7818609E-02  0.8713179E-01
        1   -1    0    0  501    0  0.00000000000E+00  0.00000000000E+00  0.57768079725E+03  0.57768079727E+03  0.50400001928E-02 0.  1.
       -1   -1    0    0    0  501  0.00000000000E+00  0.00000000000E+00 -0.13821635518E+04  0.13821635518E+04  0.50400001928E-02 0. -1.
    10030    2    1    2    0    0  0.00000000000E+00  0.00000000000E+00 -0.80448275454E+03  0.19598443491E+04  0.17871198533E+04 0.  0.
        1    1    3    3  502    0  0.43085737945E+03  0.35160054955E+03 -0.11692600535E+04  0.12947702887E+04  0.50400001928E-02 0. -1.
       -1    1    3    3    0  502 -0.43085737945E+03 -0.35160054955E+03  0.36477729895E+03  0.66507406033E+03  0.50400001928E-02 0.  1.
</event>
<event>
 5   0  0.1204741E-04  0.1688963E+04  0.7818609E-02  0.8767684E-01
        1   -1    0    0  501    0  0.00000000000E+00  0.00000000000E+00  0.13334183857E+04  0.13334183857E+04  0.50400001928E-02 0. -1.
       -1   -1    0    0    0  501  0.00000000000E+00  0.00000000000E+00 -0.53482754485E+03  0.53482754487E+03  0.50400001928E-02 0.  1.
    10030    2    1    2    0    0  0.00000000000E+00  0.00000000000E+00  0.79859084085E+03  0.18682459306E+04  0.16889628551E+04 0.  0.
        1    1    3    3  502    0  0.30226246495E+03 -0.15785496593E+03 -0.45528537401E+03  0.56882823400E+03  0.50400001928E-02 0.  1.
       -1    1    3    3    0  502 -0.30226246495E+03  0.15785496593E+03  0.12538762149E+04  0.12994176966E+04  0.50400001928E-02 0. -1.
</event>
<event>
 5   0  0.1234158E-04  0.1706282E+04  0.7818609E-02  0.8757790E-01
        1   -1    0    0  501    0  0.00000000000E+00  0.00000000000E+00  0.10265380423E+04  0.10265380423E+04  0.50400001928E-02 0. -1.
       -1   -1    0    0    0  501  0.00000000000E+00  0.00000000000E+00 -0.70903306456E+03  0.70903306458E+03  0.50400001928E-02 0.  1.
    10030    2    1    2    0    0  0.00000000000E+00  0.00000000000E+00  0.31750497772E+03  0.17355711069E+04  0.17062818220E+04 0.  0.
        5    1    3    3  502    0 -0.11443228215E+03  0.51920573100E+03 -0.51990200912E+03  0.74363265621E+03  0.46999998093E+01 0.  1.
       -5    1    3    3    0  502  0.11443228215E+03 -0.51920573100E+03  0.83740698684E+03  0.99193845066E+03  0.46999998093E+01 0. -1.
</event>
<event>
 5   0  0.2242967E-04  0.1763017E+04  0.7818609E-02  0.8726218E-01
       -2   -1    0    0    0  501  0.00000000000E+00  0.00000000000E+00  0.60843836227E+03  0.60843836228E+03  0.25500000920E-02 0. -1.
        2   -1    0    0  501    0  0.00000000000E+00  0.00000000000E+00 -0.12771340442E+04  0.12771340442E+04  0.25500000920E-02 0.  1.
    10030    2    1    2    0    0  0.00000000000E+00  0.00000000000E+00 -0.66869568196E+03  0.18855724065E+04  0.17630171256E+04 0.  0.
        4    1    3    3  502    0  0.42050699132E+03 -0.37653874227E+03  0.38980761851E+03  0.68597313834E+03  0.12699999809E+01 0. -1.
       -4    1    3    3    0  502 -0.42050699132E+03  0.37653874227E+03 -0.10585033005E+04  0.11995992682E+04  0.12699999809E+01 0.  1.
</event>
<event>
 5   0  0.2288806E-04  0.1698123E+04  0.7818609E-02  0.8762436E-01
       -2   -1    0    0    0  501  0.00000000000E+00  0.00000000000E+00  0.49170712309E+03  0.49170712310E+03  0.25500000920E-02 0.  1.
        2   -1    0    0  501    0  0.00000000000E+00  0.00000000000E+00 -0.14661270628E+04  0.14661270628E+04  0.25500000920E-02 0. -1.
    10030    2    1    2    0    0  0.00000000000E+00  0.00000000000E+00 -0.97441993968E+03  0.19578341859E+04  0.16981226341E+04 0.  0.
        3    1    3    3  502    0  0.88777266391E+02 -0.61660014060E+03  0.17793569851E+03  0.64787210113E+03  0.10100000352E+00 0.  1.
       -3    1    3    3    0  502 -0.88777266391E+02  0.61660014060E+03 -0.11523556382E+04  0.13099620847E+04  0.10100000352E+00 0. -1.
</event>
<event>
 5   0  0.2234723E-04  0.1730296E+04  0.7818609E-02  0.8744272E-01
        2   -1    0    0  501    0  0.00000000000E+00  0.00000000000E+00  0.65453612320E+03  0.65453612320E+03  0.25500000920E-02 0.  1.
       -2   -1    0    0    0  501  0.00000000000E+00  0.00000000000E+00 -0.11435292491E+04  0.11435292491E+04  0.25500000920E-02 0. -1.
    10030    2    1    2    0    0  0.00000000000E+00  0.00000000000E+00 -0.48899312587E+03  0.17980653723E+04  0.17302961613E+04 0.  0.
        1    1    3    3  502    0 -0.74135180694E+03 -0.44545339660E+03 -0.26653990336E+03  0.90502748594E+03  0.50400001928E-02 0.  1.
       -1    1    3    3    0  502  0.74135180694E+03  0.44545339660E+03 -0.22245322251E+03  0.89303788633E+03  0.50400001928E-02 0. -1.
</event>
<event>
 5   0  0.2288806E-04  0.1698500E+04  0.7818609E-02  0.8762220E-01
        2   -1    0    0  501    0  0.00000000000E+00  0.00000000000E+00  0.18418967331E+04  0.18418967331E+04  0.25500000920E-02 0.  1.
       -2   -1    0    0    0  501  0.00000000000E+00  0.00000000000E+00 -0.39156688009E+03  0.39156688010E+03  0.25500000920E-02 0. -1.
    10030    2    1    2    0    0  0.00000000000E+00  0.00000000000E+00  0.14503298530E+04  0.22334636132E+04  0.16985002293E+04 0.  0.
        3    1    3    3  502    0 -0.54683923223E+03  0.33199399164E+03 -0.93007270730E+01  0.63979658496E+03  0.10100000352E+00 0. -1.
       -3    1    3    3    0  502  0.54683923223E+03 -0.33199399164E+03  0.14596305801E+04  0.15936670283E+04  0.10100000352E+00 0.  1.
</event>
<event>
 5   0  0.2356829E-04  0.1690649E+04  0.7818609E-02  0.8766715E-01
        2   -1    0    0  501    0  0.00000000000E+00  0.00000000000E+00  0.11209155254E+04  0.11209155254E+04  0.25500000920E-02 0. -1.
       -2   -1    0    0    0  501  0.00000000000E+00  0.00000000000E+00 -0.63749128983E+03  0.63749128983E+03  0.25500000920E-02 0.  1.
    10030    2    1    2    0    0  0.00000000000E+00  0.00000000000E+00  0.48342423559E+03  0.17584068153E+04  0.16906494422E+04 0.  0.
        5    1    3    3  502    0  0.35268896424E+03 -0.25119172963E+03 -0.51337642925E+03  0.67161316145E+03  0.46999998093E+01 0.  1.
       -5    1    3    3    0  502 -0.35268896424E+03  0.25119172963E+03  0.99680066483E+03  0.10867936538E+04  0.46999998093E+01 0. -1.
</event>
<event>
 5   0  0.8372750E-05  0.1693790E+04  0.7818609E-02  0.8764914E-01
       -4   -1    0    0    0  501  0.00000000000E+00  0.00000000000E+00  0.13709807021E+04  0.13709812903E+04  0.12699999809E+01 0.  1.
        4   -1    0    0  501    0  0.00000000000E+00  0.00000000000E+00 -0.52315049147E+03  0.52315203300E+03  0.12699999809E+01 0. -1.
    10030    2    1    2    0    0  0.00000000000E+00  0.00000000000E+00  0.84783021062E+03  0.18941333233E+04  0.16937901229E+04 0.  0.
        2    1    3    3  502    0  0.24718580579E+03  0.34629493549E+03 -0.39496156902E+03  0.58053048666E+03  0.25500000920E-02 0. -1.
       -2    1    3    3    0  502 -0.24718580579E+03 -0.34629493549E+03  0.12427917796E+04  0.13136028367E+04  0.25500000920E-02 0.  1.
</event>
<event>
 5   0  0.1186302E-04  0.1697103E+04  0.7818609E-02  0.8763018E-01
       -1   -1    0    0    0  501  0.00000000000E+00  0.00000000000E+00  0.55244964305E+03  0.55244964308E+03  0.50400001928E-02 0.  1.
        1   -1    0    0  501    0  0.00000000000E+00  0.00000000000E+00 -0.13033575797E+04  0.13033575797E+04  0.50400001928E-02 0. -1.
    10030    2    1    2    0    0  0.00000000000E+00  0.00000000000E+00 -0.75090793666E+03  0.18558072228E+04  0.16971027426E+04 0.  0.
        3    1    3    3  502    0  0.73338528244E+03  0.42102563433E+03 -0.29872955661E+03  0.89685891614E+03  0.10100000352E+00 0.  1.
       -3    1    3    3    0  502 -0.73338528244E+03 -0.42102563433E+03 -0.45217838004E+03  0.95894830666E+03  0.10100000352E+00 0. -1.
</event>
<event>
 5   0  0.2242967E-04  0.1709648E+04  0.7818609E-02  0.8755881E-01
        2   -1    0    0  501    0  0.00000000000E+00  0.00000000000E+00  0.18851640568E+04  0.18851640568E+04  0.25500000920E-02 0. -1.
       -2   -1    0    0    0  501  0.00000000000E+00  0.00000000000E+00 -0.38761838863E+03  0.38761838863E+03  0.25500000920E-02 0.  1.
    10030    2    1    2    0    0  0.00000000000E+00  0.00000000000E+00  0.14975456682E+04  0.22727824454E+04  0.17096482141E+04 0.  0.
        4    1    3    3  502    0 -0.49377709101E+03  0.22615285539E+03  0.16263304576E+04  0.17146175375E+04  0.12699999809E+01 0. -1.
       -4    1    3    3    0  502  0.49377709101E+03 -0.22615285539E+03 -0.12878478941E+03  0.55816490797E+03  0.12699999809E+01 0.  1.
</event>
<event>
 5   0  0.1186302E-04  0.1682734E+04  0.7818609E-02  0.8771273E-01
       -1   -1    0    0    0  501  0.00000000000E+00  0.00000000000E+00  0.74975174509E+03  0.74975174510E+03  0.50400001928E-02 0.  1.
        1   -1    0    0  501    0  0.00000000000E+00  0.00000000000E+00 -0.94417731387E+03  0.94417731388E+03  0.50400001928E-02 0. -1.
    10030    2    1    2    0    0  0.00000000000E+00  0.00000000000E+00 -0.19442556878E+03  0.16939290590E+04  0.16827341903E+04 0.  0.
        3    1    3    3  502    0 -0.51499632647E+03 -0.57087051083E+03 -0.44122335343E+03  0.88644932976E+03  0.10100000352E+00 0. -1.
       -3    1    3    3    0  502  0.51499632647E+03  0.57087051083E+03  0.24679778465E+03  0.80747972923E+03  0.10100000352E+00 0.  1.
</event>
<event>
 5   0  0.1215233E-04  0.1705532E+04  0.7818609E-02  0.8758216E-01
        1   -1    0    0  501    0  0.00000000000E+00  0.00000000000E+00  0.43819276583E+03  0.43819276586E+03  0.50400001928E-02 0.  1.
       -1   -1    0    0    0  501  0.00000000000E+00  0.00000000000E+00 -0.16595652455E+04  0.16595652455E+04  0.50400001928E-02 0. -1.
    10030    2    1    2    0    0  0.00000000000E+00  0.00000000000E+00 -0.12213724797E+04  0.20977580114E+04  0.17055315711E+04 0.  0.
        2    1    3    3  502    0 -0.56459295382E+03  0.49063603329E+03 -0.11144057621E+04  0.13421583824E+04  0.25500000920E-02 0. -1.
       -2    1    3    3    0  502  0.56459295382E+03 -0.49063603329E+03 -0.10696671752E+03  0.75559962899E+03  0.25500000920E-02 0.  1.
</event>
<event>
 5   0  0.1126958E-04  0.1725783E+04  0.7818609E-02  0.8746794E-01
        1   -1    0    0  501    0  0.00000000000E+00  0.00000000000E+00  0.16274921934E+04  0.16274921934E+04  0.50400001928E-02 0.  1.
       -1   -1    0    0    0  501  0.00000000000E+00  0.00000000000E+00 -0.45750262607E+03  0.45750262609E+03  0.50400001928E-02 0. -1.
    10030    2    1    2    0    0  0.00000000000E+00  0.00000000000E+00  0.11699895673E+04  0.20849948195E+04  0.17257832453E+04 0.  0.
        4    1    3    3  502    0 -0.39850406048E+03  0.63974489141E+03  0.10925610139E+04  0.13273169155E+04  0.12699999809E+01 0.  1.
       -4    1    3    3    0  502  0.39850406048E+03 -0.63974489141E+03  0.77428553412E+02  0.75767790393E+03  0.12699999809E+01 0. -1.
</event>
<event>
 5   0  0.2242967E-04  0.1732328E+04  0.7818609E-02  0.8743138E-01
       -2   -1    0    0    0  501  0.00000000000E+00  0.00000000000E+00  0.49366786889E+03  0.49366786889E+03  0.25500000920E-02 0.  1.
        2   -1    0    0  501    0  0.00000000000E+00  0.00000000000E+00 -0.15197268297E+04  0.15197268297E+04  0.25500000920E-02 0. -1.
    10030    2    1    2    0    0  0.00000000000E+00  0.00000000000E+00 -0.10260589608E+04  0.20133946986E+04  0.17323282660E+04 0.  0.
        4    1    3    3  502    0 -0.34602606316E+03  0.22443048163E+03  0.37221554103E+03  0.55556196716E+03  0.12699999809E+01 0.  1.
       -4    1    3    3    0  502  0.34602606316E+03 -0.22443048163E+03 -0.13982745019E+04  0.14578327315E+04  0.12699999809E+01 0. -1.
</event>
<event>
 5   0  0.1234158E-04  0.1680874E+04  0.7818609E-02  0.8772349E-01
        1   -1    0    0  501    0  0.00000000000E+00  0.00000000000E+00  0.60684145251E+03  0.60684145253E+03  0.50400001928E-02 0.  1.
       -1   -1    0    0    0  501  0.00000000000E+00  0.00000000000E+00 -0.11639515193E+04  0.11639515193E+04  0.50400001928E-02 0. -1.
    10030    2    1    2    0    0  0.00000000000E+00  0.00000000000E+00 -0.55711006676E+03  0.17707929718E+04  0.16808736188E+04 0.  0.
        5    1    3    3  502    0 -0.68007562151E+02  0.24999678480E+03  0.56370697518E+03  0.62041201212E+03  0.46999998093E+01 0.  1.
       -5    1    3    3    0  502  0.68007562151E+02 -0.24999678480E+03 -0.11208170419E+04  0.11503809597E+04  0.46999998093E+01 0. -1.
</event>
<event>
 5   0  0.1234158E-04  0.1704366E+04  0.7818609E-02  0.8758878E-01
       -1   -1    0    0    0  501  0.00000000000E+00  0.00000000000E+00  0.41732031141E+03  0.41732031144E+03  0.50400001928E-02 0. -1.
        1   -1    0    0  501    0  0.00000000000E+00  0.00000000000E+00 -0.17401884507E+04  0.17401884507E+04  0.50400001928E-02 0.  1.
    10030    2    1    2    0    0  0.00000000000E+00  0.00000000000E+00 -0.13228681392E+04  0.21575087621E+04  0.17043661416E+04 0.  0.
        5    1    3    3  502    0 -0.18751101722E+03  0.71897845549E+03 -0.11896280105E+04  0.14026144497E+04  0.46999998093E+01 0.  1.
       -5    1    3    3    0  502  0.18751101722E+03 -0.71897845549E+03 -0.13324012875E+03  0.75489431244E+03  0.46999998093E+01 0. -1.
</event>
<event>
 5   0  0.1234158E-04  0.1719102E+04  0.7818609E-02  0.8750544E-01
        1   -1    0    0  501    0  0.00000000000E+00  0.00000000000E+00  0.10009114053E+04  0.10009114053E+04  0.50400001928E-02 0. -1.
       -1   -1    0    0    0  501  0.00000000000E+00  0.00000000000E+00 -0.73815509918E+03  0.73815509920E+03  0.50400001928E-02 0.  1.
    10030    2    1    2    0    0  0.00000000000E+00  0.00000000000E+00  0.26275630613E+03  0.17390665045E+04  0.17191019256E+04 0.  0.
        5    1    3    3  502    0 -0.32907646992E+03 -0.70222919025E+02  0.93150178468E+03  0.99042427589E+03  0.46999998093E+01 0. -1.
       -5    1    3    3    0  502  0.32907646992E+03  0.70222919025E+02 -0.66874547855E+03  0.74864222863E+03  0.46999998093E+01 0.  1.
</event>
<event>
 5   0  0.2356829E-04  0.1686921E+04  0.7818609E-02  0.8768859E-01
       -2   -1    0    0    0  501  0.00000000000E+00  0.00000000000E+00  0.54606887651E+03  0.54606887651E+03  0.25500000920E-02 0. -1.
        2   -1    0    0  501    0  0.00000000000E+00  0.00000000000E+00 -0.13028123280E+04  0.13028123280E+04  0.25500000920E-02 0.  1.
    10030    2    1    2    0    0  0.00000000000E+00  0.00000000000E+00 -0.75674345154E+03  0.18488812046E+04  0.16869205841E+04 0.  0.
        5    1    3    3  502    0  0.48636191587E+03  0.69618780775E+02 -0.11297648553E+04  0.12319843368E+04  0.46999998093E+01 0.  1.
       -5    1    3    3    0  502 -0.48636191587E+03 -0.69618780775E+02  0.37302140374E+03  0.61689686779E+03  0.46999998093E+01 0. -1.
</event>
<event>
 5   0  0.2234723E-04  0.1694875E+04  0.7818609E-02  0.8764293E-01
        2   -1    0    0  501    0  0.00000000000E+00  0.00000000000E+00  0.71736607720E+03  0.71736607720E+03  0.25500000920E-02 0.  1.
       -2   -1    0    0    0  501  0.00000000000E+00  0.00000000000E+00 -0.10010932926E+04  0.10010932926E+04  0.25500000920E-02 0. -1.
    10030    2    1    2    0    0  0.00000000000E+00  0.00000000000E+00 -0.28372721537E+03  0.17184593698E+04  0.16948750611E+04 0.  0.
        1    1    3    3  502    0  0.40517250177E+03  0.47322016739E+03 -0.72435608276E+03  0.95540243755E+03  0.50400001928E-02 0. -1.
       -1    1    3    3    0  502 -0.40517250177E+03 -0.47322016739E+03  0.44062886739E+03  0.76305693223E+03  0.50400001928E-02 0.  1.
</event>
<event>
 5   0  0.1215233E-04  0.1669384E+04  0.7818609E-02  0.8779021E-01
        1   -1    0    0  501    0  0.00000000000E+00  0.00000000000E+00  0.13803811461E+04  0.13803811461E+04  0.50400001928E-02 0. -1.
       -1   -1    0    0    0  501  0.00000000000E+00  0.00000000000E+00 -0.50472340221E+03  0.50472340223E+03  0.50400001928E-02 0.  1.
    10030    2    1    2    0    0  0.00000000000E+00  0.00000000000E+00  0.87565774392E+03  0.18851045484E+04  0.16693839204E+04 0.  0.
        2    1    3    3  502    0 -0.62471546767E+03  0.50879572291E+03  0.19154418180E+03  0.82814954977E+03  0.25500000920E-02 0.  1.
       -2    1    3    3    0  502  0.62471546767E+03 -0.50879572291E+03  0.68411356212E+03  0.10569549986E+04  0.25500000920E-02 0. -1.
</event>
<event>
 5   0  0.2356829E-04  0.1698915E+04  0.7818609E-02  0.8761983E-01
       -2   -1    0    0    0  501  0.00000000000E+00  0.00000000000E+00  0.33284018151E+03  0.33284018152E+03  0.25500000920E-02 0.  1.
        2   -1    0    0  501    0  0.00000000000E+00  0.00000000000E+00 -0.21679425446E+04  0.21679425446E+04  0.25500000920E-02 0. -1.
    10030    2    1    2    0    0  0.00000000000E+00  0.00000000000E+00 -0.18351023631E+04  0.25007827261E+04  0.16989154070E+04 0.  0.
        5    1    3    3  502    0 -0.47887059786E+03 -0.69377724275E+03 -0.76378384011E+03  0.11375551663E+04  0.46999998093E+01 0.  1.
       -5    1    3    3    0  502  0.47887059786E+03  0.69377724275E+03 -0.10713185230E+04  0.13632275598E+04  0.46999998093E+01 0. -1.
</event>
<event>
 5   0  0.2234723E-04  0.1694835E+04  0.7818609E-02  0.8764316E-01
        2   -1    0    0  501    0  0.00000000000E+00  0.00000000000E+00  0.11342599224E+04  0.11342599224E+04  0.25500000920E-02 0. -1.
       -2   -1    0    0    0  501  0.00000000000E+00  0.00000000000E+00 -0.63311429863E+03  0.63311429863E+03  0.25500000920E-02 0.  1.
    10030    2    1    2    0    0  0.00000000000E+00  0.00000000000E+00  0.50114562373E+03  0.17673742210E+04  0.16948347120E+04 0.  0.
        1    1    3    3  502    0  0.47340671751E+03  0.70190197249E+03  0.28868678664E+03  0.89449447174E+03  0.50400001928E-02 0. -1.
       -1    1    3    3    0  502 -0.47340671751E+03 -0.70190197249E+03  0.21245883709E+03  0.87287974925E+03  0.50400001928E-02 0.  1.
</event>
<event>
 5   0  0.8372750E-05  0.1647279E+04  0.7818609E-02  0.8792018E-01
       -3   -1    0    0    0  501  0.00000000000E+00  0.00000000000E+00  0.83381783532E+03  0.83381784144E+03  0.10100000352E+00 0. -1.
        3   -1    0    0  501    0  0.00000000000E+00  0.00000000000E+00 -0.81358510418E+03  0.81358511045E+03  0.10100000352E+00 0.  1.
    10030    2    1    2    0    0  0.00000000000E+00  0.00000000000E+00  0.20232731139E+02  0.16474029519E+04  0.16472787021E+04 0.  0.
        5    1    3    3  502    0 -0.19041435692E+03 -0.96882021010E+01 -0.79119821409E+03  0.81386005711E+03  0.46999998093E+01 0.  1.
       -5    1    3    3    0  502  0.19041435692E+03  0.96882021010E+01  0.81143094523E+03  0.83354289479E+03  0.46999998093E+01 0. -1.
</event>
<event>
 5   0  0.2234723E-04  0.1694118E+04  0.7818609E-02  0.8764726E-01
        2   -1    0    0  501    0  0.00000000000E+00  0.00000000000E+00  0.86880296970E+03  0.86880296971E+03  0.25500000920E-02 0. -1.
       -2   -1    0    0    0  501  0.00000000000E+00  0.00000000000E+00 -0.82585904074E+03  0.82585904074E+03  0.25500000920E-02 0.  1.
    10030    2    1    2    0    0  0.00000000000E+00  0.00000000000E+00  0.42943928963E+02  0.16946620105E+04  0.16941178084E+04 0.  0.
        1    1    3    3  502    0  0.14600074631E+03  0.37929220923E+03 -0.72195583736E+03  0.82849202110E+03  0.50400001928E-02 0.  1.
       -1    1    3    3    0  502 -0.14600074631E+03 -0.37929220923E+03  0.76489976632E+03  0.86616998935E+03  0.50400001928E-02 0. -1.
</event>
<event>
 5   0  0.2288806E-04  0.1730675E+04  0.7818609E-02  0.8744060E-01
        2   -1    0    0  501    0  0.00000000000E+00  0.00000000000E+00  0.40924207561E+03  0.40924207562E+03  0.25500000920E-02 0.  1.
       -2   -1    0    0    0  501  0.00000000000E+00  0.00000000000E+00 -0.18297463389E+04  0.18297463389E+04  0.25500000920E-02 0. -1.
    10030    2    1    2    0    0  0.00000000000E+00  0.00000000000E+00 -0.14205042633E+04  0.22389884146E+04  0.17306752319E+04 0.  0.
        3    1    3    3  502    0 -0.61748695354E+03  0.45648379350E+03 -0.12263453015E+04  0.14469244625E+04  0.10100000352E+00 0. -1.
       -3    1    3    3    0  502  0.61748695354E+03 -0.45648379350E+03 -0.19415896187E+03  0.79206395208E+03  0.10100000352E+00 0.  1.
</event>
<event>
 5   0  0.1126958E-04  0.1703905E+04  0.7818609E-02  0.8759140E-01
       -1   -1    0    0    0  501  0.00000000000E+00  0.00000000000E+00  0.42082257961E+03  0.42082257964E+03  0.50400001928E-02 0.  1.
        1   -1    0    0  501    0  0.00000000000E+00  0.00000000000E+00 -0.17247723172E+04  0.17247723172E+04  0.50400001928E-02 0. -1.
    10030    2    1    2    0    0  0.00000000000E+00  0.00000000000E+00 -0.13039497375E+04  0.21455948968E+04  0.17039050863E+04 0.  0.
        4    1    3    3  502    0  0.38200143564E+02  0.82609027115E+03 -0.39410433968E+03  0.91608090828E+03  0.12699999809E+01 0. -1.
       -4    1    3    3    0  502 -0.38200143564E+02 -0.82609027115E+03 -0.90984539787E+03  0.12295139885E+04  0.12699999809E+01 0.  1.
</event>
<event>
 5   0  0.1126958E-04  0.1698502E+04  0.7818609E-02  0.8762219E-01
        1   -1    0    0  501    0  0.00000000000E+00  0.00000000000E+00  0.17079920252E+04  0.17079920252E+04  0.50400001928E-02 0.  1.
       -1   -1    0    0    0  501  0.00000000000E+00  0.00000000000E+00 -0.42226620821E+03  0.42226620824E+03  0.50400001928E-02 0. -1.
    10030    2    1    2    0    0  0.00000000000E+00  0.00000000000E+00  0.12857258169E+04  0.21302582334E+04  0.16985020649E+04 0.  0.
        4    1    3    3  502    0 -0.47987084907E+03 -0.37959040013E+03  0.13815215514E+04  0.15109494741E+04  0.12699999809E+01 0.  1.
       -4    1    3    3    0  502  0.47987084907E+03  0.37959040013E+03 -0.95795734412E+02  0.61930875926E+03  0.12699999809E+01 0. -1.
</event>
<event>
 5   0  0.1204741E-04  0.1699642E+04  0.7818609E-02  0.8761568E-01
       -1   -1    0    0    0  501  0.00000000000E+00  0.00000000000E+00  0.43941932148E+03  0.43941932151E+03  0.50400001928E-02 0. -1.
        1   -1    0    0  501    0  0.00000000000E+00  0.00000000000E+00 -0.16435238057E+04  0.16435238057E+04  0.50400001928E-02 0.  1.
    10030    2    1    2    0    0  0.00000000000E+00  0.00000000000E+00 -0.12041044842E+04  0.20829431272E+04  0.16996424513E+04 0.  0.
        1    1    3    3  502    0  0.29330255427E+03  0.72002386228E+03 -0.18154516481E+03  0.79838549429E+03  0.50400001928E-02 0. -1.
       -1    1    3    3    0  502 -0.29330255427E+03 -0.72002386228E+03 -0.10225593194E+04  0.12845576329E+04  0.50400001928E-02 0.  1.
</event>
<event>
 5   0  0.2356829E-04  0.1704017E+04  0.7818609E-02  0.8759076E-01
       -2   -1    0    0    0  501  0.00000000000E+00  0.00000000000E+00  0.55339974574E+03  0.55339974575E+03  0.25500000920E-02 0.  1.
        2   -1    0    0  501    0  0.00000000000E+00  0.00000000000E+00 -0.13117439147E+04  0.13117439147E+04  0.25500000920E-02 0. -1.
    10030    2    1    2    0    0  0.00000000000E+00  0.00000000000E+00 -0.75834416891E+03  0.18651436604E+04  0.17040173108E+04 0.  0.
        5    1    3    3  502    0  0.19325959208E+03  0.59457847143E+03 -0.10127151414E+04  0.11901625420E+04  0.46999998093E+01 0. -1.
       -5    1    3    3    0  502 -0.19325959208E+03 -0.59457847143E+03  0.25437097250E+03  0.67498111845E+03  0.46999998093E+01 0.  1.
</event>
<event>
 5   0  0.1204741E-04  0.1693709E+04  0.7818609E-02  0.8764960E-01
        1   -1    0    0  501    0  0.00000000000E+00  0.00000000000E+00  0.19960182670E+04  0.19960182670E+04  0.50400001928E-02 0. -1.
       -1   -1    0    0    0  501  0.00000000000E+00  0.00000000000E+00 -0.35929662936E+03  0.35929662939E+03  0.50400001928E-02 0.  1.
    10030    2    1    2    0    0  0.00000000000E+00  0.00000000000E+00  0.16367216377E+04  0.23553148964E+04  0.16937091079E+04 0.  0.
        1    1    3    3  502    0  0.63820973591E+03 -0.11179296959E+03  0.60051247743E+02  0.65070384004E+03  0.50400001928E-02 0.  1.
       -1    1    3    3    0  502 -0.63820973591E+03  0.11179296959E+03  0.15766703899E+04  0.17046110564E+04  0.50400001928E-02 0. -1.
</event>
<event>
 5   0  0.2356829E-04  0.1698278E+04  0.7818609E-02  0.8762347E-01
       -2   -1    0    0    0  501  0.00000000000E+00  0.00000000000E+00  0.14266795832E+04  0.14266795832E+04  0.25500000920E-02 0.  1.
        2   -1    0    0  501    0  0.00000000000E+00  0.00000000000E+00 -0.50539511415E+03  0.50539511415E+03  0.25500000920E-02 0. -1.
    10030    2    1    2    0    0  0.00000000000E+00  0.00000000000E+00  0.92128446903E+03  0.19320746973E+04  0.16982778227E+04 0.  0.
        5    1    3    3  502    0 -0.93843778268E+02  0.37004898352E+03  0.13235249179E+04  0.13774916345E+04  0.46999998093E+01 0.  1.
       -5    1    3    3    0  502  0.93843778268E+02 -0.37004898352E+03 -0.40224044882E+03  0.55458306284E+03  0.46999998093E+01 0. -1.
</event>
<event>
 5   0  0.2234723E-04  0.1680266E+04  0.7818609E-02  0.8772700E-01
       -2   -1    0    0    0  501  0.00000000000E+00  0.00000000000E+00  0.44500917599E+03  0.44500917600E+03  0.25500000920E-02 0.  1.
        2   -1    0    0  501    0  0.00000000000E+00  0.00000000000E+00 -0.15860878737E+04  0.15860878737E+04  0.25500000920E-02 0. -1.
    10030    2    1    2    0    0  0.00000000000E+00  0.00000000000E+00 -0.11410786978E+04  0.20310970497E+04  0.16802662381E+04 0.  0.
        1    1    3    3  502    0  0.54680270838E+03 -0.49465910019E+03 -0.83794404701E+02  0.74209320815E+03  0.50400001928E-02 0.  1.
       -1    1    3    3    0  502 -0.54680270838E+03  0.49465910019E+03 -0.10572842930E+04  0.12890038416E+04  0.50400001928E-02 0. -1.
</event>
<event>
 5   0  0.2242967E-04  0.1702252E+04  0.7818609E-02  0.8760081E-01
       -2   -1    0    0    0  501  0.00000000000E+00  0.00000000000E+00  0.78525220970E+03  0.78525220971E+03  0.25500000920E-02 0. -1.
        2   -1    0    0  501    0  0.00000000000E+00  0.00000000000E+00 -0.92252632082E+03  0.92252632082E+03  0.25500000920E-02 0.  1.
    10030    2    1    2    0    0  0.00000000000E+00  0.00000000000E+00 -0.13727411111E+03  0.17077785305E+04  0.17022524277E+04 0.  0.
        4    1    3    3  502    0 -0.42234091421E+03  0.52198818821E+03 -0.59337489180E+03  0.89606857526E+03  0.12699999809E+01 0.  1.
       -4    1    3    3    0  502  0.42234091421E+03 -0.52198818821E+03  0.45610078068E+03  0.81170995527E+03  0.12699999809E+01 0. -1.
</event>
<event>
 5   0  0.2356829E-04  0.1677440E+04  0.7818609E-02  0.8774337E-01
       -2   -1    0    0    0  501  0.00000000000E+00  0.00000000000E+00  0.70379864547E+03  0.70379864547E+03  0.25500000920E-02 0. -1.
        2   -1    0    0  501    0  0.00000000000E+00  0.00000000000E+00 -0.99950656386E+03  0.99950656386E+03  0.25500000920E-02 0.  1.
    10030    2    1    2    0    0  0.00000000000E+00  0.00000000000E+00 -0.29570791839E+03  0.17033052093E+04  0.16774401519E+04 0.  0.
        5    1    3    3  502    0  0.47420949583E+03  0.63791126271E+03 -0.41960691322E+03  0.89883117249E+03  0.46999998093E+01 0.  1.
       -5    1    3    3    0  502 -0.47420949583E+03 -0.63791126271E+03  0.12389899483E+03  0.80447403684E+03  0.46999998093E+01 0. -1.
</event>
<event>
 5   0  0.1126958E-04  0.1656897E+04  0.7818609E-02  0.8786337E-01
       -1   -1    0    0    0  501  0.00000000000E+00  0.00000000000E+00  0.43116417852E+03  0.43116417855E+03  0.50400001928E-02 0. -1.
        1   -1    0    0  501    0  0.00000000000E+00  0.00000000000E+00 -0.15917993624E+04  0.15917993624E+04  0.50400001928E-02 0.  1.
    10030    2    1    2    0    0  0.00000000000E+00  0.00000000000E+00 -0.11606351839E+04  0.20229635410E+04  0.16568969364E+04 0.  0.
        4    1    3    3  502    0 -0.56946068318E+03  0.62611954976E+02  0.15032765039E+03  0.59228856309E+03  0.12699999809E+01 0. -1.
       -4    1    3    3    0  502  0.56946068318E+03 -0.62611954976E+02 -0.13109628343E+04  0.14306749779E+04  0.12699999809E+01 0.  1.
</event>
<event>
 5   0  0.2234723E-04  0.1699147E+04  0.7818609E-02  0.8761851E-01
       -2   -1    0    0    0  501  0.00000000000E+00  0.00000000000E+00  0.93365224502E+03  0.93365224502E+03  0.25500000920E-02 0. -1.
        2   -1    0    0  501    0  0.00000000000E+00  0.00000000000E+00 -0.77306662555E+03  0.77306662556E+03  0.25500000920E-02 0.  1.
    10030    2    1    2    0    0  0.00000000000E+00  0.00000000000E+00  0.16058561946E+03  0.17067188706E+04  0.16991473044E+04 0.  0.
        1    1    3    3  502    0  0.53207439642E+03 -0.60746288564E+03 -0.18481714109E+03  0.82841517152E+03  0.50400001928E-02 0.  1.
       -1    1    3    3    0  502 -0.53207439642E+03  0.60746288564E+03  0.34540276055E+03  0.87830369905E+03  0.50400001928E-02 0. -1.
</event>
<event>
 5   0  0.1126958E-04  0.1687957E+04  0.7818609E-02  0.8768263E-01
       -1   -1    0    0    0  501  0.00000000000E+00  0.00000000000E+00  0.71586633563E+03  0.71586633565E+03  0.50400001928E-02 0. -1.
        1   -1    0    0  501    0  0.00000000000E+00  0.00000000000E+00 -0.99501804628E+03  0.99501804630E+03  0.50400001928E-02 0.  1.
    10030    2    1    2    0    0  0.00000000000E+00  0.00000000000E+00 -0.27915171065E+03  0.17108843819E+04  0.16879572539E+04 0.  0.
        4    1    3    3  502    0 -0.18547607491E+02  0.40704722321E+03  0.60956182579E+03  0.73321121651E+03  0.12699999809E+01 0. -1.
       -4    1    3    3    0  502  0.18547607491E+02 -0.40704722321E+03 -0.88871353644E+03  0.97767316543E+03  0.12699999809E+01 0.  1.
</event>
<event>
 5   0  0.1215233E-04  0.1700389E+04  0.7818609E-02  0.8761143E-01
        1   -1    0    0  501    0  0.00000000000E+00  0.00000000000E+00  0.22406332092E+04  0.22406332092E+04  0.50400001928E-02 0. -1.
       -1   -1    0    0    0  501  0.00000000000E+00  0.00000000000E+00 -0.32260099061E+03  0.32260099065E+03  0.50400001928E-02 0.  1.
    10030    2    1    2    0    0  0.00000000000E+00  0.00000000000E+00  0.19180322186E+04  0.25632341998E+04  0.17003887708E+04 0.  0.
        2    1    3    3  502    0  0.61413137112E+03 -0.41625629202E+02  0.18430760135E+04  0.19431467329E+04  0.25500000920E-02 0. -1.
       -2    1    3    3    0  502 -0.61413137112E+03  0.41625629202E+02  0.74956205097E+02  0.62008746696E+03  0.25500000920E-02 0.  1.
</event>
<event>
 5   0  0.8372750E-05  0.1697683E+04  0.7818609E-02  0.8762687E-01
       -4   -1    0    0    0  501  0.00000000000E+00  0.00000000000E+00  0.11116961344E+04  0.11116968599E+04  0.12699999809E+01 0.  1.
        4   -1    0    0  501    0  0.00000000000E+00  0.00000000000E+00 -0.64813569320E+03  0.64813693746E+03  0.12699999809E+01 0. -1.
    10030    2    1    2    0    0  0.00000000000E+00  0.00000000000E+00  0.46356044125E+03  0.17598337973E+04  0.16976827476E+04 0.  0.
        5    1    3    3  502    0  0.68856208358E+03 -0.33476545354E+03 -0.14813948794E+03  0.77984168247E+03  0.46999998093E+01 0. -1.
       -5    1    3    3    0  502 -0.68856208358E+03  0.33476545354E+03  0.61169992919E+03  0.97999211486E+03  0.46999998093E+01 0.  1.
</event>
<event>
 5   0  0.1204741E-04  0.1693585E+04  0.7818609E-02  0.8765031E-01
        1   -1    0    0  501    0  0.00000000000E+00  0.00000000000E+00  0.72416647581E+03  0.72416647582E+03  0.50400001928E-02 0. -1.
       -1   -1    0    0    0  501  0.00000000000E+00  0.00000000000E+00 -0.99018347544E+03  0.99018347545E+03  0.50400001928E-02 0.  1.
    10030    2    1    2    0    0  0.00000000000E+00  0.00000000000E+00 -0.26601699963E+03  0.17143499513E+04  0.16935851651E+04 0.  0.
        1    1    3    3  502    0  0.81426043498E+03  0.50031262681E+01 -0.36826408479E+03  0.89367976558E+03  0.50400001928E-02 0.  1.
       -1    1    3    3    0  502 -0.81426043498E+03 -0.50031262681E+01  0.10224708516E+03  0.82067018569E+03  0.50400001928E-02 0. -1.
</event>
<event>
 5   0  0.1126958E-04  0.1597286E+04  0.7818609E-02  0.8822217E-01
        1   -1    0    0  501    0  0.00000000000E+00  0.00000000000E+00  0.73728900415E+03  0.73728900416E+03  0.50400001928E-02 0.  1.
       -1   -1    0    0    0  501  0.00000000000E+00  0.00000000000E+00 -0.86510251578E+03  0.86510251579E+03  0.50400001928E-02 0. -1.
    10030    2    1    2    0    0  0.00000000000E+00  0.00000000000E+00 -0.12781351163E+03  0.16023915200E+04  0.15972859135E+04 0.  0.
        4    1    3    3  502    0  0.47104687735E+03  0.63929631968E+03  0.21477073910E+02  0.79438518530E+03  0.12699999809E+01 0.  1.
       -4    1    3    3    0  502 -0.47104687735E+03 -0.63929631968E+03 -0.14929058554E+03  0.80800633466E+03  0.12699999809E+01 0. -1.
</event>
<event>
 5   0  0.2242967E-04  0.1659020E+04  0.7818609E-02  0.8785088E-01
        2   -1    0    0  501    0  0.00000000000E+00  0.00000000000E+00  0.14273644554E+04  0.14273644554E+04  0.25500000920E-02 0.  1.
       -2   -1    0    0    0  501  0.00000000000E+00  0.00000000000E+00 -0.48206782626E+03  0.48206782627E+03  0.25500000920E-02 0. -1.
    10030    2    1    2    0    0  0.00000000000E+00  0.00000000000E+00  0.94529662915E+03  0.19094322817E+04  0.16590195663E+04 0.  0.
        4    1    3    3  502    0 -0.16318182151E+03  0.45197852703E+03  0.12508506879E+04  0.13399783402E+04  0.12699999809E+01 0.  1.
       -4    1    3    3    0  502  0.16318182151E+03 -0.45197852703E+03 -0.30555405877E+03  0.56945394151E+03  0.12699999809E+01 0. -1.
</event>
<event>
 5   0  0.2224454E-04  0.1702515E+04  0.7818609E-02  0.8759931E-01
        2   -1    0    0  501    0  0.00000000000E+00  0.00000000000E+00  0.16060134955E+04  0.16060134955E+04  0.25500000920E-02 0. -1.
       -2   -1    0    0    0  501  0.00000000000E+00  0.00000000000E+00 -0.45120402323E+03  0.45120402324E+03  0.25500000920E-02 0.  1.
    10030    2    1    2    0    0  0.00000000000E+00  0.00000000000E+00  0.11548094723E+04  0.20572175188E+04  0.17025154925E+04 0.  0.
        2    1    3    3  502    0  0.82562935993E+03  0.15672513784E+03  0.74137046710E+03  0.11206501587E+04  0.25500000920E-02 0.  1.
       -2    1    3    3    0  502 -0.82562935993E+03 -0.15672513784E+03  0.41343900518E+03  0.93656736001E+03  0.25500000920E-02 0. -1.
</event>
<event>
 5   0  0.1234158E-04  0.1694322E+04  0.7818609E-02  0.8764610E-01
       -1   -1    0    0    0  501  0.00000000000E+00  0.00000000000E+00  0.69418495679E+03  0.69418495681E+03  0.50400001928E-02 0. -1.
        1   -1    0    0  501    0  0.00000000000E+00  0.00000000000E+00 -0.10338474351E+04  0.10338474351E+04  0.50400001928E-02 0.  1.
    10030    2    1    2    0    0  0.00000000000E+00  0.00000000000E+00 -0.33966247827E+03  0.17280323919E+04  0.16943215008E+04 0.  0.
        5    1    3    3  502    0 -0.50144046796E+03  0.56367721435E+03  0.22317270879E+03  0.78676724184E+03  0.46999998093E+01 0. -1.
       -5    1    3    3    0  502  0.50144046796E+03 -0.56367721435E+03 -0.56283518706E+03  0.94126515004E+03  0.46999998093E+01 0.  1.
</event>
<event>
 5   0  0.2224454E-04  0.1681943E+04  0.7818609E-02  0.8771731E-01
       -2   -1    0    0    0  501  0.00000000000E+00  0.00000000000E+00  0.51900229561E+03  0.51900229562E+03  0.25500000920E-02 0. -1.
        2   -1    0    0  501    0  0.00000000000E+00  0.00000000000E+00 -0.13626774007E+04  0.13626774007E+04  0.25500000920E-02 0.  1.
    10030    2    1    2    0    0  0.00000000000E+00  0.00000000000E+00 -0.84367510512E+03  0.18816796963E+04  0.16819425664E+04 0.  0.
        2    1    3    3  502    0 -0.58150483425E+03 -0.52088924951E+03 -0.72042716767E+02  0.78400486960E+03  0.25500000920E-02 0. -1.
       -2    1    3    3    0  502  0.58150483425E+03  0.52088924951E+03 -0.77163238835E+03  0.10976748267E+04  0.25500000920E-02 0.  1.
</event>
<event>
 5   0  0.1234158E-04  0.1714206E+04  0.7818609E-02  0.8753303E-01
       -1   -1    0    0    0  501  0.00000000000E+00  0.00000000000E+00  0.12947910251E+04  0.12947910251E+04  0.50400001928E-02 0.  1.
        1   -1    0    0  501    0  0.00000000000E+00  0.00000000000E+00 -0.56736987205E+03  0.56736987207E+03  0.50400001928E-02 0. -1.
    10030    2    1    2    0    0  0.00000000000E+00  0.00000000000E+00  0.72742115305E+03  0.18621608972E+04  0.17142058433E+04 0.  0.
        5    1    3    3  502    0  0.45848610410E+03  0.52121105159E+03  0.90982681210E+03  0.11444113710E+04  0.46999998093E+01 0.  1.
       -5    1    3    3    0  502 -0.45848610410E+03 -0.52121105159E+03 -0.18240565905E+03  0.71774952623E+03  0.46999998093E+01 0. -1.
</event>
<event>
 5   0  0.2234723E-04  0.1690092E+04  0.7818609E-02  0.8767035E-01
       -2   -1    0    0    0  501  0.00000000000E+00  0.00000000000E+00  0.10008218793E+04  0.10008218793E+04  0.25500000920E-02 0.  1.
        2   -1    0    0  501    0  0.00000000000E+00  0.00000000000E+00 -0.71351651570E+03  0.71351651571E+03  0.25500000920E-02 0. -1.
    10030    2    1    2    0    0  0.00000000000E+00  0.00000000000E+00  0.28730536358E+03  0.17143383950E+04  0.16900922343E+04 0.  0.
        1    1    3    3  502    0 -0.14898425048E+03  0.49649871238E+03  0.82060664782E+03  0.97061967256E+03  0.50400001928E-02 0.  1.
       -1    1    3    3    0  502  0.14898425048E+03 -0.49649871238E+03 -0.53330128424E+03  0.74371872243E+03  0.50400001928E-02 0. -1.
</event>
<event>
 5   0  0.2242967E-04  0.1790497E+04  0.7818609E-02  0.8711369E-01
        2   -1    0    0  501    0  0.00000000000E+00  0.00000000000E+00  0.12574972660E+04  0.12574972660E+04  0.25500000920E-02 0.  1.
       -2   -1    0    0    0  501  0.00000000000E+00  0.00000000000E+00 -0.63735341840E+03  0.63735341840E+03  0.25500000920E-02 0. -1.
    10030    2    1    2    0    0  0.00000000000E+00  0.00000000000E+00  0.62014384764E+03  0.18948506844E+04  0.17904973400E+04 0.  0.
        4    1    3    3  502    0  0.64278371821E+03  0.22542951571E+03  0.92485911974E+03  0.11486319599E+04  0.12699999809E+01 0.  1.
       -4    1    3    3    0  502 -0.64278371821E+03 -0.22542951571E+03 -0.30471527211E+03  0.74621872458E+03  0.12699999809E+01 0. -1.
</event>
<event>
 5   0  0.1186302E-04  0.1656589E+04  0.7818609E-02  0.8786518E-01
       -1   -1    0    0    0  501  0.00000000000E+00  0.00000000000E+00  0.10013370105E+04  0.10013370105E+04  0.50400001928E-02 0.  1.
        1   -1    0    0  501    0  0.00000000000E+00  0.00000000000E+00 -0.68515583793E+03  0.68515583795E+03  0.50400001928E-02 0. -1.
    10030    2    1    2    0    0  0.00000000000E+00  0.00000000000E+00  0.31618117260E+03  0.16864928485E+04  0.16565891446E+04 0.  0.
        3    1    3    3  502    0  0.22725798408E+03  0.46025548416E+03 -0.50371374013E+03  0.71917233277E+03  0.10100000352E+00 0. -1.
       -3    1    3    3    0  502 -0.22725798408E+03 -0.46025548416E+03  0.81989491273E+03  0.96732051573E+03  0.10100000352E+00 0.  1.
</event>
<event>
 5   0  0.2242967E-04  0.1698978E+04  0.7818609E-02  0.8761948E-01
        2   -1    0    0  501    0  0.00000000000E+00  0.00000000000E+00  0.60627568731E+03  0.60627568732E+03  0.25500000920E-02 0.  1.
       -2   -1    0    0    0  501  0.00000000000E+00  0.00000000000E+00 -0.11902689958E+04  0.11902689958E+04  0.25500000920E-02 0. -1.
    10030    2    1    2    0    0  0.00000000000E+00  0.00000000000E+00 -0.58399330852E+03  0.17965446831E+04  0.16989775202E+04 0.  0.
        4    1    3    3  502    0 -0.64031820679E+03 -0.25538153111E+03 -0.81689217274E+03  0.10688973604E+04  0.12699999809E+01 0. -1.
       -4    1    3    3    0  502  0.64031820679E+03  0.25538153111E+03  0.23289886422E+03  0.72764732270E+03  0.12699999809E+01 0.  1.
</event>
<event>
 5   0  0.2356829E-04  0.1698333E+04  0.7818609E-02  0.8762316E-01
       -2   -1    0    0    0  501  0.00000000000E+00  0.00000000000E+00  0.12271410245E+04  0.12271410245E+04  0.25500000920E-02 0. -1.
        2   -1    0    0  501    0  0.00000000000E+00  0.00000000000E+00 -0.58761250587E+03  0.58761250587E+03  0.25500000920E-02 0.  1.
    10030    2    1    2    0    0  0.00000000000E+00  0.00000000000E+00  0.63952851862E+03  0.18147535304E+04  0.16983326087E+04 0.  0.
        5    1    3    3  502    0 -0.14860997208E+03  0.82597280017E+03  0.45803865953E+03  0.95610537811E+03  0.46999998093E+01 0.  1.
       -5    1    3    3    0  502  0.14860997208E+03 -0.82597280017E+03  0.18148985909E+03  0.85864815226E+03  0.46999998093E+01 0. -1.
</event>
<event>
 5   0  0.2234723E-04  0.1702651E+04  0.7818609E-02  0.8759854E-01
       -2   -1    0    0    0  501  0.00000000000E+00  0.00000000000E+00  0.62462731870E+03  0.62462731870E+03  0.25500000920E-02 0.  1.
        2   -1    0    0  501    0  0.00000000000E+00  0.00000000000E+00 -0.11603000979E+04  0.11603000979E+04  0.25500000920E-02 0. -1.
    10030    2    1    2    0    0  0.00000000000E+00  0.00000000000E+00 -0.53567277921E+03  0.17849274166E+04  0.17026510377E+04 0.  0.
        1    1    3    3  502    0 -0.44480449596E+03  0.26842792420E+03  0.43917966316E+03  0.68028182886E+03  0.50400001928E-02 0.  1.
       -1    1    3    3    0  502  0.44480449596E+03 -0.26842792420E+03 -0.97485244237E+03  0.11046455878E+04  0.50400001928E-02 0. -1.
</event>
<event>
 5   0  0.1126958E-04  0.1680470E+04  0.7818609E-02  0.8772582E-01
       -1   -1    0    0    0  501  0.00000000000E+00  0.00000000000E+00  0.77951662853E+03  0.77951662854E+03  0.50400001928E-02 0. -1.
        1   -1    0    0  501    0  0.00000000000E+00  0.00000000000E+00 -0.90568284524E+03  0.90568284525E+03  0.50400001928E-02 0.  1.
    10030    2    1    2    0    0  0.00000000000E+00  0.00000000000E+00 -0.12616621671E+03  0.16851994738E+04  0.16804699796E+04 0.  0.
        4    1    3    3  502    0 -0.58711240114E+03 -0.33294191680E+03  0.43876706726E+03  0.80502760434E+03  0.12699999809E+01 0. -1.
       -4    1    3    3    0  502  0.58711240114E+03  0.33294191680E+03 -0.56493328398E+03  0.88017186946E+03  0.12699999809E+01 0.  1.
</event>
<event>
 5   0  0.2234723E-04  0.1659248E+04  0.7818609E-02  0.8784954E-01
        2   -1    0    0  501    0  0.00000000000E+00  0.00000000000E+00  0.12461417810E+04  0.12461417810E+04  0.25500000920E-02 0. -1.
       -2   -1    0    0    0  501  0.00000000000E+00  0.00000000000E+00 -0.55232564384E+03  0.55232564384E+03  0.25500000920E-02 0.  1.
    10030    2    1    2    0    0  0.00000000000E+00  0.00000000000E+00  0.69381613720E+03  0.17984674249E+04  0.16592480966E+04 0.  0.
        1    1    3    3  502    0  0.66727533304E+03  0.49058409876E+03  0.29439811467E+03  0.87897632390E+03  0.50400001928E-02 0. -1.
       -1    1    3    3    0  502 -0.66727533304E+03 -0.49058409876E+03  0.39941802252E+03  0.91949110098E+03  0.50400001928E-02 0.  1.
</event>
<event>
 5   0  0.1215233E-04  0.1700296E+04  0.7818609E-02  0.8761196E-01
       -1   -1    0    0    0  501  0.00000000000E+00  0.00000000000E+00  0.40539558153E+03  0.40539558156E+03  0.50400001928E-02 0.  1.
        1   -1    0    0  501    0  0.00000000000E+00  0.00000000000E+00 -0.17828305050E+04  0.17828305050E+04  0.50400001928E-02 0. -1.
    10030    2    1    2    0    0  0.00000000000E+00  0.00000000000E+00 -0.13774349234E+04  0.21882260865E+04  0.17002959853E+04 0.  0.
        2    1    3    3  502    0  0.56267234574E+03  0.72067212302E+02 -0.15036412060E+04  0.16070876542E+04  0.25500000920E-02 0. -1.
       -2    1    3    3    0  502 -0.56267234574E+03 -0.72067212302E+02  0.12620628263E+03  0.58113843233E+03  0.25500000920E-02 0.  1.
</event>
<event>
 5   0  0.2288806E-04  0.1700070E+04  0.7818609E-02  0.8761324E-01
        2   -1    0    0  501    0  0.00000000000E+00  0.00000000000E+00  0.13636024531E+04  0.13636024531E+04  0.25500000920E-02 0.  1.
       -2   -1    0    0    0  501  0.00000000000E+00  0.00000000000E+00 -0.52989027877E+03  0.52989027877E+03  0.25500000920E-02 0. -1.
    10030    2    1    2    0    0  0.00000000000E+00  0.00000000000E+00  0.83371217431E+03  0.18934927319E+04  0.17000702150E+04 0.  0.
        3    1    3    3  502    0 -0.41266448052E+03 -0.20528379268E+03 -0.37863556409E+03  0.59648831473E+03  0.10100000352E+00 0. -1.
       -3    1    3    3    0  502  0.41266448052E+03  0.20528379268E+03  0.12123477384E+04  0.12970044171E+04  0.10100000352E+00 0.  1.
</event>
<event>
 5   0  0.1126958E-04  0.1700788E+04  0.7818609E-02  0.8760915E-01
       -1   -1    0    0    0  501  0.00000000000E+00  0.00000000000E+00  0.96407897095E+03  0.96407897096E+03  0.50400001928E-02 0. -1.
        1   -1    0    0  501    0  0.00000000000E+00  0.00000000000E+00 -0.75011529113E+03  0.75011529115E+03  0.50400001928E-02 0.  1.
    10030    2    1    2    0    0  0.00000000000E+00  0.00000000000E+00  0.21396367981E+03  0.17141942621E+04  0.17007884971E+04 0.  0.
        4    1    3    3  502    0  0.23226861885E+03  0.67522748339E+02 -0.71471144526E+03  0.75453435689E+03  0.12699999809E+01 0.  1.
       -4    1    3    3    0  502 -0.23226861885E+03 -0.67522748339E+02  0.92867512508E+03  0.95965990522E+03  0.12699999809E+01 0. -1.
</event>
<event>
 5   0  0.1126958E-04  0.1694381E+04  0.7818609E-02  0.8764575E-01
        1   -1    0    0  501    0  0.00000000000E+00  0.00000000000E+00  0.16764468743E+04  0.16764468743E+04  0.50400001928E-02 0.  1.
       -1   -1    0    0    0  501  0.00000000000E+00  0.00000000000E+00 -0.42812691245E+03  0.42812691248E+03  0.50400001928E-02 0. -1.
    10030    2    1    2    0    0  0.00000000000E+00  0.00000000000E+00  0.12483199618E+04  0.21045737868E+04  0.16943813316E+04 0.  0.
        4    1    3    3  502    0  0.70893000933E+03 -0.93621973606E+02  0.11884346685E+04  0.13869842848E+04  0.12699999809E+01 0.  1.
       -4    1    3    3    0  502 -0.70893000933E+03  0.93621973606E+02  0.59885293301E+02  0.71758950196E+03  0.12699999809E+01 0. -1.
</event>
<event>
 5   0  0.2234723E-04  0.1707748E+04  0.7818609E-02  0.8756958E-01
        2   -1    0    0  501    0  0.00000000000E+00  0.00000000000E+00  0.18381550352E+04  0.18381550352E+04  0.25500000920E-02 0. -1.
       -2   -1    0    0    0  501  0.00000000000E+00  0.00000000000E+00 -0.39664826642E+03  0.39664826643E+03  0.25500000920E-02 0.  1.
    10030    2    1    2    0    0  0.00000000000E+00  0.00000000000E+00  0.14415067688E+04  0.22348033016E+04  0.17077482345E+04 0.  0.
        1    1    3    3  502    0  0.57880710849E+03  0.14829734865E+03  0.15190056863E+04  0.16322953310E+04  0.50400001928E-02 0.  1.
       -1    1    3    3    0  502 -0.57880710849E+03 -0.14829734865E+03 -0.77498917525E+02  0.60250797066E+03  0.50400001928E-02 0. -1.
</event>
<event>
 5   0  0.2242967E-04  0.1650888E+04  0.7818609E-02  0.8789882E-01
       -2   -1    0    0    0  501  0.00000000000E+00  0.00000000000E+00  0.92800939463E+03  0.92800939464E+03  0.25500000920E-02 0.  1.
        2   -1    0    0  501    0  0.00000000000E+00  0.00000000000E+00 -0.73421394807E+03  0.73421394807E+03  0.25500000920E-02 0. -1.
    10030    2    1    2    0    0  0.00000000000E+00  0.00000000000E+00  0.19379544657E+03  0.16622233427E+04  0.16508875691E+04 0.  0.
        4    1    3    3  502    0 -0.77995660057E+03 -0.21434395762E+03 -0.68792847589E+02  0.81179412398E+03  0.12699999809E+01 0. -1.
       -4    1    3    3    0  502  0.77995660057E+03  0.21434395762E+03  0.26258829415E+03  0.85042921873E+03  0.12699999809E+01 0.  1.
</event>
<event>
 5   0  0.1234158E-04  0.1691679E+04  0.7818609E-02  0.8766125E-01
        1   -1    0    0  501    0  0.00000000000E+00  0.00000000000E+00  0.11394103479E+04  0.11394103479E+04  0.50400001928E-02 0. -1.
       -1   -1    0    0    0  501  0.00000000000E+00  0.00000000000E+00 -0.62790727529E+03  0.62790727531E+03  0.50400001928E-02 0.  1.
    10030    2    1    2    0    0  0.00000000000E+00  0.00000000000E+00  0.51150307262E+03  0.17673176232E+04  0.16916785120E+04 0.  0.
        5    1    3    3  502    0 -0.24934855722E+02  0.40478316457E+03 -0.51969736352E+03  0.65922575572E+03  0.46999998093E+01 0.  1.
       -5    1    3    3    0  502  0.24934855722E+02 -0.40478316457E+03  0.10312004361E+04  0.11080918675E+04  0.46999998093E+01 0. -1.
</event>
<event>
 5   0  0.2234723E-04  0.1708016E+04  0.7818609E-02  0.8756806E-01
        2   -1    0    0  501    0  0.00000000000E+00  0.00000000000E+00  0.65271103234E+03  0.65271103235E+03  0.25500000920E-02 0. -1.
       -2   -1    0    0    0  501  0.00000000000E+00  0.00000000000E+00 -0.11173856619E+04  0.11173856619E+04  0.25500000920E-02 0.  1.
    10030    2    1    2    0    0  0.00000000000E+00  0.00000000000E+00 -0.46467462954E+03  0.17700966942E+04  0.17080163335E+04 0.  0.
        1    1    3    3  502    0 -0.36266100924E+03 -0.11976378298E+03  0.55927373339E+03  0.67723960326E+03  0.50400001928E-02 0. -1.
       -1    1    3    3    0  502  0.36266100924E+03  0.11976378298E+03 -0.10239483629E+04  0.10928570910E+04  0.50400001928E-02 0.  1.
</event>
<event>
 5   0  0.2288806E-04  0.1690725E+04  0.7818609E-02  0.8766672E-01
       -2   -1    0    0    0  501  0.00000000000E+00  0.00000000000E+00  0.40460345030E+03  0.40460345031E+03  0.25500000920E-02 0. -1.
        2   -1    0    0  501    0  0.00000000000E+00  0.00000000000E+00 -0.17662672361E+04  0.17662672361E+04  0.25500000920E-02 0.  1.
    10030    2    1    2    0    0  0.00000000000E+00  0.00000000000E+00 -0.13616637858E+04  0.21708706864E+04  0.16907250727E+04 0.  0.
        3    1    3    3  502    0 -0.37742609682E+02 -0.56205738907E+03  0.12849293618E+03  0.57779188125E+03  0.10100000352E+00 0. -1.
       -3    1    3    3    0  502  0.37742609682E+02  0.56205738907E+03 -0.14901567219E+04  0.15930788051E+04  0.10100000352E+00 0.  1.
</event>
<event>
 5   0  0.1204741E-04  0.1684796E+04  0.7818609E-02  0.8770084E-01
        1   -1    0    0  501    0  0.00000000000E+00  0.00000000000E+00  0.25063335235E+04  0.25063335235E+04  0.50400001928E-02 0. -1.
       -1   -1    0    0    0  501  0.00000000000E+00  0.00000000000E+00 -0.28313640546E+03  0.28313640550E+03  0.50400001928E-02 0.  1.
    10030    2    1    2    0    0  0.00000000000E+00  0.00000000000E+00  0.22231971180E+04  0.27894699290E+04  0.16847958509E+04 0.  0.
        1    1    3    3  502    0 -0.21227648984E+03 -0.56588755702E+03  0.20831611947E+04  0.21690667575E+04  0.50400001928E-02 0. -1.
       -1    1    3    3    0  502  0.21227648984E+03  0.56588755702E+03  0.14003592330E+03  0.62040317147E+03  0.50400001928E-02 0.  1.
</event>
<event>
 5   0  0.1126958E-04  0.1701494E+04  0.7818609E-02  0.8760513E-01
        1   -1    0    0  501    0  0.00000000000E+00  0.00000000000E+00  0.23265098203E+04  0.23265098203E+04  0.50400001928E-02 0.  1.
       -1   -1    0    0    0  501  0.00000000000E+00  0.00000000000E+00 -0.31109715745E+03  0.31109715749E+03  0.50400001928E-02 0. -1.
    10030    2    1    2    0    0  0.00000000000E+00  0.00000000000E+00  0.20154126629E+04  0.26376069778E+04  0.17014941574E+04 0.  0.
        4    1    3    3  502    0  0.31367071820E+03 -0.53385086935E+03  0.10330020913E+03  0.62774088306E+03  0.12699999809E+01 0. -1.
       -4    1    3    3    0  502 -0.31367071820E+03  0.53385086935E+03  0.19121124538E+04  0.20098660948E+04  0.12699999809E+01 0.  1.
</event>
<event>
 5   0  0.1186302E-04  0.1684403E+04  0.7818609E-02  0.8770310E-01
       -1   -1    0    0    0  501  0.00000000000E+00  0.00000000000E+00  0.65732677023E+03  0.65732677025E+03  0.50400001928E-02 0.  1.
        1   -1    0    0  501    0  0.00000000000E+00  0.00000000000E+00 -0.10790721484E+04  0.10790721484E+04  0.50400001928E-02 0. -1.
    10030    2    1    2    0    0  0.00000000000E+00  0.00000000000E+00 -0.42174537819E+03  0.17363989187E+04  0.16844025768E+04 0.  0.
        3    1    3    3  502    0  0.19564534358E+03 -0.51456557536E+03 -0.86792404740E+03  0.10277874265E+04  0.10100000352E+00 0. -1.
       -3    1    3    3    0  502 -0.19564534358E+03  0.51456557536E+03  0.44617866921E+03  0.70861149219E+03  0.10100000352E+00 0.  1.
</event>
<event>
 5   0  0.1234158E-04  0.1712247E+04  0.7818609E-02  0.8754410E-01
        1   -1    0    0  501    0  0.00000000000E+00  0.00000000000E+00  0.15889643330E+04  0.15889643330E+04  0.50400001928E-02 0.  1.
       -1   -1    0    0    0  501  0.00000000000E+00  0.00000000000E+00 -0.46127357978E+03  0.46127357981E+03  0.50400001928E-02 0. -1.
    10030    2    1    2    0    0  0.00000000000E+00  0.00000000000E+00  0.11276907532E+04  0.20502379128E+04  0.17122467884E+04 0.  0.
        5    1    3    3  502    0 -0.60210635233E+03 -0.33541107509E+03  0.11719205593E+04  0.13595780728E+04  0.46999998093E+01 0.  1.
       -5    1    3    3    0  502  0.60210635233E+03  0.33541107509E+03 -0.44229806086E+02  0.69065983998E+03  0.46999998093E+01 0. -1.
</event>
<event>
 5   0  0.1186302E-04  0.1693642E+04  0.7818609E-02  0.8764999E-01
        1   -1    0    0  501    0  0.00000000000E+00  0.00000000000E+00  0.90412833561E+03  0.90412833563E+03  0.50400001928E-02 0.  1.
       -1   -1    0    0    0  501  0.00000000000E+00  0.00000000000E+00 -0.79314650262E+03  0.79314650264E+03  0.50400001928E-02 0. -1.
    10030    2    1    2    0    0  0.00000000000E+00  0.00000000000E+00  0.11098183299E+03  0.16972748383E+04  0.16936424975E+04 0.  0.
        3    1    3    3  502    0  0.10240913048E+01  0.32799887873E+03  0.83788415554E+03  0.89979674456E+03  0.10100000352E+00 0.  1.
       -3    1    3    3    0  502 -0.10240913048E+01 -0.32799887873E+03 -0.72690232255E+03  0.79747809371E+03  0.10100000352E+00 0. -1.
</event>
<event>
 5   0  0.2242967E-04  0.1701902E+04  0.7818609E-02  0.8760280E-01
       -2   -1    0    0    0  501  0.00000000000E+00  0.00000000000E+00  0.84381624517E+03  0.84381624517E+03  0.25500000920E-02 0.  1.
        2   -1    0    0  501    0  0.00000000000E+00  0.00000000000E+00 -0.85814598333E+03  0.85814598333E+03  0.25500000920E-02 0. -1.
    10030    2    1    2    0    0  0.00000000000E+00  0.00000000000E+00 -0.14329738165E+02  0.17019622285E+04  0.17019019025E+04 0.  0.
        4    1    3    3  502    0 -0.79832531625E+03 -0.17747000984E+03  0.22799659420E+03  0.84900116303E+03  0.12699999809E+01 0.  1.
       -4    1    3    3    0  502  0.79832531625E+03  0.17747000984E+03 -0.24232633236E+03  0.85296106547E+03  0.12699999809E+01 0. -1.
</event>
<event>
 5   0  0.2234723E-04  0.1710008E+04  0.7818609E-02  0.8755677E-01
        2   -1    0    0  501    0  0.00000000000E+00  0.00000000000E+00  0.10649102554E+04  0.10649102554E+04  0.25500000920E-02 0. -1.
       -2   -1    0    0    0  501  0.00000000000E+00  0.00000000000E+00 -0.68647238618E+03  0.68647238619E+03  0.25500000920E-02 0.  1.
    10030    2    1    2    0    0  0.00000000000E+00  0.00000000000E+00  0.37843786924E+03  0.17513826416E+04  0.17100075838E+04 0.  0.
        1    1    3    3  502    0  0.24592035265E+03 -0.39664113721E+03  0.92295391054E+03  0.10342364007E+04  0.50400001928E-02 0. -1.
       -1    1    3    3    0  502 -0.24592035265E+03  0.39664113721E+03 -0.54451604130E+03  0.71714624090E+03  0.50400001928E-02 0.  1.
</event>
<event>
 5   0  0.1215233E-04  0.1696714E+04  0.7818609E-02  0.8763241E-01
        1   -1    0    0  501    0  0.00000000000E+00  0.00000000000E+00  0.21337810283E+04  0.21337810283E+04  0.50400001928E-02 0.  1.
       -1   -1    0    0    0  501  0.00000000000E+00  0.00000000000E+00 -0.33729294081E+03  0.33729294085E+03  0.50400001928E-02 0. -1.
    10030    2    1    2    0    0  0.00000000000E+00  0.00000000000E+00  0.17964880875E+04  0.24710739691E+04  0.16967136212E+04 0.  0.
        2    1    3    3  502    0  0.53115391874E+03  0.45749720503E+03  0.20239957754E+03  0.72965318268E+03  0.25500000920E-02 0. -1.
       -2    1    3    3    0  502 -0.53115391874E+03 -0.45749720503E+03  0.15940885099E+04  0.17414207865E+04  0.25500000920E-02 0.  1.
</event>
<event>
 5   0  0.2356829E-04  0.1712291E+04  0.7818609E-02  0.8754385E-01
        2   -1    0    0  501    0  0.00000000000E+00  0.00000000000E+00  0.23386073202E+04  0.23386073202E+04  0.25500000920E-02 0. -1.
       -2   -1    0    0    0  501  0.00000000000E+00  0.00000000000E+00 -0.31342802022E+03  0.31342802023E+03  0.25500000920E-02 0.  1.
    10030    2    1    2    0    0  0.00000000000E+00  0.00000000000E+00  0.20251793000E+04  0.26520353405E+04  0.17122909361E+04 0.  0.
        5    1    3    3  502    0  0.39311045835E+03  0.17447913664E+03  0.21591205296E+04  0.22015454465E+04  0.46999998093E+01 0. -1.
       -5    1    3    3    0  502 -0.39311045835E+03 -0.17447913664E+03 -0.13394122959E+03  0.45048989397E+03  0.46999998093E+01 0.  1.
</event>
<event>
 5   0  0.1215233E-04  0.1657409E+04  0.7818609E-02  0.8786035E-01
       -1   -1    0    0    0  501  0.00000000000E+00  0.00000000000E+00  0.54376694457E+03  0.54376694460E+03  0.50400001928E-02 0. -1.
        1   -1    0    0  501    0  0.00000000000E+00  0.00000000000E+00 -0.12629518057E+04  0.12629518057E+04  0.50400001928E-02 0.  1.
    10030    2    1    2    0    0  0.00000000000E+00  0.00000000000E+00 -0.71918486110E+03  0.18067187503E+04  0.16574093575E+04 0.  0.
        2    1    3    3  502    0  0.25277636670E+02  0.27358713158E+03 -0.12118574543E+04  0.12426131204E+04  0.25500000920E-02 0.  1.
       -2    1    3    3    0  502 -0.25277636670E+02 -0.27358713158E+03  0.49267259323E+03  0.56410562983E+03  0.25500000920E-02 0. -1.
</event>
<event>
 5   0  0.2224454E-04  0.1695261E+04  0.7818609E-02  0.8764072E-01
       -2   -1    0    0    0  501  0.00000000000E+00  0.00000000000E+00  0.38284476455E+03  0.38284476456E+03  0.25500000920E-02 0. -1.
        2   -1    0    0  501    0  0.00000000000E+00  0.00000000000E+00 -0.18766810867E+04  0.18766810867E+04  0.25500000920E-02 0.  1.
    10030    2    1    2    0    0  0.00000000000E+00  0.00000000000E+00 -0.14938363221E+04  0.22595258513E+04  0.16952610758E+04 0.  0.
        2    1    3    3  502    0 -0.22773585355E+02 -0.69911818765E+03 -0.13850068838E+04  0.15516213922E+04  0.25500000920E-02 0.  1.
       -2    1    3    3    0  502  0.22773585355E+02  0.69911818765E+03 -0.10882943832E+03  0.70790445905E+03  0.25500000920E-02 0. -1.
</event>
<event>
 5   0  0.2288806E-04  0.1699075E+04  0.7818609E-02  0.8761892E-01
       -2   -1    0    0    0  501  0.00000000000E+00  0.00000000000E+00  0.77124367356E+03  0.77124367357E+03  0.25500000920E-02 0.  1.
        2   -1    0    0  501    0  0.00000000000E+00  0.00000000000E+00 -0.93577897421E+03  0.93577897421E+03  0.25500000920E-02 0. -1.
    10030    2    1    2    0    0  0.00000000000E+00  0.00000000000E+00 -0.16453530065E+03  0.17070226478E+04  0.16990745878E+04 0.  0.
        3    1    3    3  502    0  0.64671494560E+03 -0.50242788361E+03 -0.30924393799E+03  0.87538895497E+03  0.10100000352E+00 0. -1.
       -3    1    3    3    0  502 -0.64671494560E+03  0.50242788361E+03  0.14470863734E+03  0.83163369281E+03  0.10100000352E+00 0.  1.
</event>
<event>
 5   0  0.8372750E-05  0.1700596E+04  0.7818609E-02  0.8761025E-01
        3   -1    0    0  501    0  0.00000000000E+00  0.00000000000E+00  0.24276586650E+04  0.24276586671E+04  0.10100000352E+00 0. -1.
       -3   -1    0    0    0  501  0.00000000000E+00  0.00000000000E+00 -0.29782053985E+03  0.29782055697E+03  0.10100000352E+00 0.  1.
    10030    2    1    2    0    0  0.00000000000E+00  0.00000000000E+00  0.21298381251E+04  0.27254792241E+04  0.17005959430E+04 0.  0.
        5    1    3    3  502    0  0.26435136767E+03  0.26588387703E+03  0.22880012812E+04  0.23185227699E+04  0.46999998093E+01 0. -1.
       -5    1    3    3    0  502 -0.26435136767E+03 -0.26588387703E+03 -0.15816315608E+03  0.40695645417E+03  0.46999998093E+01 0.  1.
</event>
<event>
 5   0  0.2234723E-04  0.1694348E+04  0.7818609E-02  0.8764595E-01
        2   -1    0    0  501    0  0.00000000000E+00  0.00000000000E+00  0.83409919312E+03  0.83409919312E+03  0.25500000920E-02 0.  1.
       -2   -1    0    0    0  501  0.00000000000E+00  0.00000000000E+00 -0.86045357446E+03  0.86045357447E+03  0.25500000920E-02 0. -1.
    10030    2    1    2    0    0  0.00000000000E+00  0.00000000000E+00 -0.26354381342E+02  0.16945527676E+04  0.16943478181E+04 0.  0.
        1    1    3    3  502    0 -0.44283268719E+03  0.29127865288E+03  0.64778064275E+03  0.83699689582E+03  0.50400001928E-02 0.  1.
       -1    1    3    3    0  502  0.44283268719E+03 -0.29127865288E+03 -0.67413502409E+03  0.85755587177E+03  0.50400001928E-02 0. -1.
</event>
<event>
 5   0  0.2242967E-04  0.1699576E+04  0.7818609E-02  0.8761606E-01
       -2   -1    0    0    0  501  0.00000000000E+00  0.00000000000E+00  0.12461761602E+04  0.12461761603E+04  0.25500000920E-02 0. -1.
        2   -1    0    0  501    0  0.00000000000E+00  0.00000000000E+00 -0.57948430760E+03  0.57948430760E+03  0.25500000920E-02 0.  1.
    10030    2    1    2    0    0  0.00000000000E+00  0.00000000000E+00  0.66669185265E+03  0.18256604679E+04  0.16995758640E+04 0.  0.
        4    1    3    3  502    0 -0.83756053178E+03 -0.97890492850E+02  0.44625162289E+03  0.95406096075E+03  0.12699999809E+01 0. -1.
       -4    1    3    3    0  502  0.83756053178E+03  0.97890492850E+02  0.22044022976E+03  0.87159950711E+03  0.12699999809E+01 0.  1.
</event>
<event>
 5   0  0.1234158E-04  0.1677332E+04  0.7818609E-02  0.8774399E-01
       -1   -1    0    0    0  501  0.00000000000E+00  0.00000000000E+00  0.39257442692E+03  0.39257442695E+03  0.50400001928E-02 0. -1.
        1   -1    0    0  501    0  0.00000000000E+00  0.00000000000E+00 -0.17916620598E+04  0.17916620598E+04  0.50400001928E-02 0.  1.
    10030    2    1    2    0    0  0.00000000000E+00  0.00000000000E+00 -0.13990876329E+04  0.21842364867E+04  0.16773320559E+04 0.  0.
        5    1    3    3  502    0  0.49843353033E+03  0.67428455869E+03 -0.67924580439E+03  0.10791165845E+04  0.46999998093E+01 0.  1.
       -5    1    3    3    0  502 -0.49843353033E+03 -0.67428455869E+03 -0.71984182848E+03  0.11051199022E+04  0.46999998093E+01 0. -1.
</event>
<event>
 5   0  0.1126958E-04  0.1708540E+04  0.7818609E-02  0.8756508E-01
       -1   -1    0    0    0  501  0.00000000000E+00  0.00000000000E+00  0.11705666587E+04  0.11705666588E+04  0.50400001928E-02 0.  1.
        1   -1    0    0  501    0  0.00000000000E+00  0.00000000000E+00 -0.62343951388E+03  0.62343951390E+03  0.50400001928E-02 0. -1.
    10030    2    1    2    0    0  0.00000000000E+00  0.00000000000E+00  0.54712714487E+03  0.17940061727E+04  0.17085403229E+04 0.  0.
        4    1    3    3  502    0 -0.17821191018E+00  0.66323305403E+03  0.83891845202E+03  0.10694222261E+04  0.12699999809E+01 0.  1.
       -4    1    3    3    0  502  0.17821191018E+00 -0.66323305403E+03 -0.29179130715E+03  0.72458394652E+03  0.12699999809E+01 0. -1.
</event>
<event>
 5   0  0.1234158E-04  0.1736573E+04  0.7818609E-02  0.8740776E-01
        1   -1    0    0  501    0  0.00000000000E+00  0.00000000000E+00  0.18127040483E+04  0.18127040483E+04  0.50400001928E-02 0. -1.
       -1   -1    0    0    0  501  0.00000000000E+00  0.00000000000E+00 -0.41590960175E+03  0.41590960178E+03  0.50400001928E-02 0.  1.
    10030    2    1    2    0    0  0.00000000000E+00  0.00000000000E+00  0.13967944466E+04  0.22286136501E+04  0.17365725080E+04 0.  0.
        5    1    3    3  502    0 -0.32398409217E+03 -0.63900318607E+03  0.13278991236E+04  0.15088502033E+04  0.46999998093E+01 0. -1.
       -5    1    3    3    0  502  0.32398409217E+03  0.63900318607E+03  0.68895323035E+02  0.71976344678E+03  0.46999998093E+01 0.  1.
</event>
<event>
 5   0  0.2288806E-04  0.1708606E+04  0.7818609E-02  0.8756471E-01
       -2   -1    0    0    0  501  0.00000000000E+00  0.00000000000E+00  0.72214514940E+03  0.72214514941E+03  0.25500000920E-02 0.  1.
        2   -1    0    0  501    0  0.00000000000E+00  0.00000000000E+00 -0.10106469772E+04  0.10106469772E+04  0.25500000920E-02 0. -1.
    10030    2    1    2    0    0  0.00000000000E+00  0.00000000000E+00 -0.28850182779E+03  0.17327921266E+04  0.17086062301E+04 0.  0.
        3    1    3    3  502    0  0.45129582046E+03  0.54074108059E+01  0.59136947130E+03  0.74391869142E+03  0.10100000352E+00 0.  1.
       -3    1    3    3    0  502 -0.45129582046E+03 -0.54074108059E+01 -0.87987129909E+03  0.98887343518E+03  0.10100000352E+00 0. -1.
</event>
<event>
 5   0  0.2224454E-04  0.1703658E+04  0.7818609E-02  0.8759281E-01
       -2   -1    0    0    0  501  0.00000000000E+00  0.00000000000E+00  0.64667111586E+03  0.64667111586E+03  0.25500000920E-02 0. -1.
        2   -1    0    0  501    0  0.00000000000E+00  0.00000000000E+00 -0.11220736599E+04  0.11220736599E+04  0.25500000920E-02 0.  1.
    10030    2    1    2    0    0  0.00000000000E+00  0.00000000000E+00 -0.47540254402E+03  0.17687447757E+04  0.17036579771E+04 0.  0.
        2    1    3    3  502    0 -0.59202840189E+03  0.31694017141E+03 -0.78180734068E+03  0.10306170088E+04  0.25500000920E-02 0.  1.
       -2    1    3    3    0  502  0.59202840189E+03 -0.31694017141E+03  0.30640479666E+03  0.73812776693E+03  0.25500000920E-02 0. -1.
</event>
<event>
 5   0  0.2356829E-04  0.1679076E+04  0.7818609E-02  0.8773389E-01
        2   -1    0    0  501    0  0.00000000000E+00  0.00000000000E+00  0.23708311578E+04  0.23708311578E+04  0.25500000920E-02 0. -1.
       -2   -1    0    0    0  501  0.00000000000E+00  0.00000000000E+00 -0.29728992529E+03  0.29728992530E+03  0.25500000920E-02 0.  1.
    10030    2    1    2    0    0  0.00000000000E+00  0.00000000000E+00  0.20735412325E+04  0.26681210831E+04  0.16790761957E+04 0.  0.
        5    1    3    3  502    0  0.21475095605E+03 -0.93506645298E+02  0.23178380295E+04  0.23296473310E+04  0.46999998093E+01 0. -1.
       -5    1    3    3    0  502 -0.21475095605E+03  0.93506645298E+02 -0.24429679700E+03  0.33847375210E+03  0.46999998093E+01 0.  1.
</event>
<event>
 5   0  0.1126958E-04  0.1694453E+04  0.7818609E-02  0.8764534E-01
       -1   -1    0    0    0  501  0.00000000000E+00  0.00000000000E+00  0.59322495419E+03  0.59322495421E+03  0.50400001928E-02 0. -1.
        1   -1    0    0  501    0  0.00000000000E+00  0.00000000000E+00 -0.12099841868E+04  0.12099841869E+04  0.50400001928E-02 0.  1.
    10030    2    1    2    0    0  0.00000000000E+00  0.00000000000E+00 -0.61675923266E+03  0.18032091411E+04  0.16944530844E+04 0.  0.
        4    1    3    3  502    0 -0.79050851243E+03 -0.55881085202E+02 -0.62721725070E+03  0.10106579522E+04  0.12699999809E+01 0.  1.
       -4    1    3    3    0  502  0.79050851243E+03  0.55881085202E+02  0.10458018041E+02  0.79255118885E+03  0.12699999809E+01 0. -1.
</event>
<event>
 5   0  0.1204741E-04  0.1695497E+04  0.7818609E-02  0.8763937E-01
       -1   -1    0    0    0  501  0.00000000000E+00  0.00000000000E+00  0.64838811193E+03  0.64838811195E+03  0.50400001928E-02 0. -1.
        1   -1    0    0  501    0  0.00000000000E+00  0.00000000000E+00 -0.11084063321E+04  0.11084063321E+04  0.50400001928E-02 0.  1.
    10030    2    1    2    0    0  0.00000000000E+00  0.00000000000E+00 -0.46001822014E+03  0.17567944440E+04  0.16954969642E+04 0.  0.
        1    1    3    3  502    0 -0.36553835503E+03  0.72004444610E+03  0.37381025854E+02  0.80838087216E+03  0.50400001928E-02 0. -1.
       -1    1    3    3    0  502  0.36553835503E+03 -0.72004444610E+03 -0.49739924600E+03  0.94841357187E+03  0.50400001928E-02 0.  1.
</event>
<event>
 5   0  0.2224454E-04  0.1771979E+04  0.7818609E-02  0.8721344E-01
       -2   -1    0    0    0  501  0.00000000000E+00  0.00000000000E+00  0.50830223603E+03  0.50830223603E+03  0.25500000920E-02 0. -1.
        2   -1    0    0  501    0  0.00000000000E+00  0.00000000000E+00 -0.15443128943E+04  0.15443128944E+04  0.25500000920E-02 0.  1.
    10030    2    1    2    0    0  0.00000000000E+00  0.00000000000E+00 -0.10360106583E+04  0.20526151304E+04  0.17719793422E+04 0.  0.
        2    1    3    3  502    0 -0.22429569416E+03  0.11303603020E+03 -0.15022090084E+04  0.15230619185E+04  0.25500000920E-02 0.  1.
       -2    1    3    3    0  502  0.22429569416E+03 -0.11303603020E+03  0.46619835013E+03  0.52955321188E+03  0.25500000920E-02 0. -1.
</event>
<event>
 5   0  0.8372750E-05  0.1696407E+04  0.7818609E-02  0.8763416E-01
       -3   -1    0    0    0  501  0.00000000000E+00  0.00000000000E+00  0.13817723420E+04  0.13817723457E+04  0.10100000352E+00 0.  1.
        3   -1    0    0  501    0  0.00000000000E+00  0.00000000000E+00 -0.52067133017E+03  0.52067133997E+03  0.10100000352E+00 0. -1.
    10030    2    1    2    0    0  0.00000000000E+00  0.00000000000E+00  0.86110101181E+03  0.19024436856E+04  0.16964070928E+04 0.  0.
        3    1    3    3  502    0  0.78504062381E+03  0.32116217394E+03  0.42616062586E+03  0.94923485620E+03  0.10100000352E+00 0.  1.
       -3    1    3    3    0  502 -0.78504062381E+03 -0.32116217394E+03  0.43494038595E+03  0.95320882944E+03  0.10100000352E+00 0. -1.
</event>
<event>
 5   0  0.1126958E-04  0.1702491E+04  0.7818609E-02  0.8759945E-01
        1   -1    0    0  501    0  0.00000000000E+00  0.00000000000E+00  0.44343880222E+03  0.44343880225E+03  0.50400001928E-02 0.  1.
       -1   -1    0    0    0  501  0.00000000000E+00  0.00000000000E+00 -0.16340898650E+04  0.16340898650E+04  0.50400001928E-02 0. -1.
    10030    2    1    2    0    0  0.00000000000E+00  0.00000000000E+00 -0.11906510627E+04  0.20775286672E+04  0.17024909427E+04 0.  0.
        4    1    3    3  502    0 -0.43935907488E+03 -0.44034829797E+03  0.11378048044E+03  0.63236906221E+03  0.12699999809E+01 0. -1.
       -4    1    3    3    0  502  0.43935907488E+03  0.44034829797E+03 -0.13044315432E+04  0.14451596050E+04  0.12699999809E+01 0.  1.
</event>
<event>
 5   0  0.2242967E-04  0.1712334E+04  0.7818609E-02  0.8754361E-01
       -2   -1    0    0    0  501  0.00000000000E+00  0.00000000000E+00  0.42187703870E+03  0.42187703870E+03  0.25500000920E-02 0. -1.
        2   -1    0    0  501    0  0.00000000000E+00  0.00000000000E+00 -0.17375247004E+04  0.17375247004E+04  0.25500000920E-02 0.  1.
    10030    2    1    2    0    0  0.00000000000E+00  0.00000000000E+00 -0.13156476617E+04  0.21594017391E+04  0.17123338171E+04 0.  0.
        4    1    3    3  502    0 -0.65830734558E+02  0.72779554771E+03 -0.12203874973E+04  0.14224511596E+04  0.12699999809E+01 0.  1.
       -4    1    3    3    0  502  0.65830734558E+02 -0.72779554771E+03 -0.95260164402E+02  0.73695057955E+03  0.12699999809E+01 0. -1.
</event>
<event>
 5   0  0.1234158E-04  0.1694230E+04  0.7818609E-02  0.8764662E-01
        1   -1    0    0  501    0  0.00000000000E+00  0.00000000000E+00  0.91428230567E+03  0.91428230568E+03  0.50400001928E-02 0. -1.
       -1   -1    0    0    0  501  0.00000000000E+00  0.00000000000E+00 -0.78488166982E+03  0.78488166984E+03  0.50400001928E-02 0.  1.
    10030    2    1    2    0    0  0.00000000000E+00  0.00000000000E+00  0.12940063584E+03  0.16991639755E+04  0.16942295273E+04 0.  0.
        5    1    3    3  502    0 -0.66748171338E+03 -0.43384544893E+03 -0.22567294011E+03  0.82746847502E+03  0.46999998093E+01 0.  1.
       -5    1    3    3    0  502  0.66748171338E+03  0.43384544893E+03  0.35507357595E+03  0.87169550050E+03  0.46999998093E+01 0. -1.
</event>
<event>
 5   0  0.2288806E-04  0.1713070E+04  0.7818609E-02  0.8753945E-01
        2   -1    0    0  501    0  0.00000000000E+00  0.00000000000E+00  0.70105257821E+03  0.70105257821E+03  0.25500000920E-02 0. -1.
       -2   -1    0    0    0  501  0.00000000000E+00  0.00000000000E+00 -0.10465009235E+04  0.10465009235E+04  0.25500000920E-02 0.  1.
    10030    2    1    2    0    0  0.00000000000E+00  0.00000000000E+00 -0.34544834525E+03  0.17475535017E+04  0.17130699583E+04 0.  0.
        3    1    3    3  502    0 -0.57300795041E+02  0.49483653960E+03  0.53808413280E+03  0.73326743157E+03  0.10100000352E+00 0. -1.
       -3    1    3    3    0  502  0.57300795041E+02 -0.49483653960E+03 -0.88353247805E+03  0.10142860701E+04  0.10100000352E+00 0.  1.
</event>
<event>
 5   0  0.2234723E-04  0.1693759E+04  0.7818609E-02  0.8764932E-01
        2   -1    0    0  501    0  0.00000000000E+00  0.00000000000E+00  0.14482793898E+04  0.14482793898E+04  0.25500000920E-02 0.  1.
       -2   -1    0    0    0  501  0.00000000000E+00  0.00000000000E+00 -0.49521181399E+03  0.49521181400E+03  0.25500000920E-02 0. -1.
    10030    2    1    2    0    0  0.00000000000E+00  0.00000000000E+00  0.95306757584E+03  0.19434912038E+04  0.16937592082E+04 0.  0.
        1    1    3    3  502    0 -0.67386050692E+03  0.35976291443E+03  0.56990595264E+02  0.76600604786E+03  0.50400001928E-02 0. -1.
       -1    1    3    3    0  502  0.67386050692E+03 -0.35976291443E+03  0.89607698057E+03  0.11774851560E+04  0.50400001928E-02 0.  1.
</event>
<event>
 5   0  0.1186302E-04  0.1704148E+04  0.7818609E-02  0.8759002E-01
       -1   -1    0    0    0  501  0.00000000000E+00  0.00000000000E+00  0.62274221743E+03  0.62274221745E+03  0.50400001928E-02 0. -1.
        1   -1    0    0  501    0  0.00000000000E+00  0.00000000000E+00 -0.11658596783E+04  0.11658596783E+04  0.50400001928E-02 0.  1.
    10030    2    1    2    0    0  0.00000000000E+00  0.00000000000E+00 -0.54311746087E+03  0.17886018958E+04  0.17041479294E+04 0.  0.
        3    1    3    3  502    0  0.74404952888E+03  0.40928060086E+03 -0.19801684953E+03  0.87196960644E+03  0.10100000352E+00 0. -1.
       -3    1    3    3    0  502 -0.74404952888E+03 -0.40928060086E+03 -0.34510061134E+03  0.91663228931E+03  0.10100000352E+00 0.  1.
</event>
<event>
 5   0  0.1126958E-04  0.1725574E+04  0.7818609E-02  0.8746911E-01
       -1   -1    0    0    0  501  0.00000000000E+00  0.00000000000E+00  0.75303770374E+03  0.75303770376E+03  0.50400001928E-02 0.  1.
        1   -1    0    0  501    0  0.00000000000E+00  0.00000000000E+00 -0.98853144250E+03  0.98853144251E+03  0.50400001928E-02 0. -1.
    10030    2    1    2    0    0  0.00000000000E+00  0.00000000000E+00 -0.23549373876E+03  0.17415691463E+04  0.17255740466E+04 0.  0.
        4    1    3    3  502    0  0.58952201073E+02  0.25630380215E+03  0.71159558556E+03  0.75864147744E+03  0.12699999809E+01 0.  1.
       -4    1    3    3    0  502 -0.58952201073E+02 -0.25630380215E+03 -0.94708932432E+03  0.98292766883E+03  0.12699999809E+01 0. -1.
</event>
<event>
 5   0  0.1126958E-04  0.1703858E+04  0.7818609E-02  0.8759167E-01
        1   -1    0    0  501    0  0.00000000000E+00  0.00000000000E+00  0.57343863450E+03  0.57343863452E+03  0.50400001928E-02 0. -1.
       -1   -1    0    0    0  501  0.00000000000E+00  0.00000000000E+00 -0.12656685846E+04  0.12656685846E+04  0.50400001928E-02 0.  1.
    10030    2    1    2    0    0  0.00000000000E+00  0.00000000000E+00 -0.69222995013E+03  0.18391072192E+04  0.17038582863E+04 0.  0.
        4    1    3    3  502    0  0.64355218133E+03 -0.54631302512E+03 -0.22227159337E+03  0.87293963458E+03  0.12699999809E+01 0. -1.
       -4    1    3    3    0  502 -0.64355218133E+03  0.54631302512E+03 -0.46995835677E+03  0.96616758458E+03  0.12699999809E+01 0.  1.
</event>
<event>
 5   0  0.1126958E-04  0.1732312E+04  0.7818609E-02  0.8743147E-01
       -1   -1    0    0    0  501  0.00000000000E+00  0.00000000000E+00  0.79344347578E+03  0.79344347580E+03  0.50400001928E-02 0. -1.
        1   -1    0    0  501    0  0.00000000000E+00  0.00000000000E+00 -0.94553174138E+03  0.94553174139E+03  0.50400001928E-02 0.  1.
    10030    2    1    2    0    0  0.00000000000E+00  0.00000000000E+00 -0.15208826559E+03  0.17389752172E+04  0.17323117403E+04 0.  0.
        4    1    3    3  502    0 -0.66575910423E+03  0.54544051654E+03  0.21715457668E+02  0.86093769574E+03  0.12699999809E+01 0. -1.
       -4    1    3    3    0  502  0.66575910423E+03 -0.54544051654E+03 -0.17380372326E+03  0.87803752145E+03  0.12699999809E+01 0.  1.
</event>
<event>
 5   0  0.1204741E-04  0.1657804E+04  0.7818609E-02  0.8785803E-01
       -1   -1    0    0    0  501  0.00000000000E+00  0.00000000000E+00  0.60297893598E+03  0.60297893600E+03  0.50400001928E-02 0. -1.
        1   -1    0    0  501    0  0.00000000000E+00  0.00000000000E+00 -0.11394739940E+04  0.11394739940E+04  0.50400001928E-02 0.  1.
    10030    2    1    2    0    0  0.00000000000E+00  0.00000000000E+00 -0.53649505802E+03  0.17424529300E+04  0.16578043510E+04 0.  0.
        1    1    3    3  502    0 -0.24384464436E+01  0.45627579496E+03 -0.99559765613E+03  0.10951749815E+04  0.50400001928E-02 0.  1.
       -1    1    3    3    0  502  0.24384464436E+01 -0.45627579496E+03  0.45910259810E+03  0.64727794857E+03  0.50400001928E-02 0. -1.
</event>
<event>
 5   0  0.2356829E-04  0.1679742E+04  0.7818609E-02  0.8773003E-01
        2   -1    0    0  501    0  0.00000000000E+00  0.00000000000E+00  0.11543243071E+04  0.11543243071E+04  0.25500000920E-02 0.  1.
       -2   -1    0    0    0  501  0.00000000000E+00  0.00000000000E+00 -0.61107881677E+03  0.61107881677E+03  0.25500000920E-02 0. -1.
    10030    2    1    2    0    0  0.00000000000E+00  0.00000000000E+00  0.54324549029E+03  0.17654031238E+04  0.16797418036E+04 0.  0.
        5    1    3    3  502    0  0.54835145171E+03 -0.63336633745E+03  0.33396740390E+03  0.90188610637E+03  0.46999998093E+01 0.  1.
       -5    1    3    3    0  502 -0.54835145171E+03  0.63336633745E+03  0.20927808639E+03  0.86351701746E+03  0.46999998093E+01 0. -1.
</event>
<event>
 5   0  0.2224454E-04  0.1744182E+04  0.7818609E-02  0.8736559E-01
        2   -1    0    0  501    0  0.00000000000E+00  0.00000000000E+00  0.28357623485E+04  0.28357623485E+04  0.25500000920E-02 0.  1.
       -2   -1    0    0    0  501  0.00000000000E+00  0.00000000000E+00 -0.26819681234E+03  0.26819681236E+03  0.25500000920E-02 0. -1.
    10030    2    1    2    0    0  0.00000000000E+00  0.00000000000E+00  0.25675655362E+04  0.31039591609E+04  0.17441816677E+04 0.  0.
        2    1    3    3  502    0  0.46071668989E+03 -0.15871262979E+03 -0.33213361482E+01  0.48729929045E+03  0.25500000920E-02 0. -1.
       -2    1    3    3    0  502 -0.46071668989E+03  0.15871262979E+03  0.25708868724E+04  0.26166598705E+04  0.25500000920E-02 0.  1.
</event>
<event>
 5   0  0.1215233E-04  0.1698034E+04  0.7818609E-02  0.8762486E-01
        1   -1    0    0  501    0  0.00000000000E+00  0.00000000000E+00  0.81249799893E+03  0.81249799894E+03  0.50400001928E-02 0.  1.
       -1   -1    0    0    0  501  0.00000000000E+00  0.00000000000E+00 -0.88717759523E+03  0.88717759524E+03  0.50400001928E-02 0. -1.
    10030    2    1    2    0    0  0.00000000000E+00  0.00000000000E+00 -0.74679596301E+02  0.16996755942E+04  0.16980341820E+04 0.  0.
        2    1    3    3  502    0 -0.29336627560E+03  0.97628806795E+02  0.75414249572E+03  0.81506199729E+03  0.25500000920E-02 0.  1.
       -2    1    3    3    0  502  0.29336627560E+03 -0.97628806795E+02 -0.82882209202E+03  0.88461359689E+03  0.25500000920E-02 0. -1.
</event>
<event>
 5   0  0.1204741E-04  0.1721360E+04  0.7818609E-02  0.8749275E-01
       -1   -1    0    0    0  501  0.00000000000E+00  0.00000000000E+00  0.71453829504E+03  0.71453829506E+03  0.50400001928E-02 0.  1.
        1   -1    0    0  501    0  0.00000000000E+00  0.00000000000E+00 -0.10367117308E+04  0.10367117308E+04  0.50400001928E-02 0. -1.
    10030    2    1    2    0    0  0.00000000000E+00  0.00000000000E+00 -0.32217343573E+03  0.17512500258E+04  0.17213601977E+04 0.  0.
        1    1    3    3  502    0 -0.39942144400E+03 -0.45062683577E+03  0.46454520392E+03  0.76052894853E+03  0.50400001928E-02 0.  1.
       -1    1    3    3    0  502  0.39942144400E+03  0.45062683577E+03 -0.78671863965E+03  0.99072107732E+03  0.50400001928E-02 0. -1.
</event>
<event>
 5   0  0.1186302E-04  0.1706570E+04  0.7818609E-02  0.8757626E-01
       -1   -1    0    0    0  501  0.00000000000E+00  0.00000000000E+00  0.90326809622E+03  0.90326809623E+03  0.50400001928E-02 0. -1.
        1   -1    0    0  501    0  0.00000000000E+00  0.00000000000E+00 -0.80606816493E+03  0.80606816495E+03  0.50400001928E-02 0.  1.
    10030    2    1    2    0    0  0.00000000000E+00  0.00000000000E+00  0.97199931290E+02  0.17093362612E+04  0.17065704284E+04 0.  0.
        3    1    3    3  502    0 -0.29196422358E+03 -0.48426009309E+03 -0.59145423458E+03  0.81827200088E+03  0.10100000352E+00 0.  1.
       -3    1    3    3    0  502  0.29196422358E+03  0.48426009309E+03  0.68865416587E+03  0.89106426030E+03  0.10100000352E+00 0. -1.
</event>
<event>
 5   0  0.1204741E-04  0.1717892E+04  0.7818609E-02  0.8751225E-01
       -1   -1    0    0    0  501  0.00000000000E+00  0.00000000000E+00  0.89072980029E+03  0.89072980030E+03  0.50400001928E-02 0. -1.
        1   -1    0    0  501    0  0.00000000000E+00  0.00000000000E+00 -0.82829653534E+03  0.82829653535E+03  0.50400001928E-02 0.  1.
    10030    2    1    2    0    0  0.00000000000E+00  0.00000000000E+00  0.62433264952E+02  0.17190263357E+04  0.17178922056E+04 0.  0.
        1    1    3    3  502    0 -0.64614513838E+03  0.49542051995E+03  0.30497241765E+03  0.86945569582E+03  0.50400001928E-02 0. -1.
       -1    1    3    3    0  502  0.64614513838E+03 -0.49542051995E+03 -0.24253915270E+03  0.84957063983E+03  0.50400001928E-02 0.  1.
</event>
<event>
 5   0  0.1126958E-04  0.1696706E+04  0.7818609E-02  0.8763245E-01
        1   -1    0    0  501    0  0.00000000000E+00  0.00000000000E+00  0.14497596579E+04  0.14497596579E+04  0.50400001928E-02 0.  1.
       -1   -1    0    0    0  501  0.00000000000E+00  0.00000000000E+00 -0.49642914766E+03  0.49642914769E+03  0.50400001928E-02 0. -1.
    10030    2    1    2    0    0  0.00000000000E+00  0.00000000000E+00  0.95333051019E+03  0.19461888055E+04  0.16967061635E+04 0.  0.
        4    1    3    3  502    0 -0.53386792772E+03  0.24581669852E+03  0.11783876612E+04  0.13168294903E+04  0.12699999809E+01 0.  1.
       -4    1    3    3    0  502  0.53386792772E+03 -0.24581669852E+03 -0.22505715105E+03  0.62935931523E+03  0.12699999809E+01 0. -1.
</event>
<event>
 5   0  0.1126958E-04  0.1700447E+04  0.7818609E-02  0.8761109E-01
       -1   -1    0    0    0  501  0.00000000000E+00  0.00000000000E+00  0.75736156890E+03  0.75736156892E+03  0.50400001928E-02 0. -1.
        1   -1    0    0  501    0  0.00000000000E+00  0.00000000000E+00 -0.95447178045E+03  0.95447178047E+03  0.50400001928E-02 0.  1.
    10030    2    1    2    0    0  0.00000000000E+00  0.00000000000E+00 -0.19711021155E+03  0.17118333494E+04  0.17004472884E+04 0.  0.
        4    1    3    3  502    0  0.45288835103E+03 -0.71730288291E+03 -0.15592218239E+03  0.86252224562E+03  0.12699999809E+01 0. -1.
       -4    1    3    3    0  502 -0.45288835103E+03  0.71730288291E+03 -0.41188029161E+02  0.84931110376E+03  0.12699999809E+01 0.  1.
</event>
<event>
 5   0  0.1186302E-04  0.1689868E+04  0.7818609E-02  0.8767164E-01
        1   -1    0    0  501    0  0.00000000000E+00  0.00000000000E+00  0.10362366207E+04  0.10362366208E+04  0.50400001928E-02 0.  1.
       -1   -1    0    0    0  501  0.00000000000E+00  0.00000000000E+00 -0.68894799293E+03  0.68894799295E+03  0.50400001928E-02 0. -1.
    10030    2    1    2    0    0  0.00000000000E+00  0.00000000000E+00  0.34728862782E+03  0.17251846137E+04  0.16898676162E+04 0.  0.
        3    1    3    3  502    0 -0.18471566928E+03  0.14532438170E+02  0.10152406681E+04  0.10320100264E+04  0.10100000352E+00 0.  1.
       -3    1    3    3    0  502  0.18471566928E+03 -0.14532438170E+02 -0.66795204026E+03  0.69317458733E+03  0.10100000352E+00 0. -1.
</event>
<event>
 5   0  0.2224454E-04  0.1701352E+04  0.7818609E-02  0.8760594E-01
       -2   -1    0    0    0  501  0.00000000000E+00  0.00000000000E+00  0.43657746952E+03  0.43657746953E+03  0.25500000920E-02 0.  1.
        2   -1    0    0  501    0  0.00000000000E+00  0.00000000000E+00 -0.16575516170E+04  0.16575516170E+04  0.25500000920E-02 0. -1.
    10030    2    1    2    0    0  0.00000000000E+00  0.00000000000E+00 -0.12209741475E+04  0.20941290866E+04  0.17013520395E+04 0.  0.
        2    1    3    3  502    0  0.32300712119E+03  0.58289643895E+03  0.40297615583E+02  0.66762695924E+03  0.25500000920E-02 0.  1.
       -2    1    3    3    0  502 -0.32300712119E+03 -0.58289643895E+03 -0.12612717631E+04  0.14265021273E+04  0.25500000920E-02 0. -1.
</event>
<event>
 5   0  0.1234158E-04  0.1709617E+04  0.7818609E-02  0.8755899E-01
        1   -1    0    0  501    0  0.00000000000E+00  0.00000000000E+00  0.18488793265E+04  0.18488793265E+04  0.50400001928E-02 0. -1.
       -1   -1    0    0    0  501  0.00000000000E+00  0.00000000000E+00 -0.39521095921E+03  0.39521095925E+03  0.50400001928E-02 0.  1.
    10030    2    1    2    0    0  0.00000000000E+00  0.00000000000E+00  0.14536683673E+04  0.22440902858E+04  0.17096167666E+04 0.  0.
        5    1    3    3  502    0 -0.69566399128E+03  0.29066122359E+03  0.19811572858E+03  0.77955389010E+03  0.46999998093E+01 0.  1.
       -5    1    3    3    0  502  0.69566399128E+03 -0.29066122359E+03  0.12555526387E+04  0.14645363957E+04  0.46999998093E+01 0. -1.
</event>
<event>
 5   0  0.2234723E-04  0.1712524E+04  0.7818609E-02  0.8754254E-01
       -2   -1    0    0    0  501  0.00000000000E+00  0.00000000000E+00  0.56180369418E+03  0.56180369419E+03  0.25500000920E-02 0.  1.
        2   -1    0    0  501    0  0.00000000000E+00  0.00000000000E+00 -0.13050541158E+04  0.13050541158E+04  0.25500000920E-02 0. -1.
    10030    2    1    2    0    0  0.00000000000E+00  0.00000000000E+00 -0.74325042166E+03  0.18668578100E+04  0.17125235454E+04 0.  0.
        1    1    3    3  502    0 -0.62867275355E+03  0.69827074420E+02  0.25751623707E+03  0.68294938594E+03  0.50400001928E-02 0.  1.
       -1    1    3    3    0  502  0.62867275355E+03 -0.69827074420E+02 -0.10007666587E+04  0.11839084241E+04  0.50400001928E-02 0. -1.
</event>
<event>
 5   0  0.1186302E-04  0.1690329E+04  0.7818609E-02  0.8766899E-01
       -1   -1    0    0    0  501  0.00000000000E+00  0.00000000000E+00  0.92261782453E+03  0.92261782455E+03  0.50400001928E-02 0. -1.
        1   -1    0    0  501    0  0.00000000000E+00  0.00000000000E+00 -0.77421371415E+03  0.77421371417E+03  0.50400001928E-02 0.  1.
    10030    2    1    2    0    0  0.00000000000E+00  0.00000000000E+00  0.14840411039E+03  0.16968315387E+04  0.16903294030E+04 0.  0.
        3    1    3    3  502    0  0.81628910793E+02 -0.57274095851E+03 -0.54429123148E+03  0.79432262935E+03  0.10100000352E+00 0.  1.
       -3    1    3    3    0  502 -0.81628910793E+02  0.57274095851E+03  0.69269534187E+03  0.90250890936E+03  0.10100000352E+00 0. -1.
</event>
<event>
 5   0  0.2234723E-04  0.1705596E+04  0.7818609E-02  0.8758179E-01
        2   -1    0    0  501    0  0.00000000000E+00  0.00000000000E+00  0.85358982511E+03  0.85358982511E+03  0.25500000920E-02 0.  1.
       -2   -1    0    0    0  501  0.00000000000E+00  0.00000000000E+00 -0.85200690650E+03  0.85200690651E+03  0.25500000920E-02 0. -1.
    10030    2    1    2    0    0  0.00000000000E+00  0.00000000000E+00  0.15829186071E+01  0.17055967316E+04  0.17055959971E+04 0.  0.
        1    1    3    3  502    0 -0.32356878683E+03 -0.52877381796E+03  0.58642463060E+03  0.85334187626E+03  0.50400001928E-02 0.  1.
       -1    1    3    3    0  502  0.32356878683E+03  0.52877381796E+03 -0.58484171200E+03  0.85225485536E+03  0.50400001928E-02 0. -1.
</event>
<event>
 5   0  0.1204741E-04  0.1705749E+04  0.7818609E-02  0.8758092E-01
        1   -1    0    0  501    0  0.00000000000E+00  0.00000000000E+00  0.99888348324E+03  0.99888348325E+03  0.50400001928E-02 0. -1.
       -1   -1    0    0    0  501  0.00000000000E+00  0.00000000000E+00 -0.72820811661E+03  0.72820811663E+03  0.50400001928E-02 0.  1.
    10030    2    1    2    0    0  0.00000000000E+00  0.00000000000E+00  0.27067536663E+03  0.17270915999E+04  0.17057491727E+04 0.  0.
        1    1    3    3  502    0 -0.80157066283E+03  0.25083375898E+03 -0.14712223414E+02  0.84002949454E+03  0.50400001928E-02 0.  1.
       -1    1    3    3    0  502  0.80157066283E+03 -0.25083375898E+03  0.28538759004E+03  0.88706210534E+03  0.50400001928E-02 0. -1.
</event>
<event>
 5   0  0.2356829E-04  0.1700438E+04  0.7818609E-02  0.8761114E-01
       -2   -1    0    0    0  501  0.00000000000E+00  0.00000000000E+00  0.77763877080E+03  0.77763877081E+03  0.25500000920E-02 0.  1.
        2   -1    0    0  501    0  0.00000000000E+00  0.00000000000E+00 -0.92957368603E+03  0.92957368603E+03  0.25500000920E-02 0. -1.
    10030    2    1    2    0    0  0.00000000000E+00  0.00000000000E+00 -0.15193491522E+03  0.17072124568E+04  0.17004382242E+04 0.  0.
        5    1    3    3  502    0 -0.34741157157E+03  0.60200492654E+02  0.70076282198E+03  0.78448041534E+03  0.46999998093E+01 0.  1.
       -5    1    3    3    0  502  0.34741157157E+03 -0.60200492654E+02 -0.85269773721E+03  0.92273204150E+03  0.46999998093E+01 0. -1.
</event>
<event>
 5   0  0.1215233E-04  0.1686297E+04  0.7818609E-02  0.8769218E-01
        1   -1    0    0  501    0  0.00000000000E+00  0.00000000000E+00  0.70504248530E+03  0.70504248531E+03  0.50400001928E-02 0. -1.
       -1   -1    0    0    0  501  0.00000000000E+00  0.00000000000E+00 -0.10083075476E+04  0.10083075476E+04  0.50400001928E-02 0.  1.
    10030    2    1    2    0    0  0.00000000000E+00  0.00000000000E+00 -0.30326506228E+03  0.17133500329E+04  0.16862973158E+04 0.  0.
        2    1    3    3  502    0 -0.11462309317E+03  0.77295501498E+03 -0.47341783455E+03  0.91363141077E+03  0.25500000920E-02 0.  1.
       -2    1    3    3    0  502  0.11462309317E+03 -0.77295501498E+03  0.17015277227E+03  0.79971862213E+03  0.25500000920E-02 0. -1.
</event>
<event>
 5   0  0.2288806E-04  0.1691112E+04  0.7818609E-02  0.8766450E-01
       -2   -1    0    0    0  501  0.00000000000E+00  0.00000000000E+00  0.61489104183E+03  0.61489104183E+03  0.25500000920E-02 0.  1.
        2   -1    0    0  501    0  0.00000000000E+00  0.00000000000E+00 -0.11627501370E+04  0.11627501370E+04  0.25500000920E-02 0. -1.
    10030    2    1    2    0    0  0.00000000000E+00  0.00000000000E+00 -0.54785909519E+03  0.17776411789E+04  0.16911116381E+04 0.  0.
        3    1    3    3  502    0  0.60125852423E+03  0.51357491732E+03  0.40883417837E+02  0.79179698959E+03  0.10100000352E+00 0. -1.
       -3    1    3    3    0  502 -0.60125852423E+03 -0.51357491732E+03 -0.58874251303E+03  0.98584418927E+03  0.10100000352E+00 0.  1.
</event>
<event>
 5   0  0.2224454E-04  0.1697701E+04  0.7818609E-02  0.8762677E-01
        2   -1    0    0  501    0  0.00000000000E+00  0.00000000000E+00  0.76806661879E+03  0.76806661880E+03  0.25500000920E-02 0. -1.
       -2   -1    0    0    0  501  0.00000000000E+00  0.00000000000E+00 -0.93813133361E+03  0.93813133361E+03  0.25500000920E-02 0.  1.
    10030    2    1    2    0    0  0.00000000000E+00  0.00000000000E+00 -0.17006471482E+03  0.17061979524E+04  0.16977012239E+04 0.  0.
        2    1    3    3  502    0 -0.13642323640E+03  0.56525293150E+02  0.75505849093E+03  0.76936319962E+03  0.25500000920E-02 0. -1.
       -2    1    3    3    0  502  0.13642323640E+03 -0.56525293150E+02 -0.92512320575E+03  0.93683475278E+03  0.25500000920E-02 0.  1.
</event>
<event>
 5   0  0.1215233E-04  0.1714117E+04  0.7818609E-02  0.8753354E-01
        1   -1    0    0  501    0  0.00000000000E+00  0.00000000000E+00  0.13462263795E+04  0.13462263795E+04  0.50400001928E-02 0. -1.
       -1   -1    0    0    0  501  0.00000000000E+00  0.00000000000E+00 -0.54563584518E+03  0.54563584520E+03  0.50400001928E-02 0.  1.
    10030    2    1    2    0    0  0.00000000000E+00  0.00000000000E+00  0.80059053433E+03  0.18918622247E+04  0.17141171120E+04 0.  0.
        2    1    3    3  502    0 -0.60109827349E+03 -0.38996570053E+03  0.91933349676E+03  0.11655755918E+04  0.25500000920E-02 0. -1.
       -2    1    3    3    0  502  0.60109827349E+03  0.38996570053E+03 -0.11874296243E+03  0.72628663289E+03  0.25500000920E-02 0.  1.
</event>
<event>
 5   0  0.2356829E-04  0.1717974E+04  0.7818609E-02  0.8751179E-01
       -2   -1    0    0    0  501  0.00000000000E+00  0.00000000000E+00  0.76946221344E+03  0.76946221344E+03  0.25500000920E-02 0. -1.
        2   -1    0    0  501    0  0.00000000000E+00  0.00000000000E+00 -0.95892759756E+03  0.95892759756E+03  0.25500000920E-02 0.  1.
    10030    2    1    2    0    0  0.00000000000E+00  0.00000000000E+00 -0.18946538412E+03  0.17283898110E+04  0.17179738668E+04 0.  0.
        5    1    3    3  502    0  0.56057312078E+03 -0.64796035130E+03 -0.33193038019E+02  0.85744895380E+03  0.46999998093E+01 0. -1.
       -5    1    3    3    0  502 -0.56057312078E+03  0.64796035130E+03 -0.15627234610E+03  0.87094085721E+03  0.46999998093E+01 0.  1.
</event>
<event>
 5   0  0.2356829E-04  0.1692177E+04  0.7818609E-02  0.8765839E-01
       -2   -1    0    0    0  501  0.00000000000E+00  0.00000000000E+00  0.81182466420E+03  0.81182466420E+03  0.25500000920E-02 0.  1.
        2   -1    0    0  501    0  0.00000000000E+00  0.00000000000E+00 -0.88179856638E+03  0.88179856639E+03  0.25500000920E-02 0. -1.
    10030    2    1    2    0    0  0.00000000000E+00  0.00000000000E+00 -0.69973902183E+02  0.16936232306E+04  0.16921770889E+04 0.  0.
        5    1    3    3  502    0 -0.30041608791E+03 -0.26508715959E+03 -0.78082357854E+03  0.87762667396E+03  0.46999998093E+01 0. -1.
       -5    1    3    3    0  502  0.30041608791E+03  0.26508715959E+03  0.71084967635E+03  0.81599655663E+03  0.46999998093E+01 0.  1.
</event>
<event>
 5   0  0.2288806E-04  0.1524702E+04  0.7818609E-02  0.8868190E-01
        2   -1    0    0  501    0  0.00000000000E+00  0.00000000000E+00  0.91322598874E+03  0.91322598874E+03  0.25500000920E-02 0. -1.
       -2   -1    0    0    0  501  0.00000000000E+00  0.00000000000E+00 -0.63640229459E+03  0.63640229459E+03  0.25500000920E-02 0.  1.
    10030    2    1    2    0    0  0.00000000000E+00  0.00000000000E+00  0.27682369415E+03  0.15496282833E+04  0.15247020886E+04 0.  0.
        3    1    3    3  502    0  0.21982316115E+03 -0.67184472689E+03  0.42852817213E+03  0.82664016582E+03  0.10100000352E+00 0. -1.
       -3    1    3    3    0  502 -0.21982316115E+03  0.67184472689E+03 -0.15170447798E+03  0.72298811752E+03  0.10100000352E+00 0.  1.
</event>
<event>
 5   0  0.2234723E-04  0.1687004E+04  0.7818609E-02  0.8768812E-01
       -2   -1    0    0    0  501  0.00000000000E+00  0.00000000000E+00  0.20114073864E+04  0.20114073864E+04  0.25500000920E-02 0.  1.
        2   -1    0    0  501    0  0.00000000000E+00  0.00000000000E+00 -0.35373012575E+03  0.35373012576E+03  0.25500000920E-02 0. -1.
    10030    2    1    2    0    0  0.00000000000E+00  0.00000000000E+00  0.16576772606E+04  0.23651375121E+04  0.16870037199E+04 0.  0.
        1    1    3    3  502    0  0.50820549656E+03 -0.53237139713E+03  0.14065532573E+04  0.15874773059E+04  0.50400001928E-02 0.  1.
       -1    1    3    3    0  502 -0.50820549656E+03  0.53237139713E+03  0.25112400332E+03  0.77766020619E+03  0.50400001928E-02 0. -1.
</event>
<event>
 5   0  0.1234158E-04  0.1694743E+04  0.7818609E-02  0.8764368E-01
       -1   -1    0    0    0  501  0.00000000000E+00  0.00000000000E+00  0.47443885650E+03  0.47443885653E+03  0.50400001928E-02 0.  1.
        1   -1    0    0  501    0  0.00000000000E+00  0.00000000000E+00 -0.15134482196E+04  0.15134482196E+04  0.50400001928E-02 0. -1.
    10030    2    1    2    0    0  0.00000000000E+00  0.00000000000E+00 -0.10390093631E+04  0.19878870762E+04  0.16947432168E+04 0.  0.
        5    1    3    3  502    0 -0.61346597470E+03  0.33727568276E+03 -0.10794945033E+04  0.12866335380E+04  0.46999998093E+01 0.  1.
       -5    1    3    3    0  502  0.61346597470E+03 -0.33727568276E+03  0.40485140181E+02  0.70125353822E+03  0.46999998093E+01 0. -1.
</event>
<event>
 5   0  0.1204741E-04  0.1710705E+04  0.7818609E-02  0.8755283E-01
        1   -1    0    0  501    0  0.00000000000E+00  0.00000000000E+00  0.16192009118E+04  0.16192009118E+04  0.50400001928E-02 0. -1.
       -1   -1    0    0    0  501  0.00000000000E+00  0.00000000000E+00 -0.45184478981E+03  0.45184478983E+03  0.50400001928E-02 0.  1.
    10030    2    1    2    0    0  0.00000000000E+00  0.00000000000E+00  0.11673561220E+04  0.20710457016E+04  0.17107045282E+04 0.  0.
        1    1    3    3  502    0 -0.17666203470E+03  0.63144127213E+03  0.12486484248E+04  0.14103369964E+04  0.50400001928E-02 0. -1.
       -1    1    3    3    0  502  0.17666203470E+03 -0.63144127213E+03 -0.81292302801E+02  0.66070870524E+03  0.50400001928E-02 0.  1.
</event>
<event>
 5   0  0.2224454E-04  0.1696743E+04  0.7818609E-02  0.8763224E-01
       -2   -1    0    0    0  501  0.00000000000E+00  0.00000000000E+00  0.56227496296E+03  0.56227496297E+03  0.25500000920E-02 0.  1.
        2   -1    0    0  501    0  0.00000000000E+00  0.00000000000E+00 -0.12800402509E+04  0.12800402509E+04  0.25500000920E-02 0. -1.
    10030    2    1    2    0    0  0.00000000000E+00  0.00000000000E+00 -0.71776528792E+03  0.18423152138E+04  0.16967434510E+04 0.  0.
        2    1    3    3  502    0 -0.38675017776E+03  0.65148503036E+03 -0.77337496338E+03  0.10826436527E+04  0.25500000920E-02 0. -1.
       -2    1    3    3    0  502  0.38675017776E+03 -0.65148503036E+03  0.55609675462E+02  0.75967156113E+03  0.25500000920E-02 0.  1.
</event>
<event>
 5   0  0.1215233E-04  0.1702544E+04  0.7818609E-02  0.8759915E-01
        1   -1    0    0  501    0  0.00000000000E+00  0.00000000000E+00  0.13085665442E+04  0.13085665442E+04  0.50400001928E-02 0. -1.
       -1   -1    0    0    0  501  0.00000000000E+00  0.00000000000E+00 -0.55378478443E+03  0.55378478446E+03  0.50400001928E-02 0.  1.
    10030    2    1    2    0    0  0.00000000000E+00  0.00000000000E+00  0.75478175979E+03  0.18623513287E+04  0.17025442627E+04 0.  0.
        2    1    3    3  502    0  0.88370685206E+02  0.60211337224E+03 -0.27372392890E+03  0.66728905303E+03  0.25500000920E-02 0.  1.
       -2    1    3    3    0  502 -0.88370685206E+02 -0.60211337224E+03  0.10285056887E+04  0.11950622757E+04  0.25500000920E-02 0. -1.
</event>
<event>
 5   0  0.2234723E-04  0.1759095E+04  0.7818609E-02  0.8728360E-01
        2   -1    0    0  501    0  0.00000000000E+00  0.00000000000E+00  0.56880011097E+03  0.56880011098E+03  0.25500000920E-02 0.  1.
       -2   -1    0    0    0  501  0.00000000000E+00  0.00000000000E+00 -0.13600627454E+04  0.13600627454E+04  0.25500000920E-02 0. -1.
    10030    2    1    2    0    0  0.00000000000E+00  0.00000000000E+00 -0.79126263439E+03  0.19288628563E+04  0.17590950406E+04 0.  0.
        1    1    3    3  502    0  0.79135245834E+03 -0.32142865352E+03 -0.62576428044E+03  0.10588371109E+04  0.50400001928E-02 0. -1.
       -1    1    3    3    0  502 -0.79135245834E+03  0.32142865352E+03 -0.16549835394E+03  0.87002574548E+03  0.50400001928E-02 0.  1.
</event>
<event>
 5   0  0.2356829E-04  0.1713268E+04  0.7818609E-02  0.8753833E-01
        2   -1    0    0  501    0  0.00000000000E+00  0.00000000000E+00  0.11152664449E+04  0.11152664449E+04  0.25500000920E-02 0.  1.
       -2   -1    0    0    0  501  0.00000000000E+00  0.00000000000E+00 -0.65797913177E+03  0.65797913178E+03  0.25500000920E-02 0. -1.
    10030    2    1    2    0    0  0.00000000000E+00  0.00000000000E+00  0.45728731316E+03  0.17732455767E+04  0.17132682769E+04 0.  0.
        5    1    3    3  502    0  0.63703191947E+03 -0.47438032372E+02 -0.36207271433E+03  0.73428793658E+03  0.46999998093E+01 0. -1.
       -5    1    3    3    0  502 -0.63703191947E+03  0.47438032372E+02  0.81936002749E+03  0.10389576401E+04  0.46999998093E+01 0.  1.
</event>
<event>
 5   0  0.1186302E-04  0.1705877E+04  0.7818609E-02  0.8758020E-01
       -1   -1    0    0    0  501  0.00000000000E+00  0.00000000000E+00  0.48394715703E+03  0.48394715706E+03  0.50400001928E-02 0.  1.
        1   -1    0    0  501    0  0.00000000000E+00  0.00000000000E+00 -0.15032710470E+04  0.15032710470E+04  0.50400001928E-02 0. -1.
    10030    2    1    2    0    0  0.00000000000E+00  0.00000000000E+00 -0.10193238900E+04  0.19872182041E+04  0.17058766069E+04 0.  0.
        3    1    3    3  502    0  0.72818054224E+03  0.44413604649E+03 -0.50977474828E+03  0.99366696336E+03  0.10100000352E+00 0. -1.
       -3    1    3    3    0  502 -0.72818054224E+03 -0.44413604649E+03 -0.50954914169E+03  0.99355124070E+03  0.10100000352E+00 0.  1.
</event>
<event>
 5   0  0.1234158E-04  0.1698879E+04  0.7818609E-02  0.8762004E-01
        1   -1    0    0  501    0  0.00000000000E+00  0.00000000000E+00  0.11118600631E+04  0.11118600631E+04  0.50400001928E-02 0.  1.
       -1   -1    0    0    0  501  0.00000000000E+00  0.00000000000E+00 -0.64895500278E+03  0.64895500280E+03  0.50400001928E-02 0. -1.
    10030    2    1    2    0    0  0.00000000000E+00  0.00000000000E+00  0.46290506034E+03  0.17608150659E+04  0.16988786306E+04 0.  0.
        5    1    3    3  502    0 -0.56642194122E+03  0.63297619415E+03  0.23735055683E+03  0.88195807989E+03  0.46999998093E+01 0.  1.
       -5    1    3    3    0  502  0.56642194122E+03 -0.63297619415E+03  0.22555450351E+03  0.87885698604E+03  0.46999998093E+01 0. -1.
</event>
<event>
 5   0  0.2234723E-04  0.1681074E+04  0.7818609E-02  0.8772233E-01
        2   -1    0    0  501    0  0.00000000000E+00  0.00000000000E+00  0.29231406696E+03  0.29231406697E+03  0.25500000920E-02 0.  1.
       -2   -1    0    0    0  501  0.00000000000E+00  0.00000000000E+00 -0.24169283899E+04  0.24169283899E+04  0.25500000920E-02 0. -1.
    10030    2    1    2    0    0  0.00000000000E+00  0.00000000000E+00 -0.21246143229E+04  0.27092424569E+04  0.16810736655E+04 0.  0.
        1    1    3    3  502    0  0.23078734996E+03  0.76859718802E+03 -0.65941089233E+03  0.10386660499E+04  0.50400001928E-02 0. -1.
       -1    1    3    3    0  502 -0.23078734996E+03 -0.76859718802E+03 -0.14652034306E+04  0.16705764070E+04  0.50400001928E-02 0.  1.
</event>
<event>
 5   0  0.2242967E-04  0.1728291E+04  0.7818609E-02  0.8745392E-01
       -2   -1    0    0    0  501  0.00000000000E+00  0.00000000000E+00  0.36730698913E+03  0.36730698914E+03  0.25500000920E-02 0. -1.
        2   -1    0    0  501    0  0.00000000000E+00  0.00000000000E+00 -0.20330328094E+04  0.20330328094E+04  0.25500000920E-02 0.  1.
    10030    2    1    2    0    0  0.00000000000E+00  0.00000000000E+00 -0.16657258202E+04  0.24003397985E+04  0.17282906700E+04 0.  0.
        4    1    3    3  502    0 -0.83100917460E+03 -0.11736392782E+03 -0.54689763633E+03  0.10017231041E+04  0.12699999809E+01 0. -1.
       -4    1    3    3    0  502  0.83100917460E+03  0.11736392782E+03 -0.11188281839E+04  0.13986166944E+04  0.12699999809E+01 0.  1.
</event>
<event>
 5   0  0.8372750E-05  0.1697296E+04  0.7818609E-02  0.8762908E-01
        4   -1    0    0  501    0  0.00000000000E+00  0.00000000000E+00  0.65757183498E+03  0.65757306138E+03  0.12699999809E+01 0. -1.
       -4   -1    0    0    0  501  0.00000000000E+00  0.00000000000E+00 -0.10952441883E+04  0.10952449246E+04  0.12699999809E+01 0.  1.
    10030    2    1    2    0    0  0.00000000000E+00  0.00000000000E+00 -0.43767235334E+03  0.17528179860E+04  0.16972960270E+04 0.  0.
        3    1    3    3  502    0 -0.41844240790E+03 -0.73367917547E+03 -0.30414756090E+03  0.89771093913E+03  0.10100000352E+00 0.  1.
       -3    1    3    3    0  502  0.41844240790E+03  0.73367917547E+03 -0.13352479244E+03  0.85510704689E+03  0.10100000352E+00 0. -1.
</event>
<event>
 5   0  0.1126958E-04  0.1696420E+04  0.7818609E-02  0.8763409E-01
       -1   -1    0    0    0  501  0.00000000000E+00  0.00000000000E+00  0.10335834823E+04  0.10335834823E+04  0.50400001928E-02 0. -1.
        1   -1    0    0  501    0  0.00000000000E+00  0.00000000000E+00 -0.69608336988E+03  0.69608336990E+03  0.50400001928E-02 0.  1.
    10030    2    1    2    0    0  0.00000000000E+00  0.00000000000E+00  0.33750011240E+03  0.17296668522E+04  0.16964200817E+04 0.  0.
        4    1    3    3  502    0  0.52832335700E+03 -0.92871980610E+01 -0.50776455504E+03  0.73282895538E+03  0.12699999809E+01 0.  1.
       -4    1    3    3    0  502 -0.52832335700E+03  0.92871980610E+01  0.84526466744E+03  0.99683789681E+03  0.12699999809E+01 0. -1.
</event>
<event>
 5   0  0.2288806E-04  0.1710513E+04  0.7818609E-02  0.8755391E-01
       -2   -1    0    0    0  501  0.00000000000E+00  0.00000000000E+00  0.10564843068E+04  0.10564843068E+04  0.25500000920E-02 0. -1.
        2   -1    0    0  501    0  0.00000000000E+00  0.00000000000E+00 -0.69235654589E+03  0.69235654589E+03  0.25500000920E-02 0.  1.
    10030    2    1    2    0    0  0.00000000000E+00  0.00000000000E+00  0.36412776090E+03  0.17488408527E+04  0.17105131691E+04 0.  0.
        3    1    3    3  502    0  0.22909520185E+03 -0.43764963919E+03  0.89587833796E+03  0.10230443904E+04  0.10100000352E+00 0. -1.
       -3    1    3    3    0  502 -0.22909520185E+03  0.43764963919E+03 -0.53175057706E+03  0.72579646224E+03  0.10100000352E+00 0.  1.
</event>
<event>
 5   0  0.1204741E-04  0.1729430E+04  0.7818609E-02  0.8744755E-01
        1   -1    0    0  501    0  0.00000000000E+00  0.00000000000E+00  0.23703644245E+04  0.23703644245E+04  0.50400001928E-02 0. -1.
       -1   -1    0    0    0  501  0.00000000000E+00  0.00000000000E+00 -0.31545032962E+03  0.31545032966E+03  0.50400001928E-02 0.  1.
    10030    2    1    2    0    0  0.00000000000E+00  0.00000000000E+00  0.20549140949E+04  0.26858147541E+04  0.17294302404E+04 0.  0.
        1    1    3    3  502    0  0.32550589360E+03 -0.39668858309E+03  0.21083492646E+04  0.21698968962E+04  0.50400001928E-02 0. -1.
       -1    1    3    3    0  502 -0.32550589360E+03  0.39668858309E+03 -0.53435169750E+02  0.51591785791E+03  0.50400001928E-02 0.  1.
</event>
<event>
 5   0  0.2288806E-04  0.1831023E+04  0.7818609E-02  0.8689973E-01
        2   -1    0    0  501    0  0.00000000000E+00  0.00000000000E+00  0.62638252122E+03  0.62638252123E+03  0.25500000920E-02 0.  1.
       -2   -1    0    0    0  501  0.00000000000E+00  0.00000000000E+00 -0.13380987633E+04  0.13380987633E+04  0.25500000920E-02 0. -1.
    10030    2    1    2    0    0  0.00000000000E+00  0.00000000000E+00 -0.71171624209E+03  0.19644812845E+04  0.18310234046E+04 0.  0.
        3    1    3    3  502    0 -0.39340709939E+02 -0.48904626906E+03 -0.11851433977E+04  0.12826842278E+04  0.10100000352E+00 0. -1.
       -3    1    3    3    0  502  0.39340709939E+02  0.48904626906E+03  0.47342715564E+03  0.68179705679E+03  0.10100000352E+00 0.  1.
</event>
<event>
 5   0  0.1215233E-04  0.1704808E+04  0.7818609E-02  0.8758627E-01
        1   -1    0    0  501    0  0.00000000000E+00  0.00000000000E+00  0.95791728224E+03  0.95791728226E+03  0.50400001928E-02 0. -1.
       -1   -1    0    0    0  501  0.00000000000E+00  0.00000000000E+00 -0.75851282470E+03  0.75851282471E+03  0.50400001928E-02 0.  1.
    10030    2    1    2    0    0  0.00000000000E+00  0.00000000000E+00  0.19940445755E+03  0.17164301070E+04  0.17048079582E+04 0.  0.
        2    1    3    3  502    0 -0.71497664043E+03 -0.16969358283E+03 -0.33522073484E+03  0.80768833685E+03  0.25500000920E-02 0.  1.
       -2    1    3    3    0  502  0.71497664043E+03  0.16969358283E+03  0.53462519239E+03  0.90874177012E+03  0.25500000920E-02 0. -1.
</event>
<event>
 5   0  0.2234723E-04  0.1706776E+04  0.7818609E-02  0.8757509E-01
        2   -1    0    0  501    0  0.00000000000E+00  0.00000000000E+00  0.17493484466E+04  0.17493484466E+04  0.25500000920E-02 0. -1.
       -2   -1    0    0    0  501  0.00000000000E+00  0.00000000000E+00 -0.41631012688E+03  0.41631012689E+03  0.25500000920E-02 0.  1.
    10030    2    1    2    0    0  0.00000000000E+00  0.00000000000E+00  0.13330383197E+04  0.21656585735E+04  0.17067764631E+04 0.  0.
        1    1    3    3  502    0  0.27848474910E+03 -0.14690972631E+02 -0.35686249237E+03  0.45290221753E+03  0.50400001928E-02 0.  1.
       -1    1    3    3    0  502 -0.27848474910E+03  0.14690972631E+02  0.16899008121E+04  0.17127563560E+04  0.50400001928E-02 0. -1.
</event>
<event>
 5   0  0.2224454E-04  0.1694628E+04  0.7818609E-02  0.8764434E-01
        2   -1    0    0  501    0  0.00000000000E+00  0.00000000000E+00  0.84762194351E+03  0.84762194351E+03  0.25500000920E-02 0. -1.
       -2   -1    0    0    0  501  0.00000000000E+00  0.00000000000E+00 -0.84700586812E+03  0.84700586813E+03  0.25500000920E-02 0.  1.
    10030    2    1    2    0    0  0.00000000000E+00  0.00000000000E+00  0.61607538301E+00  0.16946278116E+04  0.16946276997E+04 0.  0.
        2    1    3    3  502    0 -0.70887212820E+03  0.36433964209E+03  0.28788011925E+03  0.84741845154E+03  0.25500000920E-02 0.  1.
       -2    1    3    3    0  502  0.70887212820E+03 -0.36433964209E+03 -0.28726404386E+03  0.84720936010E+03  0.25500000920E-02 0. -1.
</event>
<event>
 5   0  0.8372750E-05  0.1688555E+04  0.7818609E-02  0.8767919E-01
       -3   -1    0    0    0  501  0.00000000000E+00  0.00000000000E+00  0.71689736080E+03  0.71689736791E+03  0.10100000352E+00 0.  1.
        3   -1    0    0  501    0  0.00000000000E+00  0.00000000000E+00 -0.99429117958E+03  0.99429118471E+03  0.10100000352E+00 0. -1.
    10030    2    1    2    0    0  0.00000000000E+00  0.00000000000E+00 -0.27739381878E+03  0.17111885526E+04  0.16885552795E+04 0.  0.
        1    1    3    3  502    0 -0.52148385615E+03 -0.50232510532E+03 -0.57871592544E+03  0.92692396994E+03  0.50400001928E-02 0. -1.
       -1    1    3    3    0  502  0.52148385615E+03  0.50232510532E+03  0.30132210666E+03  0.78426458268E+03  0.50400001928E-02 0.  1.
</event>
<event>
 5   0  0.1126958E-04  0.1698278E+04  0.7818609E-02  0.8762347E-01
        1   -1    0    0  501    0  0.00000000000E+00  0.00000000000E+00  0.12509150447E+04  0.12509150447E+04  0.50400001928E-02 0.  1.
       -1   -1    0    0    0  501  0.00000000000E+00  0.00000000000E+00 -0.57640750059E+03  0.57640750061E+03  0.50400001928E-02 0. -1.
    10030    2    1    2    0    0  0.00000000000E+00  0.00000000000E+00  0.67450754408E+03  0.18273225453E+04  0.16982777327E+04 0.  0.
        4    1    3    3  502    0 -0.29668469385E+03  0.79421552187E+03  0.28638457855E+03  0.89488426206E+03  0.12699999809E+01 0.  1.
       -4    1    3    3    0  502  0.29668469385E+03 -0.79421552187E+03  0.38812296552E+03  0.93243828322E+03  0.12699999809E+01 0. -1.
</event>
<event>
 5   0  0.2242967E-04  0.1858716E+04  0.7818609E-02  0.8675683E-01
       -2   -1    0    0    0  501  0.00000000000E+00  0.00000000000E+00  0.69481196436E+03  0.69481196436E+03  0.25500000920E-02 0. -1.
        2   -1    0    0  501    0  0.00000000000E+00  0.00000000000E+00 -0.12430790362E+04  0.12430790362E+04  0.25500000920E-02 0.  1.
    10030    2    1    2    0    0  0.00000000000E+00  0.00000000000E+00 -0.54826707183E+03  0.19378910005E+04  0.18587158868E+04 0.  0.
        4    1    3    3  502    0 -0.29592503203E+03  0.12049314429E+03  0.63574599392E+03  0.71152287671E+03  0.12699999809E+01 0. -1.
       -4    1    3    3    0  502  0.29592503203E+03 -0.12049314429E+03 -0.11840130657E+04  0.12263681238E+04  0.12699999809E+01 0.  1.
</event>
<event>
 5   0  0.2356829E-04  0.1701941E+04  0.7818609E-02  0.8760258E-01
       -2   -1    0    0    0  501  0.00000000000E+00  0.00000000000E+00  0.39330329936E+03  0.39330329937E+03  0.25500000920E-02 0.  1.
        2   -1    0    0  501    0  0.00000000000E+00  0.00000000000E+00 -0.18412023821E+04  0.18412023821E+04  0.25500000920E-02 0. -1.
    10030    2    1    2    0    0  0.00000000000E+00  0.00000000000E+00 -0.14478990827E+04  0.22345056814E+04  0.17019412113E+04 0.  0.
        5    1    3    3  502    0 -0.58925883010E+03  0.42114947184E+03 -0.13747714223E+03  0.73723463098E+03  0.46999998093E+01 0.  1.
       -5    1    3    3    0  502  0.58925883010E+03 -0.42114947184E+03 -0.13104219405E+04  0.14972710504E+04  0.46999998093E+01 0. -1.
</event>
<event>
 5   0  0.1204741E-04  0.1687906E+04  0.7818609E-02  0.8768292E-01
        1   -1    0    0  501    0  0.00000000000E+00  0.00000000000E+00  0.11850708996E+04  0.11850708996E+04  0.50400001928E-02 0. -1.
       -1   -1    0    0    0  501  0.00000000000E+00  0.00000000000E+00 -0.60102471749E+03  0.60102471751E+03  0.50400001928E-02 0.  1.
    10030    2    1    2    0    0  0.00000000000E+00  0.00000000000E+00  0.58404618208E+03  0.17860956171E+04  0.16879062802E+04 0.  0.
        1    1    3    3  502    0 -0.12086631583E+03 -0.63161118156E+03  0.87036583658E+03  0.10821635923E+04  0.50400001928E-02 0.  1.
       -1    1    3    3    0  502  0.12086631583E+03  0.63161118156E+03 -0.28631965450E+03  0.70393202480E+03  0.50400001928E-02 0. -1.
</event>
<event>
 5   0  0.2242967E-04  0.1699008E+04  0.7818609E-02  0.8761930E-01
       -2   -1    0    0    0  501  0.00000000000E+00  0.00000000000E+00  0.49984065953E+03  0.49984065954E+03  0.25500000920E-02 0.  1.
        2   -1    0    0  501    0  0.00000000000E+00  0.00000000000E+00 -0.14437743666E+04  0.14437743666E+04  0.25500000920E-02 0. -1.
    10030    2    1    2    0    0  0.00000000000E+00  0.00000000000E+00 -0.94393370705E+03  0.19436150261E+04  0.16990081008E+04 0.  0.
        4    1    3    3  502    0 -0.57595132619E+03 -0.48893918097E+02 -0.11841240258E+04  0.13176728982E+04  0.12699999809E+01 0. -1.
       -4    1    3    3    0  502  0.57595132619E+03  0.48893918097E+02  0.24019031873E+03  0.62594212790E+03  0.12699999809E+01 0.  1.
</event>
<event>
 5   0  0.1186302E-04  0.1690496E+04  0.7818609E-02  0.8766803E-01
       -1   -1    0    0    0  501  0.00000000000E+00  0.00000000000E+00  0.49506324930E+03  0.49506324933E+03  0.50400001928E-02 0. -1.
        1   -1    0    0  501    0  0.00000000000E+00  0.00000000000E+00 -0.14431371851E+04  0.14431371851E+04  0.50400001928E-02 0.  1.
    10030    2    1    2    0    0  0.00000000000E+00  0.00000000000E+00 -0.94807393575E+03  0.19382004344E+04  0.16904960030E+04 0.  0.
        3    1    3    3  502    0  0.47385723156E+03  0.62421675178E+03 -0.83706634555E+03  0.11466766354E+04  0.10100000352E+00 0. -1.
       -3    1    3    3    0  502 -0.47385723156E+03 -0.62421675178E+03 -0.11100759021E+03  0.79152379900E+03  0.10100000352E+00 0.  1.
</event>
<event>
 5   0  0.1215233E-04  0.1699081E+04  0.7818609E-02  0.8761889E-01
        1   -1    0    0  501    0  0.00000000000E+00  0.00000000000E+00  0.11829120874E+04  0.11829120874E+04  0.50400001928E-02 0.  1.
       -1   -1    0    0    0  501  0.00000000000E+00  0.00000000000E+00 -0.61012048026E+03  0.61012048028E+03  0.50400001928E-02 0. -1.
    10030    2    1    2    0    0  0.00000000000E+00  0.00000000000E+00  0.57279160713E+03  0.17930325677E+04  0.16990807996E+04 0.  0.
        2    1    3    3  502    0  0.50394030360E+03  0.67154942509E+03  0.42311435762E+03  0.94019158663E+03  0.25500000920E-02 0.  1.
       -2    1    3    3    0  502 -0.50394030360E+03 -0.67154942509E+03  0.14967724950E+03  0.85284098105E+03  0.25500000920E-02 0. -1.
</event>
<event>
 5   0  0.1215233E-04  0.1609347E+04  0.7818609E-02  0.8814826E-01
        1   -1    0    0  501    0  0.00000000000E+00  0.00000000000E+00  0.12072113761E+04  0.12072113761E+04  0.50400001928E-02 0. -1.
       -1   -1    0    0    0  501  0.00000000000E+00  0.00000000000E+00 -0.53635945217E+03  0.53635945220E+03  0.50400001928E-02 0.  1.
    10030    2    1    2    0    0  0.00000000000E+00  0.00000000000E+00  0.67085192396E+03  0.17435708283E+04  0.16093467400E+04 0.  0.
        2    1    3    3  502    0  0.11480876953E+02 -0.31525638342E+03  0.11374227969E+04  0.11803596980E+04  0.25500000920E-02 0. -1.
       -2    1    3    3    0  502 -0.11480876953E+02  0.31525638342E+03 -0.46657087294E+03  0.56321113031E+03  0.25500000920E-02 0.  1.
</event>
<event>
 5   0  0.1204741E-04  0.1690722E+04  0.7818609E-02  0.8766673E-01
       -1   -1    0    0    0  501  0.00000000000E+00  0.00000000000E+00  0.10732621603E+04  0.10732621603E+04  0.50400001928E-02 0.  1.
        1   -1    0    0  501    0  0.00000000000E+00  0.00000000000E+00 -0.66585370521E+03  0.66585370522E+03  0.50400001928E-02 0. -1.
    10030    2    1    2    0    0  0.00000000000E+00  0.00000000000E+00  0.40740845512E+03  0.17391158656E+04  0.16907224327E+04 0.  0.
        1    1    3    3  502    0  0.59947256571E+03  0.17515786839E+03 -0.38232921313E+03  0.73227266994E+03  0.50400001928E-02 0. -1.
       -1    1    3    3    0  502 -0.59947256571E+03 -0.17515786839E+03  0.78973766825E+03  0.10068431956E+04  0.50400001928E-02 0.  1.
</event>
<event>
 5   0  0.1234158E-04  0.1711711E+04  0.7818609E-02  0.8754713E-01
       -1   -1    0    0    0  501  0.00000000000E+00  0.00000000000E+00  0.79492892439E+03  0.79492892441E+03  0.50400001928E-02 0.  1.
        1   -1    0    0  501    0  0.00000000000E+00  0.00000000000E+00 -0.92145202024E+03  0.92145202025E+03  0.50400001928E-02 0. -1.
    10030    2    1    2    0    0  0.00000000000E+00  0.00000000000E+00 -0.12652309585E+03  0.17163809447E+04  0.17117112646E+04 0.  0.
        5    1    3    3  502    0  0.59123267485E+03  0.26033955023E+03  0.49963789352E+03  0.81669631557E+03  0.46999998093E+01 0.  1.
       -5    1    3    3    0  502 -0.59123267485E+03 -0.26033955023E+03 -0.62616098937E+03  0.89968462909E+03  0.46999998093E+01 0. -1.
</event>
<event>
 5   0  0.1215233E-04  0.1706958E+04  0.7818609E-02  0.8757406E-01
       -1   -1    0    0    0  501  0.00000000000E+00  0.00000000000E+00  0.78552094052E+03  0.78552094054E+03  0.50400001928E-02 0.  1.
        1   -1    0    0  501    0  0.00000000000E+00  0.00000000000E+00 -0.92731620016E+03  0.92731620017E+03  0.50400001928E-02 0. -1.
    10030    2    1    2    0    0  0.00000000000E+00  0.00000000000E+00 -0.14179525964E+03  0.17128371407E+04  0.17069578715E+04 0.  0.
        2    1    3    3  502    0  0.43812319877E+03  0.34695691286E+03  0.57637858961E+03  0.80283455036E+03  0.25500000920E-02 0.  1.
       -2    1    3    3    0  502 -0.43812319877E+03 -0.34695691286E+03 -0.71817384925E+03  0.91000259035E+03  0.25500000920E-02 0. -1.
</event>
<event>
 5   0  0.2242967E-04  0.1744151E+04  0.7818609E-02  0.8736577E-01
        2   -1    0    0  501    0  0.00000000000E+00  0.00000000000E+00  0.12402800357E+04  0.12402800357E+04  0.25500000920E-02 0. -1.
       -2   -1    0    0    0  501  0.00000000000E+00  0.00000000000E+00 -0.61318037610E+03  0.61318037610E+03  0.25500000920E-02 0.  1.
    10030    2    1    2    0    0  0.00000000000E+00  0.00000000000E+00  0.62709965964E+03  0.18534604118E+04  0.17441506572E+04 0.  0.
        4    1    3    3  502    0 -0.43535956890E+03 -0.33372116990E+03 -0.40688078444E+03  0.68297976480E+03  0.12699999809E+01 0.  1.
       -4    1    3    3    0  502  0.43535956890E+03  0.33372116990E+03  0.10339804441E+04  0.11704806470E+04  0.12699999809E+01 0. -1.
</event>
<event>
 5   0  0.2242967E-04  0.1643665E+04  0.7818609E-02  0.8794163E-01
       -2   -1    0    0    0  501  0.00000000000E+00  0.00000000000E+00  0.77231895182E+03  0.77231895183E+03  0.25500000920E-02 0.  1.
        2   -1    0    0  501    0  0.00000000000E+00  0.00000000000E+00 -0.87452024628E+03  0.87452024628E+03  0.25500000920E-02 0. -1.
    10030    2    1    2    0    0  0.00000000000E+00  0.00000000000E+00 -0.10220129445E+03  0.16468391981E+04  0.16436648806E+04 0.  0.
        4    1    3    3  502    0 -0.55414011612E+03 -0.48965644857E+03  0.30816155414E+03  0.80112412414E+03  0.12699999809E+01 0.  1.
       -4    1    3    3    0  502  0.55414011612E+03  0.48965644857E+03 -0.41036284860E+03  0.84571507397E+03  0.12699999809E+01 0. -1.
</event>
<event>
 5   0  0.2234723E-04  0.1704215E+04  0.7818609E-02  0.8758964E-01
       -2   -1    0    0    0  501  0.00000000000E+00  0.00000000000E+00  0.10746813219E+04  0.10746813219E+04  0.25500000920E-02 0.  1.
        2   -1    0    0  501    0  0.00000000000E+00  0.00000000000E+00 -0.67563059288E+03  0.67563059289E+03  0.25500000920E-02 0. -1.
    10030    2    1    2    0    0  0.00000000000E+00  0.00000000000E+00  0.39905072902E+03  0.17503119148E+04  0.17042154543E+04 0.  0.
        1    1    3    3  502    0  0.16127463306E+03  0.28975277212E+03  0.10056906585E+04  0.10589522542E+04  0.50400001928E-02 0.  1.
       -1    1    3    3    0  502 -0.16127463306E+03 -0.28975277212E+03 -0.60663992944E+03  0.69135966055E+03  0.50400001928E-02 0. -1.
</event>
<event>
 5   0  0.1126958E-04  0.1699380E+04  0.7818609E-02  0.8761718E-01
       -1   -1    0    0    0  501  0.00000000000E+00  0.00000000000E+00  0.67097106099E+03  0.67097106101E+03  0.50400001928E-02 0.  1.
        1   -1    0    0  501    0  0.00000000000E+00  0.00000000000E+00 -0.10760125877E+04  0.10760125877E+04  0.50400001928E-02 0. -1.
    10030    2    1    2    0    0  0.00000000000E+00  0.00000000000E+00 -0.40504152670E+03  0.17469836487E+04  0.16993802489E+04 0.  0.
        4    1    3    3  502    0 -0.30090266959E+03 -0.69085931715E+03 -0.60612872949E+03  0.96706910936E+03  0.12699999809E+01 0. -1.
       -4    1    3    3    0  502  0.30090266959E+03  0.69085931715E+03  0.20108720279E+03  0.77991453935E+03  0.12699999809E+01 0.  1.
</event>
<event>
 5   0  0.1126958E-04  0.1680547E+04  0.7818609E-02  0.8772537E-01
       -1   -1    0    0    0  501  0.00000000000E+00  0.00000000000E+00  0.15922912728E+04  0.15922912728E+04  0.50400001928E-02 0. -1.
        1   -1    0    0  501    0  0.00000000000E+00  0.00000000000E+00 -0.44342368703E+03  0.44342368706E+03  0.50400001928E-02 0.  1.
    10030    2    1    2    0    0  0.00000000000E+00  0.00000000000E+00  0.11488675858E+04  0.20357149599E+04  0.16805471336E+04 0.  0.
        4    1    3    3  502    0 -0.32433229387E+02 -0.26538799426E+03 -0.39052300614E+03  0.47327849421E+03  0.12699999809E+01 0.  1.
       -4    1    3    3    0  502  0.32433229387E+02  0.26538799426E+03  0.15393905919E+04  0.15624364657E+04  0.12699999809E+01 0. -1.
</event>
<event>
 5   0  0.2356829E-04  0.1708721E+04  0.7818609E-02  0.8756406E-01
       -2   -1    0    0    0  501  0.00000000000E+00  0.00000000000E+00  0.66461524818E+03  0.66461524819E+03  0.25500000920E-02 0.  1.
        2   -1    0    0  501    0  0.00000000000E+00  0.00000000000E+00 -0.10982770595E+04  0.10982770595E+04  0.25500000920E-02 0. -1.
    10030    2    1    2    0    0  0.00000000000E+00  0.00000000000E+00 -0.43366181127E+03  0.17628923076E+04  0.17087207852E+04 0.  0.
        5    1    3    3  502    0  0.54381097219E+02  0.69517558539E+03 -0.72612362534E+03  0.10067293616E+04  0.46999998093E+01 0. -1.
       -5    1    3    3    0  502 -0.54381097219E+02 -0.69517558539E+03  0.29246181408E+03  0.75616294603E+03  0.46999998093E+01 0.  1.
</event>
<event>
 5   0  0.1234158E-04  0.1708762E+04  0.7818609E-02  0.8756383E-01
        1   -1    0    0  501    0  0.00000000000E+00  0.00000000000E+00  0.44842614610E+03  0.44842614613E+03  0.50400001928E-02 0. -1.
       -1   -1    0    0    0  501  0.00000000000E+00  0.00000000000E+00 -0.16278422176E+04  0.16278422176E+04  0.50400001928E-02 0.  1.
    10030    2    1    2    0    0  0.00000000000E+00  0.00000000000E+00 -0.11794160715E+04  0.20762683637E+04  0.17087621392E+04 0.  0.
        5    1    3    3  502    0 -0.61392977564E+03 -0.42955395288E+03 -0.90908849740E+02  0.75479326760E+03  0.46999998093E+01 0. -1.
       -5    1    3    3    0  502  0.61392977564E+03  0.42955395288E+03 -0.10885072217E+04  0.13214750961E+04  0.46999998093E+01 0.  1.
</event>
<event>
 5   0  0.1234158E-04  0.1703888E+04  0.7818609E-02  0.8759150E-01
       -1   -1    0    0    0  501  0.00000000000E+00  0.00000000000E+00  0.75721750902E+03  0.75721750904E+03  0.50400001928E-02 0. -1.
        1   -1    0    0  501    0  0.00000000000E+00  0.00000000000E+00 -0.95852010501E+03  0.95852010503E+03  0.50400001928E-02 0.  1.
    10030    2    1    2    0    0  0.00000000000E+00  0.00000000000E+00 -0.20130259599E+03  0.17157376141E+04  0.17038875624E+04 0.  0.
        5    1    3    3  502    0  0.73224330704E+03 -0.31734154573E+03  0.19958369314E+03  0.82264309266E+03  0.46999998093E+01 0. -1.
       -5    1    3    3    0  502 -0.73224330704E+03  0.31734154573E+03 -0.40088628913E+03  0.89309452140E+03  0.46999998093E+01 0.  1.
</event>
<event>
 5   0  0.2224454E-04  0.1737320E+04  0.7818609E-02  0.8740361E-01
        2   -1    0    0  501    0  0.00000000000E+00  0.00000000000E+00  0.80004160570E+03  0.80004160570E+03  0.25500000920E-02 0. -1.
       -2   -1    0    0    0  501  0.00000000000E+00  0.00000000000E+00 -0.94316400283E+03  0.94316400283E+03  0.25500000920E-02 0.  1.
    10030    2    1    2    0    0  0.00000000000E+00  0.00000000000E+00 -0.14312239713E+03  0.17432056085E+04  0.17373202851E+04 0.  0.
        2    1    3    3  502    0  0.13296365255E+03  0.46453409394E+03  0.65275620663E+03  0.81213417773E+03  0.25500000920E-02 0. -1.
       -2    1    3    3    0  502 -0.13296365255E+03 -0.46453409394E+03 -0.79587860376E+03  0.93107143080E+03  0.25500000920E-02 0.  1.
</event>
<event>
 5   0  0.1186302E-04  0.1704572E+04  0.7818609E-02  0.8758761E-01
        1   -1    0    0  501    0  0.00000000000E+00  0.00000000000E+00  0.18685271629E+04  0.18685271629E+04  0.50400001928E-02 0.  1.
       -1   -1    0    0    0  501  0.00000000000E+00  0.00000000000E+00 -0.38875066086E+03  0.38875066089E+03  0.50400001928E-02 0. -1.
    10030    2    1    2    0    0  0.00000000000E+00  0.00000000000E+00  0.14797765021E+04  0.22572778238E+04  0.17045716992E+04 0.  0.
        3    1    3    3  502    0 -0.81200969938E+03 -0.18585715829E+03  0.50119797183E+03  0.97216359340E+03  0.10100000352E+00 0.  1.
       -3    1    3    3    0  502  0.81200969938E+03  0.18585715829E+03  0.97857853023E+03  0.12851142304E+04  0.10100000352E+00 0. -1.
</event>
<event>
 5   0  0.2288806E-04  0.1688121E+04  0.7818609E-02  0.8768169E-01
        2   -1    0    0  501    0  0.00000000000E+00  0.00000000000E+00  0.92836258223E+03  0.92836258223E+03  0.25500000920E-02 0. -1.
       -2   -1    0    0    0  501  0.00000000000E+00  0.00000000000E+00 -0.76741348338E+03  0.76741348338E+03  0.25500000920E-02 0.  1.
    10030    2    1    2    0    0  0.00000000000E+00  0.00000000000E+00  0.16094909886E+03  0.16957760656E+04  0.16881208050E+04 0.  0.
        3    1    3    3  502    0  0.59520902275E+03 -0.29315330593E+03 -0.44364363817E+03  0.79814305073E+03  0.10100000352E+00 0.  1.
       -3    1    3    3    0  502 -0.59520902275E+03  0.29315330593E+03  0.60459273702E+03  0.89763301488E+03  0.10100000352E+00 0. -1.
</event>
<event>
 5   0  0.2242967E-04  0.1699469E+04  0.7818609E-02  0.8761667E-01
        2   -1    0    0  501    0  0.00000000000E+00  0.00000000000E+00  0.91671858153E+03  0.91671858154E+03  0.25500000920E-02 0.  1.
       -2   -1    0    0    0  501  0.00000000000E+00  0.00000000000E+00 -0.78764536226E+03  0.78764536227E+03  0.25500000920E-02 0. -1.
    10030    2    1    2    0    0  0.00000000000E+00  0.00000000000E+00  0.12907321927E+03  0.17043639438E+04  0.16994694928E+04 0.  0.
        4    1    3    3  502    0  0.17137286974E+03 -0.35944369834E+03 -0.68827770534E+03  0.79517057625E+03  0.12699999809E+01 0. -1.
       -4    1    3    3    0  502 -0.17137286974E+03  0.35944369834E+03  0.81735092461E+03  0.90919336756E+03  0.12699999809E+01 0.  1.
</event>
<event>
 5   0  0.2242967E-04  0.1689054E+04  0.7818609E-02  0.8767632E-01
       -2   -1    0    0    0  501  0.00000000000E+00  0.00000000000E+00  0.79162107606E+03  0.79162107606E+03  0.25500000920E-02 0. -1.
        2   -1    0    0  501    0  0.00000000000E+00  0.00000000000E+00 -0.90096914925E+03  0.90096914925E+03  0.25500000920E-02 0.  1.
    10030    2    1    2    0    0  0.00000000000E+00  0.00000000000E+00 -0.10934807319E+03  0.16925902253E+04  0.16890543714E+04 0.  0.
        4    1    3    3  502    0 -0.62790719560E+03 -0.10648613067E+03  0.50112007094E+03  0.81038859858E+03  0.12699999809E+01 0. -1.
       -4    1    3    3    0  502  0.62790719560E+03  0.10648613067E+03 -0.61046814413E+03  0.88220162673E+03  0.12699999809E+01 0.  1.
</event>
<event>
 5   0  0.1215233E-04  0.1704137E+04  0.7818609E-02  0.8759008E-01
       -1   -1    0    0    0  501  0.00000000000E+00  0.00000000000E+00  0.75362419617E+03  0.75362419619E+03  0.50400001928E-02 0.  1.
        1   -1    0    0  501    0  0.00000000000E+00  0.00000000000E+00 -0.96337240618E+03  0.96337240620E+03  0.50400001928E-02 0. -1.
    10030    2    1    2    0    0  0.00000000000E+00  0.00000000000E+00 -0.20974821001E+03  0.17169966024E+04  0.17041370312E+04 0.  0.
        2    1    3    3  502    0  0.26029384345E+03 -0.35749501753E+03  0.62895234939E+03  0.76885410210E+03  0.25500000920E-02 0.  1.
       -2    1    3    3    0  502 -0.26029384345E+03  0.35749501753E+03 -0.83870055940E+03  0.94814250029E+03  0.25500000920E-02 0. -1.
</event>
<event>
 5   0  0.2234723E-04  0.1642164E+04  0.7818609E-02  0.8795055E-01
        2   -1    0    0  501    0  0.00000000000E+00  0.00000000000E+00  0.68511713761E+03  0.68511713761E+03  0.25500000920E-02 0.  1.
       -2   -1    0    0    0  501  0.00000000000E+00  0.00000000000E+00 -0.98403014237E+03  0.98403014237E+03  0.25500000920E-02 0. -1.
    10030    2    1    2    0    0  0.00000000000E+00  0.00000000000E+00 -0.29891300476E+03  0.16691472800E+04  0.16421643212E+04 0.  0.
        1    1    3    3  502    0 -0.47339604046E+02 -0.28998538090E+03 -0.92876399840E+03  0.97413301145E+03  0.50400001928E-02 0. -1.
       -1    1    3    3    0  502  0.47339604046E+02  0.28998538090E+03  0.62985099364E+03  0.69501426853E+03  0.50400001928E-02 0.  1.
</event>
<event>
 5   0  0.1204741E-04  0.1653575E+04  0.7818609E-02  0.8788294E-01
        1   -1    0    0  501    0  0.00000000000E+00  0.00000000000E+00  0.64075636212E+03  0.64075636214E+03  0.50400001928E-02 0. -1.
       -1   -1    0    0    0  501  0.00000000000E+00  0.00000000000E+00 -0.10668294197E+04  0.10668294197E+04  0.50400001928E-02 0.  1.
    10030    2    1    2    0    0  0.00000000000E+00  0.00000000000E+00 -0.42607305754E+03  0.17075857818E+04  0.16535752030E+04 0.  0.
        1    1    3    3  502    0 -0.59332722160E+03  0.30034409474E+03  0.29426691250E+03  0.72721164935E+03  0.50400001928E-02 0. -1.
       -1    1    3    3    0  502  0.59332722160E+03 -0.30034409474E+03 -0.72033997004E+03  0.98037413246E+03  0.50400001928E-02 0.  1.
</event>
<event>
 5   0  0.1234158E-04  0.1682718E+04  0.7818609E-02  0.8771283E-01
        1   -1    0    0  501    0  0.00000000000E+00  0.00000000000E+00  0.95843697341E+03  0.95843697342E+03  0.50400001928E-02 0. -1.
       -1   -1    0    0    0  501  0.00000000000E+00  0.00000000000E+00 -0.73858248179E+03  0.73858248181E+03  0.50400001928E-02 0.  1.
    10030    2    1    2    0    0  0.00000000000E+00  0.00000000000E+00  0.21985449162E+03  0.16970194552E+04  0.16827177523E+04 0.  0.
        5    1    3    3  502    0  0.52534340362E+03 -0.23527699898E+03 -0.50890160965E+03  0.76833839958E+03  0.46999998093E+01 0.  1.
       -5    1    3    3    0  502 -0.52534340362E+03  0.23527699898E+03  0.72875610127E+03  0.92868105564E+03  0.46999998093E+01 0. -1.
</event>
<event>
 5   0  0.2234723E-04  0.1708421E+04  0.7818609E-02  0.8756576E-01
        2   -1    0    0  501    0  0.00000000000E+00  0.00000000000E+00  0.11932160244E+04  0.11932160244E+04  0.25500000920E-02 0. -1.
       -2   -1    0    0    0  501  0.00000000000E+00  0.00000000000E+00 -0.61152023105E+03  0.61152023105E+03  0.25500000920E-02 0.  1.
    10030    2    1    2    0    0  0.00000000000E+00  0.00000000000E+00  0.58169579339E+03  0.18047362555E+04  0.17084211881E+04 0.  0.
        1    1    3    3  502    0  0.36986094392E+03 -0.27304750076E+03  0.10513830989E+04  0.11475009700E+04  0.50400001928E-02 0. -1.
       -1    1    3    3    0  502 -0.36986094392E+03  0.27304750076E+03 -0.46968730551E+03  0.65723528548E+03  0.50400001928E-02 0.  1.
</event>
<event>
 5   0  0.1234158E-04  0.1670455E+04  0.7818609E-02  0.8778396E-01
       -1   -1    0    0    0  501  0.00000000000E+00  0.00000000000E+00  0.10866651075E+04  0.10866651075E+04  0.50400001928E-02 0.  1.
        1   -1    0    0  501    0  0.00000000000E+00  0.00000000000E+00 -0.64196892039E+03  0.64196892041E+03  0.50400001928E-02 0. -1.
    10030    2    1    2    0    0  0.00000000000E+00  0.00000000000E+00  0.44469618713E+03  0.17286340279E+04  0.16704552983E+04 0.  0.
        5    1    3    3  502    0  0.63464269591E+03 -0.50798308850E+03  0.23928166651E+02  0.81327290428E+03  0.46999998093E+01 0. -1.
       -5    1    3    3    0  502 -0.63464269591E+03  0.50798308850E+03  0.42076802048E+03  0.91536112367E+03  0.46999998093E+01 0.  1.
</event>
<event>
 5   0  0.1186302E-04  0.1704357E+04  0.7818609E-02  0.8758883E-01
       -1   -1    0    0    0  501  0.00000000000E+00  0.00000000000E+00  0.78028877676E+03  0.78028877677E+03  0.50400001928E-02 0. -1.
        1   -1    0    0  501    0  0.00000000000E+00  0.00000000000E+00 -0.93069141760E+03  0.93069141761E+03  0.50400001928E-02 0.  1.
    10030    2    1    2    0    0  0.00000000000E+00  0.00000000000E+00 -0.15040264084E+03  0.17109801944E+04  0.17043568497E+04 0.  0.
        3    1    3    3  502    0 -0.41718451250E+03 -0.73793186153E+03  0.12440340946E+02  0.84778601192E+03  0.10100000352E+00 0.  1.
       -3    1    3    3    0  502  0.41718451250E+03  0.73793186153E+03 -0.16284298179E+03  0.86319418247E+03  0.10100000352E+00 0. -1.
</event>
<event>
 5   0  0.1126958E-04  0.1799321E+04  0.7818609E-02  0.8706660E-01
       -1   -1    0    0    0  501  0.00000000000E+00  0.00000000000E+00  0.84884324405E+03  0.84884324406E+03  0.50400001928E-02 0. -1.
        1   -1    0    0  501    0  0.00000000000E+00  0.00000000000E+00 -0.95352045531E+03  0.95352045532E+03  0.50400001928E-02 0.  1.
    10030    2    1    2    0    0  0.00000000000E+00  0.00000000000E+00 -0.10467721126E+03  0.18023636994E+04  0.17993214238E+04 0.  0.
        4    1    3    3  502    0  0.39604324858E+03  0.18896851191E+03  0.73437357115E+03  0.85549138402E+03  0.12699999809E+01 0. -1.
       -4    1    3    3    0  502 -0.39604324858E+03 -0.18896851191E+03 -0.83905078241E+03  0.94687231536E+03  0.12699999809E+01 0.  1.
</event>
<event>
 5   0  0.2356829E-04  0.1697482E+04  0.7818609E-02  0.8762802E-01
       -2   -1    0    0    0  501  0.00000000000E+00  0.00000000000E+00  0.43987087738E+03  0.43987087739E+03  0.25500000920E-02 0.  1.
        2   -1    0    0  501    0  0.00000000000E+00  0.00000000000E+00 -0.16376657837E+04  0.16376657837E+04  0.25500000920E-02 0. -1.
    10030    2    1    2    0    0  0.00000000000E+00  0.00000000000E+00 -0.11977949063E+04  0.20775366611E+04  0.16974822357E+04 0.  0.
        5    1    3    3  502    0 -0.76303222962E+02 -0.20661698296E+03  0.40426684440E+03  0.46039823084E+03  0.46999998093E+01 0.  1.
       -5    1    3    3    0  502  0.76303222962E+02  0.20661698296E+03 -0.16020617507E+04  0.16171384303E+04  0.46999998093E+01 0. -1.
</event>
<event>
 5   0  0.2234723E-04  0.1687996E+04  0.7818609E-02  0.8768240E-01
        2   -1    0    0  501    0  0.00000000000E+00  0.00000000000E+00  0.14964958052E+04  0.14964958052E+04  0.25500000920E-02 0.  1.
       -2   -1    0    0    0  501  0.00000000000E+00  0.00000000000E+00 -0.47600041215E+03  0.47600041216E+03  0.25500000920E-02 0. -1.
    10030    2    1    2    0    0  0.00000000000E+00  0.00000000000E+00  0.10204953930E+04  0.19724962173E+04  0.16879959953E+04 0.  0.
        1    1    3    3  502    0 -0.43703169852E+02  0.76854903714E+03  0.91462954197E+03  0.11954600740E+04  0.50400001928E-02 0. -1.
       -1    1    3    3    0  502  0.43703169852E+02 -0.76854903714E+03  0.10586585105E+03  0.77703614329E+03  0.50400001928E-02 0.  1.
</event>
<event>
 5   0  0.1215233E-04  0.1706376E+04  0.7818609E-02  0.8757736E-01
       -1   -1    0    0    0  501  0.00000000000E+00  0.00000000000E+00  0.40118104082E+03  0.40118104085E+03  0.50400001928E-02 0.  1.
        1   -1    0    0  501    0  0.00000000000E+00  0.00000000000E+00 -0.18144667096E+04  0.18144667096E+04  0.50400001928E-02 0. -1.
    10030    2    1    2    0    0  0.00000000000E+00  0.00000000000E+00 -0.14132856688E+04  0.22156477505E+04  0.17063758591E+04 0.  0.
        2    1    3    3  502    0  0.45438827221E+03 -0.17142048772E+03  0.20419715819E+03  0.52683029996E+03  0.25500000920E-02 0.  1.
       -2    1    3    3    0  502 -0.45438827221E+03  0.17142048772E+03 -0.16174828270E+04  0.16888174505E+04  0.25500000920E-02 0. -1.
</event>
<event>
 5   0  0.1234158E-04  0.1702590E+04  0.7818609E-02  0.8759888E-01
       -1   -1    0    0    0  501  0.00000000000E+00  0.00000000000E+00  0.80231229745E+03  0.80231229746E+03  0.50400001928E-02 0. -1.
        1   -1    0    0  501    0  0.00000000000E+00  0.00000000000E+00 -0.90326865406E+03  0.90326865408E+03  0.50400001928E-02 0.  1.
    10030    2    1    2    0    0  0.00000000000E+00  0.00000000000E+00 -0.10095635662E+03  0.17055809515E+04  0.17025904370E+04 0.  0.
        5    1    3    3  502    0 -0.21622473306E+03  0.51695082441E+03  0.59149857308E+03  0.81479073510E+03  0.46999998093E+01 0. -1.
       -5    1    3    3    0  502  0.21622473306E+03 -0.51695082441E+03 -0.69245492970E+03  0.89079021644E+03  0.46999998093E+01 0.  1.
</event>
<event>
 5   0  0.2288806E-04  0.1715694E+04  0.7818609E-02  0.8752464E-01
       -2   -1    0    0    0  501  0.00000000000E+00  0.00000000000E+00  0.67016159551E+03  0.67016159552E+03  0.25500000920E-02 0.  1.
        2   -1    0    0  501    0  0.00000000000E+00  0.00000000000E+00 -0.10980956392E+04  0.10980956392E+04  0.25500000920E-02 0. -1.
    10030    2    1    2    0    0  0.00000000000E+00  0.00000000000E+00 -0.42793404373E+03  0.17682572348E+04  0.17156940585E+04 0.  0.
        3    1    3    3  502    0  0.66906767956E+03 -0.52461783330E+03 -0.33159551763E+03  0.91259576394E+03  0.10100000352E+00 0. -1.
       -3    1    3    3    0  502 -0.66906767956E+03  0.52461783330E+03 -0.96338526097E+02  0.85566147083E+03  0.10100000352E+00 0.  1.
</event>
<event>
 5   0  0.2234723E-04  0.1698698E+04  0.7818609E-02  0.8762107E-01
       -2   -1    0    0    0  501  0.00000000000E+00  0.00000000000E+00  0.66188258565E+03  0.66188258565E+03  0.25500000920E-02 0.  1.
        2   -1    0    0  501    0  0.00000000000E+00  0.00000000000E+00 -0.10899121320E+04  0.10899121320E+04  0.25500000920E-02 0. -1.
    10030    2    1    2    0    0  0.00000000000E+00  0.00000000000E+00 -0.42802954635E+03  0.17517947177E+04  0.16986981604E+04 0.  0.
        1    1    3    3  502    0 -0.83673258651E+03  0.12687493998E+03 -0.28820216020E+03  0.89402413663E+03  0.50400001928E-02 0. -1.
       -1    1    3    3    0  502  0.83673258651E+03 -0.12687493998E+03 -0.13982738615E+03  0.85777058102E+03  0.50400001928E-02 0.  1.
</event>
<event>
 5   0  0.8372750E-05  0.1719827E+04  0.7818609E-02  0.8750136E-01
        3   -1    0    0  501    0  0.00000000000E+00  0.00000000000E+00  0.56026302986E+03  0.56026303896E+03  0.10100000352E+00 0. -1.
       -3   -1    0    0    0  501  0.00000000000E+00  0.00000000000E+00 -0.13198290385E+04  0.13198290423E+04  0.10100000352E+00 0.  1.
    10030    2    1    2    0    0  0.00000000000E+00  0.00000000000E+00 -0.75956600860E+03  0.18800920813E+04  0.17198272334E+04 0.  0.
        4    1    3    3  502    0  0.29064015547E+03  0.47394842602E+03  0.33735990575E+03  0.65031694535E+03  0.12699999809E+01 0. -1.
       -4    1    3    3    0  502 -0.29064015547E+03 -0.47394842602E+03 -0.10969259143E+04  0.12297751359E+04  0.12699999809E+01 0.  1.
</event>
<event>
 5   0  0.1215233E-04  0.1684399E+04  0.7818609E-02  0.8770313E-01
       -1   -1    0    0    0  501  0.00000000000E+00  0.00000000000E+00  0.47283861280E+03  0.47283861282E+03  0.50400001928E-02 0.  1.
        1   -1    0    0  501    0  0.00000000000E+00  0.00000000000E+00 -0.15000882690E+04  0.15000882690E+04  0.50400001928E-02 0. -1.
    10030    2    1    2    0    0  0.00000000000E+00  0.00000000000E+00 -0.10272496562E+04  0.19729268818E+04  0.16843985944E+04 0.  0.
        2    1    3    3  502    0 -0.18278193226E+03 -0.25423026258E+03  0.40212781973E+03  0.50965580992E+03  0.25500000920E-02 0.  1.
       -2    1    3    3    0  502  0.18278193226E+03  0.25423026258E+03 -0.14293774759E+04  0.14632710719E+04  0.25500000920E-02 0. -1.
</event>
<event>
 5   0  0.1234158E-04  0.1695967E+04  0.7818609E-02  0.8763668E-01
        1   -1    0    0  501    0  0.00000000000E+00  0.00000000000E+00  0.90472540931E+03  0.90472540933E+03  0.50400001928E-02 0. -1.
       -1   -1    0    0    0  501  0.00000000000E+00  0.00000000000E+00 -0.79480062849E+03  0.79480062851E+03  0.50400001928E-02 0.  1.
    10030    2    1    2    0    0  0.00000000000E+00  0.00000000000E+00  0.10992478082E+03  0.16995260378E+04  0.16959673628E+04 0.  0.
        5    1    3    3  502    0  0.82725542385E+03 -0.12518588972E+03 -0.83280661413E+02  0.84082150415E+03  0.46999998093E+01 0.  1.
       -5    1    3    3    0  502 -0.82725542385E+03  0.12518588972E+03  0.19320544223E+03  0.85870453369E+03  0.46999998093E+01 0. -1.
</event>
<event>
 5   0  0.1215233E-04  0.1708769E+04  0.7818609E-02  0.8756379E-01
        1   -1    0    0  501    0  0.00000000000E+00  0.00000000000E+00  0.56994254170E+03  0.56994254172E+03  0.50400001928E-02 0.  1.
       -1   -1    0    0    0  501  0.00000000000E+00  0.00000000000E+00 -0.12807831376E+04  0.12807831376E+04  0.50400001928E-02 0. -1.
    10030    2    1    2    0    0  0.00000000000E+00  0.00000000000E+00 -0.71084059592E+03  0.18507256793E+04  0.17087689099E+04 0.  0.
        2    1    3    3  502    0  0.38114673051E+03  0.66484395260E+03  0.53693427602E+02  0.76822737237E+03  0.25500000920E-02 0.  1.
       -2    1    3    3    0  502 -0.38114673051E+03 -0.66484395260E+03 -0.76453402352E+03  0.10824983070E+04  0.25500000920E-02 0. -1.
</event>
<event>
 5   0  0.1234158E-04  0.1738572E+04  0.7818609E-02  0.8739666E-01
       -1   -1    0    0    0  501  0.00000000000E+00  0.00000000000E+00  0.31828603166E+04  0.31828603166E+04  0.50400001928E-02 0. -1.
        1   -1    0    0  501    0  0.00000000000E+00  0.00000000000E+00 -0.23741492114E+03  0.23741492119E+03  0.50400001928E-02 0.  1.
    10030    2    1    2    0    0  0.00000000000E+00  0.00000000000E+00  0.29454453955E+04  0.34202752378E+04  0.17385724387E+04 0.  0.
        5    1    3    3  502    0 -0.12725908266E+03  0.64267914274E+03  0.25966720067E+04  0.26780513354E+04  0.46999998093E+01 0. -1.
       -5    1    3    3    0  502  0.12725908266E+03 -0.64267914274E+03  0.34877338882E+03  0.74222390246E+03  0.46999998093E+01 0.  1.
</event>
<event>
 5   0  0.1215233E-04  0.1681732E+04  0.7818609E-02  0.8771852E-01
        1   -1    0    0  501    0  0.00000000000E+00  0.00000000000E+00  0.13752082807E+04  0.13752082807E+04  0.50400001928E-02 0.  1.
       -1   -1    0    0    0  501  0.00000000000E+00  0.00000000000E+00 -0.51414453122E+03  0.51414453125E+03  0.50400001928E-02 0. -1.
    10030    2    1    2    0    0  0.00000000000E+00  0.00000000000E+00  0.86106374950E+03  0.18893528120E+04  0.16817322223E+04 0.  0.
        2    1    3    3  502    0 -0.27333789211E+03 -0.16215113802E+03 -0.44406952473E+03  0.54608088927E+03  0.25500000920E-02 0. -1.
       -2    1    3    3    0  502  0.27333789211E+03  0.16215113802E+03  0.13051332742E+04  0.13432719227E+04  0.25500000920E-02 0.  1.
</event>
<event>
 5   0  0.2288806E-04  0.1715212E+04  0.7818609E-02  0.8752735E-01
        2   -1    0    0  501    0  0.00000000000E+00  0.00000000000E+00  0.20280476026E+04  0.20280476026E+04  0.25500000920E-02 0.  1.
       -2   -1    0    0    0  501  0.00000000000E+00  0.00000000000E+00 -0.36265831492E+03  0.36265831492E+03  0.25500000920E-02 0. -1.
    10030    2    1    2    0    0  0.00000000000E+00  0.00000000000E+00  0.16653892877E+04  0.23907059175E+04  0.17152123205E+04 0.  0.
        3    1    3    3  502    0 -0.50880332658E+03 -0.10087543595E+02 -0.12945435802E+03  0.52511048807E+03  0.10100000352E+00 0. -1.
       -3    1    3    3    0  502  0.50880332658E+03  0.10087543595E+02  0.17948436457E+04  0.18655954294E+04  0.10100000352E+00 0.  1.
</event>
<event>
 5   0  0.2224454E-04  0.1703191E+04  0.7818609E-02  0.8759547E-01
        2   -1    0    0  501    0  0.00000000000E+00  0.00000000000E+00  0.11857869842E+04  0.11857869842E+04  0.25500000920E-02 0. -1.
       -2   -1    0    0    0  501  0.00000000000E+00  0.00000000000E+00 -0.61158942788E+03  0.61158942789E+03  0.25500000920E-02 0.  1.
    10030    2    1    2    0    0  0.00000000000E+00  0.00000000000E+00  0.57419755636E+03  0.17973764121E+04  0.17031908681E+04 0.  0.
        2    1    3    3  502    0 -0.51568710010E+03  0.65620262754E+03  0.46581463736E+03  0.95578153884E+03  0.25500000920E-02 0.  1.
       -2    1    3    3    0  502  0.51568710010E+03 -0.65620262754E+03  0.10838291900E+03  0.84159487329E+03  0.25500000920E-02 0. -1.
</event>
<event>
 5   0  0.2234723E-04  0.1688204E+04  0.7818609E-02  0.8768121E-01
       -2   -1    0    0    0  501  0.00000000000E+00  0.00000000000E+00  0.34839234751E+03  0.34839234752E+03  0.25500000920E-02 0. -1.
        2   -1    0    0  501    0  0.00000000000E+00  0.00000000000E+00 -0.20451325237E+04  0.20451325237E+04  0.25500000920E-02 0.  1.
    10030    2    1    2    0    0  0.00000000000E+00  0.00000000000E+00 -0.16967401762E+04  0.23935248712E+04  0.16882043963E+04 0.  0.
        1    1    3    3  502    0  0.94324718786E+02  0.83736874918E+03 -0.77855263960E+03  0.11472697099E+04  0.50400001928E-02 0. -1.
       -1    1    3    3    0  502 -0.94324718786E+02 -0.83736874918E+03 -0.91818753662E+03  0.12462551613E+04  0.50400001928E-02 0.  1.
</event>
<event>
 5   0  0.1215233E-04  0.1693034E+04  0.7818609E-02  0.8765347E-01
       -1   -1    0    0    0  501  0.00000000000E+00  0.00000000000E+00  0.82021733437E+03  0.82021733439E+03  0.50400001928E-02 0. -1.
        1   -1    0    0  501    0  0.00000000000E+00  0.00000000000E+00 -0.87366036164E+03  0.87366036166E+03  0.50400001928E-02 0.  1.
    10030    2    1    2    0    0  0.00000000000E+00  0.00000000000E+00 -0.53443027275E+02  0.16938776960E+04  0.16930344037E+04 0.  0.
        2    1    3    3  502    0 -0.58653783575E+03  0.42258248264E+03 -0.46738247572E+03  0.86084200990E+03  0.25500000920E-02 0.  1.
       -2    1    3    3    0  502  0.58653783575E+03 -0.42258248264E+03  0.41393944844E+03  0.83303568614E+03  0.25500000920E-02 0. -1.
</event>
<event>
 5   0  0.2242967E-04  0.1708731E+04  0.7818609E-02  0.8756400E-01
       -2   -1    0    0    0  501  0.00000000000E+00  0.00000000000E+00  0.53028174218E+03  0.53028174219E+03  0.25500000920E-02 0. -1.
        2   -1    0    0  501    0  0.00000000000E+00  0.00000000000E+00 -0.13765149158E+04  0.13765149158E+04  0.25500000920E-02 0.  1.
    10030    2    1    2    0    0  0.00000000000E+00  0.00000000000E+00 -0.84623317365E+03  0.19067966580E+04  0.17087313747E+04 0.  0.
        4    1    3    3  502    0  0.11517302914E+03  0.78550558068E+03 -0.77539069599E+03  0.11097369906E+04  0.12699999809E+01 0.  1.
       -4    1    3    3    0  502 -0.11517302914E+03 -0.78550558068E+03 -0.70842477661E+02  0.79705966745E+03  0.12699999809E+01 0. -1.
</event>
<event>
 5   0  0.1204741E-04  0.1715299E+04  0.7818609E-02  0.8752687E-01
        1   -1    0    0  501    0  0.00000000000E+00  0.00000000000E+00  0.11660833413E+04  0.11660833413E+04  0.50400001928E-02 0. -1.
       -1   -1    0    0    0  501  0.00000000000E+00  0.00000000000E+00 -0.63079734878E+03  0.63079734880E+03  0.50400001928E-02 0.  1.
    10030    2    1    2    0    0  0.00000000000E+00  0.00000000000E+00  0.53528599254E+03  0.17968806901E+04  0.17152985515E+04 0.  0.
        1    1    3    3  502    0 -0.43429790945E+03 -0.56365617024E+03  0.76920437080E+03  0.10478541485E+04  0.50400001928E-02 0. -1.
       -1    1    3    3    0  502  0.43429790945E+03  0.56365617024E+03 -0.23391837825E+03  0.74902654166E+03  0.50400001928E-02 0.  1.
</event>
<event>
 5   0  0.1126958E-04  0.1698088E+04  0.7818609E-02  0.8762455E-01
       -1   -1    0    0    0  501  0.00000000000E+00  0.00000000000E+00  0.97387489121E+03  0.97387489122E+03  0.50400001928E-02 0. -1.
        1   -1    0    0  501    0  0.00000000000E+00  0.00000000000E+00 -0.74021403143E+03  0.74021403145E+03  0.50400001928E-02 0.  1.
    10030    2    1    2    0    0  0.00000000000E+00  0.00000000000E+00  0.23366085978E+03  0.17140889227E+04  0.16980881713E+04 0.  0.
        4    1    3    3  502    0 -0.78409625977E+03 -0.29749992246E+03  0.25059741682E+03  0.87527928495E+03  0.12699999809E+01 0. -1.
       -4    1    3    3    0  502  0.78409625977E+03  0.29749992246E+03 -0.16936557037E+02  0.83880963771E+03  0.12699999809E+01 0.  1.
</event>
<event>
 5   0  0.2288806E-04  0.1681773E+04  0.7818609E-02  0.8771828E-01
       -2   -1    0    0    0  501  0.00000000000E+00  0.00000000000E+00  0.14761145926E+04  0.14761145926E+04  0.25500000920E-02 0.  1.
        2   -1    0    0  501    0  0.00000000000E+00  0.00000000000E+00 -0.47902142358E+03  0.47902142359E+03  0.25500000920E-02 0. -1.
    10030    2    1    2    0    0  0.00000000000E+00  0.00000000000E+00  0.99709316902E+03  0.19551360162E+04  0.16817734848E+04 0.  0.
        3    1    3    3  502    0 -0.10892182262E+02 -0.81835297431E+03  0.27411149255E+03  0.86310911867E+03  0.10100000352E+00 0. -1.
       -3    1    3    3    0  502  0.10892182262E+02  0.81835297431E+03  0.72298167647E+03  0.10920268975E+04  0.10100000352E+00 0.  1.
</event>
<event>
 5   0  0.1234158E-04  0.1698429E+04  0.7818609E-02  0.8762261E-01
       -1   -1    0    0    0  501  0.00000000000E+00  0.00000000000E+00  0.58890335268E+03  0.58890335270E+03  0.50400001928E-02 0. -1.
        1   -1    0    0  501    0  0.00000000000E+00  0.00000000000E+00 -0.12245895434E+04  0.12245895434E+04  0.50400001928E-02 0.  1.
    10030    2    1    2    0    0  0.00000000000E+00  0.00000000000E+00 -0.63568619072E+03  0.18134928961E+04  0.16984285534E+04 0.  0.
        5    1    3    3  502    0  0.69143088952E+03  0.47457678414E+03 -0.17521584857E+03  0.85675112058E+03  0.46999998093E+01 0. -1.
       -5    1    3    3    0  502 -0.69143088952E+03 -0.47457678414E+03 -0.46047034215E+03  0.95674177552E+03  0.46999998093E+01 0.  1.
</event>
<event>
 5   0  0.2288806E-04  0.1696495E+04  0.7818609E-02  0.8763366E-01
        2   -1    0    0  501    0  0.00000000000E+00  0.00000000000E+00  0.11511480861E+04  0.11511480861E+04  0.25500000920E-02 0. -1.
       -2   -1    0    0    0  501  0.00000000000E+00  0.00000000000E+00 -0.62504879904E+03  0.62504879904E+03  0.25500000920E-02 0.  1.
    10030    2    1    2    0    0  0.00000000000E+00  0.00000000000E+00  0.52609928709E+03  0.17761968852E+04  0.16964948910E+04 0.  0.
        3    1    3    3  502    0 -0.40304678842E+03  0.71438017881E+03  0.36703318523E+02  0.82105596479E+03  0.10100000352E+00 0. -1.
       -3    1    3    3    0  502  0.40304678842E+03 -0.71438017881E+03  0.48939596856E+03  0.95514092038E+03  0.10100000352E+00 0.  1.
</event>
<event>
 5   0  0.1126958E-04  0.1740780E+04  0.7818609E-02  0.8738442E-01
        1   -1    0    0  501    0  0.00000000000E+00  0.00000000000E+00  0.90062261764E+03  0.90062261766E+03  0.50400001928E-02 0.  1.
       -1   -1    0    0    0  501  0.00000000000E+00  0.00000000000E+00 -0.84117238181E+03  0.84117238183E+03  0.50400001928E-02 0. -1.
    10030    2    1    2    0    0  0.00000000000E+00  0.00000000000E+00  0.59450235830E+02  0.17417949995E+04  0.17407801382E+04 0.  0.
        4    1    3    3  502    0 -0.68401272591E+03 -0.42690439762E+03 -0.29827155084E+03  0.85970245135E+03  0.12699999809E+01 0. -1.
       -4    1    3    3    0  502  0.68401272591E+03  0.42690439762E+03  0.35772178667E+03  0.88209254813E+03  0.12699999809E+01 0.  1.
</event>
<event>
 5   0  0.1234158E-04  0.1690719E+04  0.7818609E-02  0.8766675E-01
        1   -1    0    0  501    0  0.00000000000E+00  0.00000000000E+00  0.95134112278E+03  0.95134112279E+03  0.50400001928E-02 0. -1.
       -1   -1    0    0    0  501  0.00000000000E+00  0.00000000000E+00 -0.75118457612E+03  0.75118457613E+03  0.50400001928E-02 0.  1.
    10030    2    1    2    0    0  0.00000000000E+00  0.00000000000E+00  0.20015654666E+03  0.17025256989E+04  0.16907191110E+04 0.  0.
        5    1    3    3  502    0  0.82983445138E+03  0.31076765123E+02  0.25935903215E+03  0.86998860888E+03  0.46999998093E+01 0. -1.
       -5    1    3    3    0  502 -0.82983445138E+03 -0.31076765123E+02 -0.59202485487E+02  0.83253709005E+03  0.46999998093E+01 0.  1.
</event>
<event>
 5   0  0.2356829E-04  0.1702978E+04  0.7818609E-02  0.8759668E-01
       -2   -1    0    0    0  501  0.00000000000E+00  0.00000000000E+00  0.85157293410E+03  0.85157293410E+03  0.25500000920E-02 0. -1.
        2   -1    0    0  501    0  0.00000000000E+00  0.00000000000E+00 -0.85140512374E+03  0.85140512375E+03  0.25500000920E-02 0.  1.
    10030    2    1    2    0    0  0.00000000000E+00  0.00000000000E+00  0.16781035146E+00  0.17029780578E+04  0.17029780496E+04 0.  0.
        5    1    3    3  502    0 -0.61435559516E+03  0.35206411848E+03  0.47297874622E+03  0.85153562767E+03  0.46999998093E+01 0. -1.
       -5    1    3    3    0  502  0.61435559516E+03 -0.35206411848E+03 -0.47281093587E+03  0.85144243017E+03  0.46999998093E+01 0.  1.
</event>
<event>
 5   0  0.1204741E-04  0.1699851E+04  0.7818609E-02  0.8761449E-01
        1   -1    0    0  501    0  0.00000000000E+00  0.00000000000E+00  0.21417589279E+04  0.21417589279E+04  0.50400001928E-02 0.  1.
       -1   -1    0    0    0  501  0.00000000000E+00  0.00000000000E+00 -0.33728057920E+03  0.33728057923E+03  0.50400001928E-02 0. -1.
    10030    2    1    2    0    0  0.00000000000E+00  0.00000000000E+00  0.18044783487E+04  0.24790395071E+04  0.16998513956E+04 0.  0.
        1    1    3    3  502    0 -0.32694233082E+03  0.73118862590E+03  0.48757102444E+03  0.93768523409E+03  0.50400001928E-02 0.  1.
       -1    1    3    3    0  502  0.32694233082E+03 -0.73118862590E+03  0.13169073242E+04  0.15413542730E+04  0.50400001928E-02 0. -1.
</event>
<event>
 5   0  0.2356829E-04  0.1678818E+04  0.7818609E-02  0.8773539E-01
        2   -1    0    0  501    0  0.00000000000E+00  0.00000000000E+00  0.21640517861E+04  0.21640517861E+04  0.25500000920E-02 0. -1.
       -2   -1    0    0    0  501  0.00000000000E+00  0.00000000000E+00 -0.32559623780E+03  0.32559623781E+03  0.25500000920E-02 0.  1.
    10030    2    1    2    0    0  0.00000000000E+00  0.00000000000E+00  0.18384555483E+04  0.24896480239E+04  0.16788175839E+04 0.  0.
        5    1    3    3  502    0  0.21717973706E+03  0.74714848019E+02 -0.27807367725E+03  0.36068879478E+03  0.46999998093E+01 0.  1.
       -5    1    3    3    0  502 -0.21717973706E+03 -0.74714848019E+02  0.21165292255E+04  0.21289592291E+04  0.46999998093E+01 0. -1.
</event>
<event>
 5   0  0.1215233E-04  0.1693397E+04  0.7818609E-02  0.8765139E-01
       -1   -1    0    0    0  501  0.00000000000E+00  0.00000000000E+00  0.42283123551E+03  0.42283123554E+03  0.50400001928E-02 0. -1.
        1   -1    0    0  501    0  0.00000000000E+00  0.00000000000E+00 -0.16954718853E+04  0.16954718853E+04  0.50400001928E-02 0.  1.
    10030    2    1    2    0    0  0.00000000000E+00  0.00000000000E+00 -0.12726406498E+04  0.21183031208E+04  0.16933971443E+04 0.  0.
        2    1    3    3  502    0 -0.11065002842E+03  0.19397673443E+03  0.38532779026E+03  0.44536267046E+03  0.25500000920E-02 0. -1.
       -2    1    3    3    0  502  0.11065002842E+03 -0.19397673443E+03 -0.16579684400E+04  0.16729404504E+04  0.25500000920E-02 0.  1.
</event>
<event>
 5   0  0.1186302E-04  0.1687100E+04  0.7818609E-02  0.8768756E-01
        1   -1    0    0  501    0  0.00000000000E+00  0.00000000000E+00  0.61297064766E+03  0.61297064769E+03  0.50400001928E-02 0.  1.
       -1   -1    0    0    0  501  0.00000000000E+00  0.00000000000E+00 -0.11608660400E+04  0.11608660400E+04  0.50400001928E-02 0. -1.
    10030    2    1    2    0    0  0.00000000000E+00  0.00000000000E+00 -0.54789539233E+03  0.17738366877E+04  0.16871002441E+04 0.  0.
        3    1    3    3  502    0  0.13492064366E+03 -0.87849867355E+02 -0.11445619324E+04  0.11558300942E+04  0.10100000352E+00 0. -1.
       -3    1    3    3    0  502 -0.13492064366E+03  0.87849867355E+02  0.59666654012E+03  0.61800659348E+03  0.10100000352E+00 0.  1.
</event>
<event>
 5   0  0.1234158E-04  0.1693623E+04  0.7818609E-02  0.8765009E-01
        1   -1    0    0  501    0  0.00000000000E+00  0.00000000000E+00  0.16253316059E+04  0.16253316059E+04  0.50400001928E-02 0.  1.
       -1   -1    0    0    0  501  0.00000000000E+00  0.00000000000E+00 -0.44119619351E+03  0.44119619354E+03  0.50400001928E-02 0. -1.
    10030    2    1    2    0    0  0.00000000000E+00  0.00000000000E+00  0.11841354123E+04  0.20665277994E+04  0.16936234738E+04 0.  0.
        5    1    3    3  502    0 -0.27229038185E+03  0.34225809497E+01  0.15704327275E+04  0.15938741505E+04  0.46999998093E+01 0.  1.
       -5    1    3    3    0  502  0.27229038185E+03 -0.34225809497E+01 -0.38629731515E+03  0.47265364889E+03  0.46999998093E+01 0. -1.
</event>
<event>
 5   0  0.2224454E-04  0.1698796E+04  0.7818609E-02  0.8762051E-01
        2   -1    0    0  501    0  0.00000000000E+00  0.00000000000E+00  0.15570859847E+04  0.15570859847E+04  0.25500000920E-02 0.  1.
       -2   -1    0    0    0  501  0.00000000000E+00  0.00000000000E+00 -0.46335059763E+03  0.46335059763E+03  0.25500000920E-02 0. -1.
    10030    2    1    2    0    0  0.00000000000E+00  0.00000000000E+00  0.10937353870E+04  0.20204365823E+04  0.16987957165E+04 0.  0.
        2    1    3    3  502    0 -0.46709513707E+03  0.41358807169E+03  0.12324071937E+04  0.13813256138E+04  0.25500000920E-02 0.  1.
       -2    1    3    3    0  502  0.46709513707E+03 -0.41358807169E+03 -0.13867180668E+03  0.63911096853E+03  0.25500000920E-02 0. -1.
</event>
<event>
 5   0  0.2234723E-04  0.1700025E+04  0.7818609E-02  0.8761350E-01
        2   -1    0    0  501    0  0.00000000000E+00  0.00000000000E+00  0.17051606098E+04  0.17051606098E+04  0.25500000920E-02 0.  1.
       -2   -1    0    0    0  501  0.00000000000E+00  0.00000000000E+00 -0.42372600757E+03  0.42372600758E+03  0.25500000920E-02 0. -1.
    10030    2    1    2    0    0  0.00000000000E+00  0.00000000000E+00  0.12814346022E+04  0.21288866174E+04  0.17000245851E+04 0.  0.
        1    1    3    3  502    0 -0.68016267124E+03 -0.25440907903E+03  0.11939529495E+04  0.13974508523E+04  0.50400001928E-02 0.  1.
       -1    1    3    3    0  502  0.68016267124E+03  0.25440907903E+03  0.87481652668E+02  0.73143576507E+03  0.50400001928E-02 0. -1.
</event>
<event>
 5   0  0.1204741E-04  0.1700937E+04  0.7818609E-02  0.8760830E-01
        1   -1    0    0  501    0  0.00000000000E+00  0.00000000000E+00  0.11511498875E+04  0.11511498875E+04  0.50400001928E-02 0. -1.
       -1   -1    0    0    0  501  0.00000000000E+00  0.00000000000E+00 -0.62832517079E+03  0.62832517081E+03  0.50400001928E-02 0.  1.
    10030    2    1    2    0    0  0.00000000000E+00  0.00000000000E+00  0.52282471670E+03  0.17794750583E+04  0.17009367416E+04 0.  0.
        1    1    3    3  502    0 -0.22213471246E+03  0.82058761492E+03  0.28679334470E+03  0.89719467610E+03  0.50400001928E-02 0.  1.
       -1    1    3    3    0  502  0.22213471246E+03 -0.82058761492E+03  0.23603137199E+03  0.88228038221E+03  0.50400001928E-02 0. -1.
</event>
<event>
 5   0  0.1186302E-04  0.1743541E+04  0.7818609E-02  0.8736914E-01
       -1   -1    0    0    0  501  0.00000000000E+00  0.00000000000E+00  0.75704210096E+03  0.75704210098E+03  0.50400001928E-02 0.  1.
        1   -1    0    0  501    0  0.00000000000E+00  0.00000000000E+00 -0.10038860471E+04  0.10038860472E+04  0.50400001928E-02 0. -1.
    10030    2    1    2    0    0  0.00000000000E+00  0.00000000000E+00 -0.24684394618E+03  0.17609281481E+04  0.17435412267E+04 0.  0.
        3    1    3    3  502    0  0.46841450135E+03 -0.68173009037E+03  0.15467076655E+03  0.84148150153E+03  0.10100000352E+00 0.  1.
       -3    1    3    3    0  502 -0.46841450135E+03  0.68173009037E+03 -0.40151471274E+03  0.91944664660E+03  0.10100000352E+00 0. -1.
</event>
<event>
 5   0  0.1186302E-04  0.1595532E+04  0.7818609E-02  0.8823298E-01
        1   -1    0    0  501    0  0.00000000000E+00  0.00000000000E+00  0.15758157613E+04  0.15758157613E+04  0.50400001928E-02 0.  1.
       -1   -1    0    0    0  501  0.00000000000E+00  0.00000000000E+00 -0.40387356894E+03  0.40387356897E+03  0.50400001928E-02 0. -1.
    10030    2    1    2    0    0  0.00000000000E+00  0.00000000000E+00  0.11719421924E+04  0.19796893303E+04  0.15955316801E+04 0.  0.
        3    1    3    3  502    0 -0.72498614850E+02 -0.36480689485E+03 -0.28970926845E+03  0.47145688044E+03  0.10100000352E+00 0. -1.
       -3    1    3    3    0  502  0.72498614850E+02  0.36480689485E+03  0.14616514608E+04  0.15082324499E+04  0.10100000352E+00 0.  1.
</event>
<event>
 5   0  0.1215233E-04  0.1700576E+04  0.7818609E-02  0.8761036E-01
        1   -1    0    0  501    0  0.00000000000E+00  0.00000000000E+00  0.87151208722E+03  0.87151208723E+03  0.50400001928E-02 0. -1.
       -1   -1    0    0    0  501  0.00000000000E+00  0.00000000000E+00 -0.82958124839E+03  0.82958124841E+03  0.50400001928E-02 0.  1.
    10030    2    1    2    0    0  0.00000000000E+00  0.00000000000E+00  0.41930838825E+02  0.17010933356E+04  0.17005764732E+04 0.  0.
        2    1    3    3  502    0  0.49225102169E+03 -0.62824355166E+03 -0.27236261307E+03  0.84331632355E+03  0.25500000920E-02 0.  1.
       -2    1    3    3    0  502 -0.49225102169E+03  0.62824355166E+03  0.31429345190E+03  0.85777701209E+03  0.25500000920E-02 0. -1.
</event>
<event>
 5   0  0.2234723E-04  0.1694902E+04  0.7818609E-02  0.8764277E-01
        2   -1    0    0  501    0  0.00000000000E+00  0.00000000000E+00  0.68462399956E+03  0.68462399956E+03  0.25500000920E-02 0. -1.
       -2   -1    0    0    0  501  0.00000000000E+00  0.00000000000E+00 -0.10490036467E+04  0.10490036467E+04  0.25500000920E-02 0.  1.
    10030    2    1    2    0    0  0.00000000000E+00  0.00000000000E+00 -0.36437964714E+03  0.17336276463E+04  0.16949018522E+04 0.  0.
        1    1    3    3  502    0 -0.40021469831E+03 -0.73441468959E+03 -0.42555727261E+02  0.83746506254E+03  0.50400001928E-02 0. -1.
       -1    1    3    3    0  502  0.40021469831E+03  0.73441468959E+03 -0.32182391988E+03  0.89616258372E+03  0.50400001928E-02 0.  1.
</event>
<event>
 5   0  0.2288806E-04  0.1697388E+04  0.7818609E-02  0.8762856E-01
       -2   -1    0    0    0  501  0.00000000000E+00  0.00000000000E+00  0.71819098380E+03  0.71819098381E+03  0.25500000920E-02 0.  1.
        2   -1    0    0  501    0  0.00000000000E+00  0.00000000000E+00 -0.10029103868E+04  0.10029103868E+04  0.25500000920E-02 0. -1.
    10030    2    1    2    0    0  0.00000000000E+00  0.00000000000E+00 -0.28471940301E+03  0.17211013706E+04  0.16973876368E+04 0.  0.
        3    1    3    3  502    0 -0.47658200400E+03  0.59251075087E+02  0.56715908766E+03  0.74317598006E+03  0.10100000352E+00 0.  1.
       -3    1    3    3    0  502  0.47658200400E+03 -0.59251075087E+02 -0.85187849067E+03  0.97792539055E+03  0.10100000352E+00 0. -1.
</event>
<event>
 5   0  0.1186302E-04  0.1695289E+04  0.7818609E-02  0.8764056E-01
        1   -1    0    0  501    0  0.00000000000E+00  0.00000000000E+00  0.98242310092E+03  0.98242310093E+03  0.50400001928E-02 0. -1.
       -1   -1    0    0    0  501  0.00000000000E+00  0.00000000000E+00 -0.73135611281E+03  0.73135611283E+03  0.50400001928E-02 0.  1.
    10030    2    1    2    0    0  0.00000000000E+00  0.00000000000E+00  0.25106698811E+03  0.17137792138E+04  0.16952889314E+04 0.  0.
        3    1    3    3  502    0  0.63768172039E+03 -0.35672507472E+03  0.55988286441E+03  0.92052136722E+03  0.10100000352E+00 0. -1.
       -3    1    3    3    0  502 -0.63768172039E+03  0.35672507472E+03 -0.30881587630E+03  0.79325784654E+03  0.10100000352E+00 0.  1.
</event>
<event>
 5   0  0.2242967E-04  0.1704766E+04  0.7818609E-02  0.8758651E-01
        2   -1    0    0  501    0  0.00000000000E+00  0.00000000000E+00  0.80132750296E+03  0.80132750296E+03  0.25500000920E-02 0. -1.
       -2   -1    0    0    0  501  0.00000000000E+00  0.00000000000E+00 -0.90669102633E+03  0.90669102633E+03  0.25500000920E-02 0.  1.
    10030    2    1    2    0    0  0.00000000000E+00  0.00000000000E+00 -0.10536352337E+03  0.17080185293E+04  0.17047656215E+04 0.  0.
        4    1    3    3  502    0 -0.63376825289E+03 -0.41558795029E+02  0.51687944582E+03  0.81887441420E+03  0.12699999809E+01 0. -1.
       -4    1    3    3    0  502  0.63376825289E+03  0.41558795029E+02 -0.62224296919E+03  0.88914411510E+03  0.12699999809E+01 0.  1.
</event>
<event>
 5   0  0.1186302E-04  0.1671552E+04  0.7818609E-02  0.8777758E-01
       -1   -1    0    0    0  501  0.00000000000E+00  0.00000000000E+00  0.41161564385E+03  0.41161564388E+03  0.50400001928E-02 0. -1.
        1   -1    0    0  501    0  0.00000000000E+00  0.00000000000E+00 -0.16970229232E+04  0.16970229232E+04  0.50400001928E-02 0.  1.
    10030    2    1    2    0    0  0.00000000000E+00  0.00000000000E+00 -0.12854072794E+04  0.21086385671E+04  0.16715515944E+04 0.  0.
        3    1    3    3  502    0  0.53263723664E+03  0.13793960371E+02 -0.14549951626E+04  0.15494849572E+04  0.10100000352E+00 0.  1.
       -3    1    3    3    0  502 -0.53263723664E+03 -0.13793960371E+02  0.16958788318E+03  0.55915360995E+03  0.10100000352E+00 0. -1.
</event>
<event>
 5   0  0.1186302E-04  0.1693315E+04  0.7818609E-02  0.8765186E-01
        1   -1    0    0  501    0  0.00000000000E+00  0.00000000000E+00  0.16245620546E+04  0.16245620546E+04  0.50400001928E-02 0.  1.
       -1   -1    0    0    0  501  0.00000000000E+00  0.00000000000E+00 -0.44124448777E+03  0.44124448780E+03  0.50400001928E-02 0. -1.
    10030    2    1    2    0    0  0.00000000000E+00  0.00000000000E+00  0.11833175669E+04  0.20658065424E+04  0.16933151528E+04 0.  0.
        3    1    3    3  502    0 -0.26944937356E+03  0.18467483001E+03  0.15445864618E+04  0.15787511222E+04  0.10100000352E+00 0.  1.
       -3    1    3    3    0  502  0.26944937356E+03 -0.18467483001E+03 -0.36126889491E+03  0.48705542024E+03  0.10100000352E+00 0. -1.
</event>
<event>
 5   0  0.2288806E-04  0.1688805E+04  0.7818609E-02  0.8767775E-01
        2   -1    0    0  501    0  0.00000000000E+00  0.00000000000E+00  0.21033021810E+04  0.21033021810E+04  0.25500000920E-02 0.  1.
       -2   -1    0    0    0  501  0.00000000000E+00  0.00000000000E+00 -0.33899823636E+03  0.33899823637E+03  0.25500000920E-02 0. -1.
    10030    2    1    2    0    0  0.00000000000E+00  0.00000000000E+00  0.17643039446E+04  0.24423004174E+04  0.16888051752E+04 0.  0.
        3    1    3    3  502    0 -0.44799528594E+03 -0.70856559984E+03  0.73573311307E+03  0.11153780567E+04  0.10100000352E+00 0. -1.
       -3    1    3    3    0  502  0.44799528594E+03  0.70856559984E+03  0.10285708316E+04  0.13269223607E+04  0.10100000352E+00 0.  1.
</event>
<event>
 5   0  0.1126958E-04  0.1682140E+04  0.7818609E-02  0.8771617E-01
       -1   -1    0    0    0  501  0.00000000000E+00  0.00000000000E+00  0.40529574222E+03  0.40529574225E+03  0.50400001928E-02 0.  1.
        1   -1    0    0  501    0  0.00000000000E+00  0.00000000000E+00 -0.17453883814E+04  0.17453883814E+04  0.50400001928E-02 0. -1.
    10030    2    1    2    0    0  0.00000000000E+00  0.00000000000E+00 -0.13400926392E+04  0.21506841237E+04  0.16821396845E+04 0.  0.
        4    1    3    3  502    0  0.24885141858E+03 -0.41171194271E+03 -0.15521126022E+04  0.16249581210E+04  0.12699999809E+01 0. -1.
       -4    1    3    3    0  502 -0.24885141858E+03  0.41171194271E+03  0.21201996296E+03  0.52572600268E+03  0.12699999809E+01 0.  1.
</event>
<event>
 5   0  0.1186302E-04  0.1695044E+04  0.7818609E-02  0.8764196E-01
       -1   -1    0    0    0  501  0.00000000000E+00  0.00000000000E+00  0.77026137089E+03  0.77026137091E+03  0.50400001928E-02 0.  1.
        1   -1    0    0  501    0  0.00000000000E+00  0.00000000000E+00 -0.93253258648E+03  0.93253258649E+03  0.50400001928E-02 0. -1.
    10030    2    1    2    0    0  0.00000000000E+00  0.00000000000E+00 -0.16227121559E+03  0.17027939574E+04  0.16950443398E+04 0.  0.
        3    1    3    3  502    0 -0.44544329000E+03  0.71228445977E+03 -0.19356216193E+03  0.86211089598E+03  0.10100000352E+00 0. -1.
       -3    1    3    3    0  502  0.44544329000E+03 -0.71228445977E+03  0.31290946345E+02  0.84068306142E+03  0.10100000352E+00 0.  1.
</event>
<event>
 5   0  0.2224454E-04  0.1746314E+04  0.7818609E-02  0.8735382E-01
       -2   -1    0    0    0  501  0.00000000000E+00  0.00000000000E+00  0.35198884162E+03  0.35198884163E+03  0.25500000920E-02 0.  1.
        2   -1    0    0  501    0  0.00000000000E+00  0.00000000000E+00 -0.21659861290E+04  0.21659861290E+04  0.25500000920E-02 0. -1.
    10030    2    1    2    0    0  0.00000000000E+00  0.00000000000E+00 -0.18139972874E+04  0.25179749706E+04  0.17463137731E+04 0.  0.
        2    1    3    3  502    0 -0.16516986434E+03 -0.13097179484E+03  0.31474967537E+03  0.37881664863E+03  0.25500000920E-02 0.  1.
       -2    1    3    3    0  502  0.16516986434E+03  0.13097179484E+03 -0.21287469627E+04  0.21391583220E+04  0.25500000920E-02 0. -1.
</event>
<event>
 5   0  0.1126958E-04  0.1692299E+04  0.7818609E-02  0.8765769E-01
       -1   -1    0    0    0  501  0.00000000000E+00  0.00000000000E+00  0.93407735942E+03  0.93407735943E+03  0.50400001928E-02 0.  1.
        1   -1    0    0  501    0  0.00000000000E+00  0.00000000000E+00 -0.76649885399E+03  0.76649885400E+03  0.50400001928E-02 0. -1.
    10030    2    1    2    0    0  0.00000000000E+00  0.00000000000E+00  0.16757850543E+03  0.17005762134E+04  0.16922992945E+04 0.  0.
        4    1    3    3  502    0 -0.55062353434E+03  0.40689872519E+03 -0.41584951465E+03  0.80105260805E+03  0.12699999809E+01 0.  1.
       -4    1    3    3    0  502  0.55062353434E+03 -0.40689872519E+03  0.58342802009E+03  0.89952360539E+03  0.12699999809E+01 0. -1.
</event>
<event>
 5   0  0.2234723E-04  0.1685265E+04  0.7818609E-02  0.8769813E-01
        2   -1    0    0  501    0  0.00000000000E+00  0.00000000000E+00  0.81302983458E+03  0.81302983459E+03  0.25500000920E-02 0. -1.
       -2   -1    0    0    0  501  0.00000000000E+00  0.00000000000E+00 -0.87331311826E+03  0.87331311826E+03  0.25500000920E-02 0.  1.
    10030    2    1    2    0    0  0.00000000000E+00  0.00000000000E+00 -0.60283283678E+02  0.16863429529E+04  0.16852651068E+04 0.  0.
        1    1    3    3  502    0 -0.56594663571E+03  0.62417405784E+03 -0.18269353525E+02  0.84274706660E+03  0.50400001928E-02 0. -1.
       -1    1    3    3    0  502  0.56594663571E+03 -0.62417405784E+03 -0.42013930153E+02  0.84359588626E+03  0.50400001928E-02 0.  1.
</event>
<event>
 5   0  0.1215233E-04  0.1713007E+04  0.7818609E-02  0.8753981E-01
       -1   -1    0    0    0  501  0.00000000000E+00  0.00000000000E+00  0.40056835345E+03  0.40056835349E+03  0.50400001928E-02 0. -1.
        1   -1    0    0  501    0  0.00000000000E+00  0.00000000000E+00 -0.18313928537E+04  0.18313928537E+04  0.50400001928E-02 0.  1.
    10030    2    1    2    0    0  0.00000000000E+00  0.00000000000E+00 -0.14308245002E+04  0.22319612071E+04  0.17130067367E+04 0.  0.
        2    1    3    3  502    0 -0.50447671895E+03  0.36234971355E+03 -0.14838254614E+04  0.16085807641E+04  0.25500000920E-02 0.  1.
       -2    1    3    3    0  502  0.50447671895E+03 -0.36234971355E+03  0.53000961163E+02  0.62338044304E+03  0.25500000920E-02 0. -1.
</event>
<event>
 5   0  0.1126958E-04  0.1718342E+04  0.7818609E-02  0.8750972E-01
        1   -1    0    0  501    0  0.00000000000E+00  0.00000000000E+00  0.13831699361E+04  0.13831699361E+04  0.50400001928E-02 0.  1.
       -1   -1    0    0    0  501  0.00000000000E+00  0.00000000000E+00 -0.53368321785E+03  0.53368321787E+03  0.50400001928E-02 0. -1.
    10030    2    1    2    0    0  0.00000000000E+00  0.00000000000E+00  0.84948671822E+03  0.19168531539E+04  0.17183417382E+04 0.  0.
        4    1    3    3  502    0  0.67890574308E+02  0.60276319095E+03 -0.25402438071E+03  0.65761888153E+03  0.12699999809E+01 0. -1.
       -4    1    3    3    0  502 -0.67890574308E+02 -0.60276319095E+03  0.11035110989E+04  0.12592342724E+04  0.12699999809E+01 0.  1.
</event>
<event>
 5   0  0.2288806E-04  0.1704622E+04  0.7818609E-02  0.8758733E-01
        2   -1    0    0  501    0  0.00000000000E+00  0.00000000000E+00  0.11413309119E+04  0.11413309119E+04  0.25500000920E-02 0. -1.
       -2   -1    0    0    0  501  0.00000000000E+00  0.00000000000E+00 -0.63647992208E+03  0.63647992209E+03  0.25500000920E-02 0.  1.
    10030    2    1    2    0    0  0.00000000000E+00  0.00000000000E+00  0.50485098984E+03  0.17778108340E+04  0.17046221985E+04 0.  0.
        3    1    3    3  502    0  0.41474805951E+02  0.16058942681E+03  0.11243376256E+04  0.11365052706E+04  0.10100000352E+00 0. -1.
       -3    1    3    3    0  502 -0.41474805951E+02 -0.16058942681E+03 -0.61948663578E+03  0.64130556340E+03  0.10100000352E+00 0.  1.
</event>
<event>
 5   0  0.1186302E-04  0.1695939E+04  0.7818609E-02  0.8763684E-01
        1   -1    0    0  501    0  0.00000000000E+00  0.00000000000E+00  0.81961529568E+03  0.81961529570E+03  0.50400001928E-02 0.  1.
       -1   -1    0    0    0  501  0.00000000000E+00  0.00000000000E+00 -0.87730447580E+03  0.87730447581E+03  0.50400001928E-02 0. -1.
    10030    2    1    2    0    0  0.00000000000E+00  0.00000000000E+00 -0.57689180115E+02  0.16969197715E+04  0.16959388755E+04 0.  0.
        3    1    3    3  502    0 -0.57866338058E+02  0.84134461714E+03  0.59766663330E+02  0.84544742126E+03  0.10100000352E+00 0.  1.
       -3    1    3    3    0  502  0.57866338058E+02 -0.84134461714E+03 -0.11745584344E+03  0.85147235025E+03  0.10100000352E+00 0. -1.
</event>
<event>
 5   0  0.2224454E-04  0.1689461E+04  0.7818609E-02  0.8767398E-01
        2   -1    0    0  501    0  0.00000000000E+00  0.00000000000E+00  0.53966437197E+03  0.53966437197E+03  0.25500000920E-02 0. -1.
       -2   -1    0    0    0  501  0.00000000000E+00  0.00000000000E+00 -0.13222462987E+04  0.13222462987E+04  0.25500000920E-02 0.  1.
    10030    2    1    2    0    0  0.00000000000E+00  0.00000000000E+00 -0.78258192678E+03  0.18619106707E+04  0.16894605274E+04 0.  0.
        2    1    3    3  502    0 -0.49212494045E+03  0.23606501198E+03  0.31923114305E+03  0.63231492913E+03  0.25500000920E-02 0. -1.
       -2    1    3    3    0  502  0.49212494045E+03 -0.23606501198E+03 -0.11018130698E+04  0.12295957416E+04  0.25500000920E-02 0.  1.
</event>
<event>
 5   0  0.2288806E-04  0.1705634E+04  0.7818609E-02  0.8758158E-01
       -2   -1    0    0    0  501  0.00000000000E+00  0.00000000000E+00  0.57890957668E+03  0.57890957669E+03  0.25500000920E-02 0.  1.
        2   -1    0    0  501    0  0.00000000000E+00  0.00000000000E+00 -0.12563216288E+04  0.12563216288E+04  0.25500000920E-02 0. -1.
    10030    2    1    2    0    0  0.00000000000E+00  0.00000000000E+00 -0.67741205215E+03  0.18352312055E+04  0.17056337501E+04 0.  0.
        3    1    3    3  502    0 -0.50977738352E+03 -0.25805426936E+03  0.34251178446E+03  0.66616763610E+03  0.10100000352E+00 0.  1.
       -3    1    3    3    0  502  0.50977738352E+03  0.25805426936E+03 -0.10199238366E+04  0.11690635694E+04  0.10100000352E+00 0. -1.
</event>
<event>
 5   0  0.2224454E-04  0.1698615E+04  0.7818609E-02  0.8762155E-01
       -2   -1    0    0    0  501  0.00000000000E+00  0.00000000000E+00  0.24870722813E+04  0.24870722813E+04  0.25500000920E-02 0. -1.
        2   -1    0    0  501    0  0.00000000000E+00  0.00000000000E+00 -0.29002893714E+03  0.29002893715E+03  0.25500000920E-02 0.  1.
    10030    2    1    2    0    0  0.00000000000E+00  0.00000000000E+00  0.21970433442E+04  0.27771012184E+04  0.16986146477E+04 0.  0.
        2    1    3    3  502    0  0.62250307736E+02  0.83324222802E+03  0.84973833427E+03  0.11917310721E+04  0.25500000920E-02 0.  1.
       -2    1    3    3    0  502 -0.62250307736E+02 -0.83324222802E+03  0.13473050099E+04  0.15853701464E+04  0.25500000920E-02 0. -1.
</event>
<event>
 5   0  0.2224454E-04  0.1708534E+04  0.7818609E-02  0.8756512E-01
       -2   -1    0    0    0  501  0.00000000000E+00  0.00000000000E+00  0.49710306238E+03  0.49710306239E+03  0.25500000920E-02 0.  1.
        2   -1    0    0  501    0  0.00000000000E+00  0.00000000000E+00 -0.14680502440E+04  0.14680502440E+04  0.25500000920E-02 0. -1.
    10030    2    1    2    0    0  0.00000000000E+00  0.00000000000E+00 -0.97094718162E+03  0.19651533064E+04  0.17085341929E+04 0.  0.
        2    1    3    3  502    0  0.52186310097E+01  0.63993981232E+03 -0.11363497963E+04  0.13041629718E+04  0.25500000920E-02 0. -1.
       -2    1    3    3    0  502 -0.52186310097E+01 -0.63993981232E+03  0.16540261465E+03  0.66099033460E+03  0.25500000920E-02 0.  1.
</event>
<event>
 5   0  0.1234158E-04  0.1601073E+04  0.7818609E-02  0.8819889E-01
        1   -1    0    0  501    0  0.00000000000E+00  0.00000000000E+00  0.16279105836E+04  0.16279105836E+04  0.50400001928E-02 0.  1.
       -1   -1    0    0    0  501  0.00000000000E+00  0.00000000000E+00 -0.39366961306E+03  0.39366961309E+03  0.50400001928E-02 0. -1.
    10030    2    1    2    0    0  0.00000000000E+00  0.00000000000E+00  0.12342409705E+04  0.20215801967E+04  0.16010733020E+04 0.  0.
        5    1    3    3  502    0  0.35902598628E+03 -0.31109101349E+03 -0.19643519467E+03  0.51408769019E+03  0.46999998093E+01 0. -1.
       -5    1    3    3    0  502 -0.35902598628E+03  0.31109101349E+03  0.14306761652E+04  0.15074925065E+04  0.46999998093E+01 0.  1.
</event>
<event>
 5   0  0.1126958E-04  0.1699264E+04  0.7818609E-02  0.8761784E-01
        1   -1    0    0  501    0  0.00000000000E+00  0.00000000000E+00  0.96867515850E+03  0.96867515851E+03  0.50400001928E-02 0. -1.
       -1   -1    0    0    0  501  0.00000000000E+00  0.00000000000E+00 -0.74521869788E+03  0.74521869790E+03  0.50400001928E-02 0.  1.
    10030    2    1    2    0    0  0.00000000000E+00  0.00000000000E+00  0.22345646062E+03  0.17138938564E+04  0.16992643589E+04 0.  0.
        4    1    3    3  502    0  0.24471648082E+03  0.28143118247E+02  0.93186779977E+03  0.96387623700E+03  0.12699999809E+01 0. -1.
       -4    1    3    3    0  502 -0.24471648082E+03 -0.28143118247E+02 -0.70841133916E+03  0.75001761942E+03  0.12699999809E+01 0.  1.
</event>
<event>
 5   0  0.2224454E-04  0.1716960E+04  0.7818609E-02  0.8751750E-01
        2   -1    0    0  501    0  0.00000000000E+00  0.00000000000E+00  0.13618994481E+04  0.13618994481E+04  0.25500000920E-02 0. -1.
       -2   -1    0    0    0  501  0.00000000000E+00  0.00000000000E+00 -0.54114725349E+03  0.54114725350E+03  0.25500000920E-02 0.  1.
    10030    2    1    2    0    0  0.00000000000E+00  0.00000000000E+00  0.82075219456E+03  0.19030467016E+04  0.17169602743E+04 0.  0.
        2    1    3    3  502    0  0.40619993179E+03  0.61434040260E+02  0.12458748066E+04  0.13118599619E+04  0.25500000920E-02 0. -1.
       -2    1    3    3    0  502 -0.40619993179E+03 -0.61434040260E+02 -0.42512261204E+03  0.59118673967E+03  0.25500000920E-02 0.  1.
</event>
<event>
 5   0  0.2224454E-04  0.1705408E+04  0.7818609E-02  0.8758286E-01
        2   -1    0    0  501    0  0.00000000000E+00  0.00000000000E+00  0.19984659667E+04  0.19984659667E+04  0.25500000920E-02 0. -1.
       -2   -1    0    0    0  501  0.00000000000E+00  0.00000000000E+00 -0.36383119849E+03  0.36383119850E+03  0.25500000920E-02 0.  1.
    10030    2    1    2    0    0  0.00000000000E+00  0.00000000000E+00  0.16346347683E+04  0.23622971652E+04  0.17054081832E+04 0.  0.
        2    1    3    3  502    0  0.33138131327E+03  0.69972803415E+03  0.32237693539E+03  0.83866547862E+03  0.25500000920E-02 0.  1.
       -2    1    3    3    0  502 -0.33138131327E+03 -0.69972803415E+03  0.13122578329E+04  0.15236316866E+04  0.25500000920E-02 0. -1.
</event>
<event>
 5   0  0.8372750E-05  0.1700586E+04  0.7818609E-02  0.8761030E-01
       -3   -1    0    0    0  501  0.00000000000E+00  0.00000000000E+00  0.40400025406E+03  0.40400026669E+03  0.10100000352E+00 0. -1.
        3   -1    0    0  501    0  0.00000000000E+00  0.00000000000E+00 -0.17895988050E+04  0.17895988079E+04  0.10100000352E+00 0.  1.
    10030    2    1    2    0    0  0.00000000000E+00  0.00000000000E+00 -0.13855985510E+04  0.21935990746E+04  0.17005862388E+04 0.  0.
        5    1    3    3  502    0  0.69613767821E+03 -0.44845709003E+03 -0.44382749710E+03  0.93953518604E+03  0.46999998093E+01 0. -1.
       -5    1    3    3    0  502 -0.69613767821E+03  0.44845709003E+03 -0.94177105389E+03  0.12540638885E+04  0.46999998093E+01 0.  1.
</event>
<event>
 5   0  0.2288806E-04  0.1552205E+04  0.7818609E-02  0.8850461E-01
       -2   -1    0    0    0  501  0.00000000000E+00  0.00000000000E+00  0.11935833385E+04  0.11935833385E+04  0.25500000920E-02 0.  1.
        2   -1    0    0  501    0  0.00000000000E+00  0.00000000000E+00 -0.50464427628E+03  0.50464427629E+03  0.25500000920E-02 0. -1.
    10030    2    1    2    0    0  0.00000000000E+00  0.00000000000E+00  0.68893906226E+03  0.16982276148E+04  0.15522048835E+04 0.  0.
        3    1    3    3  502    0  0.19648935032E+03 -0.75059643824E+03  0.36440187240E+03  0.85719998407E+03  0.10100000352E+00 0. -1.
       -3    1    3    3    0  502 -0.19648935032E+03  0.75059643824E+03  0.32453718987E+03  0.84102763076E+03  0.10100000352E+00 0.  1.
</event>
<event>
 5   0  0.8372750E-05  0.1704496E+04  0.7818609E-02  0.8758804E-01
        4   -1    0    0  501    0  0.00000000000E+00  0.00000000000E+00  0.76296099556E+03  0.76296205256E+03  0.12699999809E+01 0. -1.
       -4   -1    0    0    0  501  0.00000000000E+00  0.00000000000E+00 -0.95198156913E+03  0.95198241626E+03  0.12699999809E+01 0.  1.
    10030    2    1    2    0    0  0.00000000000E+00  0.00000000000E+00 -0.18902057357E+03  0.17149444688E+04  0.17044957477E+04 0.  0.
        5    1    3    3  502    0 -0.76509591564E+03  0.48007616183E+02  0.28009973765E+03  0.81618284984E+03  0.46999998093E+01 0. -1.
       -5    1    3    3    0  502  0.76509591564E+03 -0.48007616183E+02 -0.46912031123E+03  0.89876161898E+03  0.46999998093E+01 0.  1.
</event>
<event>
 5   0  0.1204741E-04  0.1697236E+04  0.7818609E-02  0.8762942E-01
        1   -1    0    0  501    0  0.00000000000E+00  0.00000000000E+00  0.66805031285E+03  0.66805031286E+03  0.50400001928E-02 0.  1.
       -1   -1    0    0    0  501  0.00000000000E+00  0.00000000000E+00 -0.10779916463E+04  0.10779916463E+04  0.50400001928E-02 0. -1.
    10030    2    1    2    0    0  0.00000000000E+00  0.00000000000E+00 -0.40994133341E+03  0.17460419591E+04  0.16972361728E+04 0.  0.
        1    1    3    3  502    0  0.27996715533E+03 -0.10297580464E+03 -0.10222764084E+04  0.10649106440E+04  0.50400001928E-02 0. -1.
       -1    1    3    3    0  502 -0.27996715533E+03  0.10297580464E+03  0.61233507500E+03  0.68113131517E+03  0.50400001928E-02 0.  1.
</event>
<event>
 5   0  0.2224454E-04  0.1695325E+04  0.7818609E-02  0.8764035E-01
        2   -1    0    0  501    0  0.00000000000E+00  0.00000000000E+00  0.45102654486E+03  0.45102654487E+03  0.25500000920E-02 0. -1.
       -2   -1    0    0    0  501  0.00000000000E+00  0.00000000000E+00 -0.15931026926E+04  0.15931026926E+04  0.25500000920E-02 0.  1.
    10030    2    1    2    0    0  0.00000000000E+00  0.00000000000E+00 -0.11420761477E+04  0.20441292374E+04  0.16953248692E+04 0.  0.
        2    1    3    3  502    0  0.19032177330E+02 -0.64857429969E+03  0.86641043580E+02  0.65461249333E+03  0.25500000920E-02 0. -1.
       -2    1    3    3    0  502 -0.19032177330E+02  0.64857429969E+03 -0.12287171913E+04  0.13895167441E+04  0.25500000920E-02 0.  1.
</event>
<event>
 5   0  0.2356829E-04  0.1702245E+04  0.7818609E-02  0.8760085E-01
       -2   -1    0    0    0  501  0.00000000000E+00  0.00000000000E+00  0.73134980815E+03  0.73134980815E+03  0.25500000920E-02 0. -1.
        2   -1    0    0  501    0  0.00000000000E+00  0.00000000000E+00 -0.99051041694E+03  0.99051041694E+03  0.25500000920E-02 0.  1.
    10030    2    1    2    0    0  0.00000000000E+00  0.00000000000E+00 -0.25916060879E+03  0.17218602251E+04  0.17022451097E+04 0.  0.
        5    1    3    3  502    0  0.70017983860E+03 -0.41697536870E+03  0.11874243033E+03  0.82355456361E+03  0.46999998093E+01 0. -1.
       -5    1    3    3    0  502 -0.70017983860E+03  0.41697536870E+03 -0.37790303912E+03  0.89830566149E+03  0.46999998093E+01 0.  1.
</event>
<event>
 5   0  0.8372750E-05  0.1704255E+04  0.7818609E-02  0.8758941E-01
       -4   -1    0    0    0  501  0.00000000000E+00  0.00000000000E+00  0.12125392897E+04  0.12125399548E+04  0.12699999809E+01 0.  1.
        4   -1    0    0  501    0  0.00000000000E+00  0.00000000000E+00 -0.59884191914E+03  0.59884326583E+03  0.12699999809E+01 0. -1.
    10030    2    1    2    0    0  0.00000000000E+00  0.00000000000E+00  0.61369737060E+03  0.18113832207E+04  0.17042548839E+04 0.  0.
        3    1    3    3  502    0 -0.37538228828E+03  0.66792511816E+03  0.70323301170E+03  0.10399867811E+04  0.10100000352E+00 0. -1.
       -3    1    3    3    0  502  0.37538228828E+03 -0.66792511816E+03 -0.89535641097E+02  0.77139643961E+03  0.10100000352E+00 0.  1.
</event>
<event>
 5   0  0.1234158E-04  0.1703894E+04  0.7818609E-02  0.8759146E-01
       -1   -1    0    0    0  501  0.00000000000E+00  0.00000000000E+00  0.71446964815E+03  0.71446964817E+03  0.50400001928E-02 0. -1.
        1   -1    0    0  501    0  0.00000000000E+00  0.00000000000E+00 -0.10158779417E+04  0.10158779417E+04  0.50400001928E-02 0.  1.
    10030    2    1    2    0    0  0.00000000000E+00  0.00000000000E+00 -0.30140829354E+03  0.17303475899E+04  0.17038943108E+04 0.  0.
        5    1    3    3  502    0 -0.14124271941E+03 -0.70658709886E+03 -0.61226792080E+03  0.94557333449E+03  0.46999998093E+01 0.  1.
       -5    1    3    3    0  502  0.14124271941E+03  0.70658709886E+03  0.31085962726E+03  0.78477425539E+03  0.46999998093E+01 0. -1.
</event>
<event>
 5   0  0.2242967E-04  0.1556347E+04  0.7818609E-02  0.8847824E-01
        2   -1    0    0  501    0  0.00000000000E+00  0.00000000000E+00  0.20309024319E+04  0.20309024319E+04  0.25500000920E-02 0.  1.
       -2   -1    0    0    0  501  0.00000000000E+00  0.00000000000E+00 -0.29816996938E+03  0.29816996939E+03  0.25500000920E-02 0. -1.
    10030    2    1    2    0    0  0.00000000000E+00  0.00000000000E+00  0.17327324625E+04  0.23290724013E+04  0.15563471540E+04 0.  0.
        4    1    3    3  502    0 -0.45233802830E+03  0.29803151282E+03  0.17024260128E+04  0.17865297133E+04  0.12699999809E+01 0.  1.
       -4    1    3    3    0  502  0.45233802830E+03 -0.29803151282E+03  0.30306449690E+02  0.54254268798E+03  0.12699999809E+01 0. -1.
</event>
<event>
 5   0  0.1186302E-04  0.1696330E+04  0.7818609E-02  0.8763460E-01
       -1   -1    0    0    0  501  0.00000000000E+00  0.00000000000E+00  0.28635194597E+03  0.28635194602E+03  0.50400001928E-02 0.  1.
        1   -1    0    0  501    0  0.00000000000E+00  0.00000000000E+00 -0.25122375664E+04  0.25122375664E+04  0.50400001928E-02 0. -1.
    10030    2    1    2    0    0  0.00000000000E+00  0.00000000000E+00 -0.22258856205E+04  0.27985895125E+04  0.16963302933E+04 0.  0.
        3    1    3    3  502    0  0.39202908451E+03  0.20795267661E+03  0.79540728587E+02  0.45084127641E+03  0.10100000352E+00 0.  1.
       -3    1    3    3    0  502 -0.39202908451E+03 -0.20795267661E+03 -0.23054263490E+04  0.23477482360E+04  0.10100000352E+00 0. -1.
</event>
<event>
 5   0  0.1215233E-04  0.1704349E+04  0.7818609E-02  0.8758888E-01
       -1   -1    0    0    0  501  0.00000000000E+00  0.00000000000E+00  0.51482694415E+03  0.51482694417E+03  0.50400001928E-02 0.  1.
        1   -1    0    0  501    0  0.00000000000E+00  0.00000000000E+00 -0.14105731780E+04  0.14105731780E+04  0.50400001928E-02 0. -1.
    10030    2    1    2    0    0  0.00000000000E+00  0.00000000000E+00 -0.89574623388E+03  0.19254001222E+04  0.17043486483E+04 0.  0.
        2    1    3    3  502    0  0.79229269886E+03  0.29229851861E+03 -0.57685151383E+03  0.10227041672E+04  0.25500000920E-02 0. -1.
       -2    1    3    3    0  502 -0.79229269886E+03 -0.29229851861E+03 -0.31889472006E+03  0.90269595498E+03  0.25500000920E-02 0.  1.
</event>
<event>
 5   0  0.2224454E-04  0.1697566E+04  0.7818609E-02  0.8762754E-01
       -2   -1    0    0    0  501  0.00000000000E+00  0.00000000000E+00  0.47253317643E+03  0.47253317644E+03  0.25500000920E-02 0.  1.
        2   -1    0    0  501    0  0.00000000000E+00  0.00000000000E+00 -0.15246171798E+04  0.15246171798E+04  0.25500000920E-02 0. -1.
    10030    2    1    2    0    0  0.00000000000E+00  0.00000000000E+00 -0.10520840033E+04  0.19971503562E+04  0.16975655496E+04 0.  0.
        2    1    3    3  502    0 -0.80531160774E+03 -0.25264535992E+03 -0.63176640632E+03  0.10542700108E+04  0.25500000920E-02 0. -1.
       -2    1    3    3    0  502  0.80531160774E+03  0.25264535992E+03 -0.42031759701E+03  0.94288034543E+03  0.25500000920E-02 0.  1.
</event>
<event>
 5   0  0.2288806E-04  0.1687779E+04  0.7818609E-02  0.8768365E-01
        2   -1    0    0  501    0  0.00000000000E+00  0.00000000000E+00  0.16060292668E+04  0.16060292668E+04  0.25500000920E-02 0. -1.
       -2   -1    0    0    0  501  0.00000000000E+00  0.00000000000E+00 -0.44342249620E+03  0.44342249621E+03  0.25500000920E-02 0.  1.
    10030    2    1    2    0    0  0.00000000000E+00  0.00000000000E+00  0.11626067705E+04  0.20494517630E+04  0.16877790216E+04 0.  0.
        3    1    3    3  502    0 -0.11795192481E+03  0.37845091911E+03  0.14859380010E+04  0.15379042583E+04  0.10100000352E+00 0. -1.
       -3    1    3    3    0  502  0.11795192481E+03 -0.37845091911E+03 -0.32333123044E+03  0.51154750466E+03  0.10100000352E+00 0.  1.
</event>
<event>
 5   0  0.1126958E-04  0.1696789E+04  0.7818609E-02  0.8763198E-01
       -1   -1    0    0    0  501  0.00000000000E+00  0.00000000000E+00  0.63623723323E+03  0.63623723325E+03  0.50400001928E-02 0.  1.
        1   -1    0    0  501    0  0.00000000000E+00  0.00000000000E+00 -0.11312974113E+04  0.11312974113E+04  0.50400001928E-02 0. -1.
    10030    2    1    2    0    0  0.00000000000E+00  0.00000000000E+00 -0.49506017808E+03  0.17675346446E+04  0.16967893622E+04 0.  0.
        4    1    3    3  502    0  0.22907810116E+03  0.81352434125E+03 -0.17046382527E+03  0.86218220746E+03  0.12699999809E+01 0. -1.
       -4    1    3    3    0  502 -0.22907810116E+03 -0.81352434125E+03 -0.32459635280E+03  0.90535243711E+03  0.12699999809E+01 0.  1.
</event>
<event>
 5   0  0.2288806E-04  0.1677754E+04  0.7818609E-02  0.8774155E-01
       -2   -1    0    0    0  501  0.00000000000E+00  0.00000000000E+00  0.60134002588E+03  0.60134002588E+03  0.25500000920E-02 0. -1.
        2   -1    0    0  501    0  0.00000000000E+00  0.00000000000E+00 -0.11702436819E+04  0.11702436819E+04  0.25500000920E-02 0.  1.
    10030    2    1    2    0    0  0.00000000000E+00  0.00000000000E+00 -0.56890365606E+03  0.17715837078E+04  0.16777536958E+04 0.  0.
        3    1    3    3  502    0  0.66990292799E+03  0.50068802337E+03 -0.21556590005E+03  0.86367071106E+03  0.10100000352E+00 0. -1.
       -3    1    3    3    0  502 -0.66990292799E+03 -0.50068802337E+03 -0.35333775601E+03  0.90791299676E+03  0.10100000352E+00 0.  1.
</event>
<event>
 5   0  0.1186302E-04  0.1706256E+04  0.7818609E-02  0.8757804E-01
        1   -1    0    0  501    0  0.00000000000E+00  0.00000000000E+00  0.72001125264E+03  0.72001125265E+03  0.50400001928E-02 0.  1.
       -1   -1    0    0    0  501  0.00000000000E+00  0.00000000000E+00 -0.10108553543E+04  0.10108553543E+04  0.50400001928E-02 0. -1.
    10030    2    1    2    0    0  0.00000000000E+00  0.00000000000E+00 -0.29084410163E+03  0.17308666069E+04  0.17062558189E+04 0.  0.
        3    1    3    3  502    0  0.34517109418E+03  0.23257090864E+03 -0.90087495078E+03  0.99237492862E+03  0.10100000352E+00 0. -1.
       -3    1    3    3    0  502 -0.34517109418E+03 -0.23257090864E+03  0.61003084916E+03  0.73849167831E+03  0.10100000352E+00 0.  1.
</event>
<event>
 5   0  0.2224454E-04  0.1698465E+04  0.7818609E-02  0.8762240E-01
       -2   -1    0    0    0  501  0.00000000000E+00  0.00000000000E+00  0.11769618875E+04  0.11769618875E+04  0.25500000920E-02 0. -1.
        2   -1    0    0  501    0  0.00000000000E+00  0.00000000000E+00 -0.61276081307E+03  0.61276081307E+03  0.25500000920E-02 0.  1.
    10030    2    1    2    0    0  0.00000000000E+00  0.00000000000E+00  0.56420107441E+03  0.17897227005E+04  0.16984653345E+04 0.  0.
        2    1    3    3  502    0  0.61491273024E+03 -0.29376466628E+03  0.81606249231E+03  0.10631901694E+04  0.25500000920E-02 0. -1.
       -2    1    3    3    0  502 -0.61491273024E+03  0.29376466628E+03 -0.25186141790E+03  0.72653253114E+03  0.25500000920E-02 0.  1.
</event>
<event>
 5   0  0.2288806E-04  0.1622083E+04  0.7818609E-02  0.8807095E-01
        2   -1    0    0  501    0  0.00000000000E+00  0.00000000000E+00  0.13311829288E+04  0.13311829288E+04  0.25500000920E-02 0.  1.
       -2   -1    0    0    0  501  0.00000000000E+00  0.00000000000E+00 -0.49413829523E+03  0.49413829523E+03  0.25500000920E-02 0. -1.
    10030    2    1    2    0    0  0.00000000000E+00  0.00000000000E+00  0.83704463357E+03  0.18253212240E+04  0.16220831829E+04 0.  0.
        3    1    3    3  502    0 -0.28177245844E+03  0.22701836943E+03 -0.39827047692E+03  0.53810077252E+03  0.10100000352E+00 0. -1.
       -3    1    3    3    0  502  0.28177245844E+03 -0.22701836943E+03  0.12353151105E+04  0.12872204515E+04  0.10100000352E+00 0.  1.
</event>
<event>
 5   0  0.2234723E-04  0.1736538E+04  0.7818609E-02  0.8740795E-01
       -2   -1    0    0    0  501  0.00000000000E+00  0.00000000000E+00  0.48524346944E+03  0.48524346945E+03  0.25500000920E-02 0.  1.
        2   -1    0    0  501    0  0.00000000000E+00  0.00000000000E+00 -0.15536353118E+04  0.15536353118E+04  0.25500000920E-02 0. -1.
    10030    2    1    2    0    0  0.00000000000E+00  0.00000000000E+00 -0.10683918423E+04  0.20388787812E+04  0.17365383830E+04 0.  0.
        1    1    3    3  502    0  0.68389853614E+03 -0.48071968596E+03 -0.25863674085E+03  0.87504376345E+03  0.50400001928E-02 0. -1.
       -1    1    3    3    0  502 -0.68389853614E+03  0.48071968596E+03 -0.80975510147E+03  0.11638350178E+04  0.50400001928E-02 0.  1.
</event>
<event>
 5   0  0.1204741E-04  0.1663872E+04  0.7818609E-02  0.8782242E-01
        1   -1    0    0  501    0  0.00000000000E+00  0.00000000000E+00  0.25671753321E+04  0.25671753321E+04  0.50400001928E-02 0.  1.
       -1   -1    0    0    0  501  0.00000000000E+00  0.00000000000E+00 -0.26960275339E+03  0.26960275344E+03  0.50400001928E-02 0. -1.
    10030    2    1    2    0    0  0.00000000000E+00  0.00000000000E+00  0.22975725787E+04  0.28367780856E+04  0.16638720360E+04 0.  0.
        1    1    3    3  502    0  0.81916048663E+03 -0.12670862020E+03  0.12698067189E+04  0.15164063046E+04  0.50400001928E-02 0. -1.
       -1    1    3    3    0  502 -0.81916048663E+03  0.12670862020E+03  0.10277658598E+04  0.13203717810E+04  0.50400001928E-02 0.  1.
</event>
<event>
 5   0  0.2288806E-04  0.1694263E+04  0.7818609E-02  0.8764643E-01
        2   -1    0    0  501    0  0.00000000000E+00  0.00000000000E+00  0.91238768870E+03  0.91238768870E+03  0.25500000920E-02 0. -1.
       -2   -1    0    0    0  501  0.00000000000E+00  0.00000000000E+00 -0.78654220347E+03  0.78654220348E+03  0.25500000920E-02 0.  1.
    10030    2    1    2    0    0  0.00000000000E+00  0.00000000000E+00  0.12584548523E+03  0.16989298922E+04  0.16942625807E+04 0.  0.
        3    1    3    3  502    0  0.68243893589E+03  0.40464903578E+03 -0.23482564564E+03  0.82740971558E+03  0.10100000352E+00 0. -1.
       -3    1    3    3    0  502 -0.68243893589E+03 -0.40464903578E+03  0.36067113086E+03  0.87152017660E+03  0.10100000352E+00 0.  1.
</event>
<event>
 5   0  0.1126958E-04  0.1718535E+04  0.7818609E-02  0.8750863E-01
       -1   -1    0    0    0  501  0.00000000000E+00  0.00000000000E+00  0.44517308224E+03  0.44517308227E+03  0.50400001928E-02 0.  1.
        1   -1    0    0  501    0  0.00000000000E+00  0.00000000000E+00 -0.16585466159E+04  0.16585466159E+04  0.50400001928E-02 0. -1.
    10030    2    1    2    0    0  0.00000000000E+00  0.00000000000E+00 -0.12133735337E+04  0.21037196982E+04  0.17185346189E+04 0.  0.
        4    1    3    3  502    0 -0.10409626754E+03 -0.82418487213E+03 -0.33787268422E+03  0.89681452932E+03  0.12699999809E+01 0.  1.
       -4    1    3    3    0  502  0.10409626754E+03  0.82418487213E+03 -0.87550084946E+03  0.12069051689E+04  0.12699999809E+01 0. -1.
</event>
<event>
 5   0  0.2356829E-04  0.1739604E+04  0.7818609E-02  0.8739093E-01
        2   -1    0    0  501    0  0.00000000000E+00  0.00000000000E+00  0.13809558847E+04  0.13809558847E+04  0.25500000920E-02 0. -1.
       -2   -1    0    0    0  501  0.00000000000E+00  0.00000000000E+00 -0.54784939849E+03  0.54784939850E+03  0.25500000920E-02 0.  1.
    10030    2    1    2    0    0  0.00000000000E+00  0.00000000000E+00  0.83310648617E+03  0.19288052832E+04  0.17396043812E+04 0.  0.
        5    1    3    3  502    0 -0.40241351801E+03  0.19622683098E+03  0.12433738218E+04  0.13215302340E+04  0.46999998093E+01 0. -1.
       -5    1    3    3    0  502  0.40241351801E+03 -0.19622683098E+03 -0.41026733561E+03  0.60727504917E+03  0.46999998093E+01 0.  1.
</event>
<event>
 5   0  0.1126958E-04  0.1698119E+04  0.7818609E-02  0.8762438E-01
       -1   -1    0    0    0  501  0.00000000000E+00  0.00000000000E+00  0.40063733973E+03  0.40063733977E+03  0.50400001928E-02 0.  1.
        1   -1    0    0  501    0  0.00000000000E+00  0.00000000000E+00 -0.17993879616E+04  0.17993879616E+04  0.50400001928E-02 0. -1.
    10030    2    1    2    0    0  0.00000000000E+00  0.00000000000E+00 -0.13987506219E+04  0.22000253014E+04  0.16981189665E+04 0.  0.
        4    1    3    3  502    0 -0.81498453491E+03 -0.21940960154E+03 -0.57950899673E+03  0.10238030355E+04  0.12699999809E+01 0. -1.
       -4    1    3    3    0  502  0.81498453491E+03  0.21940960154E+03 -0.81924162513E+03  0.11762222658E+04  0.12699999809E+01 0.  1.
</event>
<event>
 5   0  0.1186302E-04  0.1702707E+04  0.7818609E-02  0.8759822E-01
        1   -1    0    0  501    0  0.00000000000E+00  0.00000000000E+00  0.11292028062E+04  0.11292028062E+04  0.50400001928E-02 0. -1.
       -1   -1    0    0    0  501  0.00000000000E+00  0.00000000000E+00 -0.64187123605E+03  0.64187123607E+03  0.50400001928E-02 0.  1.
    10030    2    1    2    0    0  0.00000000000E+00  0.00000000000E+00  0.48733157011E+03  0.17710740422E+04  0.17027070223E+04 0.  0.
        3    1    3    3  502    0 -0.53973274685E+02  0.79654104065E+02  0.11235291516E+04  0.11276416343E+04  0.10100000352E+00 0. -1.
       -3    1    3    3    0  502  0.53973274685E+02 -0.79654104065E+02 -0.63619758151E+03  0.64343240794E+03  0.10100000352E+00 0.  1.
</event>
<event>
 5   0  0.2234723E-04  0.1701001E+04  0.7818609E-02  0.8760794E-01
        2   -1    0    0  501    0  0.00000000000E+00  0.00000000000E+00  0.56096854265E+03  0.56096854266E+03  0.25500000920E-02 0.  1.
       -2   -1    0    0    0  501  0.00000000000E+00  0.00000000000E+00 -0.12894679289E+04  0.12894679289E+04  0.25500000920E-02 0. -1.
    10030    2    1    2    0    0  0.00000000000E+00  0.00000000000E+00 -0.72849938629E+03  0.18504364716E+04  0.17010008171E+04 0.  0.
        1    1    3    3  502    0 -0.46979885961E+02 -0.46091184715E+03  0.41164410104E+03  0.61975616695E+03  0.50400001928E-02 0.  1.
       -1    1    3    3    0  502  0.46979885961E+02  0.46091184715E+03 -0.11401434873E+04  0.12306803047E+04  0.50400001928E-02 0. -1.
</event>
<event>
 5   0  0.2242967E-04  0.1701102E+04  0.7818609E-02  0.8760736E-01
        2   -1    0    0  501    0  0.00000000000E+00  0.00000000000E+00  0.12658156469E+04  0.12658156469E+04  0.25500000920E-02 0.  1.
       -2   -1    0    0    0  501  0.00000000000E+00  0.00000000000E+00 -0.57151817916E+03  0.57151817917E+03  0.25500000920E-02 0. -1.
    10030    2    1    2    0    0  0.00000000000E+00  0.00000000000E+00  0.69429746771E+03  0.18373338260E+04  0.17011015886E+04 0.  0.
        4    1    3    3  502    0 -0.62407578156E+01  0.69815446024E+02 -0.56839232245E+03  0.57269938770E+03  0.12699999809E+01 0. -1.
       -4    1    3    3    0  502  0.62407578156E+01 -0.69815446024E+02  0.12626897902E+04  0.12646344383E+04  0.12699999809E+01 0.  1.
</event>
<event>
 5   0  0.2288806E-04  0.1697128E+04  0.7818609E-02  0.8763004E-01
       -2   -1    0    0    0  501  0.00000000000E+00  0.00000000000E+00  0.47863246090E+03  0.47863246090E+03  0.25500000920E-02 0. -1.
        2   -1    0    0  501    0  0.00000000000E+00  0.00000000000E+00 -0.15044121665E+04  0.15044121665E+04  0.25500000920E-02 0.  1.
    10030    2    1    2    0    0  0.00000000000E+00  0.00000000000E+00 -0.10257797056E+04  0.19830446274E+04  0.16971275703E+04 0.  0.
        3    1    3    3  502    0 -0.15238744769E+03  0.84069232105E+02  0.45755405681E+03  0.48953579553E+03  0.10100000352E+00 0. -1.
       -3    1    3    3    0  502  0.15238744769E+03 -0.84069232105E+02 -0.14833337624E+04  0.14935088319E+04  0.10100000352E+00 0.  1.
</event>
<event>
 5   0  0.1215233E-04  0.1696236E+04  0.7818609E-02  0.8763514E-01
       -1   -1    0    0    0  501  0.00000000000E+00  0.00000000000E+00  0.74421763441E+03  0.74421763442E+03  0.50400001928E-02 0.  1.
        1   -1    0    0  501    0  0.00000000000E+00  0.00000000000E+00 -0.96652340423E+03  0.96652340425E+03  0.50400001928E-02 0. -1.
    10030    2    1    2    0    0  0.00000000000E+00  0.00000000000E+00 -0.22230576983E+03  0.17107410387E+04  0.16962355515E+04 0.  0.
        2    1    3    3  502    0 -0.50132913657E+03  0.68300728533E+03 -0.72433086862E+02  0.85033899538E+03  0.25500000920E-02 0. -1.
       -2    1    3    3    0  502  0.50132913657E+03 -0.68300728533E+03 -0.14987268297E+03  0.86040204329E+03  0.25500000920E-02 0.  1.
</event>
<event>
 5   0  0.1215233E-04  0.1638420E+04  0.7818609E-02  0.8797287E-01
        1   -1    0    0  501    0  0.00000000000E+00  0.00000000000E+00  0.10940534503E+04  0.10940534504E+04  0.50400001928E-02 0. -1.
       -1   -1    0    0    0  501  0.00000000000E+00  0.00000000000E+00 -0.61341172509E+03  0.61341172511E+03  0.50400001928E-02 0.  1.
    10030    2    1    2    0    0  0.00000000000E+00  0.00000000000E+00  0.48064172526E+03  0.17074651755E+04  0.16384202322E+04 0.  0.
        2    1    3    3  502    0  0.55211739606E+03  0.19902115177E+03 -0.35530833440E+03  0.68606636005E+03  0.25500000920E-02 0.  1.
       -2    1    3    3    0  502 -0.55211739606E+03 -0.19902115177E+03  0.83595005966E+03  0.10213988154E+04  0.25500000920E-02 0. -1.
</event>
<event>
 5   0  0.2356829E-04  0.1705577E+04  0.7818609E-02  0.8758190E-01
       -2   -1    0    0    0  501  0.00000000000E+00  0.00000000000E+00  0.64101753734E+03  0.64101753735E+03  0.25500000920E-02 0. -1.
        2   -1    0    0  501    0  0.00000000000E+00  0.00000000000E+00 -0.11345219852E+04  0.11345219852E+04  0.25500000920E-02 0.  1.
    10030    2    1    2    0    0  0.00000000000E+00  0.00000000000E+00 -0.49350444781E+03  0.17755395225E+04  0.17055773087E+04 0.  0.
        5    1    3    3  502    0 -0.26594267562E+03  0.37800940584E+03  0.49931090524E+03  0.68040435603E+03  0.46999998093E+01 0. -1.
       -5    1    3    3    0  502  0.26594267562E+03 -0.37800940584E+03 -0.99281535305E+03  0.10951351665E+04  0.46999998093E+01 0.  1.
</event>
<event>
 5   0  0.1204741E-04  0.1688970E+04  0.7818609E-02  0.8767680E-01
        1   -1    0    0  501    0  0.00000000000E+00  0.00000000000E+00  0.13842060268E+04  0.13842060268E+04  0.50400001928E-02 0.  1.
       -1   -1    0    0    0  501  0.00000000000E+00  0.00000000000E+00 -0.51520872994E+03  0.51520872996E+03  0.50400001928E-02 0. -1.
    10030    2    1    2    0    0  0.00000000000E+00  0.00000000000E+00  0.86899729683E+03  0.18994147567E+04  0.16889701348E+04 0.  0.
        1    1    3    3  502    0 -0.78538228876E+03  0.44732507891E+02  0.77989658942E+03  0.11077296723E+04  0.50400001928E-02 0. -1.
       -1    1    3    3    0  502  0.78538228876E+03 -0.44732507891E+02  0.89100707407E+02  0.79168508439E+03  0.50400001928E-02 0.  1.
</event>
<event>
 5   0  0.2288806E-04  0.1710164E+04  0.7818609E-02  0.8755588E-01
        2   -1    0    0  501    0  0.00000000000E+00  0.00000000000E+00  0.18496332632E+04  0.18496332632E+04  0.25500000920E-02 0. -1.
       -2   -1    0    0    0  501  0.00000000000E+00  0.00000000000E+00 -0.39530301951E+03  0.39530301952E+03  0.25500000920E-02 0.  1.
    10030    2    1    2    0    0  0.00000000000E+00  0.00000000000E+00  0.14543302437E+04  0.22449362827E+04  0.17101644528E+04 0.  0.
        3    1    3    3  502    0  0.46449528830E+03 -0.52007764410E+03  0.77504974090E+02  0.70160078389E+03  0.10100000352E+00 0.  1.
       -3    1    3    3    0  502 -0.46449528830E+03  0.52007764410E+03  0.13768252696E+04  0.15433354988E+04  0.10100000352E+00 0. -1.
</event>
<event>
 5   0  0.1215233E-04  0.1551088E+04  0.7818609E-02  0.8851173E-01
       -1   -1    0    0    0  501  0.00000000000E+00  0.00000000000E+00  0.51904141040E+03  0.51904141042E+03  0.50400001928E-02 0.  1.
        1   -1    0    0  501    0  0.00000000000E+00  0.00000000000E+00 -0.11588063000E+04  0.11588063000E+04  0.50400001928E-02 0. -1.
    10030    2    1    2    0    0  0.00000000000E+00  0.00000000000E+00 -0.63976488959E+03  0.16778477104E+04  0.15510879490E+04 0.  0.
        2    1    3    3  502    0 -0.47832326912E+03  0.24337781073E+03  0.28573041754E+03  0.60800310859E+03  0.25500000920E-02 0. -1.
       -2    1    3    3    0  502  0.47832326912E+03 -0.24337781073E+03 -0.92549530713E+03  0.10698446018E+04  0.25500000920E-02 0.  1.
</event>
<event>
 5   0  0.1126958E-04  0.1715143E+04  0.7818609E-02  0.8752774E-01
        1   -1    0    0  501    0  0.00000000000E+00  0.00000000000E+00  0.72054497982E+03  0.72054497984E+03  0.50400001928E-02 0. -1.
       -1   -1    0    0    0  501  0.00000000000E+00  0.00000000000E+00 -0.10206569147E+04  0.10206569147E+04  0.50400001928E-02 0.  1.
    10030    2    1    2    0    0  0.00000000000E+00  0.00000000000E+00 -0.30011193490E+03  0.17412018946E+04  0.17151433946E+04 0.  0.
        4    1    3    3  502    0  0.63424040474E+03 -0.32525420153E+03 -0.63414072123E+03  0.95403734405E+03  0.12699999809E+01 0.  1.
       -4    1    3    3    0  502 -0.63424040474E+03  0.32525420153E+03  0.33402878633E+03  0.78716455053E+03  0.12699999809E+01 0. -1.
</event>
<event>
 5   0  0.8372750E-05  0.1703373E+04  0.7818609E-02  0.8759443E-01
       -3   -1    0    0    0  501  0.00000000000E+00  0.00000000000E+00  0.14431814520E+04  0.14431814555E+04  0.10100000352E+00 0.  1.
        3   -1    0    0  501    0  0.00000000000E+00  0.00000000000E+00 -0.50261877668E+03  0.50261878683E+03  0.10100000352E+00 0. -1.
    10030    2    1    2    0    0  0.00000000000E+00  0.00000000000E+00  0.94056267528E+03  0.19458002423E+04  0.17033732524E+04 0.  0.
        4    1    3    3  502    0 -0.11755082122E+03  0.40508789461E+03 -0.37492410594E+03  0.56434395189E+03  0.12699999809E+01 0. -1.
       -4    1    3    3    0  502  0.11755082122E+03 -0.40508789461E+03  0.13154867812E+04  0.13814562904E+04  0.12699999809E+01 0.  1.
</event>
<event>
 5   0  0.2242967E-04  0.1653063E+04  0.7818609E-02  0.8788597E-01
       -2   -1    0    0    0  501  0.00000000000E+00  0.00000000000E+00  0.56604850589E+03  0.56604850590E+03  0.25500000920E-02 0.  1.
        2   -1    0    0  501    0  0.00000000000E+00  0.00000000000E+00 -0.12068825617E+04  0.12068825617E+04  0.25500000920E-02 0. -1.
    10030    2    1    2    0    0  0.00000000000E+00  0.00000000000E+00 -0.64083405581E+03  0.17729310676E+04  0.16530626980E+04 0.  0.
        4    1    3    3  502    0  0.57984876714E+03 -0.38888186001E+03  0.15403965250E+03  0.71497099328E+03  0.12699999809E+01 0.  1.
       -4    1    3    3    0  502 -0.57984876714E+03  0.38888186001E+03 -0.79487370831E+03  0.10579600743E+04  0.12699999809E+01 0. -1.
</event>
<event>
 5   0  0.1234158E-04  0.1682840E+04  0.7818609E-02  0.8771212E-01
        1   -1    0    0  501    0  0.00000000000E+00  0.00000000000E+00  0.17213511417E+04  0.17213511417E+04  0.50400001928E-02 0. -1.
       -1   -1    0    0    0  501  0.00000000000E+00  0.00000000000E+00 -0.41129760149E+03  0.41129760152E+03  0.50400001928E-02 0.  1.
    10030    2    1    2    0    0  0.00000000000E+00  0.00000000000E+00  0.13100535402E+04  0.21326487432E+04  0.16828399757E+04 0.  0.
        5    1    3    3  502    0  0.47379871464E+03  0.69459749108E+03  0.69539372024E+03  0.10911211723E+04  0.46999998093E+01 0.  1.
       -5    1    3    3    0  502 -0.47379871464E+03 -0.69459749108E+03  0.61465981995E+03  0.10415275709E+04  0.46999998093E+01 0. -1.
</event>
<event>
 5   0  0.2224454E-04  0.1687938E+04  0.7818609E-02  0.8768274E-01
       -2   -1    0    0    0  501  0.00000000000E+00  0.00000000000E+00  0.35456398426E+03  0.35456398427E+03  0.25500000920E-02 0.  1.
        2   -1    0    0  501    0  0.00000000000E+00  0.00000000000E+00 -0.20088996827E+04  0.20088996827E+04  0.25500000920E-02 0. -1.
    10030    2    1    2    0    0  0.00000000000E+00  0.00000000000E+00 -0.16543356984E+04  0.23634636669E+04  0.16879377660E+04 0.  0.
        2    1    3    3  502    0  0.44588263993E+03 -0.68433734312E+03 -0.11247064034E+04  0.13899976337E+04  0.25500000920E-02 0. -1.
       -2    1    3    3    0  502 -0.44588263993E+03  0.68433734312E+03 -0.52962929501E+03  0.97346603326E+03  0.25500000920E-02 0.  1.
</event>
<event>
 5   0  0.1215233E-04  0.1700224E+04  0.7818609E-02  0.8761237E-01
       -1   -1    0    0    0  501  0.00000000000E+00  0.00000000000E+00  0.72116670011E+03  0.72116670013E+03  0.50400001928E-02 0.  1.
        1   -1    0    0  501    0  0.00000000000E+00  0.00000000000E+00 -0.10021129443E+04  0.10021129444E+04  0.50400001928E-02 0. -1.
    10030    2    1    2    0    0  0.00000000000E+00  0.00000000000E+00 -0.28094624423E+03  0.17232796445E+04  0.17002240855E+04 0.  0.
        2    1    3    3  502    0 -0.57778772268E+03  0.77328456812E+02 -0.76763041709E+03  0.96388526286E+03  0.25500000920E-02 0. -1.
       -2    1    3    3    0  502  0.57778772268E+03 -0.77328456812E+02  0.48668417285E+03  0.75939438162E+03  0.25500000920E-02 0.  1.
</event>
<event>
 5   0  0.1204741E-04  0.1688252E+04  0.7818609E-02  0.8768093E-01
       -1   -1    0    0    0  501  0.00000000000E+00  0.00000000000E+00  0.58277351712E+03  0.58277351714E+03  0.50400001928E-02 0.  1.
        1   -1    0    0  501    0  0.00000000000E+00  0.00000000000E+00 -0.12226857765E+04  0.12226857765E+04  0.50400001928E-02 0. -1.
    10030    2    1    2    0    0  0.00000000000E+00  0.00000000000E+00 -0.63991225936E+03  0.18054592936E+04  0.16882522209E+04 0.  0.
        1    1    3    3  502    0 -0.74071710520E+03  0.38004671959E+03 -0.46910758414E+03  0.95559367124E+03  0.50400001928E-02 0. -1.
       -1    1    3    3    0  502  0.74071710520E+03 -0.38004671959E+03 -0.17080467522E+03  0.84986562238E+03  0.50400001928E-02 0.  1.
</event>
<event>
 5   0  0.2224454E-04  0.1701790E+04  0.7818609E-02  0.8760344E-01
        2   -1    0    0  501    0  0.00000000000E+00  0.00000000000E+00  0.15295089122E+04  0.15295089122E+04  0.25500000920E-02 0. -1.
       -2   -1    0    0    0  501  0.00000000000E+00  0.00000000000E+00 -0.47336938002E+03  0.47336938002E+03  0.25500000920E-02 0.  1.
    10030    2    1    2    0    0  0.00000000000E+00  0.00000000000E+00  0.10561395322E+04  0.20028782922E+04  0.17017904518E+04 0.  0.
        2    1    3    3  502    0  0.61835552042E+03  0.45561761069E+03  0.95901003808E+03  0.12286786439E+04  0.25500000920E-02 0. -1.
       -2    1    3    3    0  502 -0.61835552042E+03 -0.45561761069E+03  0.97129494072E+02  0.77419964830E+03  0.25500000920E-02 0.  1.
</event>
<event>
 5   0  0.2242967E-04  0.1705963E+04  0.7818609E-02  0.8757971E-01
        2   -1    0    0  501    0  0.00000000000E+00  0.00000000000E+00  0.27693186219E+04  0.27693186219E+04  0.25500000920E-02 0. -1.
       -2   -1    0    0    0  501  0.00000000000E+00  0.00000000000E+00 -0.26272790707E+03  0.26272790708E+03  0.25500000920E-02 0.  1.
    10030    2    1    2    0    0  0.00000000000E+00  0.00000000000E+00  0.25065907149E+04  0.30320465290E+04  0.17059628197E+04 0.  0.
        4    1    3    3  502    0  0.74785445322E+03  0.13805662360E+03  0.56671082174E+03  0.94842431585E+03  0.12699999809E+01 0.  1.
       -4    1    3    3    0  502 -0.74785445322E+03 -0.13805662360E+03  0.19398798931E+04  0.20836222132E+04  0.12699999809E+01 0. -1.
</event>
<event>
 5   0  0.1215233E-04  0.1699806E+04  0.7818609E-02  0.8761475E-01
       -1   -1    0    0    0  501  0.00000000000E+00  0.00000000000E+00  0.10475926226E+04  0.10475926226E+04  0.50400001928E-02 0. -1.
        1   -1    0    0  501    0  0.00000000000E+00  0.00000000000E+00 -0.68951874112E+03  0.68951874114E+03  0.50400001928E-02 0.  1.
    10030    2    1    2    0    0  0.00000000000E+00  0.00000000000E+00  0.35807388144E+03  0.17371113637E+04  0.16998055728E+04 0.  0.
        2    1    3    3  502    0  0.21339149960E+03  0.65672934814E+02 -0.65901318884E+03  0.69580690535E+03  0.25500000920E-02 0.  1.
       -2    1    3    3    0  502 -0.21339149960E+03 -0.65672934814E+02  0.10170870703E+04  0.10413044584E+04  0.25500000920E-02 0. -1.
</event>
<event>
 5   0  0.1204741E-04  0.1701436E+04  0.7818609E-02  0.8760546E-01
        1   -1    0    0  501    0  0.00000000000E+00  0.00000000000E+00  0.72996475990E+03  0.72996475992E+03  0.50400001928E-02 0. -1.
       -1   -1    0    0    0  501  0.00000000000E+00  0.00000000000E+00 -0.99144716682E+03  0.99144716683E+03  0.50400001928E-02 0.  1.
    10030    2    1    2    0    0  0.00000000000E+00  0.00000000000E+00 -0.26148240692E+03  0.17214119268E+04  0.17014364438E+04 0.  0.
        1    1    3    3  502    0 -0.23843817204E+03  0.75550360557E+03 -0.44435302788E+03  0.90834358771E+03  0.50400001928E-02 0.  1.
       -1    1    3    3    0  502  0.23843817204E+03 -0.75550360557E+03  0.18287062096E+03  0.81306833905E+03  0.50400001928E-02 0. -1.
</event>
<event>
 5   0  0.1126958E-04  0.1740386E+04  0.7818609E-02  0.8738660E-01
        1   -1    0    0  501    0  0.00000000000E+00  0.00000000000E+00  0.17208384046E+04  0.17208384046E+04  0.50400001928E-02 0.  1.
       -1   -1    0    0    0  501  0.00000000000E+00  0.00000000000E+00 -0.44003876107E+03  0.44003876110E+03  0.50400001928E-02 0. -1.
    10030    2    1    2    0    0  0.00000000000E+00  0.00000000000E+00  0.12807996436E+04  0.21608771657E+04  0.17403857039E+04 0.  0.
        4    1    3    3  502    0 -0.59244100109E+03 -0.38928555015E+03  0.13781912718E+02  0.70902830222E+03  0.12699999809E+01 0. -1.
       -4    1    3    3    0  502  0.59244100109E+03  0.38928555015E+03  0.12670177308E+04  0.14518488635E+04  0.12699999809E+01 0.  1.
</event>
<event>
 5   0  0.2242967E-04  0.1704717E+04  0.7818609E-02  0.8758678E-01
       -2   -1    0    0    0  501  0.00000000000E+00  0.00000000000E+00  0.43851369445E+03  0.43851369446E+03  0.25500000920E-02 0.  1.
        2   -1    0    0  501    0  0.00000000000E+00  0.00000000000E+00 -0.16567678166E+04  0.16567678166E+04  0.25500000920E-02 0. -1.
    10030    2    1    2    0    0  0.00000000000E+00  0.00000000000E+00 -0.12182541221E+04  0.20952815110E+04  0.17047174266E+04 0.  0.
        4    1    3    3  502    0 -0.37092945607E+03 -0.76419100453E+03 -0.69549067323E+03  0.10978549277E+04  0.12699999809E+01 0.  1.
       -4    1    3    3    0  502  0.37092945607E+03  0.76419100453E+03 -0.52276344890E+03  0.99742658336E+03  0.12699999809E+01 0. -1.
</event>
<event>
 5   0  0.1186302E-04  0.1707572E+04  0.7818609E-02  0.8757057E-01
        1   -1    0    0  501    0  0.00000000000E+00  0.00000000000E+00  0.11243715836E+04  0.11243715836E+04  0.50400001928E-02 0.  1.
       -1   -1    0    0    0  501  0.00000000000E+00  0.00000000000E+00 -0.64831826169E+03  0.64831826171E+03  0.50400001928E-02 0. -1.
    10030    2    1    2    0    0  0.00000000000E+00  0.00000000000E+00  0.47605332187E+03  0.17726898453E+04  0.17075721134E+04 0.  0.
        3    1    3    3  502    0 -0.73968389369E+03 -0.28574738816E+03 -0.90534010223E+02  0.79811042446E+03  0.10100000352E+00 0. -1.
       -3    1    3    3    0  502  0.73968389369E+03  0.28574738816E+03  0.56658733210E+03  0.97457942083E+03  0.10100000352E+00 0.  1.
</event>
<event>
 5   0  0.1204741E-04  0.1820954E+04  0.7818609E-02  0.8695235E-01
        1   -1    0    0  501    0  0.00000000000E+00  0.00000000000E+00  0.58339493409E+03  0.58339493411E+03  0.50400001928E-02 0. -1.
       -1   -1    0    0    0  501  0.00000000000E+00  0.00000000000E+00 -0.14209380130E+04  0.14209380130E+04  0.50400001928E-02 0.  1.
    10030    2    1    2    0    0  0.00000000000E+00  0.00000000000E+00 -0.83754307889E+03  0.20043329471E+04  0.18209536386E+04 0.  0.
        1    1    3    3  502    0  0.24743410669E+03  0.57632667594E+03 -0.11452302008E+04  0.13057290253E+04  0.50400001928E-02 0.  1.
       -1    1    3    3    0  502 -0.24743410669E+03 -0.57632667594E+03  0.30768712193E+03  0.69860392182E+03  0.50400001928E-02 0. -1.
</event>
<event>
 5   0  0.1204741E-04  0.1705766E+04  0.7818609E-02  0.8758083E-01
       -1   -1    0    0    0  501  0.00000000000E+00  0.00000000000E+00  0.10185022502E+04  0.10185022502E+04  0.50400001928E-02 0.  1.
        1   -1    0    0  501    0  0.00000000000E+00  0.00000000000E+00 -0.71419516621E+03  0.71419516623E+03  0.50400001928E-02 0. -1.
    10030    2    1    2    0    0  0.00000000000E+00  0.00000000000E+00  0.30430708400E+03  0.17326974164E+04  0.17057659674E+04 0.  0.
        1    1    3    3  502    0  0.45876783773E+03  0.10364619526E+03  0.87486325261E+03  0.99327547716E+03  0.50400001928E-02 0.  1.
       -1    1    3    3    0  502 -0.45876783773E+03 -0.10364619526E+03 -0.57055616861E+03  0.73942193929E+03  0.50400001928E-02 0. -1.
</event>
<event>
 5   0  0.2242967E-04  0.1698195E+04  0.7818609E-02  0.8762394E-01
        2   -1    0    0  501    0  0.00000000000E+00  0.00000000000E+00  0.18021964571E+04  0.18021964571E+04  0.25500000920E-02 0.  1.
       -2   -1    0    0    0  501  0.00000000000E+00  0.00000000000E+00 -0.40004903091E+03  0.40004903092E+03  0.25500000920E-02 0. -1.
    10030    2    1    2    0    0  0.00000000000E+00  0.00000000000E+00  0.14021474262E+04  0.22022454880E+04  0.16981954495E+04 0.  0.
        4    1    3    3  502    0  0.80883107410E+03  0.21748438978E+03  0.88196973645E+03  0.12162974123E+04  0.12699999809E+01 0. -1.
       -4    1    3    3    0  502 -0.80883107410E+03 -0.21748438978E+03  0.52017768971E+03  0.98594807571E+03  0.12699999809E+01 0.  1.
</event>
<event>
 5   0  0.2288806E-04  0.1706880E+04  0.7818609E-02  0.8757450E-01
        2   -1    0    0  501    0  0.00000000000E+00  0.00000000000E+00  0.16071598358E+04  0.16071598358E+04  0.25500000920E-02 0. -1.
       -2   -1    0    0    0  501  0.00000000000E+00  0.00000000000E+00 -0.45319704065E+03  0.45319704066E+03  0.25500000920E-02 0.  1.
    10030    2    1    2    0    0  0.00000000000E+00  0.00000000000E+00  0.11539627951E+04  0.20603568764E+04  0.17068802904E+04 0.  0.
        3    1    3    3  502    0 -0.44614554221E+03 -0.19234333391E+03 -0.26997755612E+03  0.55581444200E+03  0.10100000352E+00 0.  1.
       -3    1    3    3    0  502  0.44614554221E+03  0.19234333391E+03  0.14239403513E+04  0.15045424344E+04  0.10100000352E+00 0. -1.
</event>
<event>
 5   0  0.2356829E-04  0.1699351E+04  0.7818609E-02  0.8761735E-01
       -2   -1    0    0    0  501  0.00000000000E+00  0.00000000000E+00  0.15389601472E+04  0.15389601472E+04  0.25500000920E-02 0. -1.
        2   -1    0    0  501    0  0.00000000000E+00  0.00000000000E+00 -0.46911418846E+03  0.46911418846E+03  0.25500000920E-02 0.  1.
    10030    2    1    2    0    0  0.00000000000E+00  0.00000000000E+00  0.10698459587E+04  0.20080743356E+04  0.16993505118E+04 0.  0.
        5    1    3    3  502    0 -0.64459060523E+03  0.31621606804E+03 -0.19726304413E+01  0.71799417220E+03  0.46999998093E+01 0.  1.
       -5    1    3    3    0  502  0.64459060523E+03 -0.31621606804E+03  0.10718185891E+04  0.12900801634E+04  0.46999998093E+01 0. -1.
</event>
<event>
 5   0  0.2288806E-04  0.1701344E+04  0.7818609E-02  0.8760598E-01
       -2   -1    0    0    0  501  0.00000000000E+00  0.00000000000E+00  0.20011163609E+04  0.20011163609E+04  0.25500000920E-02 0.  1.
        2   -1    0    0  501    0  0.00000000000E+00  0.00000000000E+00 -0.36161937947E+03  0.36161937948E+03  0.25500000920E-02 0. -1.
    10030    2    1    2    0    0  0.00000000000E+00  0.00000000000E+00  0.16394969814E+04  0.23627357404E+04  0.17013435358E+04 0.  0.
        3    1    3    3  502    0 -0.28574371744E+03 -0.70401264386E+03  0.13510402833E+04  0.15500300423E+04  0.10100000352E+00 0.  1.
       -3    1    3    3    0  502  0.28574371744E+03  0.70401264386E+03  0.28845669811E+03  0.81270569806E+03  0.10100000352E+00 0. -1.
</event>
<event>
 5   0  0.1234158E-04  0.1704164E+04  0.7818609E-02  0.8758993E-01
        1   -1    0    0  501    0  0.00000000000E+00  0.00000000000E+00  0.71820446818E+03  0.71820446820E+03  0.50400001928E-02 0. -1.
       -1   -1    0    0    0  501  0.00000000000E+00  0.00000000000E+00 -0.10109152441E+04  0.10109152441E+04  0.50400001928E-02 0.  1.
    10030    2    1    2    0    0  0.00000000000E+00  0.00000000000E+00 -0.29271077591E+03  0.17291197123E+04  0.17041641297E+04 0.  0.
        5    1    3    3  502    0  0.16103405941E+03 -0.76065260107E+03 -0.50002451267E+03  0.92443006824E+03  0.46999998093E+01 0.  1.
       -5    1    3    3    0  502 -0.16103405941E+03  0.76065260107E+03  0.20731373676E+03  0.80468964405E+03  0.46999998093E+01 0. -1.
</event>
<event>
 5   0  0.2356829E-04  0.1812068E+04  0.7818609E-02  0.8699908E-01
       -2   -1    0    0    0  501  0.00000000000E+00  0.00000000000E+00  0.57322297561E+03  0.57322297562E+03  0.25500000920E-02 0.  1.
        2   -1    0    0  501    0  0.00000000000E+00  0.00000000000E+00 -0.14320739106E+04  0.14320739106E+04  0.25500000920E-02 0. -1.
    10030    2    1    2    0    0  0.00000000000E+00  0.00000000000E+00 -0.85885093503E+03  0.20052968863E+04  0.18120680654E+04 0.  0.
        5    1    3    3  502    0  0.19386555849E+03 -0.76171360993E+03 -0.92812864361E+03  0.12162386063E+04  0.46999998093E+01 0. -1.
       -5    1    3    3    0  502 -0.19386555849E+03  0.76171360993E+03  0.69277708578E+02  0.78905827999E+03  0.46999998093E+01 0.  1.
</event>
<event>
 5   0  0.2224454E-04  0.1636273E+04  0.7818609E-02  0.8798569E-01
       -2   -1    0    0    0  501  0.00000000000E+00  0.00000000000E+00  0.93495528497E+03  0.93495528497E+03  0.25500000920E-02 0.  1.
        2   -1    0    0  501    0  0.00000000000E+00  0.00000000000E+00 -0.71591358563E+03  0.71591358563E+03  0.25500000920E-02 0. -1.
    10030    2    1    2    0    0  0.00000000000E+00  0.00000000000E+00  0.21904169934E+03  0.16508688706E+04  0.16362728262E+04 0.  0.
        2    1    3    3  502    0 -0.10619248106E+03  0.63082285705E+03 -0.40506101565E+03  0.75715833643E+03  0.25500000920E-02 0. -1.
       -2    1    3    3    0  502  0.10619248106E+03 -0.63082285705E+03  0.62410271500E+03  0.89371053417E+03  0.25500000920E-02 0.  1.
</event>
<event>
 5   0  0.2356829E-04  0.1727919E+04  0.7818609E-02  0.8745600E-01
       -2   -1    0    0    0  501  0.00000000000E+00  0.00000000000E+00  0.48670005955E+03  0.48670005956E+03  0.25500000920E-02 0.  1.
        2   -1    0    0  501    0  0.00000000000E+00  0.00000000000E+00 -0.15336464024E+04  0.15336464024E+04  0.25500000920E-02 0. -1.
    10030    2    1    2    0    0  0.00000000000E+00  0.00000000000E+00 -0.10469463429E+04  0.20203464620E+04  0.17279187428E+04 0.  0.
        5    1    3    3  502    0  0.21261006237E+03  0.19563690554E+03 -0.14754696600E+04  0.15034991337E+04  0.46999998093E+01 0. -1.
       -5    1    3    3    0  502 -0.21261006237E+03 -0.19563690554E+03  0.42852331714E+03  0.51684732829E+03  0.46999998093E+01 0.  1.
</event>
<event>
 5   0  0.1204741E-04  0.1690265E+04  0.7818609E-02  0.8766936E-01
       -1   -1    0    0    0  501  0.00000000000E+00  0.00000000000E+00  0.13356402653E+04  0.13356402653E+04  0.50400001928E-02 0.  1.
        1   -1    0    0  501    0  0.00000000000E+00  0.00000000000E+00 -0.53476167660E+03  0.53476167662E+03  0.50400001928E-02 0. -1.
    10030    2    1    2    0    0  0.00000000000E+00  0.00000000000E+00  0.80087858865E+03  0.18704019419E+04  0.16902653373E+04 0.  0.
        1    1    3    3  502    0  0.24075034106E+02 -0.83660484911E+03  0.27062575344E+03  0.87961672293E+03  0.50400001928E-02 0.  1.
       -1    1    3    3    0  502 -0.24075034106E+02  0.83660484911E+03  0.53025283522E+03  0.99078521895E+03  0.50400001928E-02 0. -1.
</event>
<event>
 5   0  0.2224454E-04  0.1720106E+04  0.7818609E-02  0.8749979E-01
        2   -1    0    0  501    0  0.00000000000E+00  0.00000000000E+00  0.12019510965E+04  0.12019510965E+04  0.25500000920E-02 0. -1.
       -2   -1    0    0    0  501  0.00000000000E+00  0.00000000000E+00 -0.61540895019E+03  0.61540895019E+03  0.25500000920E-02 0.  1.
    10030    2    1    2    0    0  0.00000000000E+00  0.00000000000E+00  0.58654214627E+03  0.18173600466E+04  0.17201063484E+04 0.  0.
        2    1    3    3  502    0  0.38219079961E+03  0.68930914298E+03 -0.70391184635E+02  0.79131019252E+03  0.25500000920E-02 0. -1.
       -2    1    3    3    0  502 -0.38219079961E+03 -0.68930914298E+03  0.65693333090E+03  0.10260498541E+04  0.25500000920E-02 0.  1.
</event>
<event>
 5   0  0.1234158E-04  0.1501877E+04  0.7818609E-02  0.8883206E-01
        1   -1    0    0  501    0  0.00000000000E+00  0.00000000000E+00  0.15061339375E+04  0.15061339375E+04  0.50400001928E-02 0. -1.
       -1   -1    0    0    0  501  0.00000000000E+00  0.00000000000E+00 -0.37440799587E+03  0.37440799591E+03  0.50400001928E-02 0.  1.
    10030    2    1    2    0    0  0.00000000000E+00  0.00000000000E+00  0.11317259416E+04  0.18805419334E+04  0.15018769445E+04 0.  0.
        5    1    3    3  502    0  0.51754501987E+03 -0.51713120027E+03  0.35407572280E+03  0.81281562076E+03  0.46999998093E+01 0.  1.
       -5    1    3    3    0  502 -0.51754501987E+03  0.51713120027E+03  0.77765021882E+03  0.10677263126E+04  0.46999998093E+01 0. -1.
</event>
<event>
 5   0  0.1186302E-04  0.1688591E+04  0.7818609E-02  0.8767898E-01
        1   -1    0    0  501    0  0.00000000000E+00  0.00000000000E+00  0.69387776242E+03  0.69387776244E+03  0.50400001928E-02 0.  1.
       -1   -1    0    0    0  501  0.00000000000E+00  0.00000000000E+00 -0.10273208148E+04  0.10273208148E+04  0.50400001928E-02 0. -1.
    10030    2    1    2    0    0  0.00000000000E+00  0.00000000000E+00 -0.33344305240E+03  0.17211985773E+04  0.16885912096E+04 0.  0.
        3    1    3    3  502    0 -0.39299504595E+03  0.12113318597E+02  0.59486312482E+03  0.71305959505E+03  0.10100000352E+00 0.  1.
       -3    1    3    3    0  502  0.39299504595E+03 -0.12113318597E+02 -0.92830617721E+03  0.10081389822E+04  0.10100000352E+00 0. -1.
</event>
<event>
 5   0  0.2242967E-04  0.1700678E+04  0.7818609E-02  0.8760978E-01
        2   -1    0    0  501    0  0.00000000000E+00  0.00000000000E+00  0.90798638467E+03  0.90798638467E+03  0.25500000920E-02 0. -1.
       -2   -1    0    0    0  501  0.00000000000E+00  0.00000000000E+00 -0.79635192831E+03  0.79635192831E+03  0.25500000920E-02 0.  1.
    10030    2    1    2    0    0  0.00000000000E+00  0.00000000000E+00  0.11163445636E+03  0.17043383130E+04  0.17006783450E+04 0.  0.
        4    1    3    3  502    0  0.41784765521E+03  0.15884685089E+03  0.78073146557E+03  0.89965116531E+03  0.12699999809E+01 0. -1.
       -4    1    3    3    0  502 -0.41784765521E+03 -0.15884685089E+03 -0.66909700921E+03  0.80468714768E+03  0.12699999809E+01 0.  1.
</event>
<event>
 5   0  0.1234158E-04  0.1716236E+04  0.7818609E-02  0.8752158E-01
       -1   -1    0    0    0  501  0.00000000000E+00  0.00000000000E+00  0.44416802621E+03  0.44416802623E+03  0.50400001928E-02 0.  1.
        1   -1    0    0  501    0  0.00000000000E+00  0.00000000000E+00 -0.16578559620E+04  0.16578559620E+04  0.50400001928E-02 0. -1.
    10030    2    1    2    0    0  0.00000000000E+00  0.00000000000E+00 -0.12136879358E+04  0.21020239882E+04  0.17162361264E+04 0.  0.
        5    1    3    3  502    0  0.67327159661E+02  0.32749297585E+03  0.36109435598E+03  0.49213394475E+03  0.46999998093E+01 0.  1.
       -5    1    3    3    0  502 -0.67327159661E+02 -0.32749297585E+03 -0.15747822918E+04  0.16098900435E+04  0.46999998093E+01 0. -1.
</event>
<event>
 5   0  0.1126958E-04  0.1699539E+04  0.7818609E-02  0.8761628E-01
       -1   -1    0    0    0  501  0.00000000000E+00  0.00000000000E+00  0.96023952553E+03  0.96023952554E+03  0.50400001928E-02 0.  1.
        1   -1    0    0  501    0  0.00000000000E+00  0.00000000000E+00 -0.75200801942E+03  0.75200801943E+03  0.50400001928E-02 0. -1.
    10030    2    1    2    0    0  0.00000000000E+00  0.00000000000E+00  0.20823150611E+03  0.17122475450E+04  0.16995385536E+04 0.  0.
        4    1    3    3  502    0 -0.17090637254E+03  0.38413513668E+02 -0.73361992225E+03  0.75424425051E+03  0.12699999809E+01 0. -1.
       -4    1    3    3    0  502  0.17090637254E+03 -0.38413513668E+02  0.94185142836E+03  0.95800329446E+03  0.12699999809E+01 0.  1.
</event>
<event>
 5   0  0.1186302E-04  0.1701449E+04  0.7818609E-02  0.8760538E-01
       -1   -1    0    0    0  501  0.00000000000E+00  0.00000000000E+00  0.97368957528E+03  0.97368957529E+03  0.50400001928E-02 0. -1.
        1   -1    0    0  501    0  0.00000000000E+00  0.00000000000E+00 -0.74328865844E+03  0.74328865846E+03  0.50400001928E-02 0.  1.
    10030    2    1    2    0    0  0.00000000000E+00  0.00000000000E+00  0.23040091683E+03  0.17169782338E+04  0.17014492860E+04 0.  0.
        3    1    3    3  502    0  0.22755081111E+03 -0.36260360342E+03 -0.62667711908E+03  0.75893673428E+03  0.10100000352E+00 0.  1.
       -3    1    3    3    0  502 -0.22755081111E+03  0.36260360342E+03  0.85707803592E+03  0.95804149947E+03  0.10100000352E+00 0. -1.
</event>
<event>
 5   0  0.2288806E-04  0.1708727E+04  0.7818609E-02  0.8756402E-01
       -2   -1    0    0    0  501  0.00000000000E+00  0.00000000000E+00  0.86305865215E+03  0.86305865216E+03  0.25500000920E-02 0.  1.
        2   -1    0    0  501    0  0.00000000000E+00  0.00000000000E+00 -0.84575629539E+03  0.84575629539E+03  0.25500000920E-02 0. -1.
    10030    2    1    2    0    0  0.00000000000E+00  0.00000000000E+00  0.17302356765E+02  0.17088149476E+04  0.17087273491E+04 0.  0.
        3    1    3    3  502    0  0.45567289328E+03 -0.14455101160E+03 -0.69948433704E+03  0.84723735079E+03  0.10100000352E+00 0. -1.
       -3    1    3    3    0  502 -0.45567289328E+03  0.14455101160E+03  0.71678669380E+03  0.86157759676E+03  0.10100000352E+00 0.  1.
</event>
<event>
 5   0  0.1126958E-04  0.1706072E+04  0.7818609E-02  0.8757909E-01
        1   -1    0    0  501    0  0.00000000000E+00  0.00000000000E+00  0.10244309915E+04  0.10244309915E+04  0.50400001928E-02 0. -1.
       -1   -1    0    0    0  501  0.00000000000E+00  0.00000000000E+00 -0.71031667472E+03  0.71031667474E+03  0.50400001928E-02 0.  1.
    10030    2    1    2    0    0  0.00000000000E+00  0.00000000000E+00  0.31411431680E+03  0.17347476663E+04  0.17060719978E+04 0.  0.
        4    1    3    3  502    0  0.57374256314E+03  0.63002436791E+03  0.19718656017E+03  0.87464014619E+03  0.12699999809E+01 0.  1.
       -4    1    3    3    0  502 -0.57374256314E+03 -0.63002436791E+03  0.11692775663E+03  0.86010752007E+03  0.12699999809E+01 0. -1.
</event>
<event>
 5   0  0.8372750E-05  0.1686074E+04  0.7818609E-02  0.8769347E-01
        3   -1    0    0  501    0  0.00000000000E+00  0.00000000000E+00  0.86985224884E+03  0.86985225471E+03  0.10100000352E+00 0.  1.
       -3   -1    0    0    0  501  0.00000000000E+00  0.00000000000E+00 -0.81704850255E+03  0.81704850879E+03  0.10100000352E+00 0. -1.
    10030    2    1    2    0    0  0.00000000000E+00  0.00000000000E+00  0.52803746296E+02  0.16869007635E+04  0.16860741236E+04 0.  0.
        2    1    3    3  502    0  0.82955090574E+02  0.53971549930E+02  0.86402020203E+03  0.86966969867E+03  0.25500000920E-02 0.  1.
       -2    1    3    3    0  502 -0.82955090574E+02 -0.53971549930E+02 -0.81121645574E+03  0.81723106483E+03  0.25500000920E-02 0. -1.
</event>
<event>
 5   0  0.2356829E-04  0.1708897E+04  0.7818609E-02  0.8756306E-01
       -2   -1    0    0    0  501  0.00000000000E+00  0.00000000000E+00  0.71468627139E+03  0.71468627139E+03  0.25500000920E-02 0. -1.
        2   -1    0    0  501    0  0.00000000000E+00  0.00000000000E+00 -0.10215428344E+04  0.10215428344E+04  0.25500000920E-02 0.  1.
    10030    2    1    2    0    0  0.00000000000E+00  0.00000000000E+00 -0.30685656302E+03  0.17362291058E+04  0.17088974684E+04 0.  0.
        5    1    3    3  502    0  0.72517012821E+03 -0.44925118749E+03 -0.10404842469E+03  0.85938728696E+03  0.46999998093E+01 0. -1.
       -5    1    3    3    0  502 -0.72517012821E+03  0.44925118749E+03 -0.20280813833E+03  0.87684181885E+03  0.46999998093E+01 0.  1.
</event>
<event>
 5   0  0.1234158E-04  0.1687044E+04  0.7818609E-02  0.8768788E-01
        1   -1    0    0  501    0  0.00000000000E+00  0.00000000000E+00  0.52420892192E+03  0.52420892194E+03  0.50400001928E-02 0.  1.
       -1   -1    0    0    0  501  0.00000000000E+00  0.00000000000E+00 -0.13573395233E+04  0.13573395233E+04  0.50400001928E-02 0. -1.
    10030    2    1    2    0    0  0.00000000000E+00  0.00000000000E+00 -0.83313060138E+03  0.18815484452E+04  0.16870441467E+04 0.  0.
        5    1    3    3  502    0  0.27128741210E+02 -0.17812998880E+03  0.50248017170E+03  0.53383019254E+03  0.46999998093E+01 0.  1.
       -5    1    3    3    0  502 -0.27128741210E+02  0.17812998880E+03 -0.13356107731E+04  0.13477182527E+04  0.46999998093E+01 0. -1.
</event>
<event>
 5   0  0.2242967E-04  0.1700728E+04  0.7818609E-02  0.8760949E-01
       -2   -1    0    0    0  501  0.00000000000E+00  0.00000000000E+00  0.13811000992E+04  0.13811000992E+04  0.25500000920E-02 0. -1.
        2   -1    0    0  501    0  0.00000000000E+00  0.00000000000E+00 -0.52358162234E+03  0.52358162235E+03  0.25500000920E-02 0.  1.
    10030    2    1    2    0    0  0.00000000000E+00  0.00000000000E+00  0.85751847690E+03  0.19046817216E+04  0.17007276450E+04 0.  0.
        4    1    3    3  502    0 -0.11474626948E+03 -0.26276314355E+03  0.13253303844E+04  0.13559916728E+04  0.12699999809E+01 0. -1.
       -4    1    3    3    0  502  0.11474626948E+03  0.26276314355E+03 -0.46781190750E+03  0.54869004881E+03  0.12699999809E+01 0.  1.
</event>
<event>
 5   0  0.1126958E-04  0.1697947E+04  0.7818609E-02  0.8762536E-01
        1   -1    0    0  501    0  0.00000000000E+00  0.00000000000E+00  0.13680082020E+04  0.13680082020E+04  0.50400001928E-02 0. -1.
       -1   -1    0    0    0  501  0.00000000000E+00  0.00000000000E+00 -0.52686518158E+03  0.52686518160E+03  0.50400001928E-02 0.  1.
    10030    2    1    2    0    0  0.00000000000E+00  0.00000000000E+00  0.84114302039E+03  0.18948733836E+04  0.16979468658E+04 0.  0.
        4    1    3    3  502    0  0.81568352056E+03 -0.47234418799E+02  0.67793378539E+03  0.10616809908E+04  0.12699999809E+01 0.  1.
       -4    1    3    3    0  502 -0.81568352056E+03  0.47234418799E+02  0.16320923500E+03  0.83319239274E+03  0.12699999809E+01 0. -1.
</event>
<event>
 5   0  0.1215233E-04  0.1654682E+04  0.7818609E-02  0.8787642E-01
       -1   -1    0    0    0  501  0.00000000000E+00  0.00000000000E+00  0.15443552524E+04  0.15443552524E+04  0.50400001928E-02 0. -1.
        1   -1    0    0  501    0  0.00000000000E+00  0.00000000000E+00 -0.44322247634E+03  0.44322247637E+03  0.50400001928E-02 0.  1.
    10030    2    1    2    0    0  0.00000000000E+00  0.00000000000E+00  0.11011327761E+04  0.19875777288E+04  0.16546817934E+04 0.  0.
        2    1    3    3  502    0 -0.78320062097E+03  0.19075584433E+03  0.77432852529E+03  0.11177547450E+04  0.25500000920E-02 0. -1.
       -2    1    3    3    0  502  0.78320062097E+03 -0.19075584433E+03  0.32680425080E+03  0.86982298382E+03  0.25500000920E-02 0.  1.
</event>
<event>
 5   0  0.1186302E-04  0.1713507E+04  0.7818609E-02  0.8753698E-01
        1   -1    0    0  501    0  0.00000000000E+00  0.00000000000E+00  0.71354996911E+03  0.71354996913E+03  0.50400001928E-02 0. -1.
       -1   -1    0    0    0  501  0.00000000000E+00  0.00000000000E+00 -0.10286962166E+04  0.10286962166E+04  0.50400001928E-02 0.  1.
    10030    2    1    2    0    0  0.00000000000E+00  0.00000000000E+00 -0.31514624751E+03  0.17422461858E+04  0.17135065260E+04 0.  0.
        3    1    3    3  502    0 -0.14300909416E+03 -0.32182174662E+02 -0.10158512292E+04  0.10263727507E+04  0.10100000352E+00 0.  1.
       -3    1    3    3    0  502  0.14300909416E+03  0.32182174662E+02  0.70070498170E+03  0.71587343501E+03  0.10100000352E+00 0. -1.
</event>
<event>
 5   0  0.2288806E-04  0.1657398E+04  0.7818609E-02  0.8786042E-01
       -2   -1    0    0    0  501  0.00000000000E+00  0.00000000000E+00  0.72330783809E+03  0.72330783810E+03  0.25500000920E-02 0.  1.
        2   -1    0    0  501    0  0.00000000000E+00  0.00000000000E+00 -0.94944668323E+03  0.94944668324E+03  0.25500000920E-02 0. -1.
    10030    2    1    2    0    0  0.00000000000E+00  0.00000000000E+00 -0.22613884514E+03  0.16727545213E+04  0.16573982356E+04 0.  0.
        3    1    3    3  502    0 -0.35616762305E+03 -0.70186502175E+03  0.14870281509E+03  0.80098840309E+03  0.10100000352E+00 0.  1.
       -3    1    3    3    0  502  0.35616762305E+03  0.70186502175E+03 -0.37484166023E+03  0.87176611824E+03  0.10100000352E+00 0. -1.
</event>
<event>
 5   0  0.1215233E-04  0.1712578E+04  0.7818609E-02  0.8754223E-01
       -1   -1    0    0    0  501  0.00000000000E+00  0.00000000000E+00  0.50721376122E+03  0.50721376124E+03  0.50400001928E-02 0.  1.
        1   -1    0    0  501    0  0.00000000000E+00  0.00000000000E+00 -0.14456053052E+04  0.14456053052E+04  0.50400001928E-02 0. -1.
    10030    2    1    2    0    0  0.00000000000E+00  0.00000000000E+00 -0.93839154397E+03  0.19528190664E+04  0.17125780614E+04 0.  0.
        2    1    3    3  502    0 -0.57683569863E+03  0.28046579445E+03  0.17768639040E+03  0.66556212213E+03  0.25500000920E-02 0.  1.
       -2    1    3    3    0  502  0.57683569863E+03 -0.28046579445E+03 -0.11160779344E+04  0.12872569443E+04  0.25500000920E-02 0. -1.
</event>
<event>
 5   0  0.1215233E-04  0.1665883E+04  0.7818609E-02  0.8781066E-01
       -1   -1    0    0    0  501  0.00000000000E+00  0.00000000000E+00  0.66738408266E+03  0.66738408268E+03  0.50400001928E-02 0.  1.
        1   -1    0    0  501    0  0.00000000000E+00  0.00000000000E+00 -0.10395680104E+04  0.10395680104E+04  0.50400001928E-02 0. -1.
    10030    2    1    2    0    0  0.00000000000E+00  0.00000000000E+00 -0.37218392777E+03  0.17069520931E+04  0.16658825205E+04 0.  0.
        2    1    3    3  502    0 -0.38972215613E+03  0.73529553157E+03 -0.22229378432E+03  0.86136949347E+03  0.25500000920E-02 0. -1.
       -2    1    3    3    0  502  0.38972215613E+03 -0.73529553157E+03 -0.14989014346E+03  0.84558259965E+03  0.25500000920E-02 0.  1.
</event>
<event>
 5   0  0.2356829E-04  0.1666685E+04  0.7818609E-02  0.8780597E-01
        2   -1    0    0  501    0  0.00000000000E+00  0.00000000000E+00  0.26025232960E+04  0.26025232960E+04  0.25500000920E-02 0.  1.
       -2   -1    0    0    0  501  0.00000000000E+00  0.00000000000E+00 -0.26684078189E+03  0.26684078190E+03  0.25500000920E-02 0. -1.
    10030    2    1    2    0    0  0.00000000000E+00  0.00000000000E+00  0.23356825141E+04  0.28693640779E+04  0.16666845547E+04 0.  0.
        5    1    3    3  502    0  0.21259379956E+03 -0.32393698788E+03 -0.10230517698E+03  0.40077392002E+03  0.46999998093E+01 0. -1.
       -5    1    3    3    0  502 -0.21259379956E+03  0.32393698788E+03  0.24379876911E+04  0.24685901579E+04  0.46999998093E+01 0.  1.
</event>
<event>
 5   0  0.2242967E-04  0.1694392E+04  0.7818609E-02  0.8764569E-01
       -2   -1    0    0    0  501  0.00000000000E+00  0.00000000000E+00  0.18062660290E+04  0.18062660290E+04  0.25500000920E-02 0.  1.
        2   -1    0    0  501    0  0.00000000000E+00  0.00000000000E+00 -0.39736170911E+03  0.39736170912E+03  0.25500000920E-02 0. -1.
    10030    2    1    2    0    0  0.00000000000E+00  0.00000000000E+00  0.14089043199E+04  0.22036277381E+04  0.16943918749E+04 0.  0.
        4    1    3    3  502    0  0.67231173613E+03 -0.47899510657E+03  0.45666576998E+03  0.94338996234E+03  0.12699999809E+01 0.  1.
       -4    1    3    3    0  502 -0.67231173613E+03  0.47899510657E+03  0.95223854990E+03  0.12602377758E+04  0.12699999809E+01 0. -1.
</event>
<event>
 5   0  0.1215233E-04  0.1705635E+04  0.7818609E-02  0.8758157E-01
       -1   -1    0    0    0  501  0.00000000000E+00  0.00000000000E+00  0.87982064797E+03  0.87982064798E+03  0.50400001928E-02 0.  1.
        1   -1    0    0  501    0  0.00000000000E+00  0.00000000000E+00 -0.82664307610E+03  0.82664307611E+03  0.50400001928E-02 0. -1.
    10030    2    1    2    0    0  0.00000000000E+00  0.00000000000E+00  0.53177571872E+02  0.17064637241E+04  0.17056349514E+04 0.  0.
        2    1    3    3  502    0 -0.46910381458E+03  0.70685345330E+03 -0.60616939873E+02  0.85051431893E+03  0.25500000920E-02 0. -1.
       -2    1    3    3    0  502  0.46910381458E+03 -0.70685345330E+03  0.11379451175E+03  0.85594940517E+03  0.25500000920E-02 0.  1.
</event>
<event>
 5   0  0.1204741E-04  0.1707404E+04  0.7818609E-02  0.8757153E-01
        1   -1    0    0  501    0  0.00000000000E+00  0.00000000000E+00  0.87984618900E+03  0.87984618902E+03  0.50400001928E-02 0. -1.
       -1   -1    0    0    0  501  0.00000000000E+00  0.00000000000E+00 -0.82833450684E+03  0.82833450686E+03  0.50400001928E-02 0.  1.
    10030    2    1    2    0    0  0.00000000000E+00  0.00000000000E+00  0.51511682157E+02  0.17081806959E+04  0.17074038293E+04 0.  0.
        1    1    3    3  502    0 -0.45815569879E+03 -0.62763055012E+03  0.37944209305E+03  0.86475606605E+03  0.50400001928E-02 0. -1.
       -1    1    3    3    0  502  0.45815569879E+03  0.62763055012E+03 -0.32793041089E+03  0.84342462982E+03  0.50400001928E-02 0.  1.
</event>
<event>
 5   0  0.1186302E-04  0.1685104E+04  0.7818609E-02  0.8769906E-01
       -1   -1    0    0    0  501  0.00000000000E+00  0.00000000000E+00  0.34983622196E+03  0.34983622199E+03  0.50400001928E-02 0.  1.
        1   -1    0    0  501    0  0.00000000000E+00  0.00000000000E+00 -0.20292178473E+04  0.20292178473E+04  0.50400001928E-02 0. -1.
    10030    2    1    2    0    0  0.00000000000E+00  0.00000000000E+00 -0.16793816253E+04  0.23790540693E+04  0.16851040387E+04 0.  0.
        3    1    3    3  502    0  0.63629813536E+03 -0.54552211404E+03 -0.71804351743E+03  0.11036558327E+04  0.10100000352E+00 0. -1.
       -3    1    3    3    0  502 -0.63629813536E+03  0.54552211404E+03 -0.96133810792E+03  0.12753982366E+04  0.10100000352E+00 0.  1.
</event>
<event>
 5   0  0.2224454E-04  0.1693696E+04  0.7818609E-02  0.8764968E-01
        2   -1    0    0  501    0  0.00000000000E+00  0.00000000000E+00  0.99901585706E+03  0.99901585707E+03  0.25500000920E-02 0.  1.
       -2   -1    0    0    0  501  0.00000000000E+00  0.00000000000E+00 -0.71785772739E+03  0.71785772739E+03  0.25500000920E-02 0. -1.
    10030    2    1    2    0    0  0.00000000000E+00  0.00000000000E+00  0.28115812968E+03  0.17168735845E+04  0.16936956666E+04 0.  0.
        2    1    3    3  502    0 -0.51721129574E+03 -0.24740120442E+03 -0.49119659080E+03  0.75497613949E+03  0.25500000920E-02 0. -1.
       -2    1    3    3    0  502  0.51721129574E+03  0.24740120442E+03  0.77235472047E+03  0.96189744497E+03  0.25500000920E-02 0.  1.
</event>
<event>
 5   0  0.1204741E-04  0.1697815E+04  0.7818609E-02  0.8762611E-01
        1   -1    0    0  501    0  0.00000000000E+00  0.00000000000E+00  0.61755311608E+03  0.61755311610E+03  0.50400001928E-02 0.  1.
       -1   -1    0    0    0  501  0.00000000000E+00  0.00000000000E+00 -0.11669345592E+04  0.11669345592E+04  0.50400001928E-02 0. -1.
    10030    2    1    2    0    0  0.00000000000E+00  0.00000000000E+00 -0.54938144310E+03  0.17844876753E+04  0.16978151529E+04 0.  0.
        1    1    3    3  502    0 -0.21458828962E+03  0.38859378669E+03 -0.10352256326E+04  0.11263859798E+04  0.50400001928E-02 0. -1.
       -1    1    3    3    0  502  0.21458828962E+03 -0.38859378669E+03  0.48584418950E+03  0.65810169548E+03  0.50400001928E-02 0.  1.
</event>
<event>
 5   0  0.2356829E-04  0.1719634E+04  0.7818609E-02  0.8750245E-01
        2   -1    0    0  501    0  0.00000000000E+00  0.00000000000E+00  0.16589596966E+04  0.16589596966E+04  0.25500000920E-02 0.  1.
       -2   -1    0    0    0  501  0.00000000000E+00  0.00000000000E+00 -0.44563191160E+03  0.44563191161E+03  0.25500000920E-02 0. -1.
    10030    2    1    2    0    0  0.00000000000E+00  0.00000000000E+00  0.12133277850E+04  0.21045916082E+04  0.17196341249E+04 0.  0.
        5    1    3    3  502    0  0.32622332835E+03 -0.22871667632E+03  0.15391539940E+04  0.15898899601E+04  0.46999998093E+01 0.  1.
       -5    1    3    3    0  502 -0.32622332835E+03  0.22871667632E+03 -0.32582620906E+03  0.51470164804E+03  0.46999998093E+01 0. -1.
</event>
<event>
 5   0  0.1186302E-04  0.1703721E+04  0.7818609E-02  0.8759245E-01
        1   -1    0    0  501    0  0.00000000000E+00  0.00000000000E+00  0.12029873530E+04  0.12029873530E+04  0.50400001928E-02 0.  1.
       -1   -1    0    0    0  501  0.00000000000E+00  0.00000000000E+00 -0.60321988241E+03  0.60321988244E+03  0.50400001928E-02 0. -1.
    10030    2    1    2    0    0  0.00000000000E+00  0.00000000000E+00  0.59976747062E+03  0.18062072355E+04  0.17037205049E+04 0.  0.
        3    1    3    3  502    0 -0.36122445119E+02 -0.78070770835E+03  0.65917533133E+03  0.10224096462E+04  0.10100000352E+00 0.  1.
       -3    1    3    3    0  502  0.36122445119E+02  0.78070770835E+03 -0.59407860717E+02  0.78379758932E+03  0.10100000352E+00 0. -1.
</event>
<event>
 5   0  0.2224454E-04  0.1700385E+04  0.7818609E-02  0.8761145E-01
        2   -1    0    0  501    0  0.00000000000E+00  0.00000000000E+00  0.18168716740E+04  0.18168716740E+04  0.25500000920E-02 0. -1.
       -2   -1    0    0    0  501  0.00000000000E+00  0.00000000000E+00 -0.39784165801E+03  0.39784165802E+03  0.25500000920E-02 0.  1.
    10030    2    1    2    0    0  0.00000000000E+00  0.00000000000E+00  0.14190300160E+04  0.22147133320E+04  0.17003849437E+04 0.  0.
        2    1    3    3  502    0 -0.39787060442E+03  0.66990033133E+03  0.26636670353E+03  0.82341890464E+03  0.25500000920E-02 0. -1.
       -2    1    3    3    0  502  0.39787060442E+03 -0.66990033133E+03  0.11526633125E+04  0.13912944274E+04  0.25500000920E-02 0.  1.
</event>
<event>
 5   0  0.8372750E-05  0.1703699E+04  0.7818609E-02  0.8759258E-01
       -3   -1    0    0    0  501  0.00000000000E+00  0.00000000000E+00  0.11972846462E+04  0.11972846504E+04  0.10100000352E+00 0.  1.
        3   -1    0    0  501    0  0.00000000000E+00  0.00000000000E+00 -0.60607740133E+03  0.60607740974E+03  0.10100000352E+00 0. -1.
    10030    2    1    2    0    0  0.00000000000E+00  0.00000000000E+00  0.59120724485E+03  0.18033620602E+04  0.17036985396E+04 0.  0.
        3    1    3    3  502    0 -0.44712587505E+03 -0.62143403662E+03  0.69101382855E+03  0.10313107832E+04  0.10100000352E+00 0. -1.
       -3    1    3    3    0  502  0.44712587505E+03  0.62143403662E+03 -0.99806583701E+02  0.77205127703E+03  0.10100000352E+00 0.  1.
</event>
<event>
 5   0  0.2356829E-04  0.1719902E+04  0.7818609E-02  0.8750094E-01
        2   -1    0    0  501    0  0.00000000000E+00  0.00000000000E+00  0.11703165316E+04  0.11703165316E+04  0.25500000920E-02 0. -1.
       -2   -1    0    0    0  501  0.00000000000E+00  0.00000000000E+00 -0.63189380836E+03  0.63189380836E+03  0.25500000920E-02 0.  1.
    10030    2    1    2    0    0  0.00000000000E+00  0.00000000000E+00  0.53842272322E+03  0.18022103399E+04  0.17199020555E+04 0.  0.
        5    1    3    3  502    0  0.81991094395E+03  0.32984908321E+02  0.53871977768E+03  0.98162266124E+03  0.46999998093E+01 0. -1.
       -5    1    3    3    0  502 -0.81991094395E+03 -0.32984908321E+02 -0.29705446355E+00  0.82058767870E+03  0.46999998093E+01 0.  1.
</event>
<event>
 5   0  0.1204741E-04  0.1712828E+04  0.7818609E-02  0.8754082E-01
       -1   -1    0    0    0  501  0.00000000000E+00  0.00000000000E+00  0.51728922111E+03  0.51728922114E+03  0.50400001928E-02 0.  1.
        1   -1    0    0  501    0  0.00000000000E+00  0.00000000000E+00 -0.14178625664E+04  0.14178625664E+04  0.50400001928E-02 0. -1.
    10030    2    1    2    0    0  0.00000000000E+00  0.00000000000E+00 -0.90057334526E+03  0.19351517875E+04  0.17128280972E+04 0.  0.
        1    1    3    3  502    0  0.81910483686E+03 -0.69696916225E+02 -0.72156702869E+03  0.10938232813E+04  0.50400001928E-02 0. -1.
       -1    1    3    3    0  502 -0.81910483686E+03  0.69696916225E+02 -0.17900631656E+03  0.84132850617E+03  0.50400001928E-02 0.  1.
</event>
<event>
 5   0  0.1126958E-04  0.1744695E+04  0.7818609E-02  0.8736276E-01
        1   -1    0    0  501    0  0.00000000000E+00  0.00000000000E+00  0.14297111459E+04  0.14297111459E+04  0.50400001928E-02 0. -1.
       -1   -1    0    0    0  501  0.00000000000E+00  0.00000000000E+00 -0.53226839523E+03  0.53226839526E+03  0.50400001928E-02 0.  1.
    10030    2    1    2    0    0  0.00000000000E+00  0.00000000000E+00  0.89744275063E+03  0.19619795411E+04  0.17446948814E+04 0.  0.
        4    1    3    3  502    0 -0.11800426926E+02 -0.63842504217E+03  0.11171020044E+04  0.12867184174E+04  0.12699999809E+01 0. -1.
       -4    1    3    3    0  502  0.11800426926E+02  0.63842504217E+03 -0.21965925377E+03  0.67526112373E+03  0.12699999809E+01 0.  1.
</event>
<event>
 5   0  0.2288806E-04  0.1691361E+04  0.7818609E-02  0.8766307E-01
        2   -1    0    0  501    0  0.00000000000E+00  0.00000000000E+00  0.19895639449E+04  0.19895639449E+04  0.25500000920E-02 0.  1.
       -2   -1    0    0    0  501  0.00000000000E+00  0.00000000000E+00 -0.35946340403E+03  0.35946340404E+03  0.25500000920E-02 0. -1.
    10030    2    1    2    0    0  0.00000000000E+00  0.00000000000E+00  0.16301005409E+04  0.23490273489E+04  0.16913609055E+04 0.  0.
        3    1    3    3  502    0  0.87122230022E+02  0.73015498343E+03  0.23495640951E+03  0.77195926535E+03  0.10100000352E+00 0. -1.
       -3    1    3    3    0  502 -0.87122230022E+02 -0.73015498343E+03  0.13951441313E+04  0.15770680836E+04  0.10100000352E+00 0.  1.
</event>
<event>
 5   0  0.1234158E-04  0.1667547E+04  0.7818609E-02  0.8780093E-01
       -1   -1    0    0    0  501  0.00000000000E+00  0.00000000000E+00  0.64521449027E+03  0.64521449029E+03  0.50400001928E-02 0. -1.
        1   -1    0    0  501    0  0.00000000000E+00  0.00000000000E+00 -0.10774371332E+04  0.10774371332E+04  0.50400001928E-02 0.  1.
    10030    2    1    2    0    0  0.00000000000E+00  0.00000000000E+00 -0.43222264290E+03  0.17226516235E+04  0.16675467618E+04 0.  0.
        5    1    3    3  502    0  0.30970601536E+03  0.76390311042E+03 -0.86711571840E+02  0.82885871218E+03  0.46999998093E+01 0. -1.
       -5    1    3    3    0  502 -0.30970601536E+03 -0.76390311042E+03 -0.34551107106E+03  0.89379291130E+03  0.46999998093E+01 0.  1.
</event>
<event>
 5   0  0.2234723E-04  0.1700571E+04  0.7818609E-02  0.8761039E-01
       -2   -1    0    0    0  501  0.00000000000E+00  0.00000000000E+00  0.10253379269E+04  0.10253379269E+04  0.25500000920E-02 0. -1.
        2   -1    0    0  501    0  0.00000000000E+00  0.00000000000E+00 -0.70511912322E+03  0.70511912323E+03  0.25500000920E-02 0.  1.
    10030    2    1    2    0    0  0.00000000000E+00  0.00000000000E+00  0.32021880368E+03  0.17304570501E+04  0.17005709395E+04 0.  0.
        1    1    3    3  502    0 -0.74467131412E+03  0.39186003532E+03  0.28430234477E+03  0.88821026600E+03  0.50400001928E-02 0. -1.
       -1    1    3    3    0  502  0.74467131412E+03 -0.39186003532E+03  0.35916458912E+02  0.84224678414E+03  0.50400001928E-02 0.  1.
</event>
<event>
 5   0  0.1204741E-04  0.1697591E+04  0.7818609E-02  0.8762739E-01
       -1   -1    0    0    0  501  0.00000000000E+00  0.00000000000E+00  0.48417608396E+03  0.48417608398E+03  0.50400001928E-02 0. -1.
        1   -1    0    0  501    0  0.00000000000E+00  0.00000000000E+00 -0.14880001153E+04  0.14880001153E+04  0.50400001928E-02 0.  1.
    10030    2    1    2    0    0  0.00000000000E+00  0.00000000000E+00 -0.10038240313E+04  0.19721761993E+04  0.16975913157E+04 0.  0.
        1    1    3    3  502    0 -0.17820848021E+03 -0.12972987162E+03  0.45034436141E+03  0.50139619653E+03  0.50400001928E-02 0. -1.
       -1    1    3    3    0  502  0.17820848021E+03  0.12972987162E+03 -0.14541683927E+04  0.14707800027E+04  0.50400001928E-02 0.  1.
</event>
<event>
 5   0  0.2224454E-04  0.1691579E+04  0.7818609E-02  0.8766182E-01
        2   -1    0    0  501    0  0.00000000000E+00  0.00000000000E+00  0.16740157034E+04  0.16740157034E+04  0.25500000920E-02 0. -1.
       -2   -1    0    0    0  501  0.00000000000E+00  0.00000000000E+00 -0.42733151502E+03  0.42733151503E+03  0.25500000920E-02 0.  1.
    10030    2    1    2    0    0  0.00000000000E+00  0.00000000000E+00  0.12466841884E+04  0.21013472184E+04  0.16915787498E+04 0.  0.
        2    1    3    3  502    0  0.81340826117E+03  0.77625083394E+02  0.89465434443E+03  0.12116373422E+04  0.25500000920E-02 0. -1.
       -2    1    3    3    0  502 -0.81340826117E+03 -0.77625083394E+02  0.35202984397E+03  0.88970987629E+03  0.25500000920E-02 0.  1.
</event>
<event>
 5   0  0.1186302E-04  0.1713977E+04  0.7818609E-02  0.8753433E-01
       -1   -1    0    0    0  501  0.00000000000E+00  0.00000000000E+00  0.42418334521E+03  0.42418334524E+03  0.50400001928E-02 0.  1.
        1   -1    0    0  501    0  0.00000000000E+00  0.00000000000E+00 -0.17313963874E+04  0.17313963874E+04  0.50400001928E-02 0. -1.
    10030    2    1    2    0    0  0.00000000000E+00  0.00000000000E+00 -0.13072130422E+04  0.21555797327E+04  0.17139772595E+04 0.  0.
        3    1    3    3  502    0  0.44174564062E+03  0.18289313198E+03  0.24086349911E+03  0.53535440984E+03  0.10100000352E+00 0.  1.
       -3    1    3    3    0  502 -0.44174564062E+03 -0.18289313198E+03 -0.15480765413E+04  0.16202253228E+04  0.10100000352E+00 0. -1.
</event>
<event>
 5   0  0.2242967E-04  0.1694467E+04  0.7818609E-02  0.8764526E-01
        2   -1    0    0  501    0  0.00000000000E+00  0.00000000000E+00  0.10193135258E+04  0.10193135258E+04  0.25500000920E-02 0. -1.
       -2   -1    0    0    0  501  0.00000000000E+00  0.00000000000E+00 -0.70420429797E+03  0.70420429797E+03  0.25500000920E-02 0.  1.
    10030    2    1    2    0    0  0.00000000000E+00  0.00000000000E+00  0.31510922779E+03  0.17235178237E+04  0.16944674276E+04 0.  0.
        4    1    3    3  502    0  0.81776721928E+03  0.70602913925E+01 -0.67623484480E+02  0.82058980081E+03  0.12699999809E+01 0.  1.
       -4    1    3    3    0  502 -0.81776721928E+03 -0.70602913925E+01  0.38273271227E+03  0.90292802292E+03  0.12699999809E+01 0. -1.
</event>
<event>
 5   0  0.2234723E-04  0.1692155E+04  0.7818609E-02  0.8765851E-01
        2   -1    0    0  501    0  0.00000000000E+00  0.00000000000E+00  0.64623121787E+03  0.64623121787E+03  0.25500000920E-02 0. -1.
       -2   -1    0    0    0  501  0.00000000000E+00  0.00000000000E+00 -0.11077259668E+04  0.11077259668E+04  0.25500000920E-02 0.  1.
    10030    2    1    2    0    0  0.00000000000E+00  0.00000000000E+00 -0.46149474893E+03  0.17539571847E+04  0.16921549581E+04 0.  0.
        1    1    3    3  502    0 -0.21265990622E+03 -0.74933942457E+03  0.11163995582E+03  0.78689090011E+03  0.50400001928E-02 0. -1.
       -1    1    3    3    0  502  0.21265990622E+03  0.74933942457E+03 -0.57313470475E+03  0.96706628456E+03  0.50400001928E-02 0.  1.
</event>
<event>
 5   0  0.1186302E-04  0.1702852E+04  0.7818609E-02  0.8759739E-01
       -1   -1    0    0    0  501  0.00000000000E+00  0.00000000000E+00  0.10321852667E+04  0.10321852667E+04  0.50400001928E-02 0. -1.
        1   -1    0    0  501    0  0.00000000000E+00  0.00000000000E+00 -0.70232193829E+03  0.70232193831E+03  0.50400001928E-02 0.  1.
    10030    2    1    2    0    0  0.00000000000E+00  0.00000000000E+00  0.32986332838E+03  0.17345072050E+04  0.17028521453E+04 0.  0.
        3    1    3    3  502    0 -0.16008490905E+03 -0.61541129144E+03 -0.41178078525E+03  0.75757617507E+03  0.10100000352E+00 0.  1.
       -3    1    3    3    0  502  0.16008490905E+03  0.61541129144E+03  0.74164411364E+03  0.97693102992E+03  0.10100000352E+00 0. -1.
</event>
<event>
 5   0  0.1234158E-04  0.1692986E+04  0.7818609E-02  0.8765375E-01
        1   -1    0    0  501    0  0.00000000000E+00  0.00000000000E+00  0.92586184186E+03  0.92586184188E+03  0.50400001928E-02 0. -1.
       -1   -1    0    0    0  501  0.00000000000E+00  0.00000000000E+00 -0.77392758798E+03  0.77392758800E+03  0.50400001928E-02 0.  1.
    10030    2    1    2    0    0  0.00000000000E+00  0.00000000000E+00  0.15193425388E+03  0.16997894299E+04  0.16929855547E+04 0.  0.
        5    1    3    3  502    0 -0.83940528200E+03  0.10887730096E+03  0.84512383103E+02  0.85065852550E+03  0.46999998093E+01 0.  1.
       -5    1    3    3    0  502  0.83940528200E+03 -0.10887730096E+03  0.67421870781E+02  0.84913090437E+03  0.46999998093E+01 0. -1.
</event>
<event>
 5   0  0.1186302E-04  0.1713866E+04  0.7818609E-02  0.8753496E-01
        1   -1    0    0  501    0  0.00000000000E+00  0.00000000000E+00  0.11322603443E+04  0.11322603443E+04  0.50400001928E-02 0. -1.
       -1   -1    0    0    0  501  0.00000000000E+00  0.00000000000E+00 -0.64855567829E+03  0.64855567831E+03  0.50400001928E-02 0.  1.
    10030    2    1    2    0    0  0.00000000000E+00  0.00000000000E+00  0.48370466603E+03  0.17808160226E+04  0.17138656606E+04 0.  0.
        3    1    3    3  502    0 -0.39106201359E+03  0.23016562163E+03 -0.51347508771E+03  0.68524622418E+03  0.10100000352E+00 0.  1.
       -3    1    3    3    0  502  0.39106201359E+03 -0.23016562163E+03  0.99717975374E+03  0.10955697985E+04  0.10100000352E+00 0. -1.
</event>
<event>
 5   0  0.1234158E-04  0.1743288E+04  0.7818609E-02  0.8737053E-01
       -1   -1    0    0    0  501  0.00000000000E+00  0.00000000000E+00  0.39403665123E+03  0.39403665127E+03  0.50400001928E-02 0. -1.
        1   -1    0    0  501    0  0.00000000000E+00  0.00000000000E+00 -0.19281547003E+04  0.19281547003E+04  0.50400001928E-02 0.  1.
    10030    2    1    2    0    0  0.00000000000E+00  0.00000000000E+00 -0.15341180491E+04  0.23221913516E+04  0.17432884113E+04 0.  0.
        5    1    3    3  502    0  0.23162859162E+03  0.82540156400E+03 -0.97684283982E+03  0.12996859505E+04  0.46999998093E+01 0. -1.
       -5    1    3    3    0  502 -0.23162859162E+03 -0.82540156400E+03 -0.55727520925E+03  0.10225054010E+04  0.46999998093E+01 0.  1.
</event>
<event>
 5   0  0.2224454E-04  0.1705802E+04  0.7818609E-02  0.8758062E-01
       -2   -1    0    0    0  501  0.00000000000E+00  0.00000000000E+00  0.79019474666E+03  0.79019474666E+03  0.25500000920E-02 0.  1.
        2   -1    0    0  501    0  0.00000000000E+00  0.00000000000E+00 -0.92058293944E+03  0.92058293944E+03  0.25500000920E-02 0. -1.
    10030    2    1    2    0    0  0.00000000000E+00  0.00000000000E+00 -0.13038819278E+03  0.17107776861E+04  0.17058016328E+04 0.  0.
        2    1    3    3  502    0  0.27128165033E+03  0.26606791550E+03 -0.83100124481E+03  0.91375540401E+03  0.25500000920E-02 0. -1.
       -2    1    3    3    0  502 -0.27128165033E+03 -0.26606791550E+03  0.70061305204E+03  0.79702228210E+03  0.25500000920E-02 0.  1.
</event>
<event>
 5   0  0.1186302E-04  0.1695998E+04  0.7818609E-02  0.8763650E-01
        1   -1    0    0  501    0  0.00000000000E+00  0.00000000000E+00  0.11864689861E+04  0.11864689861E+04  0.50400001928E-02 0. -1.
       -1   -1    0    0    0  501  0.00000000000E+00  0.00000000000E+00 -0.60608625766E+03  0.60608625768E+03  0.50400001928E-02 0.  1.
    10030    2    1    2    0    0  0.00000000000E+00  0.00000000000E+00  0.58038272846E+03  0.17925552438E+04  0.16959982873E+04 0.  0.
        3    1    3    3  502    0 -0.46936521869E+03  0.19515614941E+03 -0.42721021572E+03  0.66400166399E+03  0.10100000352E+00 0.  1.
       -3    1    3    3    0  502  0.46936521869E+03 -0.19515614941E+03  0.10075929442E+04  0.11285535798E+04  0.10100000352E+00 0. -1.
</event>
<event>
 5   0  0.2234723E-04  0.1668046E+04  0.7818609E-02  0.8779802E-01
        2   -1    0    0  501    0  0.00000000000E+00  0.00000000000E+00  0.12142447423E+04  0.12142447424E+04  0.25500000920E-02 0.  1.
       -2   -1    0    0    0  501  0.00000000000E+00  0.00000000000E+00 -0.57286144197E+03  0.57286144197E+03  0.25500000920E-02 0. -1.
    10030    2    1    2    0    0  0.00000000000E+00  0.00000000000E+00  0.64138330038E+03  0.17871061843E+04  0.16680455557E+04 0.  0.
        1    1    3    3  502    0  0.33579218817E+03  0.46319681822E+03  0.97087409145E+03  0.11269002562E+04  0.50400001928E-02 0.  1.
       -1    1    3    3    0  502 -0.33579218817E+03 -0.46319681822E+03 -0.32949079108E+03  0.66020592808E+03  0.50400001928E-02 0. -1.
</event>
<event>
 5   0  0.2242967E-04  0.1692250E+04  0.7818609E-02  0.8765797E-01
       -2   -1    0    0    0  501  0.00000000000E+00  0.00000000000E+00  0.86044829792E+03  0.86044829792E+03  0.25500000920E-02 0.  1.
        2   -1    0    0  501    0  0.00000000000E+00  0.00000000000E+00 -0.83203973478E+03  0.83203973478E+03  0.25500000920E-02 0. -1.
    10030    2    1    2    0    0  0.00000000000E+00  0.00000000000E+00  0.28408563143E+02  0.16924880327E+04  0.16922495958E+04 0.  0.
        4    1    3    3  502    0  0.40145665669E+03 -0.70986573901E+03 -0.21132415612E+03  0.84245850134E+03  0.12699999809E+01 0.  1.
       -4    1    3    3    0  502 -0.40145665669E+03  0.70986573901E+03  0.23973271926E+03  0.85002953137E+03  0.12699999809E+01 0. -1.
</event>
<event>
 5   0  0.1186302E-04  0.1667209E+04  0.7818609E-02  0.8780290E-01
        1   -1    0    0  501    0  0.00000000000E+00  0.00000000000E+00  0.10101473507E+04  0.10101473507E+04  0.50400001928E-02 0. -1.
       -1   -1    0    0    0  501  0.00000000000E+00  0.00000000000E+00 -0.68791616266E+03  0.68791616267E+03  0.50400001928E-02 0.  1.
    10030    2    1    2    0    0  0.00000000000E+00  0.00000000000E+00  0.32223118808E+03  0.16980635134E+04  0.16672092721E+04 0.  0.
        3    1    3    3  502    0 -0.14559410401E+03  0.64816453436E+03 -0.35177275056E+03  0.75170405411E+03  0.10100000352E+00 0.  1.
       -3    1    3    3    0  502  0.14559410401E+03 -0.64816453436E+03  0.67400393864E+03  0.94635945931E+03  0.10100000352E+00 0. -1.
</event>
<event>
 5   0  0.2288806E-04  0.1723363E+04  0.7818609E-02  0.8748151E-01
        2   -1    0    0  501    0  0.00000000000E+00  0.00000000000E+00  0.36251626036E+03  0.36251626037E+03  0.25500000920E-02 0. -1.
       -2   -1    0    0    0  501  0.00000000000E+00  0.00000000000E+00 -0.20481703741E+04  0.20481703741E+04  0.25500000920E-02 0.  1.
    10030    2    1    2    0    0  0.00000000000E+00  0.00000000000E+00 -0.16856541137E+04  0.24106866345E+04  0.17233630663E+04 0.  0.
        3    1    3    3  502    0 -0.42687996088E+03  0.24225779946E+03  0.14785423005E+03  0.51261703634E+03  0.10100000352E+00 0. -1.
       -3    1    3    3    0  502  0.42687996088E+03 -0.24225779946E+03 -0.18335083438E+04  0.18980695981E+04  0.10100000352E+00 0.  1.
</event>
<event>
 5   0  0.2234723E-04  0.1638065E+04  0.7818609E-02  0.8797498E-01
       -2   -1    0    0    0  501  0.00000000000E+00  0.00000000000E+00  0.51099018178E+03  0.51099018179E+03  0.25500000920E-02 0. -1.
        2   -1    0    0  501    0  0.00000000000E+00  0.00000000000E+00 -0.13127740233E+04  0.13127740233E+04  0.25500000920E-02 0.  1.
    10030    2    1    2    0    0  0.00000000000E+00  0.00000000000E+00 -0.80178384150E+03  0.18237642051E+04  0.16380654893E+04 0.  0.
        1    1    3    3  502    0 -0.39750542312E+03  0.23465165383E+03 -0.11541575116E+04  0.12430412389E+04  0.50400001928E-02 0.  1.
       -1    1    3    3    0  502  0.39750542312E+03 -0.23465165383E+03  0.35237367008E+03  0.58072296617E+03  0.50400001928E-02 0. -1.
</event>
<event>
 5   0  0.1215233E-04  0.1673975E+04  0.7818609E-02  0.8776348E-01
       -1   -1    0    0    0  501  0.00000000000E+00  0.00000000000E+00  0.14856389051E+04  0.14856389051E+04  0.50400001928E-02 0. -1.
        1   -1    0    0  501    0  0.00000000000E+00  0.00000000000E+00 -0.47154648238E+03  0.47154648241E+03  0.50400001928E-02 0.  1.
    10030    2    1    2    0    0  0.00000000000E+00  0.00000000000E+00  0.10140924227E+04  0.19571853875E+04  0.16739746711E+04 0.  0.
        2    1    3    3  502    0  0.57997260125E+03 -0.34749168057E+03 -0.69812348037E+02  0.67970026497E+03  0.25500000920E-02 0.  1.
       -2    1    3    3    0  502 -0.57997260125E+03  0.34749168057E+03  0.10839047708E+04  0.12774851226E+04  0.25500000920E-02 0. -1.
</event>
<event>
 5   0  0.1234158E-04  0.1675734E+04  0.7818609E-02  0.8775326E-01
       -1   -1    0    0    0  501  0.00000000000E+00  0.00000000000E+00  0.40557218136E+03  0.40557218139E+03  0.50400001928E-02 0. -1.
        1   -1    0    0  501    0  0.00000000000E+00  0.00000000000E+00 -0.17309409443E+04  0.17309409443E+04  0.50400001928E-02 0.  1.
    10030    2    1    2    0    0  0.00000000000E+00  0.00000000000E+00 -0.13253687629E+04  0.21365131257E+04  0.16757344594E+04 0.  0.
        5    1    3    3  502    0 -0.10172142463E+03  0.55301640498E+03  0.12926159024E+03  0.57697923803E+03  0.46999998093E+01 0. -1.
       -5    1    3    3    0  502  0.10172142463E+03 -0.55301640498E+03 -0.14546303532E+04  0.15595338877E+04  0.46999998093E+01 0.  1.
</event>
<event>
 5   0  0.1204741E-04  0.1699986E+04  0.7818609E-02  0.8761372E-01
       -1   -1    0    0    0  501  0.00000000000E+00  0.00000000000E+00  0.52551463802E+03  0.52551463804E+03  0.50400001928E-02 0. -1.
        1   -1    0    0  501    0  0.00000000000E+00  0.00000000000E+00 -0.13748206764E+04  0.13748206764E+04  0.50400001928E-02 0.  1.
    10030    2    1    2    0    0  0.00000000000E+00  0.00000000000E+00 -0.84930603839E+03  0.19003353145E+04  0.16999863413E+04 0.  0.
        1    1    3    3  502    0  0.49643343912E+03  0.60029138401E+03 -0.80487514150E+03  0.11200981647E+04  0.50400001928E-02 0.  1.
       -1    1    3    3    0  502 -0.49643343912E+03 -0.60029138401E+03 -0.44430896881E+02  0.78023714973E+03  0.50400001928E-02 0. -1.
</event>
<event>
 5   0  0.2356829E-04  0.1672426E+04  0.7818609E-02  0.8777249E-01
        2   -1    0    0  501    0  0.00000000000E+00  0.00000000000E+00  0.16606042123E+04  0.16606042123E+04  0.25500000920E-02 0. -1.
       -2   -1    0    0    0  501  0.00000000000E+00  0.00000000000E+00 -0.42108296776E+03  0.42108296777E+03  0.25500000920E-02 0.  1.
    10030    2    1    2    0    0  0.00000000000E+00  0.00000000000E+00  0.12395212445E+04  0.20816871800E+04  0.16724259625E+04 0.  0.
        5    1    3    3  502    0 -0.17920147287E+03 -0.79265799066E+03  0.86497250852E+03  0.11868527240E+04  0.46999998093E+01 0. -1.
       -5    1    3    3    0  502  0.17920147287E+03  0.79265799066E+03  0.37454873600E+03  0.89483445602E+03  0.46999998093E+01 0.  1.
</event>
<event>
 5   0  0.2288806E-04  0.1698554E+04  0.7818609E-02  0.8762190E-01
       -2   -1    0    0    0  501  0.00000000000E+00  0.00000000000E+00  0.53135757511E+03  0.53135757511E+03  0.25500000920E-02 0.  1.
        2   -1    0    0  501    0  0.00000000000E+00  0.00000000000E+00 -0.13574122336E+04  0.13574122336E+04  0.25500000920E-02 0. -1.
    10030    2    1    2    0    0  0.00000000000E+00  0.00000000000E+00 -0.82605465851E+03  0.18887698087E+04  0.16985538236E+04 0.  0.
        3    1    3    3  502    0  0.57128418689E+03  0.31806190292E+03  0.18964734177E+03  0.68080475962E+03  0.10100000352E+00 0. -1.
       -3    1    3    3    0  502 -0.57128418689E+03 -0.31806190292E+03 -0.10157020003E+04  0.12079650491E+04  0.10100000352E+00 0.  1.
</event>
<event>
 5   0  0.2242967E-04  0.1702841E+04  0.7818609E-02  0.8759746E-01
        2   -1    0    0  501    0  0.00000000000E+00  0.00000000000E+00  0.12265204837E+04  0.12265204837E+04  0.25500000920E-02 0.  1.
       -2   -1    0    0    0  501  0.00000000000E+00  0.00000000000E+00 -0.59103521562E+03  0.59103521563E+03  0.25500000920E-02 0. -1.
    10030    2    1    2    0    0  0.00000000000E+00  0.00000000000E+00  0.63548526806E+03  0.18175556993E+04  0.17028409186E+04 0.  0.
        4    1    3    3  502    0 -0.23061912010E+02  0.45253615783E+03  0.10871314433E+04  0.11777848759E+04  0.12699999809E+01 0.  1.
       -4    1    3    3    0  502  0.23061912010E+02 -0.45253615783E+03 -0.45164617528E+03  0.63977082340E+03  0.12699999809E+01 0. -1.
</event>
<event>
 5   0  0.2288806E-04  0.1724443E+04  0.7818609E-02  0.8747545E-01
        2   -1    0    0  501    0  0.00000000000E+00  0.00000000000E+00  0.91153421551E+03  0.91153421551E+03  0.25500000920E-02 0.  1.
       -2   -1    0    0    0  501  0.00000000000E+00  0.00000000000E+00 -0.81557656729E+03  0.81557656729E+03  0.25500000920E-02 0. -1.
    10030    2    1    2    0    0  0.00000000000E+00  0.00000000000E+00  0.95957648225E+02  0.17271107828E+04  0.17244430364E+04 0.  0.
        3    1    3    3  502    0  0.65039308036E+03 -0.17376538566E+03  0.58753328431E+03  0.89353284138E+03  0.10100000352E+00 0.  1.
       -3    1    3    3    0  502 -0.65039308036E+03  0.17376538566E+03 -0.49157563609E+03  0.83357794143E+03  0.10100000352E+00 0. -1.
</event>
<event>
 5   0  0.1234158E-04  0.1902693E+04  0.7818609E-02  0.8653517E-01
        1   -1    0    0  501    0  0.00000000000E+00  0.00000000000E+00  0.93162524894E+03  0.93162524895E+03  0.50400001928E-02 0.  1.
       -1   -1    0    0    0  501  0.00000000000E+00  0.00000000000E+00 -0.97148548087E+03  0.97148548089E+03  0.50400001928E-02 0. -1.
    10030    2    1    2    0    0  0.00000000000E+00  0.00000000000E+00 -0.39860231934E+02  0.19031107298E+04  0.19026932522E+04 0.  0.
        5    1    3    3  502    0 -0.61106475807E+03 -0.21812429260E+03 -0.71582695447E+03  0.96613076978E+03  0.46999998093E+01 0. -1.
       -5    1    3    3    0  502  0.61106475807E+03  0.21812429260E+03  0.67596672254E+03  0.93697996006E+03  0.46999998093E+01 0.  1.
</event>
<event>
 5   0  0.1126958E-04  0.1680837E+04  0.7818609E-02  0.8772370E-01
       -1   -1    0    0    0  501  0.00000000000E+00  0.00000000000E+00  0.46548787351E+03  0.46548787354E+03  0.50400001928E-02 0. -1.
        1   -1    0    0  501    0  0.00000000000E+00  0.00000000000E+00 -0.15173397029E+04  0.15173397029E+04  0.50400001928E-02 0.  1.
    10030    2    1    2    0    0  0.00000000000E+00  0.00000000000E+00 -0.10518518294E+04  0.19828275764E+04  0.16808369721E+04 0.  0.
        4    1    3    3  502    0 -0.34449222602E+03  0.11925279237E+03 -0.14192114132E+04  0.14652845357E+04  0.12699999809E+01 0.  1.
       -4    1    3    3    0  502  0.34449222602E+03 -0.11925279237E+03  0.36735958384E+03  0.51754304073E+03  0.12699999809E+01 0. -1.
</event>
<event>
 5   0  0.1234158E-04  0.1757673E+04  0.7818609E-02  0.8729138E-01
        1   -1    0    0  501    0  0.00000000000E+00  0.00000000000E+00  0.57988457010E+03  0.57988457013E+03  0.50400001928E-02 0. -1.
       -1   -1    0    0    0  501  0.00000000000E+00  0.00000000000E+00 -0.13319094268E+04  0.13319094268E+04  0.50400001928E-02 0.  1.
    10030    2    1    2    0    0  0.00000000000E+00  0.00000000000E+00 -0.75202485668E+03  0.19117939969E+04  0.17576731498E+04 0.  0.
        5    1    3    3  502    0 -0.61692437500E+03 -0.34764041138E+03  0.19008753287E+03  0.73321545281E+03  0.46999998093E+01 0. -1.
       -5    1    3    3    0  502  0.61692437500E+03  0.34764041138E+03 -0.94211238954E+03  0.11785785441E+04  0.46999998093E+01 0.  1.
</event>
<event>
 5   0  0.1126958E-04  0.1718483E+04  0.7818609E-02  0.8750892E-01
        1   -1    0    0  501    0  0.00000000000E+00  0.00000000000E+00  0.21938652554E+04  0.21938652554E+04  0.50400001928E-02 0. -1.
       -1   -1    0    0    0  501  0.00000000000E+00  0.00000000000E+00 -0.33652756721E+03  0.33652756724E+03  0.50400001928E-02 0.  1.
    10030    2    1    2    0    0  0.00000000000E+00  0.00000000000E+00  0.18573376882E+04  0.25303928227E+04  0.17184832117E+04 0.  0.
        4    1    3    3  502    0 -0.50499227143E+03  0.54600189307E+03  0.15622691451E+04  0.17302663830E+04  0.12699999809E+01 0. -1.
       -4    1    3    3    0  502  0.50499227143E+03 -0.54600189307E+03  0.29506854309E+03  0.80012643967E+03  0.12699999809E+01 0.  1.
</event>
<event>
 5   0  0.2288806E-04  0.1698599E+04  0.7818609E-02  0.8762164E-01
        2   -1    0    0  501    0  0.00000000000E+00  0.00000000000E+00  0.54444993025E+03  0.54444993026E+03  0.25500000920E-02 0.  1.
       -2   -1    0    0    0  501  0.00000000000E+00  0.00000000000E+00 -0.13248417586E+04  0.13248417586E+04  0.25500000920E-02 0. -1.
    10030    2    1    2    0    0  0.00000000000E+00  0.00000000000E+00 -0.78039182836E+03  0.18692916889E+04  0.16985994267E+04 0.  0.
        3    1    3    3  502    0 -0.69073083281E+03  0.29125367754E+03 -0.82952746382E+03  0.11180579643E+04  0.10100000352E+00 0. -1.
       -3    1    3    3    0  502  0.69073083281E+03 -0.29125367754E+03  0.49135635458E+02  0.75123372459E+03  0.10100000352E+00 0.  1.
</event>
<event>
 5   0  0.1186302E-04  0.1697311E+04  0.7818609E-02  0.8762899E-01
        1   -1    0    0  501    0  0.00000000000E+00  0.00000000000E+00  0.52077210651E+03  0.52077210654E+03  0.50400001928E-02 0.  1.
       -1   -1    0    0    0  501  0.00000000000E+00  0.00000000000E+00 -0.13829776890E+04  0.13829776890E+04  0.50400001928E-02 0. -1.
    10030    2    1    2    0    0  0.00000000000E+00  0.00000000000E+00 -0.86220558248E+03  0.19037497955E+04  0.16973110550E+04 0.  0.
        3    1    3    3  502    0  0.20017791905E+03 -0.53014039139E+03  0.27747445881E+03  0.63096126613E+03  0.10100000352E+00 0.  1.
       -3    1    3    3    0  502 -0.20017791905E+03  0.53014039139E+03 -0.11396800413E+04  0.12727885294E+04  0.10100000352E+00 0. -1.
</event>
<event>
 5   0  0.2356829E-04  0.1704744E+04  0.7818609E-02  0.8758663E-01
       -2   -1    0    0    0  501  0.00000000000E+00  0.00000000000E+00  0.36293522842E+03  0.36293522842E+03  0.25500000920E-02 0. -1.
        2   -1    0    0  501    0  0.00000000000E+00  0.00000000000E+00 -0.20018400036E+04  0.20018400036E+04  0.25500000920E-02 0.  1.
    10030    2    1    2    0    0  0.00000000000E+00  0.00000000000E+00 -0.16389047752E+04  0.23647752320E+04  0.17047442729E+04 0.  0.
        5    1    3    3  502    0  0.57403626215E+03  0.51368828700E+03 -0.13255764490E+04  0.15331563190E+04  0.46999998093E+01 0.  1.
       -5    1    3    3    0  502 -0.57403626215E+03 -0.51368828700E+03 -0.31332832619E+03  0.83161891300E+03  0.46999998093E+01 0. -1.
</event>
<event>
 5   0  0.2288806E-04  0.1698467E+04  0.7818609E-02  0.8762239E-01
       -2   -1    0    0    0  501  0.00000000000E+00  0.00000000000E+00  0.11530748022E+04  0.11530748022E+04  0.25500000920E-02 0. -1.
        2   -1    0    0  501    0  0.00000000000E+00  0.00000000000E+00 -0.62545628932E+03  0.62545628932E+03  0.25500000920E-02 0.  1.
    10030    2    1    2    0    0  0.00000000000E+00  0.00000000000E+00  0.52761851288E+03  0.17785310915E+04  0.16984674116E+04 0.  0.
        3    1    3    3  502    0  0.40095309563E+03  0.42612680629E+03 -0.38071332739E+03  0.69806166475E+03  0.10100000352E+00 0.  1.
       -3    1    3    3    0  502 -0.40095309563E+03 -0.42612680629E+03  0.90833184027E+03  0.10804694268E+04  0.10100000352E+00 0. -1.
</event>
<event>
 5   0  0.1186302E-04  0.1715570E+04  0.7818609E-02  0.8752534E-01
        1   -1    0    0  501    0  0.00000000000E+00  0.00000000000E+00  0.12721088550E+04  0.12721088550E+04  0.50400001928E-02 0.  1.
       -1   -1    0    0    0  501  0.00000000000E+00  0.00000000000E+00 -0.57840600889E+03  0.57840600891E+03  0.50400001928E-02 0. -1.
    10030    2    1    2    0    0  0.00000000000E+00  0.00000000000E+00  0.69370284610E+03  0.18505148639E+04  0.17155703491E+04 0.  0.
        3    1    3    3  502    0  0.40431557922E+03  0.55219306386E+03  0.90464118184E+03  0.11343561810E+04  0.10100000352E+00 0.  1.
       -3    1    3    3    0  502 -0.40431557922E+03 -0.55219306386E+03 -0.21093833574E+03  0.71615868287E+03  0.10100000352E+00 0. -1.
</event>
<event>
 5   0  0.2242967E-04  0.1711241E+04  0.7818609E-02  0.8754979E-01
       -2   -1    0    0    0  501  0.00000000000E+00  0.00000000000E+00  0.48565847628E+03  0.48565847629E+03  0.25500000920E-02 0.  1.
        2   -1    0    0  501    0  0.00000000000E+00  0.00000000000E+00 -0.15074105892E+04  0.15074105892E+04  0.25500000920E-02 0. -1.
    10030    2    1    2    0    0  0.00000000000E+00  0.00000000000E+00 -0.10217521129E+04  0.19930690655E+04  0.17112413388E+04 0.  0.
        4    1    3    3  502    0  0.37681676700E+03 -0.73553830780E+03 -0.76889578599E+03  0.11288090276E+04  0.12699999809E+01 0. -1.
       -4    1    3    3    0  502 -0.37681676700E+03  0.73553830780E+03 -0.25285632690E+03  0.86426003789E+03  0.12699999809E+01 0.  1.
</event>
<event>
 5   0  0.2356829E-04  0.1691507E+04  0.7818609E-02  0.8766223E-01
        2   -1    0    0  501    0  0.00000000000E+00  0.00000000000E+00  0.11050015180E+04  0.11050015180E+04  0.25500000920E-02 0. -1.
       -2   -1    0    0    0  501  0.00000000000E+00  0.00000000000E+00 -0.64732883644E+03  0.64732883644E+03  0.25500000920E-02 0.  1.
    10030    2    1    2    0    0  0.00000000000E+00  0.00000000000E+00  0.45767268161E+03  0.17523303545E+04  0.16915074306E+04 0.  0.
        5    1    3    3  502    0  0.41832150354E+03 -0.55186427806E+03  0.73181514267E+03  0.10075329051E+04  0.46999998093E+01 0. -1.
       -5    1    3    3    0  502 -0.41832150354E+03  0.55186427806E+03 -0.27414246107E+03  0.74479744943E+03  0.46999998093E+01 0.  1.
</event>
<event>
 5   0  0.1215233E-04  0.1708401E+04  0.7818609E-02  0.8756587E-01
       -1   -1    0    0    0  501  0.00000000000E+00  0.00000000000E+00  0.10160291646E+04  0.10160291646E+04  0.50400001928E-02 0.  1.
        1   -1    0    0  501    0  0.00000000000E+00  0.00000000000E+00 -0.71814722604E+03  0.71814722606E+03  0.50400001928E-02 0. -1.
    10030    2    1    2    0    0  0.00000000000E+00  0.00000000000E+00  0.29788193858E+03  0.17341763907E+04  0.17084010374E+04 0.  0.
        2    1    3    3  502    0 -0.33514451205E+03 -0.45781935215E+03 -0.49923675630E+03  0.75574978797E+03  0.25500000920E-02 0. -1.
       -2    1    3    3    0  502  0.33514451205E+03  0.45781935215E+03  0.79711869489E+03  0.97842660272E+03  0.25500000920E-02 0.  1.
</event>
<event>
 5   0  0.1126958E-04  0.1713196E+04  0.7818609E-02  0.8753874E-01
        1   -1    0    0  501    0  0.00000000000E+00  0.00000000000E+00  0.56766337540E+03  0.56766337542E+03  0.50400001928E-02 0.  1.
       -1   -1    0    0    0  501  0.00000000000E+00  0.00000000000E+00 -0.12925966038E+04  0.12925966038E+04  0.50400001928E-02 0. -1.
    10030    2    1    2    0    0  0.00000000000E+00  0.00000000000E+00 -0.72493322838E+03  0.18602599792E+04  0.17131955535E+04 0.  0.
        4    1    3    3  502    0  0.14637620417E+03 -0.62472415097E+03  0.25374463741E+03  0.68999580568E+03  0.12699999809E+01 0.  1.
       -4    1    3    3    0  502 -0.14637620417E+03  0.62472415097E+03 -0.97867786579E+03  0.11702641735E+04  0.12699999809E+01 0. -1.
</event>
<event>
 5   0  0.1186302E-04  0.1711819E+04  0.7818609E-02  0.8754652E-01
        1   -1    0    0  501    0  0.00000000000E+00  0.00000000000E+00  0.54464384556E+03  0.54464384558E+03  0.50400001928E-02 0. -1.
       -1   -1    0    0    0  501  0.00000000000E+00  0.00000000000E+00 -0.13450649008E+04  0.13450649008E+04  0.50400001928E-02 0.  1.
    10030    2    1    2    0    0  0.00000000000E+00  0.00000000000E+00 -0.80042105527E+03  0.18897087464E+04  0.17118192897E+04 0.  0.
        3    1    3    3  502    0  0.37435962734E+03  0.67269871433E+03  0.12708979690E+02  0.76995468646E+03  0.10100000352E+00 0.  1.
       -3    1    3    3    0  502 -0.37435962734E+03 -0.67269871433E+03 -0.81313003496E+03  0.11197540600E+04  0.10100000352E+00 0. -1.
</event>
<event>
 5   0  0.1234158E-04  0.1696594E+04  0.7818609E-02  0.8763309E-01
       -1   -1    0    0    0  501  0.00000000000E+00  0.00000000000E+00  0.11588558494E+04  0.11588558494E+04  0.50400001928E-02 0.  1.
        1   -1    0    0  501    0  0.00000000000E+00  0.00000000000E+00 -0.62096394077E+03  0.62096394079E+03  0.50400001928E-02 0. -1.
    10030    2    1    2    0    0  0.00000000000E+00  0.00000000000E+00  0.53789190860E+03  0.17798197902E+04  0.16965938760E+04 0.  0.
        5    1    3    3  502    0 -0.69807709450E+03  0.26069678555E+03  0.69418356454E+03  0.10184239565E+04  0.46999998093E+01 0.  1.
       -5    1    3    3    0  502  0.69807709450E+03 -0.26069678555E+03 -0.15629165594E+03  0.76139583370E+03  0.46999998093E+01 0. -1.
</event>
<event>
 5   0  0.2234723E-04  0.1699320E+04  0.7818609E-02  0.8761752E-01
        2   -1    0    0  501    0  0.00000000000E+00  0.00000000000E+00  0.17696417461E+04  0.17696417461E+04  0.25500000920E-02 0.  1.
       -2   -1    0    0    0  501  0.00000000000E+00  0.00000000000E+00 -0.40794826465E+03  0.40794826466E+03  0.25500000920E-02 0. -1.
    10030    2    1    2    0    0  0.00000000000E+00  0.00000000000E+00  0.13616934815E+04  0.21775900108E+04  0.16993201928E+04 0.  0.
        1    1    3    3  502    0  0.62700250063E+03 -0.57174284437E+03  0.62498585607E+03  0.10538640027E+04  0.50400001928E-02 0. -1.
       -1    1    3    3    0  502 -0.62700250063E+03  0.57174284437E+03  0.73670762543E+03  0.11237260081E+04  0.50400001928E-02 0.  1.
</event>
<event>
 5   0  0.1204741E-04  0.1713971E+04  0.7818609E-02  0.8753436E-01
       -1   -1    0    0    0  501  0.00000000000E+00  0.00000000000E+00  0.97731224099E+03  0.97731224100E+03  0.50400001928E-02 0. -1.
        1   -1    0    0  501    0  0.00000000000E+00  0.00000000000E+00 -0.75147295904E+03  0.75147295906E+03  0.50400001928E-02 0.  1.
    10030    2    1    2    0    0  0.00000000000E+00  0.00000000000E+00  0.22583928195E+03  0.17287852001E+04  0.17139705034E+04 0.  0.
        1    1    3    3  502    0 -0.45744363113E+03  0.69181912740E+03  0.33055148810E+03  0.89282286429E+03  0.50400001928E-02 0. -1.
       -1    1    3    3    0  502  0.45744363113E+03 -0.69181912740E+03 -0.10471220615E+03  0.83596233577E+03  0.50400001928E-02 0.  1.
</event>
<event>
 5   0  0.2234723E-04  0.1708621E+04  0.7818609E-02  0.8756462E-01
        2   -1    0    0  501    0  0.00000000000E+00  0.00000000000E+00  0.43755386172E+03  0.43755386173E+03  0.25500000920E-02 0. -1.
       -2   -1    0    0    0  501  0.00000000000E+00  0.00000000000E+00 -0.16680159298E+04  0.16680159298E+04  0.25500000920E-02 0.  1.
    10030    2    1    2    0    0  0.00000000000E+00  0.00000000000E+00 -0.12304620681E+04  0.21055697915E+04  0.17086214461E+04 0.  0.
        1    1    3    3  502    0  0.10091948411E+03 -0.60156696539E+03 -0.13523394434E+04  0.14835395264E+04  0.50400001928E-02 0.  1.
       -1    1    3    3    0  502 -0.10091948411E+03  0.60156696539E+03  0.12187737533E+03  0.62203026515E+03  0.50400001928E-02 0. -1.
</event>
<event>
 5   0  0.1186302E-04  0.1729448E+04  0.7818609E-02  0.8744745E-01
       -1   -1    0    0    0  501  0.00000000000E+00  0.00000000000E+00  0.96777950373E+03  0.96777950374E+03  0.50400001928E-02 0.  1.
        1   -1    0    0  501    0  0.00000000000E+00  0.00000000000E+00 -0.77264272131E+03  0.77264272133E+03  0.50400001928E-02 0. -1.
    10030    2    1    2    0    0  0.00000000000E+00  0.00000000000E+00  0.19513678242E+03  0.17404222251E+04  0.17294482235E+04 0.  0.
        3    1    3    3  502    0 -0.31116901319E+03 -0.15017676117E+03 -0.70015859009E+03  0.78076966888E+03  0.10100000352E+00 0. -1.
       -3    1    3    3    0  502  0.31116901319E+03  0.15017676117E+03  0.89529537251E+03  0.95965255619E+03  0.10100000352E+00 0.  1.
</event>
<event>
 5   0  0.1215233E-04  0.1803416E+04  0.7818609E-02  0.8704485E-01
        1   -1    0    0  501    0  0.00000000000E+00  0.00000000000E+00  0.69307033168E+03  0.69307033170E+03  0.50400001928E-02 0.  1.
       -1   -1    0    0    0  501  0.00000000000E+00  0.00000000000E+00 -0.11731528127E+04  0.11731528127E+04  0.50400001928E-02 0. -1.
    10030    2    1    2    0    0  0.00000000000E+00  0.00000000000E+00 -0.48008248102E+03  0.18662231444E+04  0.18034161018E+04 0.  0.
        2    1    3    3  502    0  0.64449718326E+03  0.31543194306E+03  0.32505703396E+03  0.78774107755E+03  0.25500000920E-02 0.  1.
       -2    1    3    3    0  502 -0.64449718326E+03 -0.31543194306E+03 -0.80513951498E+03  0.10784820669E+04  0.25500000920E-02 0. -1.
</event>
<event>
 5   0  0.1234158E-04  0.1694652E+04  0.7818609E-02  0.8764420E-01
       -1   -1    0    0    0  501  0.00000000000E+00  0.00000000000E+00  0.77937431930E+03  0.77937431932E+03  0.50400001928E-02 0.  1.
        1   -1    0    0  501    0  0.00000000000E+00  0.00000000000E+00 -0.92120257408E+03  0.92120257410E+03  0.50400001928E-02 0. -1.
    10030    2    1    2    0    0  0.00000000000E+00  0.00000000000E+00 -0.14182825478E+03  0.17005768934E+04  0.16946523291E+04 0.  0.
        5    1    3    3  502    0  0.18897429150E+03  0.15782038488E+02  0.75779327902E+03  0.78117417988E+03  0.46999998093E+01 0.  1.
       -5    1    3    3    0  502 -0.18897429150E+03 -0.15782038488E+02 -0.89962153380E+03  0.91940271354E+03  0.46999998093E+01 0. -1.
</event>
<event>
 5   0  0.2356829E-04  0.1718377E+04  0.7818609E-02  0.8750952E-01
       -2   -1    0    0    0  501  0.00000000000E+00  0.00000000000E+00  0.66684335797E+03  0.66684335797E+03  0.25500000920E-02 0.  1.
        2   -1    0    0  501    0  0.00000000000E+00  0.00000000000E+00 -0.11070137007E+04  0.11070137007E+04  0.25500000920E-02 0. -1.
    10030    2    1    2    0    0  0.00000000000E+00  0.00000000000E+00 -0.44017034275E+03  0.17738570587E+04  0.17183768312E+04 0.  0.
        5    1    3    3  502    0  0.44925848875E+03 -0.62503270239E+03 -0.61409359493E+03  0.98469899061E+03  0.46999998093E+01 0. -1.
       -5    1    3    3    0  502 -0.44925848875E+03  0.62503270239E+03  0.17392325218E+03  0.78915806808E+03  0.46999998093E+01 0.  1.
</event>
<event>
 5   0  0.2356829E-04  0.1694317E+04  0.7818609E-02  0.8764612E-01
        2   -1    0    0  501    0  0.00000000000E+00  0.00000000000E+00  0.10337293235E+04  0.10337293235E+04  0.25500000920E-02 0. -1.
       -2   -1    0    0    0  501  0.00000000000E+00  0.00000000000E+00 -0.69426058950E+03  0.69426058951E+03  0.25500000920E-02 0.  1.
    10030    2    1    2    0    0  0.00000000000E+00  0.00000000000E+00  0.33946873397E+03  0.17279899130E+04  0.16943170064E+04 0.  0.
        5    1    3    3  502    0 -0.11923105534E+03 -0.92978605340E+02 -0.68037476124E+03  0.69698850158E+03  0.46999998093E+01 0.  1.
       -5    1    3    3    0  502  0.11923105534E+03  0.92978605340E+02  0.10198434952E+04  0.10310014114E+04  0.46999998093E+01 0. -1.
</event>
<event>
 5   0  0.2356829E-04  0.1697236E+04  0.7818609E-02  0.8762942E-01
        2   -1    0    0  501    0  0.00000000000E+00  0.00000000000E+00  0.24455104821E+04  0.24455104821E+04  0.25500000920E-02 0. -1.
       -2   -1    0    0    0  501  0.00000000000E+00  0.00000000000E+00 -0.29447945446E+03  0.29447945447E+03  0.25500000920E-02 0.  1.
    10030    2    1    2    0    0  0.00000000000E+00  0.00000000000E+00  0.21510310277E+04  0.27399899366E+04  0.16972360975E+04 0.  0.
        5    1    3    3  502    0 -0.24843963777E+03  0.69109161074E+03  0.38906903271E+03  0.83109967529E+03  0.46999998093E+01 0.  1.
       -5    1    3    3    0  502  0.24843963777E+03 -0.69109161074E+03  0.17619619950E+04  0.19088902613E+04  0.46999998093E+01 0. -1.
</event>
<event>
 5   0  0.1126958E-04  0.1677766E+04  0.7818609E-02  0.8774148E-01
       -1   -1    0    0    0  501  0.00000000000E+00  0.00000000000E+00  0.53900605184E+03  0.53900605186E+03  0.50400001928E-02 0.  1.
        1   -1    0    0  501    0  0.00000000000E+00  0.00000000000E+00 -0.13055974134E+04  0.13055974134E+04  0.50400001928E-02 0. -1.
    10030    2    1    2    0    0  0.00000000000E+00  0.00000000000E+00 -0.76659136157E+03  0.18446034653E+04  0.16777662616E+04 0.  0.
        4    1    3    3  502    0 -0.28364725988E+03  0.16791065477E+03 -0.12314148564E+04  0.12747681818E+04  0.12699999809E+01 0. -1.
       -4    1    3    3    0  502  0.28364725988E+03 -0.16791065477E+03  0.46482349481E+03  0.56983528344E+03  0.12699999809E+01 0.  1.
</event>
<event>
 5   0  0.2224454E-04  0.1692177E+04  0.7818609E-02  0.8765838E-01
        2   -1    0    0  501    0  0.00000000000E+00  0.00000000000E+00  0.55944358808E+03  0.55944358808E+03  0.25500000920E-02 0. -1.
       -2   -1    0    0    0  501  0.00000000000E+00  0.00000000000E+00 -0.12796038550E+04  0.12796038550E+04  0.25500000920E-02 0.  1.
    10030    2    1    2    0    0  0.00000000000E+00  0.00000000000E+00 -0.72016026693E+03  0.18390474431E+04  0.16921774989E+04 0.  0.
        2    1    3    3  502    0 -0.53581422634E+03 -0.24319332161E+03 -0.10208168592E+04  0.11782643748E+04  0.25500000920E-02 0.  1.
       -2    1    3    3    0  502  0.53581422634E+03  0.24319332161E+03  0.30065659231E+03  0.66078306828E+03  0.25500000920E-02 0. -1.
</event>
<event>
 5   0  0.2288806E-04  0.1719353E+04  0.7818609E-02  0.8750403E-01
       -2   -1    0    0    0  501  0.00000000000E+00  0.00000000000E+00  0.63707434074E+03  0.63707434075E+03  0.25500000920E-02 0.  1.
        2   -1    0    0  501    0  0.00000000000E+00  0.00000000000E+00 -0.11600593214E+04  0.11600593214E+04  0.25500000920E-02 0. -1.
    10030    2    1    2    0    0  0.00000000000E+00  0.00000000000E+00 -0.52298498062E+03  0.17971336621E+04  0.17193533987E+04 0.  0.
        3    1    3    3  502    0 -0.63299807402E+03  0.56284441827E+03 -0.10800392551E+03  0.85390002871E+03  0.10100000352E+00 0.  1.
       -3    1    3    3    0  502  0.63299807402E+03 -0.56284441827E+03 -0.41498105511E+03  0.94323363341E+03  0.10100000352E+00 0. -1.
</event>
<event>
 5   0  0.1204741E-04  0.1727154E+04  0.7818609E-02  0.8746027E-01
       -1   -1    0    0    0  501  0.00000000000E+00  0.00000000000E+00  0.76771548099E+03  0.76771548101E+03  0.50400001928E-02 0.  1.
        1   -1    0    0  501    0  0.00000000000E+00  0.00000000000E+00 -0.97140781956E+03  0.97140781958E+03  0.50400001928E-02 0. -1.
    10030    2    1    2    0    0  0.00000000000E+00  0.00000000000E+00 -0.20369233857E+03  0.17391233006E+04  0.17271535212E+04 0.  0.
        1    1    3    3  502    0  0.22919636862E+03 -0.58788346799E+03 -0.69553120594E+03  0.93909616429E+03  0.50400001928E-02 0. -1.
       -1    1    3    3    0  502 -0.22919636862E+03  0.58788346799E+03  0.49183886737E+03  0.80002713629E+03  0.50400001928E-02 0.  1.
</event>
<event>
 5   0  0.2288806E-04  0.1704495E+04  0.7818609E-02  0.8758805E-01
        2   -1    0    0  501    0  0.00000000000E+00  0.00000000000E+00  0.43624288664E+03  0.43624288665E+03  0.25500000920E-02 0. -1.
       -2   -1    0    0    0  501  0.00000000000E+00  0.00000000000E+00 -0.16649581572E+04  0.16649581572E+04  0.25500000920E-02 0.  1.
    10030    2    1    2    0    0  0.00000000000E+00  0.00000000000E+00 -0.12287152706E+04  0.21012010439E+04  0.17044954123E+04 0.  0.
        3    1    3    3  502    0 -0.40370909382E+03  0.40542724836E+03 -0.13930106878E+04  0.15059319615E+04  0.10100000352E+00 0.  1.
       -3    1    3    3    0  502  0.40370909382E+03 -0.40542724836E+03  0.16429541720E+03  0.59526908240E+03  0.10100000352E+00 0. -1.
</event>
<event>
 5   0  0.1126958E-04  0.1703236E+04  0.7818609E-02  0.8759521E-01
        1   -1    0    0  501    0  0.00000000000E+00  0.00000000000E+00  0.55640792010E+03  0.55640792013E+03  0.50400001928E-02 0.  1.
       -1   -1    0    0    0  501  0.00000000000E+00  0.00000000000E+00 -0.13034561029E+04  0.13034561029E+04  0.50400001928E-02 0. -1.
    10030    2    1    2    0    0  0.00000000000E+00  0.00000000000E+00 -0.74704818281E+03  0.18598640231E+04  0.17032360954E+04 0.  0.
        4    1    3    3  502    0 -0.56852284446E+03  0.54453615012E+03 -0.72822398777E+03  0.10724036706E+04  0.12699999809E+01 0. -1.
       -4    1    3    3    0  502  0.56852284446E+03 -0.54453615012E+03 -0.18824195045E+02  0.78746035245E+03  0.12699999809E+01 0.  1.
</event>
<event>
 5   0  0.2356829E-04  0.1701920E+04  0.7818609E-02  0.8760270E-01
       -2   -1    0    0    0  501  0.00000000000E+00  0.00000000000E+00  0.52623747278E+03  0.52623747278E+03  0.25500000920E-02 0.  1.
        2   -1    0    0  501    0  0.00000000000E+00  0.00000000000E+00 -0.13760579439E+04  0.13760579439E+04  0.25500000920E-02 0. -1.
    10030    2    1    2    0    0  0.00000000000E+00  0.00000000000E+00 -0.84982047114E+03  0.19022954167E+04  0.17019203916E+04 0.  0.
        5    1    3    3  502    0 -0.50036371510E+03 -0.38886412185E+03  0.20987253822E+03  0.66756851704E+03  0.46999998093E+01 0.  1.
       -5    1    3    3    0  502  0.50036371510E+03  0.38886412185E+03 -0.10596930094E+04  0.12347268997E+04  0.46999998093E+01 0. -1.
</event>
<event>
 5   0  0.1186302E-04  0.1692560E+04  0.7818609E-02  0.8765619E-01
        1   -1    0    0  501    0  0.00000000000E+00  0.00000000000E+00  0.11098147834E+04  0.11098147834E+04  0.50400001928E-02 0. -1.
       -1   -1    0    0    0  501  0.00000000000E+00  0.00000000000E+00 -0.64532337301E+03  0.64532337303E+03  0.50400001928E-02 0.  1.
    10030    2    1    2    0    0  0.00000000000E+00  0.00000000000E+00  0.46449141039E+03  0.17551381564E+04  0.16925595050E+04 0.  0.
        3    1    3    3  502    0 -0.48326860768E+03  0.48206614313E+03 -0.28650307809E+03  0.74028395733E+03  0.10100000352E+00 0.  1.
       -3    1    3    3    0  502  0.48326860768E+03 -0.48206614313E+03  0.75099448848E+03  0.10148541991E+04  0.10100000352E+00 0. -1.
</event>
<event>
 5   0  0.2224454E-04  0.1697663E+04  0.7818609E-02  0.8762698E-01
        2   -1    0    0  501    0  0.00000000000E+00  0.00000000000E+00  0.86873611712E+03  0.86873611712E+03  0.25500000920E-02 0. -1.
       -2   -1    0    0    0  501  0.00000000000E+00  0.00000000000E+00 -0.82938289182E+03  0.82938289183E+03  0.25500000920E-02 0.  1.
    10030    2    1    2    0    0  0.00000000000E+00  0.00000000000E+00  0.39353225298E+02  0.16981190089E+04  0.16976629501E+04 0.  0.
        2    1    3    3  502    0 -0.97115058501E+02  0.81119250666E+03  0.25006489834E+03  0.85439866037E+03  0.25500000920E-02 0. -1.
       -2    1    3    3    0  502  0.97115058501E+02 -0.81119250666E+03 -0.21071167304E+03  0.84372034858E+03  0.25500000920E-02 0.  1.
</event>
<event>
 5   0  0.1234158E-04  0.1715196E+04  0.7818609E-02  0.8752745E-01
        1   -1    0    0  501    0  0.00000000000E+00  0.00000000000E+00  0.10707945177E+04  0.10707945177E+04  0.50400001928E-02 0. -1.
       -1   -1    0    0    0  501  0.00000000000E+00  0.00000000000E+00 -0.68684915767E+03  0.68684915769E+03  0.50400001928E-02 0.  1.
    10030    2    1    2    0    0  0.00000000000E+00  0.00000000000E+00  0.38394536005E+03  0.17576436754E+04  0.17151959801E+04 0.  0.
        5    1    3    3  502    0  0.82069614059E+03 -0.16468756935E+03  0.84118141901E+00  0.83707045597E+03  0.46999998093E+01 0.  1.
       -5    1    3    3    0  502 -0.82069614059E+03  0.16468756935E+03  0.38310417864E+03  0.92057321945E+03  0.46999998093E+01 0. -1.
</event>
<event>
 5   0  0.1215233E-04  0.1697593E+04  0.7818609E-02  0.8762738E-01
        1   -1    0    0  501    0  0.00000000000E+00  0.00000000000E+00  0.73374985119E+03  0.73374985121E+03  0.50400001928E-02 0. -1.
       -1   -1    0    0    0  501  0.00000000000E+00  0.00000000000E+00 -0.98188190517E+03  0.98188190518E+03  0.50400001928E-02 0.  1.
    10030    2    1    2    0    0  0.00000000000E+00  0.00000000000E+00 -0.24813205398E+03  0.17156317564E+04  0.16975932397E+04 0.  0.
        2    1    3    3  502    0 -0.52710011746E+03  0.44306727284E+03  0.37750647415E+03  0.78527337922E+03  0.25500000920E-02 0. -1.
       -2    1    3    3    0  502  0.52710011746E+03 -0.44306727284E+03 -0.62563852813E+03  0.93035837717E+03  0.25500000920E-02 0.  1.
</event>
<event>
 5   0  0.1234158E-04  0.1707153E+04  0.7818609E-02  0.8757295E-01
       -1   -1    0    0    0  501  0.00000000000E+00  0.00000000000E+00  0.56616675497E+03  0.56616675499E+03  0.50400001928E-02 0.  1.
        1   -1    0    0  501    0  0.00000000000E+00  0.00000000000E+00 -0.12868876011E+04  0.12868876011E+04  0.50400001928E-02 0. -1.
    10030    2    1    2    0    0  0.00000000000E+00  0.00000000000E+00 -0.72072084610E+03  0.18530543561E+04  0.17071531591E+04 0.  0.
        5    1    3    3  502    0  0.71867760181E+03 -0.85369912752E+02  0.13084724304E+03  0.73547848939E+03  0.46999998093E+01 0.  1.
       -5    1    3    3    0  502 -0.71867760181E+03  0.85369912752E+02 -0.85156808914E+03  0.11175758667E+04  0.46999998093E+01 0. -1.
</event>
<event>
 5   0  0.2356829E-04  0.1701608E+04  0.7818609E-02  0.8760448E-01
        2   -1    0    0  501    0  0.00000000000E+00  0.00000000000E+00  0.17853211994E+04  0.17853211994E+04  0.25500000920E-02 0.  1.
       -2   -1    0    0    0  501  0.00000000000E+00  0.00000000000E+00 -0.40545515367E+03  0.40545515368E+03  0.25500000920E-02 0. -1.
    10030    2    1    2    0    0  0.00000000000E+00  0.00000000000E+00  0.13798660457E+04  0.21907763531E+04  0.17016082760E+04 0.  0.
        5    1    3    3  502    0  0.69350225095E+03  0.48356670310E+03  0.81250340350E+03  0.11725894418E+04  0.46999998093E+01 0.  1.
       -5    1    3    3    0  502 -0.69350225095E+03 -0.48356670310E+03  0.56736264223E+03  0.10181869112E+04  0.46999998093E+01 0. -1.
</event>
<event>
 5   0  0.1234158E-04  0.1696161E+04  0.7818609E-02  0.8763557E-01
       -1   -1    0    0    0  501  0.00000000000E+00  0.00000000000E+00  0.38030323054E+03  0.38030323058E+03  0.50400001928E-02 0. -1.
        1   -1    0    0  501    0  0.00000000000E+00  0.00000000000E+00 -0.18912301178E+04  0.18912301178E+04  0.50400001928E-02 0.  1.
    10030    2    1    2    0    0  0.00000000000E+00  0.00000000000E+00 -0.15109268873E+04  0.22715333484E+04  0.16961614588E+04 0.  0.
        5    1    3    3  502    0  0.23512290772E+03  0.12657572423E+02  0.33563175869E+03  0.41001678418E+03  0.46999998093E+01 0. -1.
       -5    1    3    3    0  502 -0.23512290772E+03 -0.12657572423E+02 -0.18465586459E+04  0.18615165642E+04  0.46999998093E+01 0.  1.
</event>
<event>
 5   0  0.2234723E-04  0.1693122E+04  0.7818609E-02  0.8765297E-01
       -2   -1    0    0    0  501  0.00000000000E+00  0.00000000000E+00  0.50436775860E+03  0.50436775860E+03  0.25500000920E-02 0.  1.
        2   -1    0    0  501    0  0.00000000000E+00  0.00000000000E+00 -0.14209193416E+04  0.14209193416E+04  0.25500000920E-02 0. -1.
    10030    2    1    2    0    0  0.00000000000E+00  0.00000000000E+00 -0.91655158297E+03  0.19252871002E+04  0.16931224450E+04 0.  0.
        1    1    3    3  502    0  0.21594503064E+03 -0.59608163624E+03 -0.10962006604E+04  0.12663338664E+04  0.50400001928E-02 0. -1.
       -1    1    3    3    0  502 -0.21594503064E+03  0.59608163624E+03  0.17964907738E+03  0.65895323381E+03  0.50400001928E-02 0.  1.
</event>
<event>
 5   0  0.2356829E-04  0.1654818E+04  0.7818609E-02  0.8787561E-01
        2   -1    0    0  501    0  0.00000000000E+00  0.00000000000E+00  0.22015359277E+04  0.22015359277E+04  0.25500000920E-02 0.  1.
       -2   -1    0    0    0  501  0.00000000000E+00  0.00000000000E+00 -0.31096728234E+03  0.31096728235E+03  0.25500000920E-02 0. -1.
    10030    2    1    2    0    0  0.00000000000E+00  0.00000000000E+00  0.18905686453E+04  0.25125032100E+04  0.16548179893E+04 0.  0.
        5    1    3    3  502    0  0.29556105699E+03  0.93648739105E+02  0.21099836011E+04  0.21326460822E+04  0.46999998093E+01 0.  1.
       -5    1    3    3    0  502 -0.29556105699E+03 -0.93648739105E+02 -0.21941495581E+03  0.37985712785E+03  0.46999998093E+01 0. -1.
</event>
<event>
 5   0  0.2356829E-04  0.1701663E+04  0.7818609E-02  0.8760416E-01
       -2   -1    0    0    0  501  0.00000000000E+00  0.00000000000E+00  0.34734728036E+03  0.34734728037E+03  0.25500000920E-02 0.  1.
        2   -1    0    0  501    0  0.00000000000E+00  0.00000000000E+00 -0.20841229134E+04  0.20841229134E+04  0.25500000920E-02 0. -1.
    10030    2    1    2    0    0  0.00000000000E+00  0.00000000000E+00 -0.17367756330E+04  0.24314701938E+04  0.17016632169E+04 0.  0.
        5    1    3    3  502    0 -0.27062417806E+03 -0.80002987179E+03 -0.72122653663E+03  0.11106192186E+04  0.46999998093E+01 0.  1.
       -5    1    3    3    0  502  0.27062417806E+03  0.80002987179E+03 -0.10155490964E+04  0.13208509752E+04  0.46999998093E+01 0. -1.
</event>
<event>
 5   0  0.1234158E-04  0.1693221E+04  0.7818609E-02  0.8765240E-01
        1   -1    0    0  501    0  0.00000000000E+00  0.00000000000E+00  0.98548077005E+03  0.98548077006E+03  0.50400001928E-02 0. -1.
       -1   -1    0    0    0  501  0.00000000000E+00  0.00000000000E+00 -0.72730963726E+03  0.72730963728E+03  0.50400001928E-02 0.  1.
    10030    2    1    2    0    0  0.00000000000E+00  0.00000000000E+00  0.25817113278E+03  0.17127904073E+04  0.16932213812E+04 0.  0.
        5    1    3    3  502    0  0.54938262707E+03 -0.62375499193E+03  0.29167907567E+03  0.88090313546E+03  0.46999998093E+01 0. -1.
       -5    1    3    3    0  502 -0.54938262707E+03  0.62375499193E+03 -0.33507942887E+02  0.83188727188E+03  0.46999998093E+01 0.  1.
</event>
<event>
 5   0  0.1234158E-04  0.1705287E+04  0.7818609E-02  0.8758354E-01
       -1   -1    0    0    0  501  0.00000000000E+00  0.00000000000E+00  0.54011123088E+03  0.54011123091E+03  0.50400001928E-02 0.  1.
        1   -1    0    0  501    0  0.00000000000E+00  0.00000000000E+00 -0.13460214248E+04  0.13460214249E+04  0.50400001928E-02 0. -1.
    10030    2    1    2    0    0  0.00000000000E+00  0.00000000000E+00 -0.80591019396E+03  0.18861326558E+04  0.17052874111E+04 0.  0.
        5    1    3    3  502    0 -0.77489241509E+03 -0.34530575234E+03 -0.30855207866E+03  0.90272963439E+03  0.46999998093E+01 0.  1.
       -5    1    3    3    0  502  0.77489241509E+03  0.34530575234E+03 -0.49735811530E+03  0.98340302136E+03  0.46999998093E+01 0. -1.
</event>
<event>
 5   0  0.2356829E-04  0.1713116E+04  0.7818609E-02  0.8753919E-01
       -2   -1    0    0    0  501  0.00000000000E+00  0.00000000000E+00  0.33401339918E+03  0.33401339919E+03  0.25500000920E-02 0.  1.
        2   -1    0    0  501    0  0.00000000000E+00  0.00000000000E+00 -0.21965936452E+04  0.21965936452E+04  0.25500000920E-02 0. -1.
    10030    2    1    2    0    0  0.00000000000E+00  0.00000000000E+00 -0.18625802461E+04  0.25306070444E+04  0.17131161199E+04 0.  0.
        5    1    3    3  502    0  0.47250734449E+03  0.67972440490E+03 -0.60637040907E+03  0.10261557485E+04  0.46999998093E+01 0.  1.
       -5    1    3    3    0  502 -0.47250734449E+03 -0.67972440490E+03 -0.12562098370E+04  0.15044512959E+04  0.46999998093E+01 0. -1.
</event>
<event>
 5   0  0.1126958E-04  0.1710580E+04  0.7818609E-02  0.8755353E-01
        1   -1    0    0  501    0  0.00000000000E+00  0.00000000000E+00  0.24765543310E+04  0.24765543310E+04  0.50400001928E-02 0. -1.
       -1   -1    0    0    0  501  0.00000000000E+00  0.00000000000E+00 -0.29537839357E+03  0.29537839362E+03  0.50400001928E-02 0.  1.
    10030    2    1    2    0    0  0.00000000000E+00  0.00000000000E+00  0.21811759374E+04  0.27719327246E+04  0.17105795976E+04 0.  0.
        4    1    3    3  502    0 -0.47711918846E+03  0.13096524738E+03 -0.39939091290E+02  0.49637824281E+03  0.12699999809E+01 0.  1.
       -4    1    3    3    0  502  0.47711918846E+03 -0.13096524738E+03  0.22211150287E+04  0.22755544818E+04  0.12699999809E+01 0. -1.
</event>
<event>
 5   0  0.2234723E-04  0.1690992E+04  0.7818609E-02  0.8766519E-01
       -2   -1    0    0    0  501  0.00000000000E+00  0.00000000000E+00  0.52547916704E+03  0.52547916705E+03  0.25500000920E-02 0. -1.
        2   -1    0    0  501    0  0.00000000000E+00  0.00000000000E+00 -0.13604023068E+04  0.13604023068E+04  0.25500000920E-02 0.  1.
    10030    2    1    2    0    0  0.00000000000E+00  0.00000000000E+00 -0.83492313978E+03  0.18858814739E+04  0.16909915092E+04 0.  0.
        1    1    3    3  502    0 -0.17796624915E+03  0.19036898089E+02  0.50410952534E+03  0.53493999934E+03  0.50400001928E-02 0. -1.
       -1    1    3    3    0  502  0.17796624915E+03 -0.19036898089E+02 -0.13390326651E+04  0.13509414745E+04  0.50400001928E-02 0.  1.
</event>
<event>
 5   0  0.1234158E-04  0.1701352E+04  0.7818609E-02  0.8760593E-01
       -1   -1    0    0    0  501  0.00000000000E+00  0.00000000000E+00  0.97341392179E+03  0.97341392180E+03  0.50400001928E-02 0. -1.
        1   -1    0    0  501    0  0.00000000000E+00  0.00000000000E+00 -0.74341436289E+03  0.74341436290E+03  0.50400001928E-02 0.  1.
    10030    2    1    2    0    0  0.00000000000E+00  0.00000000000E+00  0.22999955890E+03  0.17168282847E+04  0.17013522745E+04 0.  0.
        5    1    3    3  502    0 -0.41013347296E+03 -0.32140585707E+03  0.79351226689E+03  0.94931290853E+03  0.46999998093E+01 0. -1.
       -5    1    3    3    0  502  0.41013347296E+03  0.32140585707E+03 -0.56351270799E+03  0.76751537617E+03  0.46999998093E+01 0.  1.
</event>
<event>
 5   0  0.1204741E-04  0.1697486E+04  0.7818609E-02  0.8762799E-01
       -1   -1    0    0    0  501  0.00000000000E+00  0.00000000000E+00  0.43824050290E+03  0.43824050292E+03  0.50400001928E-02 0. -1.
        1   -1    0    0  501    0  0.00000000000E+00  0.00000000000E+00 -0.16437663106E+04  0.16437663106E+04  0.50400001928E-02 0.  1.
    10030    2    1    2    0    0  0.00000000000E+00  0.00000000000E+00 -0.12055258077E+04  0.20820068136E+04  0.16974863471E+04 0.  0.
        1    1    3    3  502    0 -0.49455187138E+03 -0.66306336846E+03 -0.83590043041E+03  0.11759949463E+04  0.50400001928E-02 0.  1.
       -1    1    3    3    0  502  0.49455187138E+03  0.66306336846E+03 -0.36962537732E+03  0.90601186729E+03  0.50400001928E-02 0. -1.
</event>
<event>
 5   0  0.1204741E-04  0.1705119E+04  0.7818609E-02  0.8758450E-01
       -1   -1    0    0    0  501  0.00000000000E+00  0.00000000000E+00  0.23030743173E+03  0.23030743178E+03  0.50400001928E-02 0.  1.
        1   -1    0    0  501    0  0.00000000000E+00  0.00000000000E+00 -0.31560316694E+04  0.31560316694E+04  0.50400001928E-02 0. -1.
    10030    2    1    2    0    0  0.00000000000E+00  0.00000000000E+00 -0.29257242376E+04  0.33863391012E+04  0.17051188209E+04 0.  0.
        1    1    3    3  502    0  0.69876806017E+03  0.46550501943E+03 -0.11690584321E+04  0.14393294768E+04  0.50400001928E-02 0.  1.
       -1    1    3    3    0  502 -0.69876806017E+03 -0.46550501943E+03 -0.17566658055E+04  0.19470096244E+04  0.50400001928E-02 0. -1.
</event>
<event>
 5   0  0.1126958E-04  0.1670717E+04  0.7818609E-02  0.8778244E-01
        1   -1    0    0  501    0  0.00000000000E+00  0.00000000000E+00  0.18441809409E+04  0.18441809409E+04  0.50400001928E-02 0.  1.
       -1   -1    0    0    0  501  0.00000000000E+00  0.00000000000E+00 -0.37839240480E+03  0.37839240484E+03  0.50400001928E-02 0. -1.
    10030    2    1    2    0    0  0.00000000000E+00  0.00000000000E+00  0.14657885361E+04  0.22225733457E+04  0.16707172845E+04 0.  0.
        4    1    3    3  502    0 -0.78122718569E+03 -0.29543369201E+03  0.71291894215E+03  0.10981129327E+04  0.12699999809E+01 0. -1.
       -4    1    3    3    0  502  0.78122718569E+03  0.29543369201E+03  0.75286959393E+03  0.11244604130E+04  0.12699999809E+01 0.  1.
</event>
<event>
 5   0  0.2242967E-04  0.1688522E+04  0.7818609E-02  0.8767938E-01
        2   -1    0    0  501    0  0.00000000000E+00  0.00000000000E+00  0.25077278950E+04  0.25077278950E+04  0.25500000920E-02 0. -1.
       -2   -1    0    0    0  501  0.00000000000E+00  0.00000000000E+00 -0.28423210135E+03  0.28423210136E+03  0.25500000920E-02 0.  1.
    10030    2    1    2    0    0  0.00000000000E+00  0.00000000000E+00  0.22234957936E+04  0.27919599964E+04  0.16885221577E+04 0.  0.
        4    1    3    3  502    0  0.28758913875E+03  0.14687134118E+03  0.24015748639E+04  0.24231884251E+04  0.12699999809E+01 0. -1.
       -4    1    3    3    0  502 -0.28758913875E+03 -0.14687134118E+03 -0.17807907029E+03  0.36877157125E+03  0.12699999809E+01 0.  1.
</event>
<event>
 5   0  0.2234723E-04  0.1689464E+04  0.7818609E-02  0.8767397E-01
        2   -1    0    0  501    0  0.00000000000E+00  0.00000000000E+00  0.11784779589E+04  0.11784779589E+04  0.25500000920E-02 0.  1.
       -2   -1    0    0    0  501  0.00000000000E+00  0.00000000000E+00 -0.60550290661E+03  0.60550290661E+03  0.25500000920E-02 0. -1.
    10030    2    1    2    0    0  0.00000000000E+00  0.00000000000E+00  0.57297505228E+03  0.17839808655E+04  0.16894636184E+04 0.  0.
        1    1    3    3  502    0  0.47803258696E+03 -0.61864645911E+03  0.62427978865E+03  0.10004818090E+04  0.50400001928E-02 0. -1.
       -1    1    3    3    0  502 -0.47803258696E+03  0.61864645911E+03 -0.51304736367E+02  0.78349905652E+03  0.50400001928E-02 0.  1.
</event>
<event>
 5   0  0.1126958E-04  0.1696636E+04  0.7818609E-02  0.8763285E-01
        1   -1    0    0  501    0  0.00000000000E+00  0.00000000000E+00  0.88592539407E+03  0.88592539408E+03  0.50400001928E-02 0. -1.
       -1   -1    0    0    0  501  0.00000000000E+00  0.00000000000E+00 -0.81230747769E+03  0.81230747770E+03  0.50400001928E-02 0.  1.
    10030    2    1    2    0    0  0.00000000000E+00  0.00000000000E+00  0.73617916380E+02  0.16982328718E+04  0.16966364635E+04 0.  0.
        4    1    3    3  502    0 -0.23087446920E+03  0.52284003295E+03 -0.59066005437E+03  0.82191583104E+03  0.12699999809E+01 0.  1.
       -4    1    3    3    0  502  0.23087446920E+03 -0.52284003295E+03  0.66427797074E+03  0.87631704075E+03  0.12699999809E+01 0. -1.
</event>
<event>
 5   0  0.2356829E-04  0.1677864E+04  0.7818609E-02  0.8774091E-01
       -2   -1    0    0    0  501  0.00000000000E+00  0.00000000000E+00  0.80552779433E+03  0.80552779433E+03  0.25500000920E-02 0.  1.
        2   -1    0    0  501    0  0.00000000000E+00  0.00000000000E+00 -0.87372124162E+03  0.87372124162E+03  0.25500000920E-02 0. -1.
    10030    2    1    2    0    0  0.00000000000E+00  0.00000000000E+00 -0.68193447290E+02  0.16792490360E+04  0.16778638140E+04 0.  0.
        5    1    3    3  502    0 -0.40983183123E+03 -0.59870747486E+03  0.38740639246E+03  0.82250749131E+03  0.46999998093E+01 0.  1.
       -5    1    3    3    0  502  0.40983183123E+03  0.59870747486E+03 -0.45559983975E+03  0.85674154464E+03  0.46999998093E+01 0. -1.
</event>
<event>
 5   0  0.2288806E-04  0.1658364E+04  0.7818609E-02  0.8785474E-01
       -2   -1    0    0    0  501  0.00000000000E+00  0.00000000000E+00  0.51842797528E+03  0.51842797529E+03  0.25500000920E-02 0. -1.
        2   -1    0    0  501    0  0.00000000000E+00  0.00000000000E+00 -0.13262070315E+04  0.13262070315E+04  0.25500000920E-02 0.  1.
    10030    2    1    2    0    0  0.00000000000E+00  0.00000000000E+00 -0.80777905619E+03  0.18446350068E+04  0.16583640446E+04 0.  0.
        3    1    3    3  502    0  0.52629392572E+03 -0.33824953204E+03  0.20142710741E+03  0.65724495584E+03  0.10100000352E+00 0. -1.
       -3    1    3    3    0  502 -0.52629392572E+03  0.33824953204E+03 -0.10092061636E+04  0.11873900509E+04  0.10100000352E+00 0.  1.
</event>
<event>
 5   0  0.2242967E-04  0.1698044E+04  0.7818609E-02  0.8762481E-01
        2   -1    0    0  501    0  0.00000000000E+00  0.00000000000E+00  0.13055157752E+04  0.13055157752E+04  0.25500000920E-02 0. -1.
       -2   -1    0    0    0  501  0.00000000000E+00  0.00000000000E+00 -0.55214818885E+03  0.55214818886E+03  0.25500000920E-02 0.  1.
    10030    2    1    2    0    0  0.00000000000E+00  0.00000000000E+00  0.75336758633E+03  0.18576639640E+04  0.16980437813E+04 0.  0.
        4    1    3    3  502    0  0.58583520588E+03 -0.56577181329E+03  0.63909828887E+03  0.10352530458E+04  0.12699999809E+01 0.  1.
       -4    1    3    3    0  502 -0.58583520588E+03  0.56577181329E+03  0.11426929746E+03  0.82241091822E+03  0.12699999809E+01 0. -1.
</event>
<event>
 5   0  0.2224454E-04  0.1692311E+04  0.7818609E-02  0.8765762E-01
       -2   -1    0    0    0  501  0.00000000000E+00  0.00000000000E+00  0.48901393793E+03  0.48901393794E+03  0.25500000920E-02 0. -1.
        2   -1    0    0  501    0  0.00000000000E+00  0.00000000000E+00 -0.14641285227E+04  0.14641285227E+04  0.25500000920E-02 0.  1.
    10030    2    1    2    0    0  0.00000000000E+00  0.00000000000E+00 -0.97511458474E+03  0.19531424606E+04  0.16923111469E+04 0.  0.
        2    1    3    3  502    0 -0.19836631144E+02 -0.33235724920E+03  0.41023535982E+03  0.52834447426E+03  0.25500000920E-02 0. -1.
       -2    1    3    3    0  502  0.19836631144E+02  0.33235724920E+03 -0.13853499446E+04  0.14247979864E+04  0.25500000920E-02 0.  1.
</event>
<event>
 5   0  0.2224454E-04  0.1678825E+04  0.7818609E-02  0.8773534E-01
        2   -1    0    0  501    0  0.00000000000E+00  0.00000000000E+00  0.23148741899E+04  0.23148741899E+04  0.25500000920E-02 0.  1.
       -2   -1    0    0    0  501  0.00000000000E+00  0.00000000000E+00 -0.30438526334E+03  0.30438526335E+03  0.25500000920E-02 0. -1.
    10030    2    1    2    0    0  0.00000000000E+00  0.00000000000E+00  0.20104889266E+04  0.26192594533E+04  0.16788252916E+04 0.  0.
        2    1    3    3  502    0  0.61663621520E+03  0.37938390375E+03  0.16679809727E+04  0.18183324486E+04  0.25500000920E-02 0.  1.
       -2    1    3    3    0  502 -0.61663621520E+03 -0.37938390375E+03  0.34250795384E+03  0.80092700465E+03  0.25500000920E-02 0. -1.
</event>
<event>
 5   0  0.2224454E-04  0.1694030E+04  0.7818609E-02  0.8764776E-01
        2   -1    0    0  501    0  0.00000000000E+00  0.00000000000E+00  0.65659685905E+03  0.65659685906E+03  0.25500000920E-02 0. -1.
       -2   -1    0    0    0  501  0.00000000000E+00  0.00000000000E+00 -0.10926561504E+04  0.10926561504E+04  0.25500000920E-02 0.  1.
    10030    2    1    2    0    0  0.00000000000E+00  0.00000000000E+00 -0.43605929132E+03  0.17492530094E+04  0.16940302198E+04 0.  0.
        2    1    3    3  502    0  0.17580409041E+03 -0.68756888789E+03  0.25940232841E+03  0.75561076077E+03  0.25500000920E-02 0. -1.
       -2    1    3    3    0  502 -0.17580409041E+03  0.68756888789E+03 -0.69546161973E+03  0.99364224866E+03  0.25500000920E-02 0.  1.
</event>
<event>
 5   0  0.2288806E-04  0.1701993E+04  0.7818609E-02  0.8760228E-01
        2   -1    0    0  501    0  0.00000000000E+00  0.00000000000E+00  0.11025687641E+04  0.11025687641E+04  0.25500000920E-02 0.  1.
       -2   -1    0    0    0  501  0.00000000000E+00  0.00000000000E+00 -0.65682550474E+03  0.65682550475E+03  0.25500000920E-02 0. -1.
    10030    2    1    2    0    0  0.00000000000E+00  0.00000000000E+00  0.44574325934E+03  0.17593942688E+04  0.17019932843E+04 0.  0.
        3    1    3    3  502    0  0.66526502311E+03 -0.51090038312E+03  0.74509395616E+02  0.84210950159E+03  0.10100000352E+00 0. -1.
       -3    1    3    3    0  502 -0.66526502311E+03  0.51090038312E+03  0.37123386372E+03  0.91728476724E+03  0.10100000352E+00 0.  1.
</event>
<event>
 5   0  0.2242967E-04  0.1700005E+04  0.7818609E-02  0.8761362E-01
        2   -1    0    0  501    0  0.00000000000E+00  0.00000000000E+00  0.99089773633E+03  0.99089773633E+03  0.25500000920E-02 0. -1.
       -2   -1    0    0    0  501  0.00000000000E+00  0.00000000000E+00 -0.72914090566E+03  0.72914090566E+03  0.25500000920E-02 0.  1.
    10030    2    1    2    0    0  0.00000000000E+00  0.00000000000E+00  0.26175683067E+03  0.17200386420E+04  0.17000047916E+04 0.  0.
        4    1    3    3  502    0 -0.28965510509E+03  0.16590880575E+02 -0.67749069057E+03  0.73700107594E+03  0.12699999809E+01 0.  1.
       -4    1    3    3    0  502  0.28965510509E+03 -0.16590880575E+02  0.93924752124E+03  0.98303756606E+03  0.12699999809E+01 0. -1.
</event>
<event>
 5   0  0.2234723E-04  0.1694579E+04  0.7818609E-02  0.8764462E-01
       -2   -1    0    0    0  501  0.00000000000E+00  0.00000000000E+00  0.10232751571E+04  0.10232751571E+04  0.25500000920E-02 0.  1.
        2   -1    0    0  501    0  0.00000000000E+00  0.00000000000E+00 -0.70157052646E+03  0.70157052646E+03  0.25500000920E-02 0. -1.
    10030    2    1    2    0    0  0.00000000000E+00  0.00000000000E+00  0.32170463062E+03  0.17248456835E+04  0.16945792288E+04 0.  0.
        1    1    3    3  502    0 -0.19331899121E+03 -0.73785836287E+02 -0.67545710395E+03  0.70644099634E+03  0.50400001928E-02 0. -1.
       -1    1    3    3    0  502  0.19331899121E+03  0.73785836287E+02  0.99716173457E+03  0.10184046872E+04  0.50400001928E-02 0.  1.
</event>
<event>
 5   0  0.1204741E-04  0.1695814E+04  0.7818609E-02  0.8763755E-01
        1   -1    0    0  501    0  0.00000000000E+00  0.00000000000E+00  0.16275524705E+04  0.16275524705E+04  0.50400001928E-02 0.  1.
       -1   -1    0    0    0  501  0.00000000000E+00  0.00000000000E+00 -0.44173487111E+03  0.44173487114E+03  0.50400001928E-02 0. -1.
    10030    2    1    2    0    0  0.00000000000E+00  0.00000000000E+00  0.11858175994E+04  0.20692873417E+04  0.16958144720E+04 0.  0.
        1    1    3    3  502    0 -0.56488463633E+03  0.33165700859E+03 -0.64042769499E+02  0.65817360936E+03  0.50400001928E-02 0. -1.
       -1    1    3    3    0  502  0.56488463633E+03 -0.33165700859E+03  0.12498603689E+04  0.14111137323E+04  0.50400001928E-02 0.  1.
</event>
<event>
 5   0  0.1186302E-04  0.1710749E+04  0.7818609E-02  0.8755258E-01
       -1   -1    0    0    0  501  0.00000000000E+00  0.00000000000E+00  0.73950864558E+03  0.73950864560E+03  0.50400001928E-02 0. -1.
        1   -1    0    0  501    0  0.00000000000E+00  0.00000000000E+00 -0.98939389182E+03  0.98939389183E+03  0.50400001928E-02 0.  1.
    10030    2    1    2    0    0  0.00000000000E+00  0.00000000000E+00 -0.24988524624E+03  0.17289025374E+04  0.17107487681E+04 0.  0.
        3    1    3    3  502    0 -0.52415461157E+03  0.66704154612E+03 -0.14314827713E+02  0.84846178793E+03  0.10100000352E+00 0. -1.
       -3    1    3    3    0  502  0.52415461157E+03 -0.66704154612E+03 -0.23557041852E+03  0.88044074949E+03  0.10100000352E+00 0.  1.
</event>
<event>
 5   0  0.1204741E-04  0.1723125E+04  0.7818609E-02  0.8748284E-01
        1   -1    0    0  501    0  0.00000000000E+00  0.00000000000E+00  0.18501815768E+04  0.18501815768E+04  0.50400001928E-02 0. -1.
       -1   -1    0    0    0  501  0.00000000000E+00  0.00000000000E+00 -0.40119855572E+03  0.40119855575E+03  0.50400001928E-02 0.  1.
    10030    2    1    2    0    0  0.00000000000E+00  0.00000000000E+00  0.14489830211E+04  0.22513801326E+04  0.17231252729E+04 0.  0.
        1    1    3    3  502    0  0.33437296733E+03 -0.41780515983E+03 -0.15773089267E+03  0.55789377787E+03  0.50400001928E-02 0.  1.
       -1    1    3    3    0  502 -0.33437296733E+03  0.41780515983E+03  0.16067139138E+04  0.16934863547E+04  0.50400001928E-02 0. -1.
</event>
<event>
 5   0  0.2242967E-04  0.1795853E+04  0.7818609E-02  0.8708508E-01
        2   -1    0    0  501    0  0.00000000000E+00  0.00000000000E+00  0.16295008120E+04  0.16295008120E+04  0.25500000920E-02 0. -1.
       -2   -1    0    0    0  501  0.00000000000E+00  0.00000000000E+00 -0.49479686294E+03  0.49479686295E+03  0.25500000920E-02 0.  1.
    10030    2    1    2    0    0  0.00000000000E+00  0.00000000000E+00  0.11347039491E+04  0.21242976750E+04  0.17958528781E+04 0.  0.
        4    1    3    3  502    0  0.23713656542E+03 -0.69536069424E+03 -0.43310732915E+02  0.73596037818E+03  0.12699999809E+01 0.  1.
       -4    1    3    3    0  502 -0.23713656542E+03  0.69536069424E+03  0.11780146820E+04  0.13883372968E+04  0.12699999809E+01 0. -1.
</event>
<event>
 5   0  0.2224454E-04  0.1713844E+04  0.7818609E-02  0.8753508E-01
       -2   -1    0    0    0  501  0.00000000000E+00  0.00000000000E+00  0.53206430784E+03  0.53206430784E+03  0.25500000920E-02 0.  1.
        2   -1    0    0  501    0  0.00000000000E+00  0.00000000000E+00 -0.13801255742E+04  0.13801255742E+04  0.25500000920E-02 0. -1.
    10030    2    1    2    0    0  0.00000000000E+00  0.00000000000E+00 -0.84806126640E+03  0.19121898821E+04  0.17138442851E+04 0.  0.
        2    1    3    3  502    0 -0.48933674693E+03  0.17100335199E+03  0.33730621342E+03  0.61844003744E+03  0.25500000920E-02 0.  1.
       -2    1    3    3    0  502  0.48933674693E+03 -0.17100335199E+03 -0.11853674798E+04  0.12937498446E+04  0.25500000920E-02 0. -1.
</event>
<event>
 5   0  0.2224454E-04  0.1722714E+04  0.7818609E-02  0.8748515E-01
        2   -1    0    0  501    0  0.00000000000E+00  0.00000000000E+00  0.11927024295E+04  0.11927024295E+04  0.25500000920E-02 0. -1.
       -2   -1    0    0    0  501  0.00000000000E+00  0.00000000000E+00 -0.62206305925E+03  0.62206305925E+03  0.25500000920E-02 0.  1.
    10030    2    1    2    0    0  0.00000000000E+00  0.00000000000E+00  0.57063937022E+03  0.18147654887E+04  0.17227142793E+04 0.  0.
        2    1    3    3  502    0 -0.25006106284E+03 -0.52918597739E+03  0.95104301181E+03  0.11167144416E+04  0.25500000920E-02 0. -1.
       -2    1    3    3    0  502  0.25006106284E+03  0.52918597739E+03 -0.38040364159E+03  0.69805104710E+03  0.25500000920E-02 0.  1.
</event>
<event>
 5   0  0.2234723E-04  0.1688390E+04  0.7818609E-02  0.8768014E-01
        2   -1    0    0  501    0  0.00000000000E+00  0.00000000000E+00  0.11741688915E+04  0.11741688915E+04  0.25500000920E-02 0.  1.
       -2   -1    0    0    0  501  0.00000000000E+00  0.00000000000E+00 -0.60695260808E+03  0.60695260808E+03  0.25500000920E-02 0. -1.
    10030    2    1    2    0    0  0.00000000000E+00  0.00000000000E+00  0.56721628338E+03  0.17811214995E+04  0.16883896126E+04 0.  0.
        1    1    3    3  502    0  0.14728266868E+03  0.52821440220E+03 -0.39348680953E+03  0.67493296592E+03  0.50400001928E-02 0. -1.
       -1    1    3    3    0  502 -0.14728266868E+03 -0.52821440220E+03  0.96070309290E+03  0.11061885336E+04  0.50400001928E-02 0.  1.
</event>
<event>
 5   0  0.2356829E-04  0.1649291E+04  0.7818609E-02  0.8790826E-01
        2   -1    0    0  501    0  0.00000000000E+00  0.00000000000E+00  0.90346275466E+03  0.90346275467E+03  0.25500000920E-02 0. -1.
       -2   -1    0    0    0  501  0.00000000000E+00  0.00000000000E+00 -0.75270376762E+03  0.75270376763E+03  0.25500000920E-02 0.  1.
    10030    2    1    2    0    0  0.00000000000E+00  0.00000000000E+00  0.15075898704E+03  0.16561665223E+04  0.16492905376E+04 0.  0.
        5    1    3    3  502    0  0.16646709491E+03 -0.72293187676E+03  0.43698624626E+03  0.86099991960E+03  0.46999998093E+01 0. -1.
       -5    1    3    3    0  502 -0.16646709491E+03  0.72293187676E+03 -0.28622725922E+03  0.79516660270E+03  0.46999998093E+01 0.  1.
</event>
<event>
 5   0  0.1215233E-04  0.1674568E+04  0.7818609E-02  0.8776004E-01
        1   -1    0    0  501    0  0.00000000000E+00  0.00000000000E+00  0.10812107197E+04  0.10812107197E+04  0.50400001928E-02 0.  1.
       -1   -1    0    0    0  501  0.00000000000E+00  0.00000000000E+00 -0.64838839433E+03  0.64838839435E+03  0.50400001928E-02 0. -1.
    10030    2    1    2    0    0  0.00000000000E+00  0.00000000000E+00  0.43282232539E+03  0.17295991141E+04  0.16745679831E+04 0.  0.
        2    1    3    3  502    0 -0.70744191365E+03  0.41184306490E+03  0.34686837895E+02  0.81932407998E+03  0.25500000920E-02 0. -1.
       -2    1    3    3    0  502  0.70744191365E+03 -0.41184306490E+03  0.39813548750E+03  0.91027503410E+03  0.25500000920E-02 0.  1.
</event>
<event>
 5   0  0.1186302E-04  0.1699327E+04  0.7818609E-02  0.8761748E-01
        1   -1    0    0  501    0  0.00000000000E+00  0.00000000000E+00  0.85763755841E+03  0.85763755843E+03  0.50400001928E-02 0. -1.
       -1   -1    0    0    0  501  0.00000000000E+00  0.00000000000E+00 -0.84176349916E+03  0.84176349917E+03  0.50400001928E-02 0.  1.
    10030    2    1    2    0    0  0.00000000000E+00  0.00000000000E+00  0.15874059255E+02  0.16994010576E+04  0.16993269164E+04 0.  0.
        3    1    3    3  502    0 -0.19926373965E+03 -0.14050228638E+03  0.82190193096E+03  0.85730375290E+03  0.10100000352E+00 0. -1.
       -3    1    3    3    0  502  0.19926373965E+03  0.14050228638E+03 -0.80602787171E+03  0.84209730470E+03  0.10100000352E+00 0.  1.
</event>
<event>
 5   0  0.1204741E-04  0.1717613E+04  0.7818609E-02  0.8751382E-01
        1   -1    0    0  501    0  0.00000000000E+00  0.00000000000E+00  0.24613641323E+04  0.24613641323E+04  0.50400001928E-02 0.  1.
       -1   -1    0    0    0  501  0.00000000000E+00  0.00000000000E+00 -0.29965047418E+03  0.29965047422E+03  0.50400001928E-02 0. -1.
    10030    2    1    2    0    0  0.00000000000E+00  0.00000000000E+00  0.21617136581E+04  0.27610146065E+04  0.17176133784E+04 0.  0.
        1    1    3    3  502    0  0.75311128606E+03  0.14326292844E+03  0.17031124711E+04  0.18676972359E+04  0.50400001928E-02 0.  1.
       -1    1    3    3    0  502 -0.75311128606E+03 -0.14326292844E+03  0.45860118702E+03  0.89331737060E+03  0.50400001928E-02 0. -1.
</event>
<event>
 5   0  0.1215233E-04  0.1699611E+04  0.7818609E-02  0.8761586E-01
       -1   -1    0    0    0  501  0.00000000000E+00  0.00000000000E+00  0.94865676802E+03  0.94865676803E+03  0.50400001928E-02 0.  1.
        1   -1    0    0  501    0  0.00000000000E+00  0.00000000000E+00 -0.76125436045E+03  0.76125436046E+03  0.50400001928E-02 0. -1.
    10030    2    1    2    0    0  0.00000000000E+00  0.00000000000E+00  0.18740240757E+03  0.17099111285E+04  0.16996106628E+04 0.  0.
        2    1    3    3  502    0 -0.65670278253E+03  0.36534605719E+03 -0.30548150646E+03  0.81120603849E+03  0.25500000920E-02 0. -1.
       -2    1    3    3    0  502  0.65670278253E+03 -0.36534605719E+03  0.49288391403E+03  0.89870509001E+03  0.25500000920E-02 0.  1.
</event>
<event>
 5   0  0.2288806E-04  0.1694266E+04  0.7818609E-02  0.8764642E-01
       -2   -1    0    0    0  501  0.00000000000E+00  0.00000000000E+00  0.71731819899E+03  0.71731819899E+03  0.25500000920E-02 0. -1.
        2   -1    0    0  501    0  0.00000000000E+00  0.00000000000E+00 -0.10004401892E+04  0.10004401892E+04  0.25500000920E-02 0.  1.
    10030    2    1    2    0    0  0.00000000000E+00  0.00000000000E+00 -0.28312199024E+03  0.17177583882E+04  0.16942655692E+04 0.  0.
        3    1    3    3  502    0 -0.76633843605E+03 -0.27281682855E+03 -0.38133619435E+03  0.89839908939E+03  0.10100000352E+00 0.  1.
       -3    1    3    3    0  502  0.76633843605E+03  0.27281682855E+03  0.98214204104E+02  0.81935929884E+03  0.10100000352E+00 0. -1.
</event>
<event>
 5   0  0.1215233E-04  0.1697394E+04  0.7818609E-02  0.8762852E-01
        1   -1    0    0  501    0  0.00000000000E+00  0.00000000000E+00  0.14331661886E+04  0.14331661886E+04  0.50400001928E-02 0. -1.
       -1   -1    0    0    0  501  0.00000000000E+00  0.00000000000E+00 -0.50258427222E+03  0.50258427225E+03  0.50400001928E-02 0.  1.
    10030    2    1    2    0    0  0.00000000000E+00  0.00000000000E+00  0.93058191634E+03  0.19357504608E+04  0.16973942216E+04 0.  0.
        2    1    3    3  502    0  0.30042517215E+03  0.70742957681E+03  0.87580411988E+03  0.11652230459E+04  0.25500000920E-02 0. -1.
       -2    1    3    3    0  502 -0.30042517215E+03 -0.70742957681E+03  0.54777796462E+02  0.77052741496E+03  0.25500000920E-02 0.  1.
</event>
<event>
 5   0  0.2356829E-04  0.1700310E+04  0.7818609E-02  0.8761188E-01
       -2   -1    0    0    0  501  0.00000000000E+00  0.00000000000E+00  0.90790052980E+03  0.90790052980E+03  0.25500000920E-02 0.  1.
        2   -1    0    0  501    0  0.00000000000E+00  0.00000000000E+00 -0.79608232693E+03  0.79608232693E+03  0.25500000920E-02 0. -1.
    10030    2    1    2    0    0  0.00000000000E+00  0.00000000000E+00  0.11181820287E+03  0.17039828567E+04  0.17003100498E+04 0.  0.
        5    1    3    3  502    0 -0.72819711351E+03 -0.43522100136E+03  0.53469889870E+00  0.84835766753E+03  0.46999998093E+01 0. -1.
       -5    1    3    3    0  502  0.72819711351E+03  0.43522100136E+03  0.11128350397E+03  0.85562518920E+03  0.46999998093E+01 0.  1.
</event>
<event>
 5   0  0.2242967E-04  0.1700497E+04  0.7818609E-02  0.8761081E-01
        2   -1    0    0  501    0  0.00000000000E+00  0.00000000000E+00  0.17575976866E+04  0.17575976866E+04  0.25500000920E-02 0. -1.
       -2   -1    0    0    0  501  0.00000000000E+00  0.00000000000E+00 -0.41131285014E+03  0.41131285015E+03  0.25500000920E-02 0.  1.
    10030    2    1    2    0    0  0.00000000000E+00  0.00000000000E+00  0.13462848365E+04  0.21689105368E+04  0.17004970025E+04 0.  0.
        4    1    3    3  502    0  0.15111743058E+03  0.80442158952E+03  0.37953699190E+03  0.90220868574E+03  0.12699999809E+01 0.  1.
       -4    1    3    3    0  502 -0.15111743058E+03 -0.80442158952E+03  0.96674784457E+03  0.12667018510E+04  0.12699999809E+01 0. -1.
</event>
<event>
 5   0  0.1234158E-04  0.1697820E+04  0.7818609E-02  0.8762609E-01
       -1   -1    0    0    0  501  0.00000000000E+00  0.00000000000E+00  0.12263937814E+04  0.12263937814E+04  0.50400001928E-02 0. -1.
        1   -1    0    0  501    0  0.00000000000E+00  0.00000000000E+00 -0.58761551191E+03  0.58761551193E+03  0.50400001928E-02 0.  1.
    10030    2    1    2    0    0  0.00000000000E+00  0.00000000000E+00  0.63877826950E+03  0.18140092933E+04  0.16978197898E+04 0.  0.
        5    1    3    3  502    0  0.30420962054E+03  0.27181085521E+03 -0.47600371149E+03  0.62691806290E+03  0.46999998093E+01 0.  1.
       -5    1    3    3    0  502 -0.30420962054E+03 -0.27181085521E+03  0.11147819810E+04  0.11870912304E+04  0.46999998093E+01 0. -1.
</event>
<event>
 5   0  0.1186302E-04  0.1667104E+04  0.7818609E-02  0.8780352E-01
        1   -1    0    0  501    0  0.00000000000E+00  0.00000000000E+00  0.16402488681E+04  0.16402488681E+04  0.50400001928E-02 0.  1.
       -1   -1    0    0    0  501  0.00000000000E+00  0.00000000000E+00 -0.42359959981E+03  0.42359959984E+03  0.50400001928E-02 0. -1.
    10030    2    1    2    0    0  0.00000000000E+00  0.00000000000E+00  0.12166492683E+04  0.20638484680E+04  0.16671037930E+04 0.  0.
        3    1    3    3  502    0  0.54602364818E+01 -0.81818709208E+03  0.80542800862E+03  0.11481176852E+04  0.10100000352E+00 0.  1.
       -3    1    3    3    0  502 -0.54602364818E+01  0.81818709208E+03  0.41122125968E+03  0.91573078274E+03  0.10100000352E+00 0. -1.
</event>
<event>
 5   0  0.1126958E-04  0.1698048E+04  0.7818609E-02  0.8762478E-01
       -1   -1    0    0    0  501  0.00000000000E+00  0.00000000000E+00  0.61762620112E+03  0.61762620114E+03  0.50400001928E-02 0.  1.
        1   -1    0    0  501    0  0.00000000000E+00  0.00000000000E+00 -0.11671166082E+04  0.11671166082E+04  0.50400001928E-02 0. -1.
    10030    2    1    2    0    0  0.00000000000E+00  0.00000000000E+00 -0.54949040704E+03  0.17847428093E+04  0.16980480523E+04 0.  0.
        4    1    3    3  502    0 -0.19773674634E+03  0.51943238953E+03  0.39984116867E+03  0.68467831952E+03  0.12699999809E+01 0.  1.
       -4    1    3    3    0  502  0.19773674634E+03 -0.51943238953E+03 -0.94933157571E+03  0.11000644898E+04  0.12699999809E+01 0. -1.
</event>
<event>
 5   0  0.1234158E-04  0.1716482E+04  0.7818609E-02  0.8752019E-01
        1   -1    0    0  501    0  0.00000000000E+00  0.00000000000E+00  0.62579930740E+03  0.62579930742E+03  0.50400001928E-02 0.  1.
       -1   -1    0    0    0  501  0.00000000000E+00  0.00000000000E+00 -0.11770193864E+04  0.11770193864E+04  0.50400001928E-02 0. -1.
    10030    2    1    2    0    0  0.00000000000E+00  0.00000000000E+00 -0.55122007901E+03  0.18028186938E+04  0.17164823528E+04 0.  0.
        5    1    3    3  502    0  0.15684343727E+03 -0.28818156552E+03  0.55731524247E+03  0.64673862418E+03  0.46999998093E+01 0.  1.
       -5    1    3    3    0  502 -0.15684343727E+03  0.28818156552E+03 -0.11085353215E+04  0.11560800697E+04  0.46999998093E+01 0. -1.
</event>
<event>
 5   0  0.2224454E-04  0.1696073E+04  0.7818609E-02  0.8763607E-01
       -2   -1    0    0    0  501  0.00000000000E+00  0.00000000000E+00  0.61500425377E+03  0.61500425378E+03  0.25500000920E-02 0.  1.
        2   -1    0    0  501    0  0.00000000000E+00  0.00000000000E+00 -0.11693675932E+04  0.11693675932E+04  0.25500000920E-02 0. -1.
    10030    2    1    2    0    0  0.00000000000E+00  0.00000000000E+00 -0.55436333939E+03  0.17843718469E+04  0.16960731635E+04 0.  0.
        2    1    3    3  502    0  0.34940428928E+03 -0.11398466825E+03 -0.10812273687E+04  0.11419844503E+04  0.25500000920E-02 0. -1.
       -2    1    3    3    0  502 -0.34940428928E+03  0.11398466825E+03  0.52686402930E+03  0.64238739662E+03  0.25500000920E-02 0.  1.
</event>
<event>
 5   0  0.1215233E-04  0.1678269E+04  0.7818609E-02  0.8773856E-01
        1   -1    0    0  501    0  0.00000000000E+00  0.00000000000E+00  0.10420102663E+04  0.10420102663E+04  0.50400001928E-02 0.  1.
       -1   -1    0    0    0  501  0.00000000000E+00  0.00000000000E+00 -0.67575805271E+03  0.67575805273E+03  0.50400001928E-02 0. -1.
    10030    2    1    2    0    0  0.00000000000E+00  0.00000000000E+00  0.36625221359E+03  0.17177683190E+04  0.16782691423E+04 0.  0.
        2    1    3    3  502    0 -0.14848394762E+01  0.72270677355E+03  0.61958881709E+03  0.95194410947E+03  0.25500000920E-02 0.  1.
       -2    1    3    3    0  502  0.14848394762E+01 -0.72270677355E+03 -0.25333660350E+03  0.76582420957E+03  0.25500000920E-02 0. -1.
</event>
<event>
 5   0  0.2356829E-04  0.1710607E+04  0.7818609E-02  0.8755338E-01
       -2   -1    0    0    0  501  0.00000000000E+00  0.00000000000E+00  0.11182841227E+04  0.11182841227E+04  0.25500000920E-02 0.  1.
        2   -1    0    0  501    0  0.00000000000E+00  0.00000000000E+00 -0.65416681556E+03  0.65416681556E+03  0.25500000920E-02 0. -1.
    10030    2    1    2    0    0  0.00000000000E+00  0.00000000000E+00  0.46411730710E+03  0.17724509382E+04  0.17106073347E+04 0.  0.
        5    1    3    3  502    0  0.21592198303E+03 -0.79811913737E+03  0.45884557270E+03  0.94560975554E+03  0.46999998093E+01 0.  1.
       -5    1    3    3    0  502 -0.21592198303E+03  0.79811913737E+03  0.52717343917E+01  0.82684118268E+03  0.46999998093E+01 0. -1.
</event>
<event>
 5   0  0.1204741E-04  0.1703867E+04  0.7818609E-02  0.8759162E-01
       -1   -1    0    0    0  501  0.00000000000E+00  0.00000000000E+00  0.70208692342E+03  0.70208692344E+03  0.50400001928E-02 0. -1.
        1   -1    0    0  501    0  0.00000000000E+00  0.00000000000E+00 -0.10337612726E+04  0.10337612726E+04  0.50400001928E-02 0.  1.
    10030    2    1    2    0    0  0.00000000000E+00  0.00000000000E+00 -0.33167434915E+03  0.17358481960E+04  0.17038665105E+04 0.  0.
        1    1    3    3  502    0  0.63088277935E+03  0.42490006148E+03  0.22508008363E+03  0.79323022357E+03  0.50400001928E-02 0. -1.
       -1    1    3    3    0  502 -0.63088277935E+03 -0.42490006148E+03 -0.55675443278E+03  0.94261797244E+03  0.50400001928E-02 0.  1.
</event>
<event>
 5   0  0.2288806E-04  0.1696539E+04  0.7818609E-02  0.8763341E-01
       -2   -1    0    0    0  501  0.00000000000E+00  0.00000000000E+00  0.71280313976E+03  0.71280313976E+03  0.25500000920E-02 0. -1.
        2   -1    0    0  501    0  0.00000000000E+00  0.00000000000E+00 -0.10094803542E+04  0.10094803543E+04  0.25500000920E-02 0.  1.
    10030    2    1    2    0    0  0.00000000000E+00  0.00000000000E+00 -0.29667721449E+03  0.17222834940E+04  0.16965385537E+04 0.  0.
        3    1    3    3  502    0 -0.41727169347E+03 -0.57654725561E+03 -0.61690356121E+03  0.94185583724E+03  0.10100000352E+00 0.  1.
       -3    1    3    3    0  502  0.41727169347E+03  0.57654725561E+03  0.32022634672E+03  0.78042765677E+03  0.10100000352E+00 0. -1.
</event>
<event>
 5   0  0.2356829E-04  0.1698540E+04  0.7818609E-02  0.8762198E-01
        2   -1    0    0  501    0  0.00000000000E+00  0.00000000000E+00  0.40839765819E+03  0.40839765820E+03  0.25500000920E-02 0. -1.
       -2   -1    0    0    0  501  0.00000000000E+00  0.00000000000E+00 -0.17660708126E+04  0.17660708126E+04  0.25500000920E-02 0.  1.
    10030    2    1    2    0    0  0.00000000000E+00  0.00000000000E+00 -0.13576731544E+04  0.21744684708E+04  0.16985395893E+04 0.  0.
        5    1    3    3  502    0 -0.32662500717E+03  0.26246540641E+03 -0.16245085844E+04  0.16776835862E+04  0.46999998093E+01 0.  1.
       -5    1    3    3    0  502  0.32662500717E+03 -0.26246540641E+03  0.26683542995E+03  0.49678488457E+03  0.46999998093E+01 0. -1.
</event>
<event>
 5   0  0.2356829E-04  0.1707241E+04  0.7818609E-02  0.8757246E-01
       -2   -1    0    0    0  501  0.00000000000E+00  0.00000000000E+00  0.88327839651E+03  0.88327839651E+03  0.25500000920E-02 0. -1.
        2   -1    0    0  501    0  0.00000000000E+00  0.00000000000E+00 -0.82495799111E+03  0.82495799112E+03  0.25500000920E-02 0.  1.
    10030    2    1    2    0    0  0.00000000000E+00  0.00000000000E+00  0.58320405396E+02  0.17082363876E+04  0.17072405473E+04 0.  0.
        5    1    3    3  502    0 -0.39706761859E+03 -0.15332574516E+03  0.76950666052E+03  0.87939414852E+03  0.46999998093E+01 0. -1.
       -5    1    3    3    0  502  0.39706761859E+03  0.15332574516E+03 -0.71118625512E+03  0.82884223911E+03  0.46999998093E+01 0.  1.
</event>
<event>
 5   0  0.2288806E-04  0.1707831E+04  0.7818609E-02  0.8756911E-01
       -2   -1    0    0    0  501  0.00000000000E+00  0.00000000000E+00  0.92589913091E+03  0.92589913091E+03  0.25500000920E-02 0. -1.
        2   -1    0    0  501    0  0.00000000000E+00  0.00000000000E+00 -0.78752787445E+03  0.78752787445E+03  0.25500000920E-02 0.  1.
    10030    2    1    2    0    0  0.00000000000E+00  0.00000000000E+00  0.13837125646E+03  0.17134270054E+04  0.17078306409E+04 0.  0.
        3    1    3    3  502    0 -0.41834820628E+03  0.27400639320E+03  0.76360735991E+03  0.91279293135E+03  0.10100000352E+00 0. -1.
       -3    1    3    3    0  502  0.41834820628E+03 -0.27400639320E+03 -0.62523610345E+03  0.80063407401E+03  0.10100000352E+00 0.  1.
</event>
<event>
 5   0  0.1204741E-04  0.1718952E+04  0.7818609E-02  0.8750629E-01
        1   -1    0    0  501    0  0.00000000000E+00  0.00000000000E+00  0.70117007750E+03  0.70117007752E+03  0.50400001928E-02 0. -1.
       -1   -1    0    0    0  501  0.00000000000E+00  0.00000000000E+00 -0.10535227877E+04  0.10535227877E+04  0.50400001928E-02 0.  1.
    10030    2    1    2    0    0  0.00000000000E+00  0.00000000000E+00 -0.35235271022E+03  0.17546928653E+04  0.17189516046E+04 0.  0.
        1    1    3    3  502    0  0.32389180770E+03  0.48289242288E+03  0.46991969323E+03  0.74760652303E+03  0.50400001928E-02 0. -1.
       -1    1    3    3    0  502 -0.32389180770E+03 -0.48289242288E+03 -0.82227240346E+03  0.10070863422E+04  0.50400001928E-02 0.  1.
</event>
<event>
 5   0  0.1126958E-04  0.1701287E+04  0.7818609E-02  0.8760631E-01
       -1   -1    0    0    0  501  0.00000000000E+00  0.00000000000E+00  0.40396896342E+03  0.40396896345E+03  0.50400001928E-02 0. -1.
        1   -1    0    0  501    0  0.00000000000E+00  0.00000000000E+00 -0.17912125055E+04  0.17912125055E+04  0.50400001928E-02 0.  1.
    10030    2    1    2    0    0  0.00000000000E+00  0.00000000000E+00 -0.13872435421E+04  0.21951814690E+04  0.17012868767E+04 0.  0.
        4    1    3    3  502    0 -0.74539604376E+02 -0.90436487927E+02  0.39350085695E+03  0.41058427672E+03  0.12699999809E+01 0. -1.
       -4    1    3    3    0  502  0.74539604376E+02  0.90436487927E+02 -0.17807443991E+04  0.17845971923E+04  0.12699999809E+01 0.  1.
</event>
<event>
 5   0  0.1234158E-04  0.1712870E+04  0.7818609E-02  0.8754058E-01
       -1   -1    0    0    0  501  0.00000000000E+00  0.00000000000E+00  0.97814743139E+03  0.97814743140E+03  0.50400001928E-02 0. -1.
        1   -1    0    0  501    0  0.00000000000E+00  0.00000000000E+00 -0.74986717529E+03  0.74986717531E+03  0.50400001928E-02 0.  1.
    10030    2    1    2    0    0  0.00000000000E+00  0.00000000000E+00  0.22828025610E+03  0.17280146067E+04  0.17128696990E+04 0.  0.
        5    1    3    3  502    0  0.83995597021E+02 -0.58567111832E+03  0.73880195859E+03  0.94652857494E+03  0.46999998093E+01 0. -1.
       -5    1    3    3    0  502 -0.83995597021E+02  0.58567111832E+03 -0.51052170249E+03  0.78148603178E+03  0.46999998093E+01 0.  1.
</event>
<event>
 5   0  0.2224454E-04  0.1694328E+04  0.7818609E-02  0.8764606E-01
        2   -1    0    0  501    0  0.00000000000E+00  0.00000000000E+00  0.10768602631E+04  0.10768602631E+04  0.25500000920E-02 0.  1.
       -2   -1    0    0    0  501  0.00000000000E+00  0.00000000000E+00 -0.66646215905E+03  0.66646215905E+03  0.25500000920E-02 0. -1.
    10030    2    1    2    0    0  0.00000000000E+00  0.00000000000E+00  0.41039810404E+03  0.17433224221E+04  0.16943277321E+04 0.  0.
        2    1    3    3  502    0  0.99175576166E+02 -0.61461829731E+03 -0.38595392543E+03  0.73249701628E+03  0.25500000920E-02 0. -1.
       -2    1    3    3    0  502 -0.99175576166E+02  0.61461829731E+03  0.79635202947E+03  0.10108254059E+04  0.25500000920E-02 0.  1.
</event>
<event>
 5   0  0.1186302E-04  0.1696628E+04  0.7818609E-02  0.8763290E-01
        1   -1    0    0  501    0  0.00000000000E+00  0.00000000000E+00  0.69848882549E+03  0.69848882551E+03  0.50400001928E-02 0. -1.
       -1   -1    0    0    0  501  0.00000000000E+00  0.00000000000E+00 -0.10302770238E+04  0.10302770238E+04  0.50400001928E-02 0.  1.
    10030    2    1    2    0    0  0.00000000000E+00  0.00000000000E+00 -0.33178819827E+03  0.17287658493E+04  0.16966284075E+04 0.  0.
        3    1    3    3  502    0  0.21705978217E+02  0.80971064391E+03  0.90940929224E+02  0.81509063248E+03  0.10100000352E+00 0. -1.
       -3    1    3    3    0  502 -0.21705978217E+02 -0.80971064391E+03 -0.42272912749E+03  0.91367521679E+03  0.10100000352E+00 0.  1.
</event>
<event>
 5   0  0.1126958E-04  0.1656856E+04  0.7818609E-02  0.8786361E-01
        1   -1    0    0  501    0  0.00000000000E+00  0.00000000000E+00  0.17355908131E+04  0.17355908131E+04  0.50400001928E-02 0.  1.
       -1   -1    0    0    0  501  0.00000000000E+00  0.00000000000E+00 -0.39542309334E+03  0.39542309337E+03  0.50400001928E-02 0. -1.
    10030    2    1    2    0    0  0.00000000000E+00  0.00000000000E+00  0.13401677198E+04  0.21310139065E+04  0.16568556825E+04 0.  0.
        4    1    3    3  502    0 -0.37215170454E+03  0.61849688412E+03  0.14723045276E+03  0.73669105191E+03  0.12699999809E+01 0. -1.
       -4    1    3    3    0  502  0.37215170454E+03 -0.61849688412E+03  0.11929372670E+04  0.13943228546E+04  0.12699999809E+01 0.  1.
</event>
<event>
 5   0  0.2242967E-04  0.1699319E+04  0.7818609E-02  0.8761753E-01
       -2   -1    0    0    0  501  0.00000000000E+00  0.00000000000E+00  0.27553111641E+03  0.27553111642E+03  0.25500000920E-02 0.  1.
        2   -1    0    0  501    0  0.00000000000E+00  0.00000000000E+00 -0.26201066223E+04  0.26201066223E+04  0.25500000920E-02 0. -1.
    10030    2    1    2    0    0  0.00000000000E+00  0.00000000000E+00 -0.23445755059E+04  0.28956377387E+04  0.16993185726E+04 0.  0.
        4    1    3    3  502    0  0.80876029384E+03  0.63518790805E+02 -0.74190919342E+03  0.10993446747E+04  0.12699999809E+01 0.  1.
       -4    1    3    3    0  502 -0.80876029384E+03 -0.63518790805E+02 -0.16026663124E+04  0.17962930640E+04  0.12699999809E+01 0. -1.
</event>
<event>
 5   0  0.1126958E-04  0.1695087E+04  0.7818609E-02  0.8764171E-01
        1   -1    0    0  501    0  0.00000000000E+00  0.00000000000E+00  0.11517644050E+04  0.11517644050E+04  0.50400001928E-02 0.  1.
       -1   -1    0    0    0  501  0.00000000000E+00  0.00000000000E+00 -0.62367806527E+03  0.62367806529E+03  0.50400001928E-02 0. -1.
    10030    2    1    2    0    0  0.00000000000E+00  0.00000000000E+00  0.52808633976E+03  0.17754424703E+04  0.16950872494E+04 0.  0.
        4    1    3    3  502    0  0.25025466322E+02  0.34850040329E+02  0.11506252364E+04  0.11514255715E+04  0.12699999809E+01 0.  1.
       -4    1    3    3    0  502 -0.25025466322E+02 -0.34850040329E+02 -0.62253889663E+03  0.62401689880E+03  0.12699999809E+01 0. -1.
</event>
<event>
 5   0  0.1126958E-04  0.1700671E+04  0.7818609E-02  0.8760982E-01
        1   -1    0    0  501    0  0.00000000000E+00  0.00000000000E+00  0.23785282322E+04  0.23785282322E+04  0.50400001928E-02 0. -1.
       -1   -1    0    0    0  501  0.00000000000E+00  0.00000000000E+00 -0.30399901282E+03  0.30399901286E+03  0.50400001928E-02 0.  1.
    10030    2    1    2    0    0  0.00000000000E+00  0.00000000000E+00  0.20745292194E+04  0.26825272451E+04  0.17006707319E+04 0.  0.
        4    1    3    3  502    0  0.48322182492E+03  0.65721211230E+03  0.14159482828E+04  0.16341181858E+04  0.12699999809E+01 0. -1.
       -4    1    3    3    0  502 -0.48322182492E+03 -0.65721211230E+03  0.65858093654E+03  0.10484090592E+04  0.12699999809E+01 0.  1.
</event>
<event>
 5   0  0.1204741E-04  0.1687852E+04  0.7818609E-02  0.8768323E-01
       -1   -1    0    0    0  501  0.00000000000E+00  0.00000000000E+00  0.79004672708E+03  0.79004672710E+03  0.50400001928E-02 0.  1.
        1   -1    0    0  501    0  0.00000000000E+00  0.00000000000E+00 -0.90147984182E+03  0.90147984183E+03  0.50400001928E-02 0. -1.
    10030    2    1    2    0    0  0.00000000000E+00  0.00000000000E+00 -0.11143311473E+03  0.16915265689E+04  0.16878521245E+04 0.  0.
        1    1    3    3  502    0 -0.58818025780E+03 -0.39079317192E+03  0.40738885661E+03  0.81525517441E+03  0.50400001928E-02 0.  1.
       -1    1    3    3    0  502  0.58818025780E+03  0.39079317192E+03 -0.51882197134E+03  0.87627139452E+03  0.50400001928E-02 0. -1.
</event>
<event>
 5   0  0.2234723E-04  0.1550983E+04  0.7818609E-02  0.8851240E-01
        2   -1    0    0  501    0  0.00000000000E+00  0.00000000000E+00  0.65650727815E+03  0.65650727815E+03  0.25500000920E-02 0. -1.
       -2   -1    0    0    0  501  0.00000000000E+00  0.00000000000E+00 -0.91604000412E+03  0.91604000413E+03  0.25500000920E-02 0.  1.
    10030    2    1    2    0    0  0.00000000000E+00  0.00000000000E+00 -0.25953272598E+03  0.15725472823E+04  0.15509828236E+04 0.  0.
        1    1    3    3  502    0 -0.21320931961E+03  0.73652438937E+03 -0.24739903446E+03  0.80568770152E+03  0.50400001928E-02 0.  1.
       -1    1    3    3    0  502  0.21320931961E+03 -0.73652438937E+03 -0.12133691517E+02  0.76685958076E+03  0.50400001928E-02 0. -1.
</event>
<event>
 5   0  0.1186302E-04  0.1697685E+04  0.7818609E-02  0.8762686E-01
       -1   -1    0    0    0  501  0.00000000000E+00  0.00000000000E+00  0.58335443849E+03  0.58335443851E+03  0.50400001928E-02 0. -1.
        1   -1    0    0  501    0  0.00000000000E+00  0.00000000000E+00 -0.12351550636E+04  0.12351550636E+04  0.50400001928E-02 0.  1.
    10030    2    1    2    0    0  0.00000000000E+00  0.00000000000E+00 -0.65180062513E+03  0.18185095021E+04  0.16976845274E+04 0.  0.
        3    1    3    3  502    0  0.22270089358E+03 -0.41027340472E+03 -0.10853089624E+04  0.11814463630E+04  0.10100000352E+00 0.  1.
       -3    1    3    3    0  502 -0.22270089358E+03  0.41027340472E+03  0.43350833723E+03  0.63706313916E+03  0.10100000352E+00 0. -1.
</event>
<event>
 5   0  0.2224454E-04  0.1698612E+04  0.7818609E-02  0.8762156E-01
        2   -1    0    0  501    0  0.00000000000E+00  0.00000000000E+00  0.16321953990E+04  0.16321953990E+04  0.25500000920E-02 0.  1.
       -2   -1    0    0    0  501  0.00000000000E+00  0.00000000000E+00 -0.44193273182E+03  0.44193273183E+03  0.25500000920E-02 0. -1.
    10030    2    1    2    0    0  0.00000000000E+00  0.00000000000E+00  0.11902626672E+04  0.20741281308E+04  0.16986118704E+04 0.  0.
        2    1    3    3  502    0 -0.79666127583E+03 -0.30448126907E+02  0.95264560869E+03  0.12422278103E+04  0.25500000920E-02 0.  1.
       -2    1    3    3    0  502  0.79666127583E+03  0.30448126907E+02  0.23761705846E+03  0.83190032054E+03  0.25500000920E-02 0. -1.
</event>
<event>
 5   0  0.2288806E-04  0.1691418E+04  0.7818609E-02  0.8766274E-01
        2   -1    0    0  501    0  0.00000000000E+00  0.00000000000E+00  0.87717185237E+03  0.87717185237E+03  0.25500000920E-02 0.  1.
       -2   -1    0    0    0  501  0.00000000000E+00  0.00000000000E+00 -0.81537461412E+03  0.81537461413E+03  0.25500000920E-02 0. -1.
    10030    2    1    2    0    0  0.00000000000E+00  0.00000000000E+00  0.61797238244E+02  0.16925464665E+04  0.16914179385E+04 0.  0.
        3    1    3    3  502    0  0.67484825705E+03 -0.39338892089E+03 -0.29342970639E+03  0.83443155256E+03  0.10100000352E+00 0. -1.
       -3    1    3    3    0  502 -0.67484825705E+03  0.39338892089E+03  0.35522694463E+03  0.85811491393E+03  0.10100000352E+00 0.  1.
</event>
<event>
 5   0  0.8372750E-05  0.1693375E+04  0.7818609E-02  0.8765152E-01
       -3   -1    0    0    0  501  0.00000000000E+00  0.00000000000E+00  0.89661311614E+03  0.89661312183E+03  0.10100000352E+00 0. -1.
        3   -1    0    0  501    0  0.00000000000E+00  0.00000000000E+00 -0.79954187026E+03  0.79954187664E+03  0.10100000352E+00 0.  1.
    10030    2    1    2    0    0  0.00000000000E+00  0.00000000000E+00  0.97071245880E+02  0.16961549985E+04  0.16933750181E+04 0.  0.
        5    1    3    3  502    0 -0.79559977678E+03 -0.23500796672E+03 -0.12100506225E+03  0.83837465630E+03  0.46999998093E+01 0.  1.
       -5    1    3    3    0  502  0.79559977678E+03  0.23500796672E+03  0.21807630813E+03  0.85778034216E+03  0.46999998093E+01 0. -1.
</event>
<event>
 5   0  0.1234158E-04  0.1712027E+04  0.7818609E-02  0.8754535E-01
        1   -1    0    0  501    0  0.00000000000E+00  0.00000000000E+00  0.12048227293E+04  0.12048227293E+04  0.50400001928E-02 0.  1.
       -1   -1    0    0    0  501  0.00000000000E+00  0.00000000000E+00 -0.60818830345E+03  0.60818830347E+03  0.50400001928E-02 0. -1.
    10030    2    1    2    0    0  0.00000000000E+00  0.00000000000E+00  0.59663442585E+03  0.18130110328E+04  0.17120269761E+04 0.  0.
        5    1    3    3  502    0  0.51714682947E+03  0.13352504742E+03 -0.41006958127E+03  0.67338616929E+03  0.46999998093E+01 0. -1.
       -5    1    3    3    0  502 -0.51714682947E+03 -0.13352504742E+03  0.10067040071E+04  0.11396248635E+04  0.46999998093E+01 0.  1.
</event>
<event>
 5   0  0.2242967E-04  0.1700245E+04  0.7818609E-02  0.8761225E-01
        2   -1    0    0  501    0  0.00000000000E+00  0.00000000000E+00  0.46252495080E+03  0.46252495081E+03  0.25500000920E-02 0.  1.
       -2   -1    0    0    0  501  0.00000000000E+00  0.00000000000E+00 -0.15625281221E+04  0.15625281221E+04  0.25500000920E-02 0. -1.
    10030    2    1    2    0    0  0.00000000000E+00  0.00000000000E+00 -0.11000031713E+04  0.20250530729E+04  0.17002449739E+04 0.  0.
        4    1    3    3  502    0 -0.84940536094E+02 -0.60432516118E+03  0.15490949588E+03  0.62962080646E+03  0.12699999809E+01 0.  1.
       -4    1    3    3    0  502  0.84940536094E+02  0.60432516118E+03 -0.12549126672E+04  0.13954322665E+04  0.12699999809E+01 0. -1.
</event>
<event>
 5   0  0.2242967E-04  0.1700482E+04  0.7818609E-02  0.8761090E-01
       -2   -1    0    0    0  501  0.00000000000E+00  0.00000000000E+00  0.80677352763E+03  0.80677352763E+03  0.25500000920E-02 0.  1.
        2   -1    0    0  501    0  0.00000000000E+00  0.00000000000E+00 -0.89605036148E+03  0.89605036148E+03  0.25500000920E-02 0. -1.
    10030    2    1    2    0    0  0.00000000000E+00  0.00000000000E+00 -0.89276833846E+02  0.17028238891E+04  0.17004819447E+04 0.  0.
        4    1    3    3  502    0 -0.26467196008E+03 -0.71181604547E+03 -0.42749305926E+03  0.87148451372E+03  0.12699999809E+01 0. -1.
       -4    1    3    3    0  502  0.26467196008E+03  0.71181604547E+03  0.33821622541E+03  0.83133937539E+03  0.12699999809E+01 0.  1.
</event>
<event>
 5   0  0.2224454E-04  0.1693409E+04  0.7818609E-02  0.8765132E-01
        2   -1    0    0  501    0  0.00000000000E+00  0.00000000000E+00  0.12472226108E+04  0.12472226108E+04  0.25500000920E-02 0. -1.
       -2   -1    0    0    0  501  0.00000000000E+00  0.00000000000E+00 -0.57480391942E+03  0.57480391943E+03  0.25500000920E-02 0.  1.
    10030    2    1    2    0    0  0.00000000000E+00  0.00000000000E+00  0.67241869142E+03  0.18220265303E+04  0.16934089230E+04 0.  0.
        2    1    3    3  502    0 -0.52143122847E+03 -0.17625213117E+03  0.10284680497E+04  0.11664912640E+04  0.25500000920E-02 0. -1.
       -2    1    3    3    0  502  0.52143122847E+03  0.17625213117E+03 -0.35604935828E+03  0.65553526625E+03  0.25500000920E-02 0.  1.
</event>
<event>
 5   0  0.1234158E-04  0.1703256E+04  0.7818609E-02  0.8759509E-01
       -1   -1    0    0    0  501  0.00000000000E+00  0.00000000000E+00  0.81691885134E+03  0.81691885136E+03  0.50400001928E-02 0. -1.
        1   -1    0    0  501    0  0.00000000000E+00  0.00000000000E+00 -0.88781201082E+03  0.88781201084E+03  0.50400001928E-02 0.  1.
    10030    2    1    2    0    0  0.00000000000E+00  0.00000000000E+00 -0.70893159478E+02  0.17047308622E+04  0.17032561382E+04 0.  0.
        5    1    3    3  502    0  0.46989874302E+03  0.25650939066E+03 -0.69832386394E+03  0.87993193210E+03  0.46999998093E+01 0.  1.
       -5    1    3    3    0  502 -0.46989874302E+03 -0.25650939066E+03  0.62743070446E+03  0.82479893010E+03  0.46999998093E+01 0. -1.
</event>
<event>
 5   0  0.2288806E-04  0.1724262E+04  0.7818609E-02  0.8747647E-01
       -2   -1    0    0    0  501  0.00000000000E+00  0.00000000000E+00  0.35623015917E+03  0.35623015918E+03  0.25500000920E-02 0. -1.
        2   -1    0    0  501    0  0.00000000000E+00  0.00000000000E+00 -0.20864866852E+04  0.20864866852E+04  0.25500000920E-02 0.  1.
    10030    2    1    2    0    0  0.00000000000E+00  0.00000000000E+00 -0.17302565260E+04  0.24427168444E+04  0.17242615625E+04 0.  0.
        3    1    3    3  502    0 -0.40804419320E+03 -0.60009255486E+03 -0.15245415316E+04  0.16884424864E+04  0.10100000352E+00 0.  1.
       -3    1    3    3    0  502  0.40804419320E+03  0.60009255486E+03 -0.20571499443E+03  0.75427435800E+03  0.10100000352E+00 0. -1.
</event>
<event>
 5   0  0.8372750E-05  0.1735083E+04  0.7818609E-02  0.8741604E-01
        3   -1    0    0  501    0  0.00000000000E+00  0.00000000000E+00  0.14707402618E+04  0.14707402652E+04  0.10100000352E+00 0.  1.
       -3   -1    0    0    0  501  0.00000000000E+00  0.00000000000E+00 -0.51173459282E+03  0.51173460279E+03  0.10100000352E+00 0. -1.
    10030    2    1    2    0    0  0.00000000000E+00  0.00000000000E+00  0.95900566894E+03  0.19824748680E+04  0.17350834935E+04 0.  0.
        4    1    3    3  502    0  0.67627481027E+03 -0.10403202497E+03  0.10888930310E+04  0.12860248548E+04  0.12699999809E+01 0.  1.
       -4    1    3    3    0  502 -0.67627481027E+03  0.10403202497E+03 -0.12988736206E+03  0.69645001325E+03  0.12699999809E+01 0. -1.
</event>
<event>
 5   0  0.1186302E-04  0.1707609E+04  0.7818609E-02  0.8757037E-01
       -1   -1    0    0    0  501  0.00000000000E+00  0.00000000000E+00  0.62578525773E+03  0.62578525775E+03  0.50400001928E-02 0. -1.
        1   -1    0    0  501    0  0.00000000000E+00  0.00000000000E+00 -0.11649078203E+04  0.11649078203E+04  0.50400001928E-02 0.  1.
    10030    2    1    2    0    0  0.00000000000E+00  0.00000000000E+00 -0.53912256256E+03  0.17906930780E+04  0.17076090192E+04 0.  0.
        3    1    3    3  502    0  0.33256541332E+03 -0.19750866395E+03 -0.10677612934E+04  0.11356599915E+04  0.10100000352E+00 0.  1.
       -3    1    3    3    0  502 -0.33256541332E+03  0.19750866395E+03  0.52863873085E+03  0.65503308651E+03  0.10100000352E+00 0. -1.
</event>
<event>
 5   0  0.8372750E-05  0.1722338E+04  0.7818609E-02  0.8748726E-01
       -3   -1    0    0    0  501  0.00000000000E+00  0.00000000000E+00  0.20227334742E+04  0.20227334768E+04  0.10100000352E+00 0.  1.
        3   -1    0    0  501    0  0.00000000000E+00  0.00000000000E+00 -0.36663870760E+03  0.36663872151E+03  0.10100000352E+00 0. -1.
    10030    2    1    2    0    0  0.00000000000E+00  0.00000000000E+00  0.16560947666E+04  0.23893721983E+04  0.17223384179E+04 0.  0.
        1    1    3    3  502    0  0.63926459064E+03 -0.57215881072E+03  0.72434863892E+03  0.11228115925E+04  0.50400001928E-02 0.  1.
       -1    1    3    3    0  502 -0.63926459064E+03  0.57215881072E+03  0.93174612772E+03  0.12665606058E+04  0.50400001928E-02 0. -1.
</event>
<event>
 5   0  0.2242967E-04  0.1695315E+04  0.7818609E-02  0.8764041E-01
        2   -1    0    0  501    0  0.00000000000E+00  0.00000000000E+00  0.23391075322E+04  0.23391075322E+04  0.25500000920E-02 0. -1.
       -2   -1    0    0    0  501  0.00000000000E+00  0.00000000000E+00 -0.30717823306E+03  0.30717823307E+03  0.25500000920E-02 0.  1.
    10030    2    1    2    0    0  0.00000000000E+00  0.00000000000E+00  0.20319292992E+04  0.26462857653E+04  0.16953146241E+04 0.  0.
        4    1    3    3  502    0  0.63573646754E+03  0.22350092837E+03  0.18186097354E+04  0.19394474738E+04  0.12699999809E+01 0. -1.
       -4    1    3    3    0  502 -0.63573646754E+03 -0.22350092837E+03  0.21331956380E+03  0.70683829150E+03  0.12699999809E+01 0.  1.
</event>
<event>
 5   0  0.1126958E-04  0.1700442E+04  0.7818609E-02  0.8761112E-01
        1   -1    0    0  501    0  0.00000000000E+00  0.00000000000E+00  0.61062602324E+03  0.61062602326E+03  0.50400001928E-02 0.  1.
       -1   -1    0    0    0  501  0.00000000000E+00  0.00000000000E+00 -0.11838269559E+04  0.11838269559E+04  0.50400001928E-02 0. -1.
    10030    2    1    2    0    0  0.00000000000E+00  0.00000000000E+00 -0.57320093268E+03  0.17944529792E+04  0.17004417618E+04 0.  0.
        4    1    3    3  502    0 -0.69015721492E+03 -0.41130776894E+03 -0.58015766900E+03  0.99099727341E+03  0.12699999809E+01 0. -1.
       -4    1    3    3    0  502  0.69015721492E+03  0.41130776894E+03  0.69567363191E+01  0.80345570580E+03  0.12699999809E+01 0.  1.
</event>
<event>
 5   0  0.1186302E-04  0.1694765E+04  0.7818609E-02  0.8764356E-01
        1   -1    0    0  501    0  0.00000000000E+00  0.00000000000E+00  0.12017763716E+04  0.12017763716E+04  0.50400001928E-02 0. -1.
       -1   -1    0    0    0  501  0.00000000000E+00  0.00000000000E+00 -0.59749621534E+03  0.59749621536E+03  0.50400001928E-02 0.  1.
    10030    2    1    2    0    0  0.00000000000E+00  0.00000000000E+00  0.60428015627E+03  0.17992725870E+04  0.16947646843E+04 0.  0.
        3    1    3    3  502    0  0.34283715789E+03  0.64404266253E+03  0.75967779250E+03  0.10532989256E+04  0.10100000352E+00 0. -1.
       -3    1    3    3    0  502 -0.34283715789E+03 -0.64404266253E+03 -0.15539763622E+03  0.74597366142E+03  0.10100000352E+00 0.  1.
</event>
<event>
 5   0  0.2224454E-04  0.1696968E+04  0.7818609E-02  0.8763095E-01
        2   -1    0    0  501    0  0.00000000000E+00  0.00000000000E+00  0.91251023099E+03  0.91251023100E+03  0.25500000920E-02 0.  1.
       -2   -1    0    0    0  501  0.00000000000E+00  0.00000000000E+00 -0.78895028688E+03  0.78895028688E+03  0.25500000920E-02 0. -1.
    10030    2    1    2    0    0  0.00000000000E+00  0.00000000000E+00  0.12355994411E+03  0.17014605179E+04  0.16969681300E+04 0.  0.
        2    1    3    3  502    0 -0.19244480524E+02  0.12298550953E+03 -0.77974485540E+03  0.78961878468E+03  0.25500000920E-02 0. -1.
       -2    1    3    3    0  502  0.19244480524E+02 -0.12298550953E+03  0.90330479951E+03  0.91184173321E+03  0.25500000920E-02 0.  1.
</event>
<event>
 5   0  0.1186302E-04  0.1699288E+04  0.7818609E-02  0.8761770E-01
       -1   -1    0    0    0  501  0.00000000000E+00  0.00000000000E+00  0.67181839599E+03  0.67181839601E+03  0.50400001928E-02 0. -1.
        1   -1    0    0  501    0  0.00000000000E+00  0.00000000000E+00 -0.10745391844E+04  0.10745391844E+04  0.50400001928E-02 0.  1.
    10030    2    1    2    0    0  0.00000000000E+00  0.00000000000E+00 -0.40272078842E+03  0.17463575804E+04  0.16992883114E+04 0.  0.
        3    1    3    3  502    0  0.47310298336E+00 -0.79586401876E+03 -0.50708226133E+03  0.94368013126E+03  0.10100000352E+00 0.  1.
       -3    1    3    3    0  502 -0.47310298336E+00  0.79586401876E+03  0.10436147291E+03  0.80267744917E+03  0.10100000352E+00 0. -1.
</event>
<event>
 5   0  0.2242967E-04  0.1703275E+04  0.7818609E-02  0.8759499E-01
       -2   -1    0    0    0  501  0.00000000000E+00  0.00000000000E+00  0.11192475233E+04  0.11192475233E+04  0.25500000920E-02 0. -1.
        2   -1    0    0  501    0  0.00000000000E+00  0.00000000000E+00 -0.64801273261E+03  0.64801273261E+03  0.25500000920E-02 0.  1.
    10030    2    1    2    0    0  0.00000000000E+00  0.00000000000E+00  0.47123479071E+03  0.17672602559E+04  0.17032752520E+04 0.  0.
        4    1    3    3  502    0  0.47765768296E+03 -0.11755875517E+03  0.95693696646E+03  0.10759678869E+04  0.12699999809E+01 0. -1.
       -4    1    3    3    0  502 -0.47765768296E+03  0.11755875517E+03 -0.48570217576E+03  0.69129236901E+03  0.12699999809E+01 0.  1.
</event>
<event>
 5   0  0.2234723E-04  0.1716856E+04  0.7818609E-02  0.8751809E-01
        2   -1    0    0  501    0  0.00000000000E+00  0.00000000000E+00  0.18658835142E+04  0.18658835142E+04  0.25500000920E-02 0. -1.
       -2   -1    0    0    0  501  0.00000000000E+00  0.00000000000E+00 -0.39493280833E+03  0.39493280834E+03  0.25500000920E-02 0.  1.
    10030    2    1    2    0    0  0.00000000000E+00  0.00000000000E+00  0.14709507059E+04  0.22608163225E+04  0.17168559827E+04 0.  0.
        1    1    3    3  502    0 -0.81373534029E+02 -0.23780211615E+03  0.18163452657E+04  0.18336525360E+04  0.50400001928E-02 0. -1.
       -1    1    3    3    0  502  0.81373534029E+02  0.23780211615E+03 -0.34539455988E+03  0.42716378651E+03  0.50400001928E-02 0.  1.
</event>
<event>
 5   0  0.2234723E-04  0.1698606E+04  0.7818609E-02  0.8762160E-01
        2   -1    0    0  501    0  0.00000000000E+00  0.00000000000E+00  0.65503702997E+03  0.65503702998E+03  0.25500000920E-02 0.  1.
       -2   -1    0    0    0  501  0.00000000000E+00  0.00000000000E+00 -0.11011823594E+04  0.11011823594E+04  0.25500000920E-02 0. -1.
    10030    2    1    2    0    0  0.00000000000E+00  0.00000000000E+00 -0.44614532945E+03  0.17562193894E+04  0.16986055719E+04 0.  0.
        1    1    3    3  502    0 -0.45494633636E+03  0.68904336407E+03 -0.42871144023E+03  0.93034962543E+03  0.50400001928E-02 0. -1.
       -1    1    3    3    0  502  0.45494633636E+03 -0.68904336407E+03 -0.17433889218E+02  0.82586976397E+03  0.50400001928E-02 0.  1.
</event>
<event>
 5   0  0.2288806E-04  0.1696408E+04  0.7818609E-02  0.8763416E-01
       -2   -1    0    0    0  501  0.00000000000E+00  0.00000000000E+00  0.69109433717E+03  0.69109433718E+03  0.25500000920E-02 0. -1.
        2   -1    0    0  501    0  0.00000000000E+00  0.00000000000E+00 -0.10410299720E+04  0.10410299720E+04  0.25500000920E-02 0.  1.
    10030    2    1    2    0    0  0.00000000000E+00  0.00000000000E+00 -0.34993563480E+03  0.17321243092E+04  0.16964078737E+04 0.  0.
        3    1    3    3  502    0  0.38283968205E+03 -0.42791753908E+03  0.46249246368E+03  0.73727805580E+03  0.10100000352E+00 0. -1.
       -3    1    3    3    0  502 -0.38283968205E+03  0.42791753908E+03 -0.81242809848E+03  0.99484625335E+03  0.10100000352E+00 0.  1.
</event>
<event>
 5   0  0.2356829E-04  0.1691809E+04  0.7818609E-02  0.8766050E-01
        2   -1    0    0  501    0  0.00000000000E+00  0.00000000000E+00  0.14547193771E+04  0.14547193771E+04  0.25500000920E-02 0.  1.
       -2   -1    0    0    0  501  0.00000000000E+00  0.00000000000E+00 -0.49188467543E+03  0.49188467543E+03  0.25500000920E-02 0. -1.
    10030    2    1    2    0    0  0.00000000000E+00  0.00000000000E+00  0.96283470166E+03  0.19466040525E+04  0.16918086992E+04 0.  0.
        5    1    3    3  502    0 -0.53382839368E+03  0.11558809542E+03 -0.26176921660E+03  0.60570502265E+03  0.46999998093E+01 0. -1.
       -5    1    3    3    0  502  0.53382839368E+03 -0.11558809542E+03  0.12246039183E+04  0.13408990299E+04  0.46999998093E+01 0.  1.
</event>
<event>
 5   0  0.1186302E-04  0.1720992E+04  0.7818609E-02  0.8749481E-01
       -1   -1    0    0    0  501  0.00000000000E+00  0.00000000000E+00  0.76221436619E+03  0.76221436621E+03  0.50400001928E-02 0. -1.
        1   -1    0    0  501    0  0.00000000000E+00  0.00000000000E+00 -0.97145056599E+03  0.97145056600E+03  0.50400001928E-02 0.  1.
    10030    2    1    2    0    0  0.00000000000E+00  0.00000000000E+00 -0.20923619980E+03  0.17336649322E+04  0.17209922457E+04 0.  0.
        3    1    3    3  502    0  0.55553097375E+03  0.12642297423E+03 -0.75423573782E+03  0.94523488595E+03  0.10100000352E+00 0.  1.
       -3    1    3    3    0  502 -0.55553097375E+03 -0.12642297423E+03  0.54499953802E+03  0.78843004626E+03  0.10100000352E+00 0. -1.
</event>
<event>
 5   0  0.1126958E-04  0.1700049E+04  0.7818609E-02  0.8761337E-01
       -1   -1    0    0    0  501  0.00000000000E+00  0.00000000000E+00  0.49462231607E+03  0.49462231609E+03  0.50400001928E-02 0. -1.
        1   -1    0    0  501    0  0.00000000000E+00  0.00000000000E+00 -0.14607943668E+04  0.14607943669E+04  0.50400001928E-02 0.  1.
    10030    2    1    2    0    0  0.00000000000E+00  0.00000000000E+00 -0.96617205078E+03  0.19554166829E+04  0.17000488147E+04 0.  0.
        4    1    3    3  502    0 -0.70082199726E+03 -0.36771336746E+03 -0.83979141511E+03  0.11539565963E+04  0.12699999809E+01 0.  1.
       -4    1    3    3    0  502  0.70082199726E+03  0.36771336746E+03 -0.12638063567E+03  0.80146008660E+03  0.12699999809E+01 0. -1.
</event>
<event>
 5   0  0.2242967E-04  0.1702705E+04  0.7818609E-02  0.8759823E-01
       -2   -1    0    0    0  501  0.00000000000E+00  0.00000000000E+00  0.30173175871E+03  0.30173175873E+03  0.25500000920E-02 0.  1.
        2   -1    0    0  501    0  0.00000000000E+00  0.00000000000E+00 -0.24021370953E+04  0.24021370953E+04  0.25500000920E-02 0. -1.
    10030    2    1    2    0    0  0.00000000000E+00  0.00000000000E+00 -0.21004053366E+04  0.27038688540E+04  0.17027049662E+04 0.  0.
        4    1    3    3  502    0  0.73848039855E+03  0.35276523026E+03 -0.14226275954E+04  0.16412396214E+04  0.12699999809E+01 0.  1.
       -4    1    3    3    0  502 -0.73848039855E+03 -0.35276523026E+03 -0.67777774122E+03  0.10626292327E+04  0.12699999809E+01 0. -1.
</event>
<event>
 5   0  0.1186302E-04  0.1704821E+04  0.7818609E-02  0.8758620E-01
       -1   -1    0    0    0  501  0.00000000000E+00  0.00000000000E+00  0.38172579368E+03  0.38172579372E+03  0.50400001928E-02 0. -1.
        1   -1    0    0  501    0  0.00000000000E+00  0.00000000000E+00 -0.19034702332E+04  0.19034702332E+04  0.50400001928E-02 0.  1.
    10030    2    1    2    0    0  0.00000000000E+00  0.00000000000E+00 -0.15217444395E+04  0.22851960269E+04  0.17048210294E+04 0.  0.
        3    1    3    3  502    0  0.61862469565E+03 -0.55957564968E+03 -0.99604923398E+03  0.12992057222E+04  0.10100000352E+00 0. -1.
       -3    1    3    3    0  502 -0.61862469565E+03  0.55957564968E+03 -0.52569520556E+03  0.98599030478E+03  0.10100000352E+00 0.  1.
</event>
<event>
 5   0  0.1215233E-04  0.1704151E+04  0.7818609E-02  0.8759001E-01
       -1   -1    0    0    0  501  0.00000000000E+00  0.00000000000E+00  0.68712406619E+03  0.68712406620E+03  0.50400001928E-02 0.  1.
        1   -1    0    0  501    0  0.00000000000E+00  0.00000000000E+00 -0.10566246858E+04  0.10566246858E+04  0.50400001928E-02 0. -1.
    10030    2    1    2    0    0  0.00000000000E+00  0.00000000000E+00 -0.36950061957E+03  0.17437487520E+04  0.17041505222E+04 0.  0.
        2    1    3    3  502    0  0.21728195553E+03  0.67983364688E+03  0.29151868804E+03  0.77095290460E+03  0.25500000920E-02 0.  1.
       -2    1    3    3    0  502 -0.21728195553E+03 -0.67983364688E+03 -0.66101930761E+03  0.97279584738E+03  0.25500000920E-02 0. -1.
</event>
<event>
 5   0  0.1186302E-04  0.1703631E+04  0.7818609E-02  0.8759296E-01
        1   -1    0    0  501    0  0.00000000000E+00  0.00000000000E+00  0.17917958562E+04  0.17917958562E+04  0.50400001928E-02 0.  1.
       -1   -1    0    0    0  501  0.00000000000E+00  0.00000000000E+00 -0.40495099076E+03  0.40495099080E+03  0.50400001928E-02 0. -1.
    10030    2    1    2    0    0  0.00000000000E+00  0.00000000000E+00  0.13868448654E+04  0.21967468470E+04  0.17036308371E+04 0.  0.
        3    1    3    3  502    0 -0.19105598571E+03 -0.72690598573E+03  0.17652375102E+03  0.77204620758E+03  0.10100000352E+00 0. -1.
       -3    1    3    3    0  502  0.19105598571E+03  0.72690598573E+03  0.12103211144E+04  0.14247006394E+04  0.10100000352E+00 0.  1.
</event>
<event>
 5   0  0.1186302E-04  0.1734200E+04  0.7818609E-02  0.8742096E-01
        1   -1    0    0  501    0  0.00000000000E+00  0.00000000000E+00  0.20056518993E+04  0.20056518993E+04  0.50400001928E-02 0.  1.
       -1   -1    0    0    0  501  0.00000000000E+00  0.00000000000E+00 -0.37487185069E+03  0.37487185072E+03  0.50400001928E-02 0. -1.
    10030    2    1    2    0    0  0.00000000000E+00  0.00000000000E+00  0.16307800486E+04  0.23805237500E+04  0.17342000339E+04 0.  0.
        3    1    3    3  502    0 -0.74861572463E+03  0.83161861546E+01  0.21489733696E+03  0.77889379105E+03  0.10100000352E+00 0. -1.
       -3    1    3    3    0  502  0.74861572463E+03 -0.83161861546E+01  0.14158827116E+04  0.16016299589E+04  0.10100000352E+00 0.  1.
</event>
<event>
 5   0  0.1234158E-04  0.1704378E+04  0.7818609E-02  0.8758871E-01
       -1   -1    0    0    0  501  0.00000000000E+00  0.00000000000E+00  0.84888669246E+03  0.84888669247E+03  0.50400001928E-02 0.  1.
        1   -1    0    0  501    0  0.00000000000E+00  0.00000000000E+00 -0.85550461910E+03  0.85550461911E+03  0.50400001928E-02 0. -1.
    10030    2    1    2    0    0  0.00000000000E+00  0.00000000000E+00 -0.66179266411E+01  0.17043913116E+04  0.17043784633E+04 0.  0.
        5    1    3    3  502    0 -0.61604685664E+03 -0.50827934119E+03  0.29391840788E+03  0.85104156112E+03  0.46999998093E+01 0.  1.
       -5    1    3    3    0  502  0.61604685664E+03  0.50827934119E+03 -0.30053633452E+03  0.85334975047E+03  0.46999998093E+01 0. -1.
</event>
<event>
 5   0  0.1215233E-04  0.1698136E+04  0.7818609E-02  0.8762428E-01
       -1   -1    0    0    0  501  0.00000000000E+00  0.00000000000E+00  0.70898205125E+03  0.70898205127E+03  0.50400001928E-02 0. -1.
        1   -1    0    0  501    0  0.00000000000E+00  0.00000000000E+00 -0.10168334983E+04  0.10168334983E+04  0.50400001928E-02 0.  1.
    10030    2    1    2    0    0  0.00000000000E+00  0.00000000000E+00 -0.30785144707E+03  0.17258155496E+04  0.16981362719E+04 0.  0.
        2    1    3    3  502    0 -0.10253305517E+03  0.45803677865E+03 -0.87299354831E+03  0.99117528893E+03  0.25500000920E-02 0.  1.
       -2    1    3    3    0  502  0.10253305517E+03 -0.45803677865E+03  0.56514210124E+03  0.73464026067E+03  0.25500000920E-02 0. -1.
</event>
<event>
 5   0  0.1215233E-04  0.1698296E+04  0.7818609E-02  0.8762337E-01
       -1   -1    0    0    0  501  0.00000000000E+00  0.00000000000E+00  0.60788102072E+03  0.60788102074E+03  0.50400001928E-02 0. -1.
        1   -1    0    0  501    0  0.00000000000E+00  0.00000000000E+00 -0.11861737721E+04  0.11861737721E+04  0.50400001928E-02 0.  1.
    10030    2    1    2    0    0  0.00000000000E+00  0.00000000000E+00 -0.57829275139E+03  0.17940547929E+04  0.16982962325E+04 0.  0.
        2    1    3    3  502    0  0.19820957129E+03 -0.25505833557E+01 -0.11613897746E+04  0.11781849380E+04  0.25500000920E-02 0.  1.
       -2    1    3    3    0  502 -0.19820957129E+03  0.25505833557E+01  0.58309702321E+03  0.61586985484E+03  0.25500000920E-02 0. -1.
</event>
<event>
 5   0  0.2356829E-04  0.1697852E+04  0.7818609E-02  0.8762590E-01
        2   -1    0    0  501    0  0.00000000000E+00  0.00000000000E+00  0.81502581556E+03  0.81502581557E+03  0.25500000920E-02 0. -1.
       -2   -1    0    0    0  501  0.00000000000E+00  0.00000000000E+00 -0.88423620002E+03  0.88423620003E+03  0.25500000920E-02 0.  1.
    10030    2    1    2    0    0  0.00000000000E+00  0.00000000000E+00 -0.69210384463E+02  0.16992620156E+04  0.16978519724E+04 0.  0.
        5    1    3    3  502    0 -0.14435816642E+03 -0.63974375743E+03 -0.57407221377E+03  0.87160332262E+03  0.46999998093E+01 0.  1.
       -5    1    3    3    0  502  0.14435816642E+03  0.63974375743E+03  0.50486182930E+03  0.82765869298E+03  0.46999998093E+01 0. -1.
</event>
<event>
 5   0  0.1186302E-04  0.1704485E+04  0.7818609E-02  0.8758811E-01
       -1   -1    0    0    0  501  0.00000000000E+00  0.00000000000E+00  0.51292631802E+03  0.51292631805E+03  0.50400001928E-02 0.  1.
        1   -1    0    0  501    0  0.00000000000E+00  0.00000000000E+00 -0.14160263532E+04  0.14160263533E+04  0.50400001928E-02 0. -1.
    10030    2    1    2    0    0  0.00000000000E+00  0.00000000000E+00 -0.90310003522E+03  0.19289526713E+04  0.17044848883E+04 0.  0.
        3    1    3    3  502    0 -0.72160360998E+03 -0.10972177398E+03 -0.94945165627E+03  0.11975846924E+04  0.10100000352E+00 0. -1.
       -3    1    3    3    0  502  0.72160360998E+03  0.10972177398E+03  0.46351621054E+02  0.73136797892E+03  0.10100000352E+00 0.  1.
</event>
<event>
 5   0  0.2356829E-04  0.1693054E+04  0.7818609E-02  0.8765336E-01
       -2   -1    0    0    0  501  0.00000000000E+00  0.00000000000E+00  0.58658151445E+03  0.58658151445E+03  0.25500000920E-02 0. -1.
        2   -1    0    0  501    0  0.00000000000E+00  0.00000000000E+00 -0.12216688260E+04  0.12216688261E+04  0.25500000920E-02 0.  1.
    10030    2    1    2    0    0  0.00000000000E+00  0.00000000000E+00 -0.63508731160E+03  0.18082503405E+04  0.16930544588E+04 0.  0.
        5    1    3    3  502    0 -0.54997666650E+03 -0.40717694540E+03  0.21467792672E+03  0.71720018180E+03  0.46999998093E+01 0. -1.
       -5    1    3    3    0  502  0.54997666650E+03  0.40717694540E+03 -0.84976523832E+03  0.10910501587E+04  0.46999998093E+01 0.  1.
</event>
<event>
 5   0  0.1186302E-04  0.1711004E+04  0.7818609E-02  0.8755113E-01
       -1   -1    0    0    0  501  0.00000000000E+00  0.00000000000E+00  0.51157112432E+03  0.51157112435E+03  0.50400001928E-02 0. -1.
        1   -1    0    0  501    0  0.00000000000E+00  0.00000000000E+00 -0.14306585660E+04  0.14306585660E+04  0.50400001928E-02 0.  1.
    10030    2    1    2    0    0  0.00000000000E+00  0.00000000000E+00 -0.91908744169E+03  0.19422296904E+04  0.17110039289E+04 0.  0.
        3    1    3    3  502    0 -0.39487398643E+03 -0.73598017871E+03 -0.66974803984E+03  0.10705861645E+04  0.10100000352E+00 0.  1.
       -3    1    3    3    0  502  0.39487398643E+03  0.73598017871E+03 -0.24933940185E+03  0.87164352584E+03  0.10100000352E+00 0. -1.
</event>
<event>
 5   0  0.2242967E-04  0.1713998E+04  0.7818609E-02  0.8753421E-01
       -2   -1    0    0    0  501  0.00000000000E+00  0.00000000000E+00  0.12145752403E+04  0.12145752403E+04  0.25500000920E-02 0. -1.
        2   -1    0    0  501    0  0.00000000000E+00  0.00000000000E+00 -0.60469491349E+03  0.60469491350E+03  0.25500000920E-02 0.  1.
    10030    2    1    2    0    0  0.00000000000E+00  0.00000000000E+00  0.60988032676E+03  0.18192701538E+04  0.17139982145E+04 0.  0.
        4    1    3    3  502    0 -0.28273259486E+01  0.65644771179E+03 -0.27981812088E+03  0.71360450234E+03  0.12699999809E+01 0.  1.
       -4    1    3    3    0  502  0.28273259486E+01 -0.65644771179E+03  0.88969844763E+03  0.11056656514E+04  0.12699999809E+01 0. -1.
</event>
<event>
 5   0  0.1126958E-04  0.1694325E+04  0.7818609E-02  0.8764607E-01
       -1   -1    0    0    0  501  0.00000000000E+00  0.00000000000E+00  0.17229446405E+04  0.17229446405E+04  0.50400001928E-02 0. -1.
        1   -1    0    0  501    0  0.00000000000E+00  0.00000000000E+00 -0.41654533709E+03  0.41654533712E+03  0.50400001928E-02 0.  1.
    10030    2    1    2    0    0  0.00000000000E+00  0.00000000000E+00  0.13063993034E+04  0.21394899776E+04  0.16943253007E+04 0.  0.
        4    1    3    3  502    0  0.28538401722E+03  0.17742403614E+03  0.16351846477E+04  0.16693572928E+04  0.12699999809E+01 0. -1.
       -4    1    3    3    0  502 -0.28538401722E+03 -0.17742403614E+03 -0.32878534428E+03  0.47013268489E+03  0.12699999809E+01 0.  1.
</event>
<event>
 5   0  0.2242967E-04  0.1711819E+04  0.7818609E-02  0.8754652E-01
       -2   -1    0    0    0  501  0.00000000000E+00  0.00000000000E+00  0.64487967502E+03  0.64487967503E+03  0.25500000920E-02 0. -1.
        2   -1    0    0  501    0  0.00000000000E+00  0.00000000000E+00 -0.11359970311E+04  0.11359970311E+04  0.25500000920E-02 0.  1.
    10030    2    1    2    0    0  0.00000000000E+00  0.00000000000E+00 -0.49111735604E+03  0.17808767061E+04  0.17118193786E+04 0.  0.
        4    1    3    3  502    0  0.17651348296E+03  0.79649815613E+03  0.23754087027E+02  0.81616921770E+03  0.12699999809E+01 0. -1.
       -4    1    3    3    0  502 -0.17651348296E+03 -0.79649815613E+03 -0.51487144307E+03  0.96470748839E+03  0.12699999809E+01 0.  1.
</event>
<event>
 5   0  0.2224454E-04  0.1694473E+04  0.7818609E-02  0.8764523E-01
        2   -1    0    0  501    0  0.00000000000E+00  0.00000000000E+00  0.86968579329E+03  0.86968579329E+03  0.25500000920E-02 0.  1.
       -2   -1    0    0    0  501  0.00000000000E+00  0.00000000000E+00 -0.82536628239E+03  0.82536628240E+03  0.25500000920E-02 0. -1.
    10030    2    1    2    0    0  0.00000000000E+00  0.00000000000E+00  0.44319510896E+02  0.16950520757E+04  0.16944725788E+04 0.  0.
        2    1    3    3  502    0 -0.36364730270E+03  0.72712296655E+03 -0.21637967594E+03  0.84128909027E+03  0.25500000920E-02 0. -1.
       -2    1    3    3    0  502  0.36364730270E+03 -0.72712296655E+03  0.26069918683E+03  0.85376298542E+03  0.25500000920E-02 0.  1.
</event>
<event>
 5   0  0.1204741E-04  0.1731376E+04  0.7818609E-02  0.8743669E-01
        1   -1    0    0  501    0  0.00000000000E+00  0.00000000000E+00  0.89748735582E+03  0.89748735583E+03  0.50400001928E-02 0.  1.
       -1   -1    0    0    0  501  0.00000000000E+00  0.00000000000E+00 -0.83501494873E+03  0.83501494875E+03  0.50400001928E-02 0. -1.
    10030    2    1    2    0    0  0.00000000000E+00  0.00000000000E+00  0.62472407090E+02  0.17325023046E+04  0.17313755900E+04 0.  0.
        1    1    3    3  502    0  0.21600939855E+03  0.68036175336E+03  0.52131321004E+03  0.88392286919E+03  0.50400001928E-02 0.  1.
       -1    1    3    3    0  502 -0.21600939855E+03 -0.68036175336E+03 -0.45884080295E+03  0.84857943539E+03  0.50400001928E-02 0. -1.
</event>
<event>
 5   0  0.8372750E-05  0.1703632E+04  0.7818609E-02  0.8759296E-01
       -3   -1    0    0    0  501  0.00000000000E+00  0.00000000000E+00  0.38311170515E+03  0.38311171847E+03  0.10100000352E+00 0. -1.
        3   -1    0    0  501    0  0.00000000000E+00  0.00000000000E+00 -0.18939390110E+04  0.18939390137E+04  0.10100000352E+00 0.  1.
    10030    2    1    2    0    0  0.00000000000E+00  0.00000000000E+00 -0.15108273059E+04  0.22770507322E+04  0.17036316764E+04 0.  0.
        3    1    3    3  502    0 -0.39812393679E+03  0.73120662220E+03 -0.99608982699E+03  0.12982144457E+04  0.10100000352E+00 0.  1.
       -3    1    3    3    0  502  0.39812393679E+03 -0.73120662220E+03 -0.51473747890E+03  0.97883628650E+03  0.10100000352E+00 0. -1.
</event>
<event>
 5   0  0.1204741E-04  0.1693946E+04  0.7818609E-02  0.8764825E-01
       -1   -1    0    0    0  501  0.00000000000E+00  0.00000000000E+00  0.30976714135E+03  0.30976714139E+03  0.50400001928E-02 0. -1.
        1   -1    0    0  501    0  0.00000000000E+00  0.00000000000E+00 -0.23158148800E+04  0.23158148800E+04  0.50400001928E-02 0.  1.
    10030    2    1    2    0    0  0.00000000000E+00  0.00000000000E+00 -0.20060477386E+04  0.26255820214E+04  0.16939461093E+04 0.  0.
        1    1    3    3  502    0  0.10951017916E+03  0.71049704777E+03 -0.16971739531E+04  0.18431489254E+04  0.50400001928E-02 0. -1.
       -1    1    3    3    0  502 -0.10951017916E+03 -0.71049704777E+03 -0.30887378557E+03  0.78243309597E+03  0.50400001928E-02 0.  1.
</event>
<event>
 5   0  0.2356829E-04  0.1689038E+04  0.7818609E-02  0.8767641E-01
       -2   -1    0    0    0  501  0.00000000000E+00  0.00000000000E+00  0.38865154746E+03  0.38865154746E+03  0.25500000920E-02 0. -1.
        2   -1    0    0  501    0  0.00000000000E+00  0.00000000000E+00 -0.18350945713E+04  0.18350945713E+04  0.25500000920E-02 0.  1.
    10030    2    1    2    0    0  0.00000000000E+00  0.00000000000E+00 -0.14464430238E+04  0.22237461188E+04  0.16890380042E+04 0.  0.
        5    1    3    3  502    0 -0.15545452454E+03 -0.26037683446E+03  0.31447727725E+03  0.43689844704E+03  0.46999998093E+01 0. -1.
       -5    1    3    3    0  502  0.15545452454E+03  0.26037683446E+03 -0.17609203011E+04  0.17868476717E+04  0.46999998093E+01 0.  1.
</event>
<event>
 5   0  0.2288806E-04  0.1701223E+04  0.7818609E-02  0.8760667E-01
       -2   -1    0    0    0  501  0.00000000000E+00  0.00000000000E+00  0.49300823828E+03  0.49300823829E+03  0.25500000920E-02 0.  1.
        2   -1    0    0  501    0  0.00000000000E+00  0.00000000000E+00 -0.14676026917E+04  0.14676026917E+04  0.25500000920E-02 0. -1.
    10030    2    1    2    0    0  0.00000000000E+00  0.00000000000E+00 -0.97459445346E+03  0.19606109300E+04  0.17012233452E+04 0.  0.
        3    1    3    3  502    0 -0.19092814234E+03  0.26281724813E+03  0.41870476640E+03  0.52994353761E+03  0.10100000352E+00 0.  1.
       -3    1    3    3    0  502  0.19092814234E+03 -0.26281724813E+03 -0.13932992199E+04  0.14306673924E+04  0.10100000352E+00 0. -1.
</event>
<event>
 5   0  0.2288806E-04  0.1697658E+04  0.7818609E-02  0.8762701E-01
       -2   -1    0    0    0  501  0.00000000000E+00  0.00000000000E+00  0.33251213745E+03  0.33251213746E+03  0.25500000920E-02 0. -1.
        2   -1    0    0  501    0  0.00000000000E+00  0.00000000000E+00 -0.21668714636E+04  0.21668714636E+04  0.25500000920E-02 0.  1.
    10030    2    1    2    0    0  0.00000000000E+00  0.00000000000E+00 -0.18343593262E+04  0.24993836011E+04  0.16976584603E+04 0.  0.
        3    1    3    3  502    0  0.14540715608E+02 -0.69871501476E+02 -0.21624464405E+04  0.21636238299E+04  0.10100000352E+00 0.  1.
       -3    1    3    3    0  502 -0.14540715608E+02  0.69871501476E+02  0.32808711434E+03  0.33575977115E+03  0.10100000352E+00 0. -1.
</event>
<event>
 5   0  0.1215233E-04  0.1702170E+04  0.7818609E-02  0.8760128E-01
        1   -1    0    0  501    0  0.00000000000E+00  0.00000000000E+00  0.18896876261E+04  0.18896876261E+04  0.50400001928E-02 0. -1.
       -1   -1    0    0    0  501  0.00000000000E+00  0.00000000000E+00 -0.38331487335E+03  0.38331487338E+03  0.50400001928E-02 0.  1.
    10030    2    1    2    0    0  0.00000000000E+00  0.00000000000E+00  0.15063727527E+04  0.22730024995E+04  0.17021696427E+04 0.  0.
        2    1    3    3  502    0  0.28245714856E+02 -0.40784222664E+03  0.17499849512E+04  0.17971033447E+04  0.25500000920E-02 0. -1.
       -2    1    3    3    0  502 -0.28245714856E+02  0.40784222664E+03 -0.24361219846E+03  0.47589915474E+03  0.25500000920E-02 0.  1.
</event>
<event>
 5   0  0.2242967E-04  0.1708888E+04  0.7818609E-02  0.8756311E-01
        2   -1    0    0  501    0  0.00000000000E+00  0.00000000000E+00  0.15923456438E+04  0.15923456438E+04  0.25500000920E-02 0. -1.
       -2   -1    0    0    0  501  0.00000000000E+00  0.00000000000E+00 -0.45849014550E+03  0.45849014551E+03  0.25500000920E-02 0.  1.
    10030    2    1    2    0    0  0.00000000000E+00  0.00000000000E+00  0.11338554983E+04  0.20508357893E+04  0.17088882771E+04 0.  0.
        4    1    3    3  502    0 -0.45238335192E+03 -0.17169909015E+03  0.14120754556E+04  0.14926787933E+04  0.12699999809E+01 0. -1.
       -4    1    3    3    0  502  0.45238335192E+03  0.17169909015E+03 -0.27821995732E+03  0.55815699602E+03  0.12699999809E+01 0.  1.
</event>
<event>
 5   0  0.1204741E-04  0.1702168E+04  0.7818609E-02  0.8760129E-01
        1   -1    0    0  501    0  0.00000000000E+00  0.00000000000E+00  0.56599579759E+03  0.56599579761E+03  0.50400001928E-02 0.  1.
       -1   -1    0    0    0  501  0.00000000000E+00  0.00000000000E+00 -0.12797686320E+04  0.12797686321E+04  0.50400001928E-02 0. -1.
    10030    2    1    2    0    0  0.00000000000E+00  0.00000000000E+00 -0.71377283446E+03  0.18457644297E+04  0.17021676388E+04 0.  0.
        1    1    3    3  502    0  0.42460179871E+03 -0.50818539124E+03 -0.93659341260E+03  0.11470598502E+04  0.50400001928E-02 0. -1.
       -1    1    3    3    0  502 -0.42460179871E+03  0.50818539124E+03  0.22282057814E+03  0.69870457949E+03  0.50400001928E-02 0.  1.
</event>
<event>
 5   0  0.2288806E-04  0.1695870E+04  0.7818609E-02  0.8763723E-01
       -2   -1    0    0    0  501  0.00000000000E+00  0.00000000000E+00  0.83137444181E+03  0.83137444181E+03  0.25500000920E-02 0.  1.
        2   -1    0    0  501    0  0.00000000000E+00  0.00000000000E+00 -0.86482542489E+03  0.86482542489E+03  0.25500000920E-02 0. -1.
    10030    2    1    2    0    0  0.00000000000E+00  0.00000000000E+00 -0.33450983080E+02  0.16961998667E+04  0.16958699890E+04 0.  0.
        3    1    3    3  502    0 -0.14746236317E+03  0.54802009129E+03  0.61341497541E+03  0.83567284943E+03  0.10100000352E+00 0.  1.
       -3    1    3    3    0  502  0.14746236317E+03 -0.54802009129E+03 -0.64686595849E+03  0.86052701728E+03  0.10100000352E+00 0. -1.
</event>
<event>
 5   0  0.1204741E-04  0.1646294E+04  0.7818609E-02  0.8792602E-01
       -1   -1    0    0    0  501  0.00000000000E+00  0.00000000000E+00  0.53434151880E+03  0.53434151883E+03  0.50400001928E-02 0. -1.
        1   -1    0    0  501    0  0.00000000000E+00  0.00000000000E+00 -0.12680482278E+04  0.12680482279E+04  0.50400001928E-02 0.  1.
    10030    2    1    2    0    0  0.00000000000E+00  0.00000000000E+00 -0.73370670904E+03  0.18023897467E+04  0.16462937964E+04 0.  0.
        1    1    3    3  502    0  0.38212954528E+03  0.29893018992E+03 -0.10948763911E+04  0.11975544078E+04  0.50400001928E-02 0.  1.
       -1    1    3    3    0  502 -0.38212954528E+03 -0.29893018992E+03  0.36116968210E+03  0.60483533885E+03  0.50400001928E-02 0. -1.
</event>
<event>
 5   0  0.2356829E-04  0.1705227E+04  0.7818609E-02  0.8758389E-01
       -2   -1    0    0    0  501  0.00000000000E+00  0.00000000000E+00  0.11134525966E+04  0.11134525966E+04  0.25500000920E-02 0. -1.
        2   -1    0    0  501    0  0.00000000000E+00  0.00000000000E+00 -0.65287923753E+03  0.65287923754E+03  0.25500000920E-02 0.  1.
    10030    2    1    2    0    0  0.00000000000E+00  0.00000000000E+00  0.46057335903E+03  0.17663318341E+04  0.17052273541E+04 0.  0.
        5    1    3    3  502    0  0.47599252444E+03 -0.18899511707E+03 -0.47578416975E+03  0.69905701040E+03  0.46999998093E+01 0.  1.
       -5    1    3    3    0  502 -0.47599252444E+03  0.18899511707E+03  0.93635752878E+03  0.10672748237E+04  0.46999998093E+01 0. -1.
</event>
<event>
 5   0  0.8372750E-05  0.1697303E+04  0.7818609E-02  0.8762904E-01
       -3   -1    0    0    0  501  0.00000000000E+00  0.00000000000E+00  0.95368838510E+03  0.95368839045E+03  0.10100000352E+00 0.  1.
        3   -1    0    0  501    0  0.00000000000E+00  0.00000000000E+00 -0.75518315781E+03  0.75518316456E+03  0.10100000352E+00 0. -1.
    10030    2    1    2    0    0  0.00000000000E+00  0.00000000000E+00  0.19850522729E+03  0.17088715550E+04  0.16973030567E+04 0.  0.
        5    1    3    3  502    0 -0.66172505606E+03 -0.19797370105E+02 -0.43532329415E+03  0.79233859310E+03  0.46999998093E+01 0. -1.
       -5    1    3    3    0  502  0.66172505606E+03  0.19797370105E+02  0.63382852144E+03  0.91653296191E+03  0.46999998093E+01 0.  1.
</event>
<event>
 5   0  0.1126958E-04  0.1706660E+04  0.7818609E-02  0.8757575E-01
        1   -1    0    0  501    0  0.00000000000E+00  0.00000000000E+00  0.31744487813E+03  0.31744487817E+03  0.50400001928E-02 0. -1.
       -1   -1    0    0    0  501  0.00000000000E+00  0.00000000000E+00 -0.22938540099E+04  0.22938540099E+04  0.50400001928E-02 0.  1.
    10030    2    1    2    0    0  0.00000000000E+00  0.00000000000E+00 -0.19764091317E+04  0.26112988881E+04  0.17066601380E+04 0.  0.
        4    1    3    3  502    0 -0.56751565544E+03 -0.54292008030E+03 -0.47767117799E+03  0.91924294936E+03  0.12699999809E+01 0. -1.
       -4    1    3    3    0  502  0.56751565544E+03  0.54292008030E+03 -0.14987379538E+04  0.16920559387E+04  0.12699999809E+01 0.  1.
</event>
<event>
 5   0  0.2224454E-04  0.1684477E+04  0.7818609E-02  0.8770268E-01
       -2   -1    0    0    0  501  0.00000000000E+00  0.00000000000E+00  0.55634520243E+03  0.55634520243E+03  0.25500000920E-02 0.  1.
        2   -1    0    0  501    0  0.00000000000E+00  0.00000000000E+00 -0.12750458334E+04  0.12750458334E+04  0.25500000920E-02 0. -1.
    10030    2    1    2    0    0  0.00000000000E+00  0.00000000000E+00 -0.71870063098E+03  0.18313910358E+04  0.16844769304E+04 0.  0.
        2    1    3    3  502    0  0.27014962721E+03  0.74894223668E+03 -0.60671677556E+02  0.79848378031E+03  0.25500000920E-02 0. -1.
       -2    1    3    3    0  502 -0.27014962721E+03 -0.74894223668E+03 -0.65802895342E+03  0.10329072555E+04  0.25500000920E-02 0.  1.
</event>
<event>
 5   0  0.2288806E-04  0.1505976E+04  0.7818609E-02  0.8880488E-01
        2   -1    0    0  501    0  0.00000000000E+00  0.00000000000E+00  0.60468763870E+03  0.60468763870E+03  0.25500000920E-02 0.  1.
       -2   -1    0    0    0  501  0.00000000000E+00  0.00000000000E+00 -0.93765976248E+03  0.93765976248E+03  0.25500000920E-02 0. -1.
    10030    2    1    2    0    0  0.00000000000E+00  0.00000000000E+00 -0.33297212378E+03  0.15423474012E+04  0.15059764509E+04 0.  0.
        3    1    3    3  502    0 -0.20838822882E+03 -0.49711336994E+03  0.37199140138E+03  0.65492363630E+03  0.10100000352E+00 0.  1.
       -3    1    3    3    0  502  0.20838822882E+03  0.49711336994E+03 -0.70496352516E+03  0.88742376489E+03  0.10100000352E+00 0. -1.
</event>
<event>
 5   0  0.1234158E-04  0.1683150E+04  0.7818609E-02  0.8771033E-01
       -1   -1    0    0    0  501  0.00000000000E+00  0.00000000000E+00  0.19141116736E+04  0.19141116736E+04  0.50400001928E-02 0. -1.
        1   -1    0    0  501    0  0.00000000000E+00  0.00000000000E+00 -0.37001429445E+03  0.37001429449E+03  0.50400001928E-02 0.  1.
    10030    2    1    2    0    0  0.00000000000E+00  0.00000000000E+00  0.15440973791E+04  0.22841259681E+04  0.16831502374E+04 0.  0.
        5    1    3    3  502    0 -0.68045298094E+03 -0.44943970642E+03  0.48994366803E+03  0.95135650353E+03  0.46999998093E+01 0. -1.
       -5    1    3    3    0  502  0.68045298094E+03  0.44943970642E+03  0.10541537111E+04  0.13327694645E+04  0.46999998093E+01 0.  1.
</event>
<event>
 5   0  0.8372750E-05  0.1697082E+04  0.7818609E-02  0.8763030E-01
        4   -1    0    0  501    0  0.00000000000E+00  0.00000000000E+00  0.78593959511E+03  0.78594062121E+03  0.12699999809E+01 0. -1.
       -4   -1    0    0    0  501  0.00000000000E+00  0.00000000000E+00 -0.91612711649E+03  0.91612799678E+03  0.12699999809E+01 0.  1.
    10030    2    1    2    0    0  0.00000000000E+00  0.00000000000E+00 -0.13018752138E+03  0.17020686180E+04  0.16970824345E+04 0.  0.
        4    1    3    3  502    0 -0.84685251749E+03  0.52726853391E+02 -0.56051894239E+02  0.85034271632E+03  0.12699999809E+01 0. -1.
       -4    1    3    3    0  502  0.84685251749E+03 -0.52726853391E+02 -0.74135627141E+02  0.85172590166E+03  0.12699999809E+01 0.  1.
</event>
<event>
 5   0  0.2242967E-04  0.1690683E+04  0.7818609E-02  0.8766696E-01
        2   -1    0    0  501    0  0.00000000000E+00  0.00000000000E+00  0.13174453151E+04  0.13174453151E+04  0.25500000920E-02 0. -1.
       -2   -1    0    0    0  501  0.00000000000E+00  0.00000000000E+00 -0.54241541315E+03  0.54241541316E+03  0.25500000920E-02 0.  1.
    10030    2    1    2    0    0  0.00000000000E+00  0.00000000000E+00  0.77502990195E+03  0.18598607283E+04  0.16906834652E+04 0.  0.
        4    1    3    3  502    0 -0.30182355541E+03 -0.32442358761E+03  0.11794489589E+04  0.12599403091E+04  0.12699999809E+01 0. -1.
       -4    1    3    3    0  502  0.30182355541E+03  0.32442358761E+03 -0.40441905699E+03  0.59992041918E+03  0.12699999809E+01 0.  1.
</event>
<event>
 5   0  0.2224454E-04  0.1588102E+04  0.7818609E-02  0.8827891E-01
        2   -1    0    0  501    0  0.00000000000E+00  0.00000000000E+00  0.55633745475E+03  0.55633745476E+03  0.25500000920E-02 0. -1.
       -2   -1    0    0    0  501  0.00000000000E+00  0.00000000000E+00 -0.11333357334E+04  0.11333357334E+04  0.25500000920E-02 0.  1.
    10030    2    1    2    0    0  0.00000000000E+00  0.00000000000E+00 -0.57699827862E+03  0.16896731881E+04  0.15881021596E+04 0.  0.
        2    1    3    3  502    0 -0.52188274376E+03 -0.27311863747E+03  0.27806369785E+03  0.65136380651E+03  0.25500000920E-02 0. -1.
       -2    1    3    3    0  502  0.52188274376E+03  0.27311863747E+03 -0.85506197647E+03  0.10383093816E+04  0.25500000920E-02 0.  1.
</event>
<event>
 5   0  0.1215233E-04  0.1733841E+04  0.7818609E-02  0.8742295E-01
       -1   -1    0    0    0  501  0.00000000000E+00  0.00000000000E+00  0.59225187256E+03  0.59225187258E+03  0.50400001928E-02 0. -1.
        1   -1    0    0  501    0  0.00000000000E+00  0.00000000000E+00 -0.12689726409E+04  0.12689726409E+04  0.50400001928E-02 0.  1.
    10030    2    1    2    0    0  0.00000000000E+00  0.00000000000E+00 -0.67672076831E+03  0.18612245135E+04  0.17338413109E+04 0.  0.
        2    1    3    3  502    0 -0.13634868277E+03  0.33214024992E+03 -0.11854104527E+04  0.12385903481E+04  0.25500000920E-02 0.  1.
       -2    1    3    3    0  502  0.13634868277E+03 -0.33214024992E+03  0.50868968440E+03  0.62263416540E+03  0.25500000920E-02 0. -1.
</event>
<event>
 5   0  0.2224454E-04  0.1719721E+04  0.7818609E-02  0.8750196E-01
       -2   -1    0    0    0  501  0.00000000000E+00  0.00000000000E+00  0.47172389106E+03  0.47172389106E+03  0.25500000920E-02 0. -1.
        2   -1    0    0  501    0  0.00000000000E+00  0.00000000000E+00 -0.15673580506E+04  0.15673580506E+04  0.25500000920E-02 0.  1.
    10030    2    1    2    0    0  0.00000000000E+00  0.00000000000E+00 -0.10956341596E+04  0.20390819417E+04  0.17197211848E+04 0.  0.
        2    1    3    3  502    0  0.70525460495E+03 -0.48934949252E+03 -0.48837487792E+03  0.98760164288E+03  0.25500000920E-02 0. -1.
       -2    1    3    3    0  502 -0.70525460495E+03  0.48934949252E+03 -0.60725928165E+03  0.10514802988E+04  0.25500000920E-02 0.  1.
</event>
<event>
 5   0  0.2356829E-04  0.1754654E+04  0.7818609E-02  0.8730793E-01
        2   -1    0    0  501    0  0.00000000000E+00  0.00000000000E+00  0.95238953718E+03  0.95238953718E+03  0.25500000920E-02 0. -1.
       -2   -1    0    0    0  501  0.00000000000E+00  0.00000000000E+00 -0.80818063709E+03  0.80818063709E+03  0.25500000920E-02 0.  1.
    10030    2    1    2    0    0  0.00000000000E+00  0.00000000000E+00  0.14420890009E+03  0.17605701743E+04  0.17546541345E+04 0.  0.
        5    1    3    3  502    0  0.59080745818E+03  0.34085836121E+03  0.62572816176E+03  0.92563259313E+03  0.46999998093E+01 0. -1.
       -5    1    3    3    0  502 -0.59080745818E+03 -0.34085836121E+03 -0.48151926167E+03  0.83493758114E+03  0.46999998093E+01 0.  1.
</event>
<event>
 5   0  0.2242967E-04  0.1692690E+04  0.7818609E-02  0.8765544E-01
        2   -1    0    0  501    0  0.00000000000E+00  0.00000000000E+00  0.14436657071E+04  0.14436657071E+04  0.25500000920E-02 0.  1.
       -2   -1    0    0    0  501  0.00000000000E+00  0.00000000000E+00 -0.49616745166E+03  0.49616745166E+03  0.25500000920E-02 0. -1.
    10030    2    1    2    0    0  0.00000000000E+00  0.00000000000E+00  0.94749825549E+03  0.19398331588E+04  0.16926900897E+04 0.  0.
        4    1    3    3  502    0  0.37631066206E+03  0.73645391583E+03  0.67978890516E+03  0.10705553012E+04  0.12699999809E+01 0.  1.
       -4    1    3    3    0  502 -0.37631066206E+03 -0.73645391583E+03  0.26770935033E+03  0.86927785758E+03  0.12699999809E+01 0. -1.
</event>
<event>
 5   0  0.2224454E-04  0.1699648E+04  0.7818609E-02  0.8761565E-01
       -2   -1    0    0    0  501  0.00000000000E+00  0.00000000000E+00  0.50052264095E+03  0.50052264096E+03  0.25500000920E-02 0. -1.
        2   -1    0    0  501    0  0.00000000000E+00  0.00000000000E+00 -0.14428940390E+04  0.14428940390E+04  0.25500000920E-02 0.  1.
    10030    2    1    2    0    0  0.00000000000E+00  0.00000000000E+00 -0.94237139807E+03  0.19434166800E+04  0.16996483578E+04 0.  0.
        2    1    3    3  502    0  0.70622829549E+03 -0.42876977364E+03 -0.69872169569E+03  0.10820415575E+04  0.25500000920E-02 0.  1.
       -2    1    3    3    0  502 -0.70622829549E+03  0.42876977364E+03 -0.24364970238E+03  0.86137512248E+03  0.25500000920E-02 0. -1.
</event>
<event>
 5   0  0.2356829E-04  0.1702399E+04  0.7818609E-02  0.8759998E-01
       -2   -1    0    0    0  501  0.00000000000E+00  0.00000000000E+00  0.50564950509E+03  0.50564950510E+03  0.25500000920E-02 0. -1.
        2   -1    0    0  501    0  0.00000000000E+00  0.00000000000E+00 -0.14328903080E+04  0.14328903080E+04  0.25500000920E-02 0.  1.
    10030    2    1    2    0    0  0.00000000000E+00  0.00000000000E+00 -0.92724080296E+03  0.19385398131E+04  0.17023986315E+04 0.  0.
        5    1    3    3  502    0  0.79252087958E+03  0.77437390798E+02 -0.80605310146E+03  0.11330620400E+04  0.46999998093E+01 0.  1.
       -5    1    3    3    0  502 -0.79252087958E+03 -0.77437390798E+02 -0.12118770149E+03  0.80547777316E+03  0.46999998093E+01 0. -1.
</event>
<event>
 5   0  0.1204741E-04  0.1707349E+04  0.7818609E-02  0.8757184E-01
        1   -1    0    0  501    0  0.00000000000E+00  0.00000000000E+00  0.89990233098E+03  0.89990233099E+03  0.50400001928E-02 0. -1.
       -1   -1    0    0    0  501  0.00000000000E+00  0.00000000000E+00 -0.80982172397E+03  0.80982172398E+03  0.50400001928E-02 0.  1.
    10030    2    1    2    0    0  0.00000000000E+00  0.00000000000E+00  0.90080607010E+02  0.17097240550E+04  0.17073493575E+04 0.  0.
        1    1    3    3  502    0 -0.41900090968E+03 -0.70297827610E+03  0.28831901400E+03  0.86767970637E+03  0.50400001928E-02 0.  1.
       -1    1    3    3    0  502  0.41900090968E+03  0.70297827610E+03 -0.19823840699E+03  0.84204434861E+03  0.50400001928E-02 0. -1.
</event>
<event>
 5   0  0.2288806E-04  0.1672079E+04  0.7818609E-02  0.8777451E-01
       -2   -1    0    0    0  501  0.00000000000E+00  0.00000000000E+00  0.52086262478E+03  0.52086262479E+03  0.25500000920E-02 0.  1.
        2   -1    0    0  501    0  0.00000000000E+00  0.00000000000E+00 -0.13419308959E+04  0.13419308959E+04  0.25500000920E-02 0. -1.
    10030    2    1    2    0    0  0.00000000000E+00  0.00000000000E+00 -0.82106827113E+03  0.18627935207E+04  0.16720785254E+04 0.  0.
        3    1    3    3  502    0  0.24317301258E+03 -0.78514936525E+02  0.47629007799E+03  0.54050898040E+03  0.10100000352E+00 0.  1.
       -3    1    3    3    0  502 -0.24317301258E+03  0.78514936525E+02 -0.12973583491E+04  0.13222845403E+04  0.10100000352E+00 0. -1.
</event>
<event>
 5   0  0.1204741E-04  0.1674335E+04  0.7818609E-02  0.8776139E-01
        1   -1    0    0  501    0  0.00000000000E+00  0.00000000000E+00  0.81692949857E+03  0.81692949858E+03  0.50400001928E-02 0.  1.
       -1   -1    0    0    0  501  0.00000000000E+00  0.00000000000E+00 -0.85790709242E+03  0.85790709243E+03  0.50400001928E-02 0. -1.
    10030    2    1    2    0    0  0.00000000000E+00  0.00000000000E+00 -0.40977593849E+02  0.16748365910E+04  0.16743352243E+04 0.  0.
        1    1    3    3  502    0 -0.85307081066E+02 -0.39945639338E+03 -0.75146537580E+03  0.85530282318E+03  0.50400001928E-02 0. -1.
       -1    1    3    3    0  502  0.85307081066E+02  0.39945639338E+03  0.71048778195E+03  0.81953376783E+03  0.50400001928E-02 0.  1.
</event>
<event>
 5   0  0.2224454E-04  0.1714274E+04  0.7818609E-02  0.8753265E-01
       -2   -1    0    0    0  501  0.00000000000E+00  0.00000000000E+00  0.80333050303E+03  0.80333050303E+03  0.25500000920E-02 0.  1.
        2   -1    0    0  501    0  0.00000000000E+00  0.00000000000E+00 -0.91454762927E+03  0.91454762928E+03  0.25500000920E-02 0. -1.
    10030    2    1    2    0    0  0.00000000000E+00  0.00000000000E+00 -0.11121712625E+03  0.17178781323E+04  0.17142741987E+04 0.  0.
        2    1    3    3  502    0  0.60235661295E+03  0.60645549216E+03  0.82612427766E+01  0.85480407187E+03  0.25500000920E-02 0.  1.
       -2    1    3    3    0  502 -0.60235661295E+03 -0.60645549216E+03 -0.11947836902E+03  0.86307406044E+03  0.25500000920E-02 0. -1.
</event>
<event>
 5   0  0.2356829E-04  0.1738882E+04  0.7818609E-02  0.8739494E-01
        2   -1    0    0  501    0  0.00000000000E+00  0.00000000000E+00  0.17101474069E+04  0.17101474069E+04  0.25500000920E-02 0. -1.
       -2   -1    0    0    0  501  0.00000000000E+00  0.00000000000E+00 -0.44202498701E+03  0.44202498702E+03  0.25500000920E-02 0.  1.
    10030    2    1    2    0    0  0.00000000000E+00  0.00000000000E+00  0.12681224199E+04  0.21521723939E+04  0.17388822678E+04 0.  0.
        5    1    3    3  502    0  0.56199379641E+03  0.43537609777E+03  0.12535379116E+04  0.14410998437E+04  0.46999998093E+01 0. -1.
       -5    1    3    3    0  502 -0.56199379641E+03 -0.43537609777E+03  0.14584508226E+02  0.71107255016E+03  0.46999998093E+01 0.  1.
</event>
<event>
 5   0  0.1204741E-04  0.1767281E+04  0.7818609E-02  0.8723895E-01
       -1   -1    0    0    0  501  0.00000000000E+00  0.00000000000E+00  0.90553338796E+03  0.90553338798E+03  0.50400001928E-02 0.  1.
        1   -1    0    0  501    0  0.00000000000E+00  0.00000000000E+00 -0.86227723259E+03  0.86227723261E+03  0.50400001928E-02 0. -1.
    10030    2    1    2    0    0  0.00000000000E+00  0.00000000000E+00  0.43256155368E+02  0.17678106206E+04  0.17672813288E+04 0.  0.
        1    1    3    3  502    0  0.23114822017E+03  0.84724398736E+03 -0.76222229174E+02  0.88151103343E+03  0.50400001928E-02 0.  1.
       -1    1    3    3    0  502 -0.23114822017E+03 -0.84724398736E+03  0.11947838454E+03  0.88629958716E+03  0.50400001928E-02 0. -1.
</event>
<event>
 5   0  0.1126958E-04  0.1695609E+04  0.7818609E-02  0.8763873E-01
        1   -1    0    0  501    0  0.00000000000E+00  0.00000000000E+00  0.15007536657E+04  0.15007536657E+04  0.50400001928E-02 0.  1.
       -1   -1    0    0    0  501  0.00000000000E+00  0.00000000000E+00 -0.47894104806E+03  0.47894104808E+03  0.50400001928E-02 0. -1.
    10030    2    1    2    0    0  0.00000000000E+00  0.00000000000E+00  0.10218126177E+04  0.19796947138E+04  0.16956090747E+04 0.  0.
        4    1    3    3  502    0 -0.11428943051E+02  0.40286897820E+03  0.13817524244E+04  0.14393315843E+04  0.12699999809E+01 0.  1.
       -4    1    3    3    0  502  0.11428943051E+02 -0.40286897820E+03 -0.35993980675E+03  0.54036312950E+03  0.12699999809E+01 0. -1.
</event>
<event>
 5   0  0.1234158E-04  0.1700113E+04  0.7818609E-02  0.8761300E-01
        1   -1    0    0  501    0  0.00000000000E+00  0.00000000000E+00  0.20381884866E+04  0.20381884866E+04  0.50400001928E-02 0.  1.
       -1   -1    0    0    0  501  0.00000000000E+00  0.00000000000E+00 -0.35452844908E+03  0.35452844911E+03  0.50400001928E-02 0. -1.
    10030    2    1    2    0    0  0.00000000000E+00  0.00000000000E+00  0.16836600376E+04  0.23927169357E+04  0.17001127058E+04 0.  0.
        5    1    3    3  502    0 -0.55916978246E+03 -0.34077394585E+03  0.79010571709E+02  0.65959266841E+03  0.46999998093E+01 0. -1.
       -5    1    3    3    0  502  0.55916978246E+03  0.34077394585E+03  0.16046494658E+04  0.17331242673E+04  0.46999998093E+01 0.  1.
</event>
<event>
 5   0  0.8372750E-05  0.1692724E+04  0.7818609E-02  0.8765525E-01
        3   -1    0    0  501    0  0.00000000000E+00  0.00000000000E+00  0.12403267884E+04  0.12403267925E+04  0.10100000352E+00 0.  1.
       -3   -1    0    0    0  501  0.00000000000E+00  0.00000000000E+00 -0.57753186499E+03  0.57753187382E+03  0.10100000352E+00 0. -1.
    10030    2    1    2    0    0  0.00000000000E+00  0.00000000000E+00  0.66279492338E+03  0.18178586663E+04  0.16927235510E+04 0.  0.
        5    1    3    3  502    0  0.30389365678E+03 -0.34458156808E+03  0.10947297584E+04  0.11872418227E+04  0.46999998093E+01 0.  1.
       -5    1    3    3    0  502 -0.30389365678E+03  0.34458156808E+03 -0.43193483503E+03  0.63061684357E+03  0.46999998093E+01 0. -1.
</event>
<event>
 5   0  0.8372750E-05  0.1725028E+04  0.7818609E-02  0.8747217E-01
        3   -1    0    0  501    0  0.00000000000E+00  0.00000000000E+00  0.13831849075E+04  0.13831849112E+04  0.10100000352E+00 0. -1.
       -3   -1    0    0    0  501  0.00000000000E+00  0.00000000000E+00 -0.53783877236E+03  0.53783878184E+03  0.10100000352E+00 0.  1.
    10030    2    1    2    0    0  0.00000000000E+00  0.00000000000E+00  0.84534613515E+03  0.19210236930E+04  0.17250280986E+04 0.  0.
        4    1    3    3  502    0  0.38660067095E+03  0.20601621817E+03 -0.40472853568E+03  0.59641391786E+03  0.12699999809E+01 0.  1.
       -4    1    3    3    0  502 -0.38660067095E+03 -0.20601621817E+03  0.12500746708E+04  0.13246097752E+04  0.12699999809E+01 0. -1.
</event>
<event>
 5   0  0.1186302E-04  0.1723021E+04  0.7818609E-02  0.8748342E-01
       -1   -1    0    0    0  501  0.00000000000E+00  0.00000000000E+00  0.57932265645E+03  0.57932265647E+03  0.50400001928E-02 0. -1.
        1   -1    0    0  501    0  0.00000000000E+00  0.00000000000E+00 -0.12811524926E+04  0.12811524926E+04  0.50400001928E-02 0.  1.
    10030    2    1    2    0    0  0.00000000000E+00  0.00000000000E+00 -0.70182983617E+03  0.18604751491E+04  0.17230213758E+04 0.  0.
        3    1    3    3  502    0  0.63854772430E+03  0.56140341446E+03 -0.50085854080E+03  0.98680103266E+03  0.10100000352E+00 0.  1.
       -3    1    3    3    0  502 -0.63854772430E+03 -0.56140341446E+03 -0.20097129537E+03  0.87367411644E+03  0.10100000352E+00 0. -1.
</event>
<event>
 5   0  0.2356829E-04  0.1708182E+04  0.7818609E-02  0.8756712E-01
        2   -1    0    0  501    0  0.00000000000E+00  0.00000000000E+00  0.13072709910E+04  0.13072709910E+04  0.25500000920E-02 0.  1.
       -2   -1    0    0    0  501  0.00000000000E+00  0.00000000000E+00 -0.55801092398E+03  0.55801092398E+03  0.25500000920E-02 0. -1.
    10030    2    1    2    0    0  0.00000000000E+00  0.00000000000E+00  0.74926006702E+03  0.18652819150E+04  0.17081820671E+04 0.  0.
        5    1    3    3  502    0  0.53422739970E+03 -0.40727324433E+03 -0.20130366054E+03  0.70129570360E+03  0.46999998093E+01 0. -1.
       -5    1    3    3    0  502 -0.53422739970E+03  0.40727324433E+03  0.95056372756E+03  0.11639862114E+04  0.46999998093E+01 0.  1.
</event>
<event>
 5   0  0.8372750E-05  0.1706915E+04  0.7818609E-02  0.8757430E-01
        3   -1    0    0  501    0  0.00000000000E+00  0.00000000000E+00  0.12165627285E+04  0.12165627327E+04  0.10100000352E+00 0.  1.
       -3   -1    0    0    0  501  0.00000000000E+00  0.00000000000E+00 -0.59872761257E+03  0.59872762109E+03  0.10100000352E+00 0. -1.
    10030    2    1    2    0    0  0.00000000000E+00  0.00000000000E+00  0.61783511598E+03  0.18152903538E+04  0.17069150061E+04 0.  0.
        4    1    3    3  502    0  0.16184525324E+03  0.15825705398E+03 -0.56621994829E+03  0.60979162332E+03  0.12699999809E+01 0. -1.
       -4    1    3    3    0  502 -0.16184525324E+03 -0.15825705398E+03  0.11840550643E+04  0.12054987305E+04  0.12699999809E+01 0.  1.
</event>
<event>
 5   0  0.2356829E-04  0.1695203E+04  0.7818609E-02  0.8764105E-01
        2   -1    0    0  501    0  0.00000000000E+00  0.00000000000E+00  0.21868595532E+04  0.21868595532E+04  0.25500000920E-02 0.  1.
       -2   -1    0    0    0  501  0.00000000000E+00  0.00000000000E+00 -0.32852071972E+03  0.32852071973E+03  0.25500000920E-02 0. -1.
    10030    2    1    2    0    0  0.00000000000E+00  0.00000000000E+00  0.18583388335E+04  0.25153802730E+04  0.16952034384E+04 0.  0.
        5    1    3    3  502    0  0.64994387329E+03 -0.66667113759E+02  0.12799475114E+03  0.66578997350E+03  0.46999998093E+01 0. -1.
       -5    1    3    3    0  502 -0.64994387329E+03  0.66667113759E+02  0.17303440824E+04  0.18495902995E+04  0.46999998093E+01 0.  1.
</event>
<event>
 5   0  0.1126958E-04  0.1702936E+04  0.7818609E-02  0.8759692E-01
        1   -1    0    0  501    0  0.00000000000E+00  0.00000000000E+00  0.17938692070E+04  0.17938692070E+04  0.50400001928E-02 0. -1.
       -1   -1    0    0    0  501  0.00000000000E+00  0.00000000000E+00 -0.40415310318E+03  0.40415310322E+03  0.50400001928E-02 0.  1.
    10030    2    1    2    0    0  0.00000000000E+00  0.00000000000E+00  0.13897161038E+04  0.21980223102E+04  0.17029360608E+04 0.  0.
        4    1    3    3  502    0 -0.33881345972E+03 -0.33175584122E+03 -0.21794990417E+03  0.52188147342E+03  0.12699999809E+01 0.  1.
       -4    1    3    3    0  502  0.33881345972E+03  0.33175584122E+03  0.16076660080E+04  0.16761408368E+04  0.12699999809E+01 0. -1.
</event>
<event>
 5   0  0.1234158E-04  0.1712012E+04  0.7818609E-02  0.8754543E-01
        1   -1    0    0  501    0  0.00000000000E+00  0.00000000000E+00  0.45712157674E+03  0.45712157677E+03  0.50400001928E-02 0. -1.
       -1   -1    0    0    0  501  0.00000000000E+00  0.00000000000E+00 -0.16029575733E+04  0.16029575733E+04  0.50400001928E-02 0.  1.
    10030    2    1    2    0    0  0.00000000000E+00  0.00000000000E+00 -0.11458359966E+04  0.20600791501E+04  0.17120122586E+04 0.  0.
        5    1    3    3  502    0  0.16687658706E+03 -0.79613815102E+03 -0.89364129528E+03  0.12084289824E+04  0.46999998093E+01 0. -1.
       -5    1    3    3    0  502 -0.16687658706E+03  0.79613815102E+03 -0.25219470130E+03  0.85165016772E+03  0.46999998093E+01 0.  1.
</event>
<event>
 5   0  0.2288806E-04  0.1700089E+04  0.7818609E-02  0.8761314E-01
       -2   -1    0    0    0  501  0.00000000000E+00  0.00000000000E+00  0.39648653296E+03  0.39648653297E+03  0.25500000920E-02 0. -1.
        2   -1    0    0  501    0  0.00000000000E+00  0.00000000000E+00 -0.18224471306E+04  0.18224471306E+04  0.25500000920E-02 0.  1.
    10030    2    1    2    0    0  0.00000000000E+00  0.00000000000E+00 -0.14259605976E+04  0.22189336636E+04  0.17000891086E+04 0.  0.
        3    1    3    3  502    0  0.86666089612E+02  0.55825591501E+03 -0.15419691413E+04  0.16422026430E+04  0.10100000352E+00 0.  1.
       -3    1    3    3    0  502 -0.86666089612E+02 -0.55825591501E+03  0.11600854362E+03  0.57673102060E+03  0.10100000352E+00 0. -1.
</event>
<event>
 5   0  0.2356829E-04  0.1731532E+04  0.7818609E-02  0.8743582E-01
        2   -1    0    0  501    0  0.00000000000E+00  0.00000000000E+00  0.45694550305E+03  0.45694550306E+03  0.25500000920E-02 0. -1.
       -2   -1    0    0    0  501  0.00000000000E+00  0.00000000000E+00 -0.16403502949E+04  0.16403502949E+04  0.25500000920E-02 0.  1.
    10030    2    1    2    0    0  0.00000000000E+00  0.00000000000E+00 -0.11834047919E+04  0.20972957980E+04  0.17315319122E+04 0.  0.
        5    1    3    3  502    0 -0.32263820765E+03  0.28562090213E+03 -0.15012228628E+04  0.15618472673E+04  0.46999998093E+01 0.  1.
       -5    1    3    3    0  502  0.32263820765E+03 -0.28562090213E+03  0.31781807091E+03  0.53544853064E+03  0.46999998093E+01 0. -1.
</event>
<event>
 5   0  0.8372750E-05  0.1683156E+04  0.7818609E-02  0.8771030E-01
       -3   -1    0    0    0  501  0.00000000000E+00  0.00000000000E+00  0.25489569461E+04  0.25489569481E+04  0.10100000352E+00 0.  1.
        3   -1    0    0  501    0  0.00000000000E+00  0.00000000000E+00 -0.27785998609E+03  0.27786000444E+03  0.10100000352E+00 0. -1.
    10030    2    1    2    0    0  0.00000000000E+00  0.00000000000E+00  0.22710969600E+04  0.28268169526E+04  0.16831555726E+04 0.  0.
        3    1    3    3  502    0  0.42016609992E+03  0.71743612207E+03  0.91657810485E+03  0.12374851810E+04  0.10100000352E+00 0.  1.
       -3    1    3    3    0  502 -0.42016609992E+03 -0.71743612207E+03  0.13545188552E+04  0.15893317715E+04  0.10100000352E+00 0. -1.
</event>
<event>
 5   0  0.2242967E-04  0.1742673E+04  0.7818609E-02  0.8737394E-01
       -2   -1    0    0    0  501  0.00000000000E+00  0.00000000000E+00  0.61652008439E+03  0.61652008440E+03  0.25500000920E-02 0.  1.
        2   -1    0    0  501    0  0.00000000000E+00  0.00000000000E+00 -0.12314727254E+04  0.12314727254E+04  0.25500000920E-02 0. -1.
    10030    2    1    2    0    0  0.00000000000E+00  0.00000000000E+00 -0.61495264096E+03  0.18479928098E+04  0.17426734273E+04 0.  0.
        4    1    3    3  502    0 -0.85358323179E+03  0.16451085941E+03 -0.37072931482E+03  0.94504496942E+03  0.12699999809E+01 0. -1.
       -4    1    3    3    0  502  0.85358323179E+03 -0.16451085941E+03 -0.24422332614E+03  0.90294784034E+03  0.12699999809E+01 0.  1.
</event>
<event>
 5   0  0.1204741E-04  0.1693578E+04  0.7818609E-02  0.8765036E-01
       -1   -1    0    0    0  501  0.00000000000E+00  0.00000000000E+00  0.10736849851E+04  0.10736849851E+04  0.50400001928E-02 0.  1.
        1   -1    0    0  501    0  0.00000000000E+00  0.00000000000E+00 -0.66784147529E+03  0.66784147531E+03  0.50400001928E-02 0. -1.
    10030    2    1    2    0    0  0.00000000000E+00  0.00000000000E+00  0.40584350981E+03  0.17415264604E+04  0.16935777094E+04 0.  0.
        1    1    3    3  502    0  0.17331580373E+03  0.68210315564E+03  0.68715553231E+03  0.98360856460E+03  0.50400001928E-02 0.  1.
       -1    1    3    3    0  502 -0.17331580373E+03 -0.68210315564E+03 -0.28131202251E+03  0.75791789581E+03  0.50400001928E-02 0. -1.
</event>
<event>
 5   0  0.1126958E-04  0.1686852E+04  0.7818609E-02  0.8768899E-01
        1   -1    0    0  501    0  0.00000000000E+00  0.00000000000E+00  0.85360187229E+03  0.85360187231E+03  0.50400001928E-02 0. -1.
       -1   -1    0    0    0  501  0.00000000000E+00  0.00000000000E+00 -0.83337164252E+03  0.83337164254E+03  0.50400001928E-02 0.  1.
    10030    2    1    2    0    0  0.00000000000E+00  0.00000000000E+00  0.20230229769E+02  0.16869735148E+04  0.16868522098E+04 0.  0.
        4    1    3    3  502    0 -0.26657309773E+03  0.56715875687E+03 -0.55440374108E+03  0.83671703278E+03  0.12699999809E+01 0.  1.
       -4    1    3    3    0  502  0.26657309773E+03 -0.56715875687E+03  0.57463397085E+03  0.85025648206E+03  0.12699999809E+01 0. -1.
</event>
<event>
 5   0  0.1126958E-04  0.1672604E+04  0.7818609E-02  0.8777145E-01
       -1   -1    0    0    0  501  0.00000000000E+00  0.00000000000E+00  0.54514697614E+03  0.54514697616E+03  0.50400001928E-02 0.  1.
        1   -1    0    0  501    0  0.00000000000E+00  0.00000000000E+00 -0.12829589492E+04  0.12829589492E+04  0.50400001928E-02 0. -1.
    10030    2    1    2    0    0  0.00000000000E+00  0.00000000000E+00 -0.73781197302E+03  0.18281059253E+04  0.16726041871E+04 0.  0.
        4    1    3    3  502    0  0.13513821455E+03 -0.82046185019E+03 -0.27127254958E+03  0.87464872589E+03  0.12699999809E+01 0.  1.
       -4    1    3    3    0  502 -0.13513821455E+03  0.82046185019E+03 -0.46653942345E+03  0.95345719945E+03  0.12699999809E+01 0. -1.
</event>
<event>
 5   0  0.1126958E-04  0.1694400E+04  0.7818609E-02  0.8764564E-01
        1   -1    0    0  501    0  0.00000000000E+00  0.00000000000E+00  0.81627780946E+03  0.81627780947E+03  0.50400001928E-02 0. -1.
       -1   -1    0    0    0  501  0.00000000000E+00  0.00000000000E+00 -0.87929406458E+03  0.87929406459E+03  0.50400001928E-02 0.  1.
    10030    2    1    2    0    0  0.00000000000E+00  0.00000000000E+00 -0.63016255116E+02  0.16955718741E+04  0.16944004638E+04 0.  0.
        4    1    3    3  502    0 -0.22933981519E+03  0.61838765205E+03  0.50059869003E+03  0.82801008472E+03  0.12699999809E+01 0.  1.
       -4    1    3    3    0  502  0.22933981519E+03 -0.61838765205E+03 -0.56361494515E+03  0.86756178934E+03  0.12699999809E+01 0. -1.
</event>
<event>
 5   0  0.1204741E-04  0.1706356E+04  0.7818609E-02  0.8757747E-01
       -1   -1    0    0    0  501  0.00000000000E+00  0.00000000000E+00  0.43622243144E+03  0.43622243147E+03  0.50400001928E-02 0.  1.
        1   -1    0    0  501    0  0.00000000000E+00  0.00000000000E+00 -0.16686737415E+04  0.16686737415E+04  0.50400001928E-02 0. -1.
    10030    2    1    2    0    0  0.00000000000E+00  0.00000000000E+00 -0.12324513101E+04  0.21048961730E+04  0.17063562545E+04 0.  0.
        1    1    3    3  502    0  0.24098274183E+03  0.80663999411E+03 -0.78702902453E+03  0.11524562670E+04  0.50400001928E-02 0.  1.
       -1    1    3    3    0  502 -0.24098274183E+03 -0.80663999411E+03 -0.44542228556E+03  0.95243990596E+03  0.50400001928E-02 0. -1.
</event>
<event>
 5   0  0.1234158E-04  0.1698663E+04  0.7818609E-02  0.8762128E-01
        1   -1    0    0  501    0  0.00000000000E+00  0.00000000000E+00  0.14528185152E+04  0.14528185152E+04  0.50400001928E-02 0.  1.
       -1   -1    0    0    0  501  0.00000000000E+00  0.00000000000E+00 -0.49652700040E+03  0.49652700043E+03  0.50400001928E-02 0. -1.
    10030    2    1    2    0    0  0.00000000000E+00  0.00000000000E+00  0.95629151482E+03  0.19493455157E+04  0.16986625557E+04 0.  0.
        5    1    3    3  502    0  0.14597104515E+03  0.69193011923E+02 -0.47872009501E+03  0.50526254392E+03  0.46999998093E+01 0. -1.
       -5    1    3    3    0  502 -0.14597104515E+03 -0.69193011923E+02  0.14350116098E+04  0.14440829717E+04  0.46999998093E+01 0.  1.
</event>
<event>
 5   0  0.2242967E-04  0.1698905E+04  0.7818609E-02  0.8761989E-01
       -2   -1    0    0    0  501  0.00000000000E+00  0.00000000000E+00  0.39513679759E+03  0.39513679760E+03  0.25500000920E-02 0. -1.
        2   -1    0    0  501    0  0.00000000000E+00  0.00000000000E+00 -0.18261262236E+04  0.18261262236E+04  0.25500000920E-02 0.  1.
    10030    2    1    2    0    0  0.00000000000E+00  0.00000000000E+00 -0.14309894260E+04  0.22212630212E+04  0.16989051392E+04 0.  0.
        4    1    3    3  502    0 -0.26527348064E+03 -0.36559266318E+03  0.22510065172E+03  0.50467804708E+03  0.12699999809E+01 0. -1.
       -4    1    3    3    0  502  0.26527348064E+03  0.36559266318E+03 -0.16560900778E+04  0.17165849741E+04  0.12699999809E+01 0.  1.
</event>
<event>
 5   0  0.1234158E-04  0.1703160E+04  0.7818609E-02  0.8759564E-01
       -1   -1    0    0    0  501  0.00000000000E+00  0.00000000000E+00  0.47921749134E+03  0.47921749136E+03  0.50400001928E-02 0.  1.
        1   -1    0    0  501    0  0.00000000000E+00  0.00000000000E+00 -0.15132758098E+04  0.15132758098E+04  0.50400001928E-02 0. -1.
    10030    2    1    2    0    0  0.00000000000E+00  0.00000000000E+00 -0.10340583184E+04  0.19924933011E+04  0.17031596957E+04 0.  0.
        5    1    3    3  502    0 -0.21079317249E+03 -0.59738196177E+03 -0.11828003016E+04  0.13417666017E+04  0.46999998093E+01 0. -1.
       -5    1    3    3    0  502  0.21079317249E+03  0.59738196177E+03  0.14874198321E+03  0.65072669946E+03  0.46999998093E+01 0.  1.
</event>
<event>
 5   0  0.2242967E-04  0.1685612E+04  0.7818609E-02  0.8769613E-01
       -2   -1    0    0    0  501  0.00000000000E+00  0.00000000000E+00  0.36278857151E+03  0.36278857152E+03  0.25500000920E-02 0. -1.
        2   -1    0    0  501    0  0.00000000000E+00  0.00000000000E+00 -0.19579495708E+04  0.19579495708E+04  0.25500000920E-02 0.  1.
    10030    2    1    2    0    0  0.00000000000E+00  0.00000000000E+00 -0.15951609993E+04  0.23207381423E+04  0.16856117321E+04 0.  0.
        4    1    3    3  502    0  0.66987559795E+03 -0.13527514535E+03 -0.11848878308E+03  0.69359490071E+03  0.12699999809E+01 0. -1.
       -4    1    3    3    0  502 -0.66987559795E+03  0.13527514535E+03 -0.14766722162E+04  0.16271432416E+04  0.12699999809E+01 0.  1.
</event>
<event>
 5   0  0.1204741E-04  0.1688668E+04  0.7818609E-02  0.8767854E-01
       -1   -1    0    0    0  501  0.00000000000E+00  0.00000000000E+00  0.13589197935E+04  0.13589197936E+04  0.50400001928E-02 0. -1.
        1   -1    0    0  501    0  0.00000000000E+00  0.00000000000E+00 -0.52460754889E+03  0.52460754891E+03  0.50400001928E-02 0.  1.
    10030    2    1    2    0    0  0.00000000000E+00  0.00000000000E+00  0.83431224466E+03  0.18835273425E+04  0.16886676192E+04 0.  0.
        1    1    3    3  502    0  0.47131371271E+03  0.15393988941E+03  0.11794398290E+04  0.12794187804E+04  0.50400001928E-02 0. -1.
       -1    1    3    3    0  502 -0.47131371271E+03 -0.15393988941E+03 -0.34512758431E+03  0.60410856211E+03  0.50400001928E-02 0.  1.
</event>
<event>
 5   0  0.2234723E-04  0.1698548E+04  0.7818609E-02  0.8762193E-01
        2   -1    0    0  501    0  0.00000000000E+00  0.00000000000E+00  0.26089625068E+04  0.26089625068E+04  0.25500000920E-02 0.  1.
       -2   -1    0    0    0  501  0.00000000000E+00  0.00000000000E+00 -0.27645717344E+03  0.27645717345E+03  0.25500000920E-02 0. -1.
    10030    2    1    2    0    0  0.00000000000E+00  0.00000000000E+00  0.23325053334E+04  0.28854196803E+04  0.16985480862E+04 0.  0.
        1    1    3    3  502    0  0.17812334690E+03  0.33034267996E+03 -0.12794140109E+03  0.39651382707E+03  0.50400001928E-02 0. -1.
       -1    1    3    3    0  502 -0.17812334690E+03 -0.33034267996E+03  0.24604467345E+04  0.24889058532E+04  0.50400001928E-02 0.  1.
</event>
<event>
 5   0  0.1186302E-04  0.1658560E+04  0.7818609E-02  0.8785358E-01
       -1   -1    0    0    0  501  0.00000000000E+00  0.00000000000E+00  0.68389751682E+03  0.68389751684E+03  0.50400001928E-02 0.  1.
        1   -1    0    0  501    0  0.00000000000E+00  0.00000000000E+00 -0.10055683940E+04  0.10055683940E+04  0.50400001928E-02 0. -1.
    10030    2    1    2    0    0  0.00000000000E+00  0.00000000000E+00 -0.32167087719E+03  0.16894659109E+04  0.16585604935E+04 0.  0.
        3    1    3    3  502    0 -0.81381106351E+03  0.14078698900E+03 -0.84633085541E+02  0.83022418222E+03  0.10100000352E+00 0.  1.
       -3    1    3    3    0  502  0.81381106351E+03 -0.14078698900E+03 -0.23703779165E+03  0.85924172864E+03  0.10100000352E+00 0. -1.
</event>
<event>
 5   0  0.2224454E-04  0.1684799E+04  0.7818609E-02  0.8770082E-01
       -2   -1    0    0    0  501  0.00000000000E+00  0.00000000000E+00  0.65957615913E+03  0.65957615914E+03  0.25500000920E-02 0.  1.
        2   -1    0    0  501    0  0.00000000000E+00  0.00000000000E+00 -0.10758988035E+04  0.10758988035E+04  0.25500000920E-02 0. -1.
    10030    2    1    2    0    0  0.00000000000E+00  0.00000000000E+00 -0.41632264435E+03  0.17354749626E+04  0.16847993357E+04 0.  0.
        2    1    3    3  502    0  0.31324163579E+03 -0.19238085611E+03  0.57259882513E+03  0.68044112952E+03  0.25500000920E-02 0.  1.
       -2    1    3    3    0  502 -0.31324163579E+03  0.19238085611E+03 -0.98892146948E+03  0.10550338331E+04  0.25500000920E-02 0. -1.
</event>
<event>
 5   0  0.1204741E-04  0.1742549E+04  0.7818609E-02  0.8737462E-01
       -1   -1    0    0    0  501  0.00000000000E+00  0.00000000000E+00  0.37920223010E+03  0.37920223013E+03  0.50400001928E-02 0. -1.
        1   -1    0    0  501    0  0.00000000000E+00  0.00000000000E+00 -0.20018860279E+04  0.20018860279E+04  0.50400001928E-02 0.  1.
    10030    2    1    2    0    0  0.00000000000E+00  0.00000000000E+00 -0.16226837978E+04  0.23810882581E+04  0.17425494498E+04 0.  0.
        1    1    3    3  502    0  0.27280441120E+03 -0.39902850850E+03  0.17918404063E+03  0.51551228677E+03  0.50400001928E-02 0. -1.
       -1    1    3    3    0  502 -0.27280441120E+03  0.39902850850E+03 -0.18018678385E+04  0.18655759713E+04  0.50400001928E-02 0.  1.
</event>
<event>
 5   0  0.1186302E-04  0.1694668E+04  0.7818609E-02  0.8764411E-01
        1   -1    0    0  501    0  0.00000000000E+00  0.00000000000E+00  0.10995198418E+04  0.10995198418E+04  0.50400001928E-02 0. -1.
       -1   -1    0    0    0  501  0.00000000000E+00  0.00000000000E+00 -0.65298963557E+03  0.65298963559E+03  0.50400001928E-02 0.  1.
    10030    2    1    2    0    0  0.00000000000E+00  0.00000000000E+00  0.44653020620E+03  0.17525094774E+04  0.16946681809E+04 0.  0.
        3    1    3    3  502    0  0.46201461658E+03  0.62579032618E+03  0.57074556331E+03  0.96479093409E+03  0.10100000352E+00 0. -1.
       -3    1    3    3    0  502 -0.46201461658E+03 -0.62579032618E+03 -0.12421535711E+03  0.78771854327E+03  0.10100000352E+00 0.  1.
</event>
<event>
 5   0  0.1204741E-04  0.1712425E+04  0.7818609E-02  0.8754309E-01
        1   -1    0    0  501    0  0.00000000000E+00  0.00000000000E+00  0.11695739221E+04  0.11695739221E+04  0.50400001928E-02 0. -1.
       -1   -1    0    0    0  501  0.00000000000E+00  0.00000000000E+00 -0.62680961954E+03  0.62680961956E+03  0.50400001928E-02 0.  1.
    10030    2    1    2    0    0  0.00000000000E+00  0.00000000000E+00  0.54276430256E+03  0.17963835417E+04  0.17124253971E+04 0.  0.
        1    1    3    3  502    0  0.16107386034E+03  0.83468597908E+03  0.16412075047E+03  0.86578351388E+03  0.50400001928E-02 0.  1.
       -1    1    3    3    0  502 -0.16107386034E+03 -0.83468597908E+03  0.37864355209E+03  0.93060002779E+03  0.50400001928E-02 0. -1.
</event>
<event>
 5   0  0.2356829E-04  0.1677591E+04  0.7818609E-02  0.8774249E-01
        2   -1    0    0  501    0  0.00000000000E+00  0.00000000000E+00  0.99344842247E+03  0.99344842247E+03  0.25500000920E-02 0. -1.
       -2   -1    0    0    0  501  0.00000000000E+00  0.00000000000E+00 -0.70821782192E+03  0.70821782192E+03  0.25500000920E-02 0.  1.
    10030    2    1    2    0    0  0.00000000000E+00  0.00000000000E+00  0.28523060055E+03  0.17016662444E+04  0.16775909847E+04 0.  0.
        5    1    3    3  502    0 -0.11789324323E+03 -0.62982507076E+03  0.69165699273E+03  0.94286262104E+03  0.46999998093E+01 0. -1.
       -5    1    3    3    0  502  0.11789324323E+03  0.62982507076E+03 -0.40642639218E+03  0.75880362335E+03  0.46999998093E+01 0.  1.
</event>
<event>
 5   0  0.2288806E-04  0.1697905E+04  0.7818609E-02  0.8762560E-01
       -2   -1    0    0    0  501  0.00000000000E+00  0.00000000000E+00  0.99658650993E+03  0.99658650994E+03  0.25500000920E-02 0. -1.
        2   -1    0    0  501    0  0.00000000000E+00  0.00000000000E+00 -0.72318886381E+03  0.72318886381E+03  0.25500000920E-02 0.  1.
    10030    2    1    2    0    0  0.00000000000E+00  0.00000000000E+00  0.27339764613E+03  0.17197753737E+04  0.16979049041E+04 0.  0.
        3    1    3    3  502    0 -0.47604628519E+03  0.17312266934E+03  0.82674410364E+03  0.96958617326E+03  0.10100000352E+00 0. -1.
       -3    1    3    3    0  502  0.47604628519E+03 -0.17312266934E+03 -0.55334645751E+03  0.75018920048E+03  0.10100000352E+00 0.  1.
</event>
<event>
 5   0  0.2234723E-04  0.1708275E+04  0.7818609E-02  0.8756659E-01
        2   -1    0    0  501    0  0.00000000000E+00  0.00000000000E+00  0.13134469089E+04  0.13134469089E+04  0.25500000920E-02 0.  1.
       -2   -1    0    0    0  501  0.00000000000E+00  0.00000000000E+00 -0.55544745932E+03  0.55544745932E+03  0.25500000920E-02 0. -1.
    10030    2    1    2    0    0  0.00000000000E+00  0.00000000000E+00  0.75799944962E+03  0.18688943683E+04  0.17082748591E+04 0.  0.
        1    1    3    3  502    0  0.52077438510E+03 -0.65112071168E+03  0.17612793090E+03  0.85216500128E+03  0.50400001928E-02 0. -1.
       -1    1    3    3    0  502 -0.52077438510E+03  0.65112071168E+03  0.58187151872E+03  0.10167293670E+04  0.50400001928E-02 0.  1.
</event>
<event>
 5   0  0.1215233E-04  0.1599300E+04  0.7818609E-02  0.8820978E-01
       -1   -1    0    0    0  501  0.00000000000E+00  0.00000000000E+00  0.84128688360E+03  0.84128688361E+03  0.50400001928E-02 0.  1.
        1   -1    0    0  501    0  0.00000000000E+00  0.00000000000E+00 -0.76007400342E+03  0.76007400343E+03  0.50400001928E-02 0. -1.
    10030    2    1    2    0    0  0.00000000000E+00  0.00000000000E+00  0.81212880181E+02  0.16013608870E+04  0.15993002090E+04 0.  0.
        2    1    3    3  502    0 -0.10987108304E+03 -0.23448559406E+03  0.79814265255E+03  0.83909882763E+03  0.25500000920E-02 0.  1.
       -2    1    3    3    0  502  0.10987108304E+03  0.23448559406E+03 -0.71692977237E+03  0.76226205942E+03  0.25500000920E-02 0. -1.
</event>
<event>
 5   0  0.1204741E-04  0.1698319E+04  0.7818609E-02  0.8762324E-01
       -1   -1    0    0    0  501  0.00000000000E+00  0.00000000000E+00  0.52085786266E+03  0.52085786268E+03  0.50400001928E-02 0. -1.
        1   -1    0    0  501    0  0.00000000000E+00  0.00000000000E+00 -0.13843928737E+04  0.13843928737E+04  0.50400001928E-02 0.  1.
    10030    2    1    2    0    0  0.00000000000E+00  0.00000000000E+00 -0.86353501104E+03  0.19052507364E+04  0.16983190670E+04 0.  0.
        1    1    3    3  502    0  0.33137205232E+02  0.56781736640E+03 -0.11391148160E+04  0.12732231540E+04  0.50400001928E-02 0.  1.
       -1    1    3    3    0  502 -0.33137205232E+02 -0.56781736640E+03  0.27557980494E+03  0.63202758236E+03  0.50400001928E-02 0. -1.
</event>
<event>
 5   0  0.2356829E-04  0.1716063E+04  0.7818609E-02  0.8752256E-01
        2   -1    0    0  501    0  0.00000000000E+00  0.00000000000E+00  0.77810946107E+03  0.77810946107E+03  0.25500000920E-02 0. -1.
       -2   -1    0    0    0  501  0.00000000000E+00  0.00000000000E+00 -0.94616224103E+03  0.94616224104E+03  0.25500000920E-02 0.  1.
    10030    2    1    2    0    0  0.00000000000E+00  0.00000000000E+00 -0.16805277996E+03  0.17242717021E+04  0.17160626929E+04 0.  0.
        5    1    3    3  502    0 -0.41564379881E+03 -0.46610079836E+03 -0.67521667486E+03  0.91975505964E+03  0.46999998093E+01 0.  1.
       -5    1    3    3    0  502  0.41564379881E+03  0.46610079836E+03  0.50716389490E+03  0.80451664247E+03  0.46999998093E+01 0. -1.
</event>
<event>
 5   0  0.1234158E-04  0.1704360E+04  0.7818609E-02  0.8758882E-01
        1   -1    0    0  501    0  0.00000000000E+00  0.00000000000E+00  0.16554170510E+04  0.16554170510E+04  0.50400001928E-02 0. -1.
       -1   -1    0    0    0  501  0.00000000000E+00  0.00000000000E+00 -0.43868747325E+03  0.43868747327E+03  0.50400001928E-02 0.  1.
    10030    2    1    2    0    0  0.00000000000E+00  0.00000000000E+00  0.12167295777E+04  0.20941045243E+04  0.17043599658E+04 0.  0.
        5    1    3    3  502    0 -0.29414397588E+03 -0.10962330648E+03 -0.36504572865E+03  0.48147525572E+03  0.46999998093E+01 0.  1.
       -5    1    3    3    0  502  0.29414397588E+03  0.10962330648E+03  0.15817753064E+04  0.16126292685E+04  0.46999998093E+01 0. -1.
</event>
<event>
 5   0  0.1126958E-04  0.1502078E+04  0.7818609E-02  0.8883073E-01
        1   -1    0    0  501    0  0.00000000000E+00  0.00000000000E+00  0.11341281441E+04  0.11341281441E+04  0.50400001928E-02 0.  1.
       -1   -1    0    0    0  501  0.00000000000E+00  0.00000000000E+00 -0.49735057965E+03  0.49735057967E+03  0.50400001928E-02 0. -1.
    10030    2    1    2    0    0  0.00000000000E+00  0.00000000000E+00  0.63677756448E+03  0.16314787238E+04  0.15020776144E+04 0.  0.
        4    1    3    3  502    0 -0.49430658814E+03 -0.55106113543E+03  0.45599263806E+03  0.86944710991E+03  0.12699999809E+01 0.  1.
       -4    1    3    3    0  502  0.49430658814E+03  0.55106113543E+03  0.18078492642E+03  0.76203161390E+03  0.12699999809E+01 0. -1.
</event>
<event>
 5   0  0.2288806E-04  0.1704446E+04  0.7818609E-02  0.8758833E-01
       -2   -1    0    0    0  501  0.00000000000E+00  0.00000000000E+00  0.94158925387E+03  0.94158925387E+03  0.25500000920E-02 0. -1.
        2   -1    0    0  501    0  0.00000000000E+00  0.00000000000E+00 -0.77133843092E+03  0.77133843093E+03  0.25500000920E-02 0.  1.
    10030    2    1    2    0    0  0.00000000000E+00  0.00000000000E+00  0.17025082294E+03  0.17129276848E+04  0.17044459248E+04 0.  0.
        3    1    3    3  502    0  0.45543374224E+02  0.59972072105E+02 -0.76798822401E+03  0.77167141374E+03  0.10100000352E+00 0.  1.
       -3    1    3    3    0  502 -0.45543374224E+02 -0.59972072105E+02  0.93823904696E+03  0.94125627106E+03  0.10100000352E+00 0. -1.
</event>
<event>
 5   0  0.8372750E-05  0.1693885E+04  0.7818609E-02  0.8764860E-01
       -3   -1    0    0    0  501  0.00000000000E+00  0.00000000000E+00  0.15249569661E+04  0.15249569694E+04  0.10100000352E+00 0.  1.
        3   -1    0    0  501    0  0.00000000000E+00  0.00000000000E+00 -0.47038153492E+03  0.47038154577E+03  0.10100000352E+00 0. -1.
    10030    2    1    2    0    0  0.00000000000E+00  0.00000000000E+00  0.10545754312E+04  0.19953385152E+04  0.16938850168E+04 0.  0.
        2    1    3    3  502    0 -0.50002390501E+03 -0.51931183667E+03  0.36519024554E+01  0.72091748882E+03  0.25500000920E-02 0. -1.
       -2    1    3    3    0  502  0.50002390501E+03  0.51931183667E+03  0.10509235287E+04  0.12744210264E+04  0.25500000920E-02 0.  1.
</event>
<event>
 5   0  0.2356829E-04  0.1672685E+04  0.7818609E-02  0.8777098E-01
        2   -1    0    0  501    0  0.00000000000E+00  0.00000000000E+00  0.63093541293E+03  0.63093541294E+03  0.25500000920E-02 0.  1.
       -2   -1    0    0    0  501  0.00000000000E+00  0.00000000000E+00 -0.11086217310E+04  0.11086217310E+04  0.25500000920E-02 0. -1.
    10030    2    1    2    0    0  0.00000000000E+00  0.00000000000E+00 -0.47768631806E+03  0.17395571439E+04  0.16726849191E+04 0.  0.
        5    1    3    3  502    0 -0.32108877009E+03  0.32317210162E+03  0.49055839463E+03  0.66948325900E+03  0.46999998093E+01 0.  1.
       -5    1    3    3    0  502  0.32108877009E+03 -0.32317210162E+03 -0.96824471269E+03  0.10700738849E+04  0.46999998093E+01 0. -1.
</event>
<event>
 5   0  0.2242967E-04  0.1700362E+04  0.7818609E-02  0.8761158E-01
        2   -1    0    0  501    0  0.00000000000E+00  0.00000000000E+00  0.23824754908E+04  0.23824754908E+04  0.25500000920E-02 0. -1.
       -2   -1    0    0    0  501  0.00000000000E+00  0.00000000000E+00 -0.30338522633E+03  0.30338522634E+03  0.25500000920E-02 0.  1.
    10030    2    1    2    0    0  0.00000000000E+00  0.00000000000E+00  0.20790902644E+04  0.26858607171E+04  0.17003621567E+04 0.  0.
        4    1    3    3  502    0 -0.41067300562E+03 -0.38519709308E+03  0.20457486756E+04  0.21218195905E+04  0.12699999809E+01 0. -1.
       -4    1    3    3    0  502  0.41067300562E+03  0.38519709308E+03  0.33341588851E+02  0.56404112661E+03  0.12699999809E+01 0.  1.
</event>
<event>
 5   0  0.2234723E-04  0.1697758E+04  0.7818609E-02  0.8762644E-01
       -2   -1    0    0    0  501  0.00000000000E+00  0.00000000000E+00  0.11786382137E+04  0.11786382137E+04  0.25500000920E-02 0. -1.
        2   -1    0    0  501    0  0.00000000000E+00  0.00000000000E+00 -0.61137958245E+03  0.61137958246E+03  0.25500000920E-02 0.  1.
    10030    2    1    2    0    0  0.00000000000E+00  0.00000000000E+00  0.56725863122E+03  0.17900177961E+04  0.16977577436E+04 0.  0.
        1    1    3    3  502    0  0.44865237611E+02  0.42582865933E+03  0.10564358966E+04  0.11399121634E+04  0.50400001928E-02 0. -1.
       -1    1    3    3    0  502 -0.44865237611E+02 -0.42582865933E+03 -0.48917726540E+03  0.65010563270E+03  0.50400001928E-02 0.  1.
</event>
<event>
 5   0  0.2234723E-04  0.1636991E+04  0.7818609E-02  0.8798140E-01
        2   -1    0    0  501    0  0.00000000000E+00  0.00000000000E+00  0.21240845693E+04  0.21240845693E+04  0.25500000920E-02 0.  1.
       -2   -1    0    0    0  501  0.00000000000E+00  0.00000000000E+00 -0.31539931884E+03  0.31539931885E+03  0.25500000920E-02 0. -1.
    10030    2    1    2    0    0  0.00000000000E+00  0.00000000000E+00  0.18086852504E+04  0.24394838881E+04  0.16369909301E+04 0.  0.
        1    1    3    3  502    0 -0.20287881121E+03  0.66713240153E+03  0.15430726603E+04  0.16933099799E+04  0.50400001928E-02 0.  1.
       -1    1    3    3    0  502  0.20287881121E+03 -0.66713240153E+03  0.26561259015E+03  0.74617390820E+03  0.50400001928E-02 0. -1.
</event>
<event>
 5   0  0.1215233E-04  0.1694985E+04  0.7818609E-02  0.8764230E-01
        1   -1    0    0  501    0  0.00000000000E+00  0.00000000000E+00  0.11595282823E+04  0.11595282823E+04  0.50400001928E-02 0. -1.
       -1   -1    0    0    0  501  0.00000000000E+00  0.00000000000E+00 -0.61942760915E+03  0.61942760917E+03  0.50400001928E-02 0.  1.
    10030    2    1    2    0    0  0.00000000000E+00  0.00000000000E+00  0.54010067311E+03  0.17789558914E+04  0.16949853470E+04 0.  0.
        2    1    3    3  502    0 -0.29333187376E+03 -0.66642640364E+03  0.72521236896E+03  0.10276676115E+04  0.25500000920E-02 0. -1.
       -2    1    3    3    0  502  0.29333187376E+03  0.66642640364E+03 -0.18511169584E+03  0.75128827994E+03  0.25500000920E-02 0.  1.
</event>
<event>
 5   0  0.2234723E-04  0.1715082E+04  0.7818609E-02  0.8752809E-01
        2   -1    0    0  501    0  0.00000000000E+00  0.00000000000E+00  0.19431501299E+04  0.19431501299E+04  0.25500000920E-02 0. -1.
       -2   -1    0    0    0  501  0.00000000000E+00  0.00000000000E+00 -0.37844561546E+03  0.37844561547E+03  0.25500000920E-02 0.  1.
    10030    2    1    2    0    0  0.00000000000E+00  0.00000000000E+00  0.15647045145E+04  0.23215957454E+04  0.17150820935E+04 0.  0.
        1    1    3    3  502    0  0.47423176519E+03  0.58555808366E+03  0.22818345134E+03  0.78730027560E+03  0.50400001928E-02 0.  1.
       -1    1    3    3    0  502 -0.47423176519E+03 -0.58555808366E+03  0.13365210631E+04  0.15342954698E+04  0.50400001928E-02 0. -1.
</event>
<event>
 5   0  0.1234158E-04  0.1661667E+04  0.7818609E-02  0.8783534E-01
        1   -1    0    0  501    0  0.00000000000E+00  0.00000000000E+00  0.93097776414E+03  0.93097776416E+03  0.50400001928E-02 0.  1.
       -1   -1    0    0    0  501  0.00000000000E+00  0.00000000000E+00 -0.74146126383E+03  0.74146126385E+03  0.50400001928E-02 0. -1.
    10030    2    1    2    0    0  0.00000000000E+00  0.00000000000E+00  0.18951650031E+03  0.16724390280E+04  0.16616665726E+04 0.  0.
        5    1    3    3  502    0 -0.27469784264E+03 -0.57713279173E+03  0.62897289112E+03  0.89675534669E+03  0.46999998093E+01 0.  1.
       -5    1    3    3    0  502  0.27469784264E+03  0.57713279173E+03 -0.43945639081E+03  0.77568368132E+03  0.46999998093E+01 0. -1.
</event>
<event>
 5   0  0.1186302E-04  0.1701434E+04  0.7818609E-02  0.8760547E-01
       -1   -1    0    0    0  501  0.00000000000E+00  0.00000000000E+00  0.53482384690E+03  0.53482384692E+03  0.50400001928E-02 0. -1.
        1   -1    0    0  501    0  0.00000000000E+00  0.00000000000E+00 -0.13531914583E+04  0.13531914583E+04  0.50400001928E-02 0.  1.
    10030    2    1    2    0    0  0.00000000000E+00  0.00000000000E+00 -0.81836761143E+03  0.18880153053E+04  0.17014335854E+04 0.  0.
        3    1    3    3  502    0  0.12110333982E+03 -0.33330590026E+03 -0.12672615775E+04  0.13159448157E+04  0.10100000352E+00 0.  1.
       -3    1    3    3    0  502 -0.12110333982E+03  0.33330590026E+03  0.44889396604E+03  0.57207048955E+03  0.10100000352E+00 0. -1.
</event>
<event>
 5   0  0.2242967E-04  0.1621046E+04  0.7818609E-02  0.8807722E-01
       -2   -1    0    0    0  501  0.00000000000E+00  0.00000000000E+00  0.10880060083E+04  0.10880060083E+04  0.25500000920E-02 0. -1.
        2   -1    0    0  501    0  0.00000000000E+00  0.00000000000E+00 -0.60380887499E+03  0.60380887500E+03  0.25500000920E-02 0.  1.
    10030    2    1    2    0    0  0.00000000000E+00  0.00000000000E+00  0.48419713328E+03  0.16918148833E+04  0.16210461855E+04 0.  0.
        4    1    3    3  502    0 -0.44811957119E+03  0.39418328783E+03 -0.33025380705E+03  0.68210028915E+03  0.12699999809E+01 0.  1.
       -4    1    3    3    0  502  0.44811957119E+03 -0.39418328783E+03  0.81445094032E+03  0.10097145941E+04  0.12699999809E+01 0. -1.
</event>
<event>
 5   0  0.1126958E-04  0.1700458E+04  0.7818609E-02  0.8761103E-01
       -1   -1    0    0    0  501  0.00000000000E+00  0.00000000000E+00  0.45092049775E+03  0.45092049778E+03  0.50400001928E-02 0. -1.
        1   -1    0    0  501    0  0.00000000000E+00  0.00000000000E+00 -0.16031415579E+04  0.16031415579E+04  0.50400001928E-02 0.  1.
    10030    2    1    2    0    0  0.00000000000E+00  0.00000000000E+00 -0.11522210601E+04  0.20540620557E+04  0.17004580433E+04 0.  0.
        4    1    3    3  502    0  0.28248305913E+03 -0.63123583339E+03  0.21343706900E+02  0.69189054248E+03  0.12699999809E+01 0. -1.
       -4    1    3    3    0  502 -0.28248305913E+03  0.63123583339E+03 -0.11735647670E+04  0.13621715132E+04  0.12699999809E+01 0.  1.
</event>
<event>
 5   0  0.2288806E-04  0.1704180E+04  0.7818609E-02  0.8758984E-01
        2   -1    0    0  501    0  0.00000000000E+00  0.00000000000E+00  0.12937219069E+04  0.12937219069E+04  0.25500000920E-02 0. -1.
       -2   -1    0    0    0  501  0.00000000000E+00  0.00000000000E+00 -0.56121562900E+03  0.56121562901E+03  0.25500000920E-02 0.  1.
    10030    2    1    2    0    0  0.00000000000E+00  0.00000000000E+00  0.73250627793E+03  0.18549375359E+04  0.17041795137E+04 0.  0.
        3    1    3    3  502    0 -0.24978328729E+03 -0.64407124345E+02 -0.51769531069E+03  0.57840160199E+03  0.10100000352E+00 0.  1.
       -3    1    3    3    0  502  0.24978328729E+03  0.64407124345E+02  0.12502015886E+04  0.12765359340E+04  0.10100000352E+00 0. -1.
</event>
<event>
 5   0  0.2288806E-04  0.1679849E+04  0.7818609E-02  0.8772941E-01
       -2   -1    0    0    0  501  0.00000000000E+00  0.00000000000E+00  0.38692220492E+03  0.38692220492E+03  0.25500000920E-02 0.  1.
        2   -1    0    0  501    0  0.00000000000E+00  0.00000000000E+00 -0.18232954923E+04  0.18232954923E+04  0.25500000920E-02 0. -1.
    10030    2    1    2    0    0  0.00000000000E+00  0.00000000000E+00 -0.14363732874E+04  0.22102176973E+04  0.16798494124E+04 0.  0.
        3    1    3    3  502    0  0.25237032924E+03 -0.79348761753E+03 -0.86327535544E+03  0.11993989044E+04  0.10100000352E+00 0. -1.
       -3    1    3    3    0  502 -0.25237032924E+03  0.79348761753E+03 -0.57309793198E+03  0.10108187929E+04  0.10100000352E+00 0.  1.
</event>
<event>
 5   0  0.2288806E-04  0.1684331E+04  0.7818609E-02  0.8770352E-01
       -2   -1    0    0    0  501  0.00000000000E+00  0.00000000000E+00  0.61658186779E+03  0.61658186779E+03  0.25500000920E-02 0. -1.
        2   -1    0    0  501    0  0.00000000000E+00  0.00000000000E+00 -0.11502817497E+04  0.11502817497E+04  0.25500000920E-02 0.  1.
    10030    2    1    2    0    0  0.00000000000E+00  0.00000000000E+00 -0.53369988190E+03  0.17668636175E+04  0.16843311666E+04 0.  0.
        3    1    3    3  502    0 -0.63076887171E+03 -0.21935906841E+03  0.27137513897E+03  0.72085521893E+03  0.10100000352E+00 0. -1.
       -3    1    3    3    0  502  0.63076887171E+03  0.21935906841E+03 -0.80507502087E+03  0.10460083986E+04  0.10100000352E+00 0.  1.
</event>
<event>
 5   0  0.1215233E-04  0.1699801E+04  0.7818609E-02  0.8761478E-01
       -1   -1    0    0    0  501  0.00000000000E+00  0.00000000000E+00  0.57354163154E+03  0.57354163156E+03  0.50400001928E-02 0. -1.
        1   -1    0    0  501    0  0.00000000000E+00  0.00000000000E+00 -0.12594211685E+04  0.12594211685E+04  0.50400001928E-02 0.  1.
    10030    2    1    2    0    0  0.00000000000E+00  0.00000000000E+00 -0.68587953697E+03  0.18329628001E+04  0.16998005434E+04 0.  0.
        2    1    3    3  502    0  0.69201147742E+03 -0.34828811068E+03 -0.71981298519E+03  0.10575042442E+04  0.25500000920E-02 0.  1.
       -2    1    3    3    0  502 -0.69201147742E+03  0.34828811068E+03  0.33933448221E+02  0.77545855585E+03  0.25500000920E-02 0. -1.
</event>
<event>
 5   0  0.2356829E-04  0.1706991E+04  0.7818609E-02  0.8757387E-01
        2   -1    0    0  501    0  0.00000000000E+00  0.00000000000E+00  0.17931520331E+04  0.17931520331E+04  0.25500000920E-02 0. -1.
       -2   -1    0    0    0  501  0.00000000000E+00  0.00000000000E+00 -0.40624228006E+03  0.40624228007E+03  0.25500000920E-02 0.  1.
    10030    2    1    2    0    0  0.00000000000E+00  0.00000000000E+00  0.13869097530E+04  0.21993943132E+04  0.17069905336E+04 0.  0.
        5    1    3    3  502    0 -0.52921404366E+03 -0.98575753747E+02  0.15468099277E+04  0.16378118712E+04  0.46999998093E+01 0. -1.
       -5    1    3    3    0  502  0.52921404366E+03  0.98575753747E+02 -0.15990017463E+03  0.56158244193E+03  0.46999998093E+01 0.  1.
</event>
<event>
 5   0  0.2356829E-04  0.1701014E+04  0.7818609E-02  0.8760786E-01
       -2   -1    0    0    0  501  0.00000000000E+00  0.00000000000E+00  0.52602383127E+03  0.52602383127E+03  0.25500000920E-02 0. -1.
        2   -1    0    0  501    0  0.00000000000E+00  0.00000000000E+00 -0.13751502486E+04  0.13751502486E+04  0.25500000920E-02 0.  1.
    10030    2    1    2    0    0  0.00000000000E+00  0.00000000000E+00 -0.84912641736E+03  0.19011740799E+04  0.17010135830E+04 0.  0.
        5    1    3    3  502    0 -0.19089570310E+03  0.74116141714E+03 -0.10001613155E+02  0.76543029597E+03  0.46999998093E+01 0.  1.
       -5    1    3    3    0  502  0.19089570310E+03 -0.74116141714E+03 -0.83912480421E+03  0.11357437839E+04  0.46999998093E+01 0. -1.
</event>
<event>
 5   0  0.2242967E-04  0.1697280E+04  0.7818609E-02  0.8762917E-01
        2   -1    0    0  501    0  0.00000000000E+00  0.00000000000E+00  0.65775069874E+03  0.65775069874E+03  0.25500000920E-02 0.  1.
       -2   -1    0    0    0  501  0.00000000000E+00  0.00000000000E+00 -0.10949283906E+04  0.10949283906E+04  0.25500000920E-02 0. -1.
    10030    2    1    2    0    0  0.00000000000E+00  0.00000000000E+00 -0.43717769183E+03  0.17526790893E+04  0.16972800758E+04 0.  0.
        4    1    3    3  502    0 -0.19487724149E+03  0.81684916777E+03 -0.92249254453E+02  0.84482615962E+03  0.12699999809E+01 0.  1.
       -4    1    3    3    0  502  0.19487724149E+03 -0.81684916777E+03 -0.34492843738E+03  0.90785292969E+03  0.12699999809E+01 0. -1.
</event>
<event>
 5   0  0.2242967E-04  0.1634492E+04  0.7818609E-02  0.8799634E-01
       -2   -1    0    0    0  501  0.00000000000E+00  0.00000000000E+00  0.45172661538E+03  0.45172661539E+03  0.25500000920E-02 0. -1.
        2   -1    0    0  501    0  0.00000000000E+00  0.00000000000E+00 -0.14785287233E+04  0.14785287233E+04  0.25500000920E-02 0.  1.
    10030    2    1    2    0    0  0.00000000000E+00  0.00000000000E+00 -0.10268021079E+04  0.19302553387E+04  0.16344916958E+04 0.  0.
        4    1    3    3  502    0 -0.24891258307E+03 -0.61912753263E+03 -0.10705959090E+04  0.12615282751E+04  0.12699999809E+01 0.  1.
       -4    1    3    3    0  502  0.24891258307E+03  0.61912753263E+03  0.43793801044E+02  0.66872706359E+03  0.12699999809E+01 0. -1.
</event>
<event>
 5   0  0.1215233E-04  0.1673912E+04  0.7818609E-02  0.8776385E-01
       -1   -1    0    0    0  501  0.00000000000E+00  0.00000000000E+00  0.27525199312E+03  0.27525199317E+03  0.50400001928E-02 0.  1.
        1   -1    0    0  501    0  0.00000000000E+00  0.00000000000E+00 -0.25449233990E+04  0.25449233990E+04  0.50400001928E-02 0. -1.
    10030    2    1    2    0    0  0.00000000000E+00  0.00000000000E+00 -0.22696714059E+04  0.28201753922E+04  0.16739118710E+04 0.  0.
        2    1    3    3  502    0  0.16907784655E+03 -0.58682510041E+03 -0.20990609536E+04  0.21860942120E+04  0.25500000920E-02 0. -1.
       -2    1    3    3    0  502 -0.16907784655E+03  0.58682510041E+03 -0.17061045229E+03  0.63408118022E+03  0.25500000920E-02 0.  1.
</event>
<event>
 5   0  0.2288806E-04  0.1715345E+04  0.7818609E-02  0.8752661E-01
        2   -1    0    0  501    0  0.00000000000E+00  0.00000000000E+00  0.44619299557E+03  0.44619299558E+03  0.25500000920E-02 0. -1.
       -2   -1    0    0    0  501  0.00000000000E+00  0.00000000000E+00 -0.16486178364E+04  0.16486178364E+04  0.25500000920E-02 0.  1.
    10030    2    1    2    0    0  0.00000000000E+00  0.00000000000E+00 -0.12024248409E+04  0.20948108320E+04  0.17153445496E+04 0.  0.
        3    1    3    3  502    0  0.57780940800E+03 -0.39056614142E+03 -0.12108392372E+04  0.13973322051E+04  0.10100000352E+00 0.  1.
       -3    1    3    3    0  502 -0.57780940800E+03  0.39056614142E+03  0.84143963110E+01  0.69747862696E+03  0.10100000352E+00 0. -1.
</event>
<event>
 5   0  0.1126958E-04  0.1684382E+04  0.7818609E-02  0.8770322E-01
       -1   -1    0    0    0  501  0.00000000000E+00  0.00000000000E+00  0.35790084019E+03  0.35790084023E+03  0.50400001928E-02 0.  1.
        1   -1    0    0  501    0  0.00000000000E+00  0.00000000000E+00 -0.19817947890E+04  0.19817947890E+04  0.50400001928E-02 0. -1.
    10030    2    1    2    0    0  0.00000000000E+00  0.00000000000E+00 -0.16238939488E+04  0.23396956293E+04  0.16843824033E+04 0.  0.
        4    1    3    3  502    0 -0.33253321527E+03 -0.48724467293E+03 -0.16468804339E+04  0.17493434446E+04  0.12699999809E+01 0. -1.
       -4    1    3    3    0  502  0.33253321527E+03  0.48724467293E+03  0.22986485090E+02  0.59035218468E+03  0.12699999809E+01 0.  1.
</event>
<event>
 5   0  0.2234723E-04  0.1701914E+04  0.7818609E-02  0.8760273E-01
       -2   -1    0    0    0  501  0.00000000000E+00  0.00000000000E+00  0.77576366387E+03  0.77576366387E+03  0.25500000920E-02 0.  1.
        2   -1    0    0  501    0  0.00000000000E+00  0.00000000000E+00 -0.93343878038E+03  0.93343878038E+03  0.25500000920E-02 0. -1.
    10030    2    1    2    0    0  0.00000000000E+00  0.00000000000E+00 -0.15767511651E+03  0.17092024443E+04  0.17019140851E+04 0.  0.
        1    1    3    3  502    0 -0.16736171948E+03  0.79614353599E+02  0.75524879102E+03  0.77765617519E+03  0.50400001928E-02 0.  1.
       -1    1    3    3    0  502  0.16736171948E+03 -0.79614353599E+02 -0.91292390753E+03  0.93154626906E+03  0.50400001928E-02 0. -1.
</event>
<event>
 5   0  0.2224454E-04  0.1671769E+04  0.7818609E-02  0.8777631E-01
       -2   -1    0    0    0  501  0.00000000000E+00  0.00000000000E+00  0.56803444441E+03  0.56803444442E+03  0.25500000920E-02 0.  1.
        2   -1    0    0  501    0  0.00000000000E+00  0.00000000000E+00 -0.12300364950E+04  0.12300364950E+04  0.25500000920E-02 0. -1.
    10030    2    1    2    0    0  0.00000000000E+00  0.00000000000E+00 -0.66200205059E+03  0.17980709394E+04  0.16717692389E+04 0.  0.
        2    1    3    3  502    0  0.50195551337E+03 -0.66826692894E+03 -0.34473572925E+03  0.90409222358E+03  0.25500000920E-02 0.  1.
       -2    1    3    3    0  502 -0.50195551337E+03  0.66826692894E+03 -0.31726632134E+03  0.89397871584E+03  0.25500000920E-02 0. -1.
</event>
<event>
 5   0  0.1126958E-04  0.1699494E+04  0.7818609E-02  0.8761653E-01
        1   -1    0    0  501    0  0.00000000000E+00  0.00000000000E+00  0.93536645377E+03  0.93536645378E+03  0.50400001928E-02 0. -1.
       -1   -1    0    0    0  501  0.00000000000E+00  0.00000000000E+00 -0.77196444849E+03  0.77196444851E+03  0.50400001928E-02 0.  1.
    10030    2    1    2    0    0  0.00000000000E+00  0.00000000000E+00  0.16340200528E+03  0.17073309023E+04  0.16994936289E+04 0.  0.
        4    1    3    3  502    0  0.65804469025E+03  0.39249201942E+03 -0.28741033189E+03  0.81833923983E+03  0.12699999809E+01 0. -1.
       -4    1    3    3    0  502 -0.65804469025E+03 -0.39249201942E+03  0.45081233717E+03  0.88899166246E+03  0.12699999809E+01 0.  1.
</event>
<event>
 5   0  0.1215233E-04  0.1689827E+04  0.7818609E-02  0.8767188E-01
        1   -1    0    0  501    0  0.00000000000E+00  0.00000000000E+00  0.58478591436E+03  0.58478591438E+03  0.50400001928E-02 0. -1.
       -1   -1    0    0    0  501  0.00000000000E+00  0.00000000000E+00 -0.12207525952E+04  0.12207525952E+04  0.50400001928E-02 0.  1.
    10030    2    1    2    0    0  0.00000000000E+00  0.00000000000E+00 -0.63596668085E+03  0.18055385096E+04  0.16898271185E+04 0.  0.
        2    1    3    3  502    0  0.65361663800E+03  0.40212143422E+02 -0.88844027970E+03  0.11037018875E+04  0.25500000920E-02 0.  1.
       -2    1    3    3    0  502 -0.65361663800E+03 -0.40212143422E+02  0.25247359885E+03  0.70183662206E+03  0.25500000920E-02 0. -1.
</event>
<event>
 5   0  0.2242967E-04  0.1703452E+04  0.7818609E-02  0.8759398E-01
        2   -1    0    0  501    0  0.00000000000E+00  0.00000000000E+00  0.61184015124E+03  0.61184015124E+03  0.25500000920E-02 0. -1.
       -2   -1    0    0    0  501  0.00000000000E+00  0.00000000000E+00 -0.11856651554E+04  0.11856651554E+04  0.25500000920E-02 0.  1.
    10030    2    1    2    0    0  0.00000000000E+00  0.00000000000E+00 -0.57382500417E+03  0.17975053066E+04  0.17034524332E+04 0.  0.
        4    1    3    3  502    0  0.74423521597E+03  0.39045838552E+03 -0.43271579561E+03  0.94529803775E+03  0.12699999809E+01 0.  1.
       -4    1    3    3    0  502 -0.74423521597E+03 -0.39045838552E+03 -0.14110920856E+03  0.85220726889E+03  0.12699999809E+01 0. -1.
</event>
<event>
 5   0  0.2242967E-04  0.1702949E+04  0.7818609E-02  0.8759684E-01
       -2   -1    0    0    0  501  0.00000000000E+00  0.00000000000E+00  0.42091417538E+03  0.42091417539E+03  0.25500000920E-02 0. -1.
        2   -1    0    0  501    0  0.00000000000E+00  0.00000000000E+00 -0.17224617713E+04  0.17224617713E+04  0.25500000920E-02 0.  1.
    10030    2    1    2    0    0  0.00000000000E+00  0.00000000000E+00 -0.13015475959E+04  0.21433759466E+04  0.17029487087E+04 0.  0.
        4    1    3    3  502    0  0.21254970211E+03 -0.71886736198E+03 -0.11590146567E+04  0.13803130976E+04  0.12699999809E+01 0.  1.
       -4    1    3    3    0  502 -0.21254970211E+03  0.71886736198E+03 -0.14253293919E+03  0.76306284908E+03  0.12699999809E+01 0. -1.
</event>
<event>
 5   0  0.1126958E-04  0.1673774E+04  0.7818609E-02  0.8776465E-01
       -1   -1    0    0    0  501  0.00000000000E+00  0.00000000000E+00  0.31080969821E+03  0.31080969825E+03  0.50400001928E-02 0. -1.
        1   -1    0    0  501    0  0.00000000000E+00  0.00000000000E+00 -0.22534035664E+04  0.22534035664E+04  0.50400001928E-02 0.  1.
    10030    2    1    2    0    0  0.00000000000E+00  0.00000000000E+00 -0.19425938682E+04  0.25642132647E+04  0.16737737989E+04 0.  0.
        4    1    3    3  502    0  0.71490322883E+03  0.43256111628E+03 -0.10428646175E+04  0.13363247993E+04  0.12699999809E+01 0. -1.
       -4    1    3    3    0  502 -0.71490322883E+03 -0.43256111628E+03 -0.89972925068E+03  0.12278884653E+04  0.12699999809E+01 0.  1.
</event>
<event>
 5   0  0.1215233E-04  0.1733138E+04  0.7818609E-02  0.8742687E-01
       -1   -1    0    0    0  501  0.00000000000E+00  0.00000000000E+00  0.52304229751E+03  0.52304229753E+03  0.50400001928E-02 0. -1.
        1   -1    0    0  501    0  0.00000000000E+00  0.00000000000E+00 -0.14357187953E+04  0.14357187953E+04  0.50400001928E-02 0.  1.
    10030    2    1    2    0    0  0.00000000000E+00  0.00000000000E+00 -0.91267649783E+03  0.19587610929E+04  0.17331377987E+04 0.  0.
        2    1    3    3  502    0  0.50387948948E+03 -0.78480209558E+02 -0.12481821413E+04  0.13483368797E+04  0.25500000920E-02 0.  1.
       -2    1    3    3    0  502 -0.50387948948E+03  0.78480209558E+02  0.33550564350E+03  0.61042421318E+03  0.25500000920E-02 0. -1.
</event>
<event>
 5   0  0.2356829E-04  0.1681577E+04  0.7818609E-02  0.8771942E-01
        2   -1    0    0  501    0  0.00000000000E+00  0.00000000000E+00  0.11011973682E+04  0.11011973682E+04  0.25500000920E-02 0. -1.
       -2   -1    0    0    0  501  0.00000000000E+00  0.00000000000E+00 -0.64196032168E+03  0.64196032169E+03  0.25500000920E-02 0.  1.
    10030    2    1    2    0    0  0.00000000000E+00  0.00000000000E+00  0.45923704655E+03  0.17431576899E+04  0.16815766611E+04 0.  0.
        5    1    3    3  502    0 -0.61500224667E+03 -0.26458874082E+02 -0.36404509665E+03  0.71517743100E+03  0.46999998093E+01 0.  1.
       -5    1    3    3    0  502  0.61500224667E+03  0.26458874082E+02  0.82328214320E+03  0.10279802589E+04  0.46999998093E+01 0. -1.
</event>
<event>
 5   0  0.2356829E-04  0.1769138E+04  0.7818609E-02  0.8722886E-01
        2   -1    0    0  501    0  0.00000000000E+00  0.00000000000E+00  0.11002814519E+04  0.11002814519E+04  0.25500000920E-02 0.  1.
       -2   -1    0    0    0  501  0.00000000000E+00  0.00000000000E+00 -0.71114748204E+03  0.71114748204E+03  0.25500000920E-02 0. -1.
    10030    2    1    2    0    0  0.00000000000E+00  0.00000000000E+00  0.38913396988E+03  0.18114289340E+04  0.17691380772E+04 0.  0.
        5    1    3    3  502    0 -0.37445354218E+03 -0.26121814439E+02  0.10146773166E+04  0.10818918389E+04  0.46999998093E+01 0.  1.
       -5    1    3    3    0  502  0.37445354218E+03  0.26121814439E+02 -0.62554334668E+03  0.72953709502E+03  0.46999998093E+01 0. -1.
</event>
<event>
 5   0  0.1234158E-04  0.1653332E+04  0.7818609E-02  0.8788437E-01
        1   -1    0    0  501    0  0.00000000000E+00  0.00000000000E+00  0.97918216040E+03  0.97918216041E+03  0.50400001928E-02 0. -1.
       -1   -1    0    0    0  501  0.00000000000E+00  0.00000000000E+00 -0.69790598312E+03  0.69790598314E+03  0.50400001928E-02 0.  1.
    10030    2    1    2    0    0  0.00000000000E+00  0.00000000000E+00  0.28127617728E+03  0.16770881435E+04  0.16533324993E+04 0.  0.
        5    1    3    3  502    0 -0.32134525210E+03  0.32119389583E+03  0.84115965172E+03  0.95603344055E+03  0.46999998093E+01 0. -1.
       -5    1    3    3    0  502  0.32134525210E+03 -0.32119389583E+03 -0.55988347444E+03  0.72105470300E+03  0.46999998093E+01 0.  1.
</event>
<event>
 5   0  0.2224454E-04  0.1686045E+04  0.7818609E-02  0.8769363E-01
       -2   -1    0    0    0  501  0.00000000000E+00  0.00000000000E+00  0.24864978987E+03  0.24864978988E+03  0.25500000920E-02 0. -1.
        2   -1    0    0  501    0  0.00000000000E+00  0.00000000000E+00 -0.28581860001E+04  0.28581860001E+04  0.25500000920E-02 0.  1.
    10030    2    1    2    0    0  0.00000000000E+00  0.00000000000E+00 -0.26095362102E+04  0.31068357900E+04  0.16860454897E+04 0.  0.
        2    1    3    3  502    0 -0.60506950277E+03  0.15715673174E+03 -0.23469476862E+04  0.24287796902E+04  0.25500000920E-02 0.  1.
       -2    1    3    3    0  502  0.60506950277E+03 -0.15715673174E+03 -0.26258852397E+03  0.67805609977E+03  0.25500000920E-02 0. -1.
</event>
<event>
 5   0  0.1126958E-04  0.1511917E+04  0.7818609E-02  0.8876567E-01
        1   -1    0    0  501    0  0.00000000000E+00  0.00000000000E+00  0.96067827801E+03  0.96067827802E+03  0.50400001928E-02 0. -1.
       -1   -1    0    0    0  501  0.00000000000E+00  0.00000000000E+00 -0.59486425888E+03  0.59486425890E+03  0.50400001928E-02 0.  1.
    10030    2    1    2    0    0  0.00000000000E+00  0.00000000000E+00  0.36581401913E+03  0.15555425369E+04  0.15119168918E+04 0.  0.
        4    1    3    3  502    0 -0.22569549363E+03 -0.21833198130E+03 -0.52458609684E+03  0.61139144237E+03  0.12699999809E+01 0.  1.
       -4    1    3    3    0  502  0.22569549363E+03  0.21833198130E+03  0.89040011597E+03  0.94415109454E+03  0.12699999809E+01 0. -1.
</event>
<event>
 5   0  0.2288806E-04  0.1683848E+04  0.7818609E-02  0.8770630E-01
        2   -1    0    0  501    0  0.00000000000E+00  0.00000000000E+00  0.77889214944E+03  0.77889214944E+03  0.25500000920E-02 0. -1.
       -2   -1    0    0    0  501  0.00000000000E+00  0.00000000000E+00 -0.91005681754E+03  0.91005681754E+03  0.25500000920E-02 0.  1.
    10030    2    1    2    0    0  0.00000000000E+00  0.00000000000E+00 -0.13116466810E+03  0.16889489670E+04  0.16838481057E+04 0.  0.
        3    1    3    3  502    0  0.42689151521E+02  0.50610597528E+03 -0.73908530317E+03  0.89677907951E+03  0.10100000352E+00 0.  1.
       -3    1    3    3    0  502 -0.42689151521E+02 -0.50610597528E+03  0.60792063507E+03  0.79216988748E+03  0.10100000352E+00 0. -1.
</event>
<event>
 5   0  0.8372750E-05  0.1698285E+04  0.7818609E-02  0.8762343E-01
       -4   -1    0    0    0  501  0.00000000000E+00  0.00000000000E+00  0.13930171526E+04  0.13930177315E+04  0.12699999809E+01 0. -1.
        4   -1    0    0  501    0  0.00000000000E+00  0.00000000000E+00 -0.51761076729E+03  0.51761232531E+03  0.12699999809E+01 0.  1.
    10030    2    1    2    0    0  0.00000000000E+00  0.00000000000E+00  0.87540638532E+03  0.19106300568E+04  0.16982846860E+04 0.  0.
        2    1    3    3  502    0 -0.70680577219E+03 -0.46975132714E+03  0.46956393738E+03  0.96991288281E+03  0.25500000920E-02 0.  1.
       -2    1    3    3    0  502  0.70680577219E+03  0.46975132714E+03  0.40584244793E+03  0.94071717402E+03  0.25500000920E-02 0. -1.
</event>
<event>
 5   0  0.2224454E-04  0.1717283E+04  0.7818609E-02  0.8751568E-01
        2   -1    0    0  501    0  0.00000000000E+00  0.00000000000E+00  0.11609196062E+04  0.11609196062E+04  0.25500000920E-02 0.  1.
       -2   -1    0    0    0  501  0.00000000000E+00  0.00000000000E+00 -0.63506990955E+03  0.63506990956E+03  0.25500000920E-02 0. -1.
    10030    2    1    2    0    0  0.00000000000E+00  0.00000000000E+00  0.52584969668E+03  0.17959895158E+04  0.17172828647E+04 0.  0.
        2    1    3    3  502    0 -0.27502644318E+03  0.61114432041E+03  0.82430212844E+03  0.10623610139E+04  0.25500000920E-02 0.  1.
       -2    1    3    3    0  502  0.27502644318E+03 -0.61114432041E+03 -0.29845243175E+03  0.73362850193E+03  0.25500000920E-02 0. -1.
</event>
<event>
 5   0  0.1186302E-04  0.1839403E+04  0.7818609E-02  0.8685622E-01
       -1   -1    0    0    0  501  0.00000000000E+00  0.00000000000E+00  0.40265772902E+03  0.40265772905E+03  0.50400001928E-02 0. -1.
        1   -1    0    0  501    0  0.00000000000E+00  0.00000000000E+00 -0.21006688536E+04  0.21006688536E+04  0.50400001928E-02 0.  1.
    10030    2    1    2    0    0  0.00000000000E+00  0.00000000000E+00 -0.16980111245E+04  0.25033265826E+04  0.18394026748E+04 0.  0.
        3    1    3    3  502    0 -0.80986699843E+03 -0.92182919177E+02 -0.26925513717E+03  0.85841748866E+03  0.10100000352E+00 0. -1.
       -3    1    3    3    0  502  0.80986699843E+03  0.92182919177E+02 -0.14287559874E+04  0.16449090940E+04  0.10100000352E+00 0.  1.
</event>
<event>
 5   0  0.2224454E-04  0.1687937E+04  0.7818609E-02  0.8768274E-01
        2   -1    0    0  501    0  0.00000000000E+00  0.00000000000E+00  0.13733022381E+04  0.13733022381E+04  0.25500000920E-02 0.  1.
       -2   -1    0    0    0  501  0.00000000000E+00  0.00000000000E+00 -0.51866436850E+03  0.51866436851E+03  0.25500000920E-02 0. -1.
    10030    2    1    2    0    0  0.00000000000E+00  0.00000000000E+00  0.85463786956E+03  0.18919666066E+04  0.16879371292E+04 0.  0.
        2    1    3    3  502    0 -0.80582320743E+03  0.72453157655E+01  0.70838693340E+03  0.10729471486E+04  0.25500000920E-02 0.  1.
       -2    1    3    3    0  502  0.80582320743E+03 -0.72453157655E+01  0.14625093616E+03  0.81901945799E+03  0.25500000920E-02 0. -1.
</event>
<event>
 5   0  0.1234158E-04  0.1701454E+04  0.7818609E-02  0.8760536E-01
       -1   -1    0    0    0  501  0.00000000000E+00  0.00000000000E+00  0.46324159385E+03  0.46324159388E+03  0.50400001928E-02 0.  1.
        1   -1    0    0  501    0  0.00000000000E+00  0.00000000000E+00 -0.15623298900E+04  0.15623298900E+04  0.50400001928E-02 0. -1.
    10030    2    1    2    0    0  0.00000000000E+00  0.00000000000E+00 -0.10990882961E+04  0.20255714839E+04  0.17014537177E+04 0.  0.
        5    1    3    3  502    0  0.51185035561E+03  0.95842360422E+02  0.25131242928E+03  0.57823574059E+03  0.46999998093E+01 0.  1.
       -5    1    3    3    0  502 -0.51185035561E+03 -0.95842360422E+02 -0.13504007254E+04  0.14473357433E+04  0.46999998093E+01 0. -1.
</event>
<event>
 5   0  0.1126958E-04  0.1695384E+04  0.7818609E-02  0.8764001E-01
       -1   -1    0    0    0  501  0.00000000000E+00  0.00000000000E+00  0.73435950909E+03  0.73435950911E+03  0.50400001928E-02 0.  1.
        1   -1    0    0  501    0  0.00000000000E+00  0.00000000000E+00 -0.97851546458E+03  0.97851546459E+03  0.50400001928E-02 0. -1.
    10030    2    1    2    0    0  0.00000000000E+00  0.00000000000E+00 -0.24415595549E+03  0.17128749737E+04  0.16953844829E+04 0.  0.
        4    1    3    3  502    0 -0.54647367969E+03  0.18516295796E+03  0.50534544398E+03  0.76700354253E+03  0.12699999809E+01 0.  1.
       -4    1    3    3    0  502  0.54647367969E+03 -0.18516295796E+03 -0.74950139948E+03  0.94587143117E+03  0.12699999809E+01 0. -1.
</event>
<event>
 5   0  0.2288806E-04  0.1640583E+04  0.7818609E-02  0.8795997E-01
       -2   -1    0    0    0  501  0.00000000000E+00  0.00000000000E+00  0.33929184586E+03  0.33929184587E+03  0.25500000920E-02 0.  1.
        2   -1    0    0  501    0  0.00000000000E+00  0.00000000000E+00 -0.19831843986E+04  0.19831843986E+04  0.25500000920E-02 0. -1.
    10030    2    1    2    0    0  0.00000000000E+00  0.00000000000E+00 -0.16438925527E+04  0.23224762444E+04  0.16405831832E+04 0.  0.
        3    1    3    3  502    0 -0.19582457185E+03 -0.32314671643E+03 -0.18526524690E+04  0.18907914333E+04  0.10100000352E+00 0. -1.
       -3    1    3    3    0  502  0.19582457185E+03  0.32314671643E+03  0.20875991630E+03  0.43168481110E+03  0.10100000352E+00 0.  1.
</event>
<event>
 5   0  0.1186302E-04  0.1696685E+04  0.7818609E-02  0.8763257E-01
       -1   -1    0    0    0  501  0.00000000000E+00  0.00000000000E+00  0.47751118744E+03  0.47751118747E+03  0.50400001928E-02 0.  1.
        1   -1    0    0  501    0  0.00000000000E+00  0.00000000000E+00 -0.15071587203E+04  0.15071587203E+04  0.50400001928E-02 0. -1.
    10030    2    1    2    0    0  0.00000000000E+00  0.00000000000E+00 -0.10296475328E+04  0.19846699077E+04  0.16966851802E+04 0.  0.
        3    1    3    3  502    0 -0.60363424341E+03  0.48051097039E+03 -0.10222093893E+03  0.77827644384E+03  0.10100000352E+00 0. -1.
       -3    1    3    3    0  502  0.60363424341E+03 -0.48051097039E+03 -0.92742659388E+03  0.12063934639E+04  0.10100000352E+00 0.  1.
</event>
<event>
 5   0  0.1215233E-04  0.1701469E+04  0.7818609E-02  0.8760527E-01
        1   -1    0    0  501    0  0.00000000000E+00  0.00000000000E+00  0.12517391910E+04  0.12517391910E+04  0.50400001928E-02 0. -1.
       -1   -1    0    0    0  501  0.00000000000E+00  0.00000000000E+00 -0.57819504770E+03  0.57819504772E+03  0.50400001928E-02 0.  1.
    10030    2    1    2    0    0  0.00000000000E+00  0.00000000000E+00  0.67354414329E+03  0.18299342387E+04  0.17014692489E+04 0.  0.
        2    1    3    3  502    0  0.13096284835E+03 -0.45438797659E+03  0.10973657328E+04  0.11949189313E+04  0.25500000920E-02 0. -1.
       -2    1    3    3    0  502 -0.13096284835E+03  0.45438797659E+03 -0.42382158949E+03  0.63501530741E+03  0.25500000920E-02 0.  1.
</event>
<event>
 5   0  0.1215233E-04  0.1723756E+04  0.7818609E-02  0.8747930E-01
       -1   -1    0    0    0  501  0.00000000000E+00  0.00000000000E+00  0.13786884742E+04  0.13786884742E+04  0.50400001928E-02 0.  1.
        1   -1    0    0  501    0  0.00000000000E+00  0.00000000000E+00 -0.53879745242E+03  0.53879745244E+03  0.50400001928E-02 0. -1.
    10030    2    1    2    0    0  0.00000000000E+00  0.00000000000E+00  0.83989102179E+03  0.19174859267E+04  0.17237561749E+04 0.  0.
        2    1    3    3  502    0  0.11594884357E+03 -0.52165668641E+01 -0.53006423943E+03  0.54262274632E+03  0.25500000920E-02 0. -1.
       -2    1    3    3    0  502 -0.11594884357E+03  0.52165668641E+01  0.13699552612E+04  0.13748631803E+04  0.25500000920E-02 0.  1.
</event>
<event>
 5   0  0.2242967E-04  0.1694649E+04  0.7818609E-02  0.8764422E-01
       -2   -1    0    0    0  501  0.00000000000E+00  0.00000000000E+00  0.64020899168E+03  0.64020899169E+03  0.25500000920E-02 0. -1.
        2   -1    0    0  501    0  0.00000000000E+00  0.00000000000E+00 -0.11214441676E+04  0.11214441676E+04  0.25500000920E-02 0.  1.
    10030    2    1    2    0    0  0.00000000000E+00  0.00000000000E+00 -0.48123517590E+03  0.17616531593E+04  0.16946488011E+04 0.  0.
        4    1    3    3  502    0 -0.55443768661E+03 -0.43775714324E+03  0.24577611429E+03  0.74795720201E+03  0.12699999809E+01 0.  1.
       -4    1    3    3    0  502  0.55443768661E+03  0.43775714324E+03 -0.72701129019E+03  0.10136959573E+04  0.12699999809E+01 0. -1.
</event>
<event>
 5   0  0.1126958E-04  0.1692085E+04  0.7818609E-02  0.8765891E-01
       -1   -1    0    0    0  501  0.00000000000E+00  0.00000000000E+00  0.85323976032E+03  0.85323976033E+03  0.50400001928E-02 0. -1.
        1   -1    0    0  501    0  0.00000000000E+00  0.00000000000E+00 -0.83890611058E+03  0.83890611060E+03  0.50400001928E-02 0.  1.
    10030    2    1    2    0    0  0.00000000000E+00  0.00000000000E+00  0.14333649733E+02  0.16921458709E+04  0.16920851619E+04 0.  0.
        4    1    3    3  502    0 -0.13099466064E+03 -0.52294411879E+03 -0.64489666256E+03  0.84054950525E+03  0.12699999809E+01 0.  1.
       -4    1    3    3    0  502  0.13099466064E+03  0.52294411879E+03  0.65923031230E+03  0.85159636568E+03  0.12699999809E+01 0. -1.
</event>
<event>
 5   0  0.1204741E-04  0.1551063E+04  0.7818609E-02  0.8851189E-01
        1   -1    0    0  501    0  0.00000000000E+00  0.00000000000E+00  0.18157759011E+04  0.18157759011E+04  0.50400001928E-02 0.  1.
       -1   -1    0    0    0  501  0.00000000000E+00  0.00000000000E+00 -0.33123510861E+03  0.33123510865E+03  0.50400001928E-02 0. -1.
    10030    2    1    2    0    0  0.00000000000E+00  0.00000000000E+00  0.14845407925E+04  0.21470110097E+04  0.15510625105E+04 0.  0.
        1    1    3    3  502    0 -0.21967358673E+03 -0.15270414339E+03  0.17498773302E+04  0.17702106403E+04  0.50400001928E-02 0.  1.
       -1    1    3    3    0  502  0.21967358673E+03  0.15270414339E+03 -0.26533653777E+03  0.37680036945E+03  0.50400001928E-02 0. -1.
</event>
<event>
 5   0  0.2356829E-04  0.1788746E+04  0.7818609E-02  0.8712307E-01
        2   -1    0    0  501    0  0.00000000000E+00  0.00000000000E+00  0.52803186402E+03  0.52803186403E+03  0.25500000920E-02 0.  1.
       -2   -1    0    0    0  501  0.00000000000E+00  0.00000000000E+00 -0.15148773037E+04  0.15148773037E+04  0.25500000920E-02 0. -1.
    10030    2    1    2    0    0  0.00000000000E+00  0.00000000000E+00 -0.98684543966E+03  0.20429091677E+04  0.17887464733E+04 0.  0.
        5    1    3    3  502    0 -0.62860210521E+03  0.52210830144E+03 -0.90859038042E+03  0.12220050141E+04  0.46999998093E+01 0. -1.
       -5    1    3    3    0  502  0.62860210521E+03 -0.52210830144E+03 -0.78255059239E+02  0.82090415360E+03  0.46999998093E+01 0.  1.
</event>
<event>
 5   0  0.2234723E-04  0.1677143E+04  0.7818609E-02  0.8774509E-01
        2   -1    0    0  501    0  0.00000000000E+00  0.00000000000E+00  0.12437679508E+04  0.12437679508E+04  0.25500000920E-02 0. -1.
       -2   -1    0    0    0  501  0.00000000000E+00  0.00000000000E+00 -0.56538058121E+03  0.56538058121E+03  0.25500000920E-02 0.  1.
    10030    2    1    2    0    0  0.00000000000E+00  0.00000000000E+00  0.67838736961E+03  0.18091485320E+04  0.16771431029E+04 0.  0.
        1    1    3    3  502    0 -0.48865648010E+03  0.49497538628E+03  0.84448135852E+03  0.10940450418E+04  0.50400001928E-02 0. -1.
       -1    1    3    3    0  502  0.48865648010E+03 -0.49497538628E+03 -0.16609398891E+03  0.71510349024E+03  0.50400001928E-02 0.  1.
</event>
<event>
 5   0  0.2234723E-04  0.1714445E+04  0.7818609E-02  0.8753168E-01
        2   -1    0    0  501    0  0.00000000000E+00  0.00000000000E+00  0.13230195417E+04  0.13230195417E+04  0.25500000920E-02 0.  1.
       -2   -1    0    0    0  501  0.00000000000E+00  0.00000000000E+00 -0.55541922849E+03  0.55541922850E+03  0.25500000920E-02 0. -1.
    10030    2    1    2    0    0  0.00000000000E+00  0.00000000000E+00  0.76760031318E+03  0.18784387702E+04  0.17144450917E+04 0.  0.
        1    1    3    3  502    0 -0.31566800642E+03  0.79555534597E+03  0.33153051674E+03  0.91786005597E+03  0.50400001928E-02 0.  1.
       -1    1    3    3    0  502  0.31566800642E+03 -0.79555534597E+03  0.43606979644E+03  0.96057871420E+03  0.50400001928E-02 0. -1.
</event>
<event>
 5   0  0.1186302E-04  0.1704411E+04  0.7818609E-02  0.8758853E-01
       -1   -1    0    0    0  501  0.00000000000E+00  0.00000000000E+00  0.76339965719E+03  0.76339965721E+03  0.50400001928E-02 0. -1.
        1   -1    0    0  501    0  0.00000000000E+00  0.00000000000E+00 -0.95134170634E+03  0.95134170636E+03  0.50400001928E-02 0.  1.
    10030    2    1    2    0    0  0.00000000000E+00  0.00000000000E+00 -0.18794204915E+03  0.17147413636E+04  0.17044106694E+04 0.  0.
        3    1    3    3  502    0  0.12735701267E+03 -0.33849473632E+03 -0.87030574350E+03  0.94245986258E+03  0.10100000352E+00 0.  1.
       -3    1    3    3    0  502 -0.12735701267E+03  0.33849473632E+03  0.68236369435E+03  0.77228150099E+03  0.10100000352E+00 0. -1.
</event>
<event>
 5   0  0.2356829E-04  0.1702845E+04  0.7818609E-02  0.8759744E-01
        2   -1    0    0  501    0  0.00000000000E+00  0.00000000000E+00  0.16247757458E+04  0.16247757458E+04  0.25500000920E-02 0. -1.
       -2   -1    0    0    0  501  0.00000000000E+00  0.00000000000E+00 -0.44616609635E+03  0.44616609635E+03  0.25500000920E-02 0.  1.
    10030    2    1    2    0    0  0.00000000000E+00  0.00000000000E+00  0.11786096494E+04  0.20709418421E+04  0.17028445049E+04 0.  0.
        5    1    3    3  502    0 -0.71367818639E+03 -0.45246788917E+03  0.46271824170E+03  0.96342825662E+03  0.46999998093E+01 0.  1.
       -5    1    3    3    0  502  0.71367818639E+03  0.45246788917E+03  0.71589140775E+03  0.11075135855E+04  0.46999998093E+01 0. -1.
</event>
<event>
 5   0  0.2224454E-04  0.1698830E+04  0.7818609E-02  0.8762032E-01
        2   -1    0    0  501    0  0.00000000000E+00  0.00000000000E+00  0.12023013785E+04  0.12023013785E+04  0.25500000920E-02 0.  1.
       -2   -1    0    0    0  501  0.00000000000E+00  0.00000000000E+00 -0.60010428200E+03  0.60010428201E+03  0.25500000920E-02 0. -1.
    10030    2    1    2    0    0  0.00000000000E+00  0.00000000000E+00  0.60219709648E+03  0.18024056605E+04  0.16988304277E+04 0.  0.
        2    1    3    3  502    0 -0.11439468392E+03  0.91019674720E+02 -0.58665732671E+03  0.60459700949E+03  0.25500000920E-02 0. -1.
       -2    1    3    3    0  502  0.11439468392E+03 -0.91019674720E+02  0.11888544232E+04  0.11978086510E+04  0.25500000920E-02 0.  1.
</event>
<event>
 5   0  0.1234158E-04  0.1701712E+04  0.7818609E-02  0.8760388E-01
        1   -1    0    0  501    0  0.00000000000E+00  0.00000000000E+00  0.85528408142E+03  0.85528408143E+03  0.50400001928E-02 0.  1.
       -1   -1    0    0    0  501  0.00000000000E+00  0.00000000000E+00 -0.84645098986E+03  0.84645098987E+03  0.50400001928E-02 0. -1.
    10030    2    1    2    0    0  0.00000000000E+00  0.00000000000E+00  0.88330915607E+01  0.17017350713E+04  0.17017121465E+04 0.  0.
        5    1    3    3  502    0  0.15948908254E+03  0.21088487610E+03 -0.80431232759E+03  0.84666971643E+03  0.46999998093E+01 0. -1.
       -5    1    3    3    0  502 -0.15948908254E+03 -0.21088487610E+03  0.81314541915E+03  0.85506535487E+03  0.46999998093E+01 0.  1.
</event>
<event>
 5   0  0.2234723E-04  0.1705173E+04  0.7818609E-02  0.8758420E-01
       -2   -1    0    0    0  501  0.00000000000E+00  0.00000000000E+00  0.83911295116E+03  0.83911295116E+03  0.25500000920E-02 0. -1.
        2   -1    0    0  501    0  0.00000000000E+00  0.00000000000E+00 -0.86627610877E+03  0.86627610878E+03  0.25500000920E-02 0.  1.
    10030    2    1    2    0    0  0.00000000000E+00  0.00000000000E+00 -0.27163157617E+02  0.17053890599E+04  0.17051727211E+04 0.  0.
        1    1    3    3  502    0 -0.14914506482E+02  0.22560484023E+03  0.80858324818E+03  0.83959922327E+03  0.50400001928E-02 0. -1.
       -1    1    3    3    0  502  0.14914506482E+02 -0.22560484023E+03 -0.83574640580E+03  0.86578983667E+03  0.50400001928E-02 0.  1.
</event>
<event>
 5   0  0.2242967E-04  0.1700437E+04  0.7818609E-02  0.8761115E-01
       -2   -1    0    0    0  501  0.00000000000E+00  0.00000000000E+00  0.59570752970E+03  0.59570752970E+03  0.25500000920E-02 0.  1.
        2   -1    0    0  501    0  0.00000000000E+00  0.00000000000E+00 -0.12134667635E+04  0.12134667635E+04  0.25500000920E-02 0. -1.
    10030    2    1    2    0    0  0.00000000000E+00  0.00000000000E+00 -0.61775923384E+03  0.18091742932E+04  0.17004367534E+04 0.  0.
        4    1    3    3  502    0  0.65087719461E+03  0.21529694660E+03 -0.84390395753E+03  0.10872761379E+04  0.12699999809E+01 0. -1.
       -4    1    3    3    0  502 -0.65087719461E+03 -0.21529694660E+03  0.22614472369E+03  0.72189815531E+03  0.12699999809E+01 0.  1.
</event>
<event>
 5   0  0.2234723E-04  0.1706514E+04  0.7818609E-02  0.8757658E-01
        2   -1    0    0  501    0  0.00000000000E+00  0.00000000000E+00  0.68892522530E+03  0.68892522530E+03  0.25500000920E-02 0. -1.
       -2   -1    0    0    0  501  0.00000000000E+00  0.00000000000E+00 -0.10567873540E+04  0.10567873540E+04  0.25500000920E-02 0.  1.
    10030    2    1    2    0    0  0.00000000000E+00  0.00000000000E+00 -0.36786212867E+03  0.17457125793E+04  0.17065139506E+04 0.  0.
        1    1    3    3  502    0 -0.61358801020E+03 -0.56368527436E+03 -0.37204668412E+03  0.91249661368E+03  0.50400001928E-02 0.  1.
       -1    1    3    3    0  502  0.61358801020E+03  0.56368527436E+03  0.41845554506E+01  0.83321596559E+03  0.50400001928E-02 0. -1.
</event>
<event>
 5   0  0.2224454E-04  0.1707210E+04  0.7818609E-02  0.8757263E-01
       -2   -1    0    0    0  501  0.00000000000E+00  0.00000000000E+00  0.46218530287E+03  0.46218530288E+03  0.25500000920E-02 0.  1.
        2   -1    0    0  501    0  0.00000000000E+00  0.00000000000E+00 -0.15765142399E+04  0.15765142399E+04  0.25500000920E-02 0. -1.
    10030    2    1    2    0    0  0.00000000000E+00  0.00000000000E+00 -0.11143289371E+04  0.20386995428E+04  0.17072102524E+04 0.  0.
        2    1    3    3  502    0 -0.36464525061E+03 -0.18773123010E+03  0.33681570305E+03  0.53071083593E+03  0.25500000920E-02 0.  1.
       -2    1    3    3    0  502  0.36464525061E+03  0.18773123010E+03 -0.14511446401E+04  0.15079887069E+04  0.25500000920E-02 0. -1.
</event>
<event>
 5   0  0.1215233E-04  0.1699949E+04  0.7818609E-02  0.8761394E-01
       -1   -1    0    0    0  501  0.00000000000E+00  0.00000000000E+00  0.95972899375E+03  0.95972899376E+03  0.50400001928E-02 0.  1.
        1   -1    0    0  501    0  0.00000000000E+00  0.00000000000E+00 -0.75277134328E+03  0.75277134330E+03  0.50400001928E-02 0. -1.
    10030    2    1    2    0    0  0.00000000000E+00  0.00000000000E+00  0.20695765046E+03  0.17125003371E+04  0.16999488037E+04 0.  0.
        2    1    3    3  502    0 -0.42216312189E+03  0.48747821811E+03 -0.45432403293E+03  0.78883904665E+03  0.25500000920E-02 0. -1.
       -2    1    3    3    0  502  0.42216312189E+03 -0.48747821811E+03  0.66128168339E+03  0.92366129041E+03  0.25500000920E-02 0.  1.
</event>
<event>
 5   0  0.1215233E-04  0.1718774E+04  0.7818609E-02  0.8750729E-01
       -1   -1    0    0    0  501  0.00000000000E+00  0.00000000000E+00  0.52664498403E+03  0.52664498405E+03  0.50400001928E-02 0. -1.
        1   -1    0    0  501    0  0.00000000000E+00  0.00000000000E+00 -0.14023597463E+04  0.14023597463E+04  0.50400001928E-02 0.  1.
    10030    2    1    2    0    0  0.00000000000E+00  0.00000000000E+00 -0.87571476231E+03  0.19290047304E+04  0.17187736631E+04 0.  0.
        2    1    3    3  502    0  0.28683201461E+02  0.55703288963E+03 -0.11716119893E+04  0.12976066506E+04  0.25500000920E-02 0.  1.
       -2    1    3    3    0  502 -0.28683201461E+02 -0.55703288963E+03  0.29589722703E+03  0.63139807978E+03  0.25500000920E-02 0. -1.
</event>
<event>
 5   0  0.2234723E-04  0.1664194E+04  0.7818609E-02  0.8782053E-01
       -2   -1    0    0    0  501  0.00000000000E+00  0.00000000000E+00  0.38093543170E+03  0.38093543171E+03  0.25500000920E-02 0.  1.
        2   -1    0    0  501    0  0.00000000000E+00  0.00000000000E+00 -0.18175929803E+04  0.18175929803E+04  0.25500000920E-02 0. -1.
    10030    2    1    2    0    0  0.00000000000E+00  0.00000000000E+00 -0.14366575486E+04  0.21985284120E+04  0.16641941793E+04 0.  0.
        1    1    3    3  502    0 -0.19924446184E+03 -0.22307979614E+03  0.30746219420E+03  0.42894749319E+03  0.50400001928E-02 0.  1.
       -1    1    3    3    0  502  0.19924446184E+03  0.22307979614E+03 -0.17441197428E+04  0.17695809188E+04  0.50400001928E-02 0. -1.
</event>
<event>
 5   0  0.1204741E-04  0.1698225E+04  0.7818609E-02  0.8762378E-01
       -1   -1    0    0    0  501  0.00000000000E+00  0.00000000000E+00  0.13677725758E+04  0.13677725758E+04  0.50400001928E-02 0.  1.
        1   -1    0    0  501    0  0.00000000000E+00  0.00000000000E+00 -0.52712840184E+03  0.52712840186E+03  0.50400001928E-02 0. -1.
    10030    2    1    2    0    0  0.00000000000E+00  0.00000000000E+00  0.84064417400E+03  0.18949009777E+04  0.16982246871E+04 0.  0.
        1    1    3    3  502    0  0.22349732094E+03  0.67903595960E+03  0.93159198651E+03  0.11742676510E+04  0.50400001928E-02 0. -1.
       -1    1    3    3    0  502 -0.22349732094E+03 -0.67903595960E+03 -0.90947812503E+02  0.72063332668E+03  0.50400001928E-02 0.  1.
</event>
<event>
 5   0  0.1234158E-04  0.1740354E+04  0.7818609E-02  0.8738678E-01
        1   -1    0    0  501    0  0.00000000000E+00  0.00000000000E+00  0.80621873417E+03  0.80621873418E+03  0.50400001928E-02 0. -1.
       -1   -1    0    0    0  501  0.00000000000E+00  0.00000000000E+00 -0.93920870935E+03  0.93920870937E+03  0.50400001928E-02 0.  1.
    10030    2    1    2    0    0  0.00000000000E+00  0.00000000000E+00 -0.13298997519E+03  0.17454274435E+04  0.17403535926E+04 0.  0.
        5    1    3    3  502    0 -0.48207138788E+03  0.54852943584E+03  0.40807394849E+03  0.83655472171E+03  0.46999998093E+01 0. -1.
       -5    1    3    3    0  502  0.48207138788E+03 -0.54852943584E+03 -0.54106392367E+03  0.90887272183E+03  0.46999998093E+01 0.  1.
</event>
<event>
 5   0  0.2234723E-04  0.1693274E+04  0.7818609E-02  0.8765210E-01
       -2   -1    0    0    0  501  0.00000000000E+00  0.00000000000E+00  0.70943544641E+03  0.70943544641E+03  0.25500000920E-02 0.  1.
        2   -1    0    0  501    0  0.00000000000E+00  0.00000000000E+00 -0.10103730819E+04  0.10103730819E+04  0.25500000920E-02 0. -1.
    10030    2    1    2    0    0  0.00000000000E+00  0.00000000000E+00 -0.30093763548E+03  0.17198085283E+04  0.16932743173E+04 0.  0.
        1    1    3    3  502    0 -0.55952727040E+03 -0.52545521695E+03 -0.51330705119E+03  0.92339486687E+03  0.50400001928E-02 0. -1.
       -1    1    3    3    0  502  0.55952727040E+03  0.52545521695E+03  0.21236941571E+03  0.79641366142E+03  0.50400001928E-02 0.  1.
</event>
<event>
 5   0  0.1126958E-04  0.1703393E+04  0.7818609E-02  0.8759431E-01
        1   -1    0    0  501    0  0.00000000000E+00  0.00000000000E+00  0.10946714187E+04  0.10946714187E+04  0.50400001928E-02 0. -1.
       -1   -1    0    0    0  501  0.00000000000E+00  0.00000000000E+00 -0.66265276986E+03  0.66265276988E+03  0.50400001928E-02 0.  1.
    10030    2    1    2    0    0  0.00000000000E+00  0.00000000000E+00  0.43201864886E+03  0.17573241886E+04  0.17033931404E+04 0.  0.
        4    1    3    3  502    0  0.21110515385E+03  0.66625377207E+03 -0.28615206517E+03  0.75521128969E+03  0.12699999809E+01 0. -1.
       -4    1    3    3    0  502 -0.21110515385E+03 -0.66625377207E+03  0.71817071403E+03  0.10021128989E+04  0.12699999809E+01 0.  1.
</event>
<event>
 5   0  0.2224454E-04  0.1694140E+04  0.7818609E-02  0.8764713E-01
        2   -1    0    0  501    0  0.00000000000E+00  0.00000000000E+00  0.13602448673E+04  0.13602448673E+04  0.25500000920E-02 0.  1.
       -2   -1    0    0    0  501  0.00000000000E+00  0.00000000000E+00 -0.52749900743E+03  0.52749900744E+03  0.25500000920E-02 0. -1.
    10030    2    1    2    0    0  0.00000000000E+00  0.00000000000E+00  0.83274585983E+03  0.18877438747E+04  0.16941402744E+04 0.  0.
        2    1    3    3  502    0 -0.71689096057E+03 -0.37025087945E+03  0.12900692189E+03  0.81710534754E+03  0.25500000920E-02 0. -1.
       -2    1    3    3    0  502  0.71689096057E+03  0.37025087945E+03  0.70373893794E+03  0.10706385272E+04  0.25500000920E-02 0.  1.
</event>
<event>
 5   0  0.1126958E-04  0.1691189E+04  0.7818609E-02  0.8766406E-01
       -1   -1    0    0    0  501  0.00000000000E+00  0.00000000000E+00  0.76443438975E+03  0.76443438977E+03  0.50400001928E-02 0.  1.
        1   -1    0    0  501    0  0.00000000000E+00  0.00000000000E+00 -0.93537101041E+03  0.93537101043E+03  0.50400001928E-02 0. -1.
    10030    2    1    2    0    0  0.00000000000E+00  0.00000000000E+00 -0.17093662066E+03  0.16998054002E+04  0.16911886560E+04 0.  0.
        4    1    3    3  502    0 -0.24993073108E+02 -0.80759908726E+03 -0.33611253518E+03  0.87510810113E+03  0.12699999809E+01 0. -1.
       -4    1    3    3    0  502  0.24993073108E+02  0.80759908726E+03  0.16517591452E+03  0.82469729907E+03  0.12699999809E+01 0.  1.
</event>
<event>
 5   0  0.1204741E-04  0.1654897E+04  0.7818609E-02  0.8787514E-01
        1   -1    0    0  501    0  0.00000000000E+00  0.00000000000E+00  0.83175779283E+03  0.83175779284E+03  0.50400001928E-02 0. -1.
       -1   -1    0    0    0  501  0.00000000000E+00  0.00000000000E+00 -0.82316201828E+03  0.82316201830E+03  0.50400001928E-02 0.  1.
    10030    2    1    2    0    0  0.00000000000E+00  0.00000000000E+00  0.85957745466E+01  0.16549198111E+04  0.16548974874E+04 0.  0.
        1    1    3    3  502    0  0.33640779995E+03 -0.74208319559E+02 -0.74803821510E+03  0.82355221682E+03  0.50400001928E-02 0.  1.
       -1    1    3    3    0  502 -0.33640779995E+03  0.74208319559E+02  0.75663398965E+03  0.83136759431E+03  0.50400001928E-02 0. -1.
</event>
<event>
 5   0  0.2356829E-04  0.1697583E+04  0.7818609E-02  0.8762744E-01
       -2   -1    0    0    0  501  0.00000000000E+00  0.00000000000E+00  0.79191992723E+03  0.79191992724E+03  0.25500000920E-02 0. -1.
        2   -1    0    0  501    0  0.00000000000E+00  0.00000000000E+00 -0.90974756441E+03  0.90974756441E+03  0.25500000920E-02 0.  1.
    10030    2    1    2    0    0  0.00000000000E+00  0.00000000000E+00 -0.11782763718E+03  0.17016674917E+04  0.16975832528E+04 0.  0.
        5    1    3    3  502    0  0.74756308909E+03  0.13326982469E+03  0.32122636071E+03  0.82451190602E+03  0.46999998093E+01 0. -1.
       -5    1    3    3    0  502 -0.74756308909E+03 -0.13326982469E+03 -0.43905399789E+03  0.87715558563E+03  0.46999998093E+01 0.  1.
</event>
<event>
 5   0  0.1186302E-04  0.1717456E+04  0.7818609E-02  0.8751471E-01
        1   -1    0    0  501    0  0.00000000000E+00  0.00000000000E+00  0.88120042163E+03  0.88120042165E+03  0.50400001928E-02 0. -1.
       -1   -1    0    0    0  501  0.00000000000E+00  0.00000000000E+00 -0.83682868229E+03  0.83682868231E+03  0.50400001928E-02 0.  1.
    10030    2    1    2    0    0  0.00000000000E+00  0.00000000000E+00  0.44371739339E+02  0.17180291040E+04  0.17174560113E+04 0.  0.
        3    1    3    3  502    0 -0.19592271995E+03 -0.45513111816E+03 -0.67939239090E+03  0.84089480789E+03  0.10100000352E+00 0.  1.
       -3    1    3    3    0  502  0.19592271995E+03  0.45513111816E+03  0.72376413024E+03  0.87713429607E+03  0.10100000352E+00 0. -1.
</event>
<event>
 5   0  0.1186302E-04  0.1684592E+04  0.7818609E-02  0.8770201E-01
        1   -1    0    0  501    0  0.00000000000E+00  0.00000000000E+00  0.23439295776E+04  0.23439295776E+04  0.50400001928E-02 0. -1.
       -1   -1    0    0    0  501  0.00000000000E+00  0.00000000000E+00 -0.30268093520E+03  0.30268093524E+03  0.50400001928E-02 0.  1.
    10030    2    1    2    0    0  0.00000000000E+00  0.00000000000E+00  0.20412486424E+04  0.26466105128E+04  0.16845922909E+04 0.  0.
        3    1    3    3  502    0 -0.48857559579E+03  0.15794351439E+03  0.20696119842E+04  0.21323569218E+04  0.10100000352E+00 0. -1.
       -3    1    3    3    0  502  0.48857559579E+03 -0.15794351439E+03 -0.28363341829E+02  0.51425359104E+03  0.10100000352E+00 0.  1.
</event>
<event>
 5   0  0.2224454E-04  0.1701718E+04  0.7818609E-02  0.8760385E-01
        2   -1    0    0  501    0  0.00000000000E+00  0.00000000000E+00  0.72003771376E+03  0.72003771376E+03  0.25500000920E-02 0.  1.
       -2   -1    0    0    0  501  0.00000000000E+00  0.00000000000E+00 -0.10054487853E+04  0.10054487853E+04  0.25500000920E-02 0. -1.
    10030    2    1    2    0    0  0.00000000000E+00  0.00000000000E+00 -0.28541107150E+03  0.17254864990E+04  0.17017180079E+04 0.  0.
        2    1    3    3  502    0 -0.56012478923E+02  0.48256690335E+03  0.56558736961E+03  0.74558519747E+03  0.25500000920E-02 0.  1.
       -2    1    3    3    0  502  0.56012478923E+02 -0.48256690335E+03 -0.85099844111E+03  0.97990130156E+03  0.25500000920E-02 0. -1.
</event>
<event>
 5   0  0.2242967E-04  0.1702809E+04  0.7818609E-02  0.8759764E-01
        2   -1    0    0  501    0  0.00000000000E+00  0.00000000000E+00  0.16644665143E+04  0.16644665143E+04  0.25500000920E-02 0. -1.
       -2   -1    0    0    0  501  0.00000000000E+00  0.00000000000E+00 -0.43550852071E+03  0.43550852071E+03  0.25500000920E-02 0.  1.
    10030    2    1    2    0    0  0.00000000000E+00  0.00000000000E+00  0.12289579936E+04  0.20999750350E+04  0.17028086791E+04 0.  0.
        4    1    3    3  502    0 -0.22376081258E+03  0.52082638558E+03  0.13979115980E+04  0.15084719002E+04  0.12699999809E+01 0. -1.
       -4    1    3    3    0  502  0.22376081258E+03 -0.52082638558E+03 -0.16895360435E+03  0.59150313481E+03  0.12699999809E+01 0.  1.
</event>
<event>
 5   0  0.1186302E-04  0.1670567E+04  0.7818609E-02  0.8778331E-01
       -1   -1    0    0    0  501  0.00000000000E+00  0.00000000000E+00  0.11459871322E+04  0.11459871322E+04  0.50400001928E-02 0. -1.
        1   -1    0    0  501    0  0.00000000000E+00  0.00000000000E+00 -0.60881879422E+03  0.60881879424E+03  0.50400001928E-02 0.  1.
    10030    2    1    2    0    0  0.00000000000E+00  0.00000000000E+00  0.53716833800E+03  0.17548059265E+04  0.16705669745E+04 0.  0.
        3    1    3    3  502    0 -0.23772427267E+03 -0.12550010038E+03 -0.56213919762E+03  0.62310801047E+03  0.10100000352E+00 0.  1.
       -3    1    3    3    0  502  0.23772427267E+03  0.12550010038E+03  0.10993075356E+04  0.11316979160E+04  0.10100000352E+00 0. -1.
</event>
<event>
 5   0  0.2224454E-04  0.1679543E+04  0.7818609E-02  0.8773119E-01
        2   -1    0    0  501    0  0.00000000000E+00  0.00000000000E+00  0.16223806151E+04  0.16223806151E+04  0.25500000920E-02 0. -1.
       -2   -1    0    0    0  501  0.00000000000E+00  0.00000000000E+00 -0.43467965197E+03  0.43467965198E+03  0.25500000920E-02 0.  1.
    10030    2    1    2    0    0  0.00000000000E+00  0.00000000000E+00  0.11877009632E+04  0.20570602671E+04  0.16795426058E+04 0.  0.
        2    1    3    3  502    0  0.39021876306E+03 -0.47236520564E+03  0.12972337424E+04  0.14346480241E+04  0.25500000920E-02 0. -1.
       -2    1    3    3    0  502 -0.39021876306E+03  0.47236520564E+03 -0.10953277924E+03  0.62241224304E+03  0.25500000920E-02 0.  1.
</event>
<event>
 5   0  0.2242967E-04  0.1693608E+04  0.7818609E-02  0.8765019E-01
        2   -1    0    0  501    0  0.00000000000E+00  0.00000000000E+00  0.21368007592E+04  0.21368007592E+04  0.25500000920E-02 0.  1.
       -2   -1    0    0    0  501  0.00000000000E+00  0.00000000000E+00 -0.33558422302E+03  0.33558422303E+03  0.25500000920E-02 0. -1.
    10030    2    1    2    0    0  0.00000000000E+00  0.00000000000E+00  0.18012165362E+04  0.24723849823E+04  0.16936075373E+04 0.  0.
        4    1    3    3  502    0 -0.58639452245E+03  0.35084415932E+03  0.17050929202E+03  0.70429055911E+03  0.12699999809E+01 0. -1.
       -4    1    3    3    0  502  0.58639452245E+03 -0.35084415932E+03  0.16307072442E+04  0.17680944232E+04  0.12699999809E+01 0.  1.
</event>
<event>
 5   0  0.2288806E-04  0.1698072E+04  0.7818609E-02  0.8762465E-01
       -2   -1    0    0    0  501  0.00000000000E+00  0.00000000000E+00  0.56292719563E+03  0.56292719564E+03  0.25500000920E-02 0.  1.
        2   -1    0    0  501    0  0.00000000000E+00  0.00000000000E+00 -0.12805600310E+04  0.12805600310E+04  0.25500000920E-02 0. -1.
    10030    2    1    2    0    0  0.00000000000E+00  0.00000000000E+00 -0.71763283532E+03  0.18434872266E+04  0.16980719267E+04 0.  0.
        3    1    3    3  502    0 -0.41348085467E+03 -0.71576943465E+03 -0.56924427769E+03  0.10036589852E+04  0.10100000352E+00 0. -1.
       -3    1    3    3    0  502  0.41348085467E+03  0.71576943465E+03 -0.14838855764E+03  0.83982824136E+03  0.10100000352E+00 0.  1.
</event>
<event>
 5   0  0.1186302E-04  0.1700194E+04  0.7818609E-02  0.8761254E-01
       -1   -1    0    0    0  501  0.00000000000E+00  0.00000000000E+00  0.11379954993E+04  0.11379954994E+04  0.50400001928E-02 0.  1.
        1   -1    0    0  501    0  0.00000000000E+00  0.00000000000E+00 -0.63503304132E+03  0.63503304134E+03  0.50400001928E-02 0. -1.
    10030    2    1    2    0    0  0.00000000000E+00  0.00000000000E+00  0.50296245802E+03  0.17730285407E+04  0.17001938042E+04 0.  0.
        3    1    3    3  502    0 -0.81676542158E+03  0.23349306019E+03  0.21785116859E+03  0.87697428977E+03  0.10100000352E+00 0. -1.
       -3    1    3    3    0  502  0.81676542158E+03 -0.23349306019E+03  0.28511128943E+03  0.89605425093E+03  0.10100000352E+00 0.  1.
</event>
<event>
 5   0  0.2224454E-04  0.1743042E+04  0.7818609E-02  0.8737189E-01
       -2   -1    0    0    0  501  0.00000000000E+00  0.00000000000E+00  0.84967210882E+03  0.84967210882E+03  0.25500000920E-02 0.  1.
        2   -1    0    0  501    0  0.00000000000E+00  0.00000000000E+00 -0.89393215465E+03  0.89393215466E+03  0.25500000920E-02 0. -1.
    10030    2    1    2    0    0  0.00000000000E+00  0.00000000000E+00 -0.44260045832E+02  0.17436042635E+04  0.17430424194E+04 0.  0.
        2    1    3    3  502    0  0.84294894395E+03  0.20944858412E+03  0.49430351406E+02  0.86998562698E+03  0.25500000920E-02 0. -1.
       -2    1    3    3    0  502 -0.84294894395E+03 -0.20944858412E+03 -0.93690397238E+02  0.87361863650E+03  0.25500000920E-02 0.  1.
</event>
<event>
 5   0  0.8372750E-05  0.1696139E+04  0.7818609E-02  0.8763570E-01
       -3   -1    0    0    0  501  0.00000000000E+00  0.00000000000E+00  0.10952727954E+04  0.10952728001E+04  0.10100000352E+00 0.  1.
        3   -1    0    0  501    0  0.00000000000E+00  0.00000000000E+00 -0.65665966417E+03  0.65665967194E+03  0.10100000352E+00 0. -1.
    10030    2    1    2    0    0  0.00000000000E+00  0.00000000000E+00  0.43861313125E+03  0.17519324720E+04  0.16961385284E+04 0.  0.
        4    1    3    3  502    0  0.31576495973E+03 -0.66435058669E+03 -0.21665655357E+03  0.76681867931E+03  0.12699999809E+01 0.  1.
       -4    1    3    3    0  502 -0.31576495973E+03  0.66435058669E+03  0.65526968482E+03  0.98511379271E+03  0.12699999809E+01 0. -1.
</event>
<event>
 5   0  0.1126958E-04  0.1541317E+04  0.7818609E-02  0.8857433E-01
        1   -1    0    0  501    0  0.00000000000E+00  0.00000000000E+00  0.16924978617E+04  0.16924978617E+04  0.50400001928E-02 0. -1.
       -1   -1    0    0    0  501  0.00000000000E+00  0.00000000000E+00 -0.35090991341E+03  0.35090991344E+03  0.50400001928E-02 0.  1.
    10030    2    1    2    0    0  0.00000000000E+00  0.00000000000E+00  0.13415879483E+04  0.20434077752E+04  0.15413166815E+04 0.  0.
        4    1    3    3  502    0  0.71716969231E+03  0.13117434664E+03  0.10018972885E+04  0.12390879171E+04  0.12699999809E+01 0. -1.
       -4    1    3    3    0  502 -0.71716969231E+03 -0.13117434664E+03  0.33969065984E+03  0.80431985806E+03  0.12699999809E+01 0.  1.
</event>
<event>
 5   0  0.2224454E-04  0.1678345E+04  0.7818609E-02  0.8773812E-01
        2   -1    0    0  501    0  0.00000000000E+00  0.00000000000E+00  0.97845186943E+03  0.97845186943E+03  0.25500000920E-02 0. -1.
       -2   -1    0    0    0  501  0.00000000000E+00  0.00000000000E+00 -0.71971892651E+03  0.71971892652E+03  0.25500000920E-02 0.  1.
    10030    2    1    2    0    0  0.00000000000E+00  0.00000000000E+00  0.25873294292E+03  0.16981707960E+04  0.16783448145E+04 0.  0.
        2    1    3    3  502    0  0.83152062528E+01  0.21524359191E+03 -0.69127010298E+03  0.72405338325E+03  0.25500000920E-02 0.  1.
       -2    1    3    3    0  502 -0.83152062528E+01 -0.21524359191E+03  0.95000304590E+03  0.97411741270E+03  0.25500000920E-02 0. -1.
</event>
<event>
 5   0  0.1234158E-04  0.1713905E+04  0.7818609E-02  0.8753473E-01
        1   -1    0    0  501    0  0.00000000000E+00  0.00000000000E+00  0.62718668304E+03  0.62718668306E+03  0.50400001928E-02 0. -1.
       -1   -1    0    0    0  501  0.00000000000E+00  0.00000000000E+00 -0.11708920362E+04  0.11708920362E+04  0.50400001928E-02 0.  1.
    10030    2    1    2    0    0  0.00000000000E+00  0.00000000000E+00 -0.54370535315E+03  0.17980787193E+04  0.17139053561E+04 0.  0.
        5    1    3    3  502    0 -0.57855678077E+03 -0.70044400273E+02 -0.93096863938E+03  0.10983436912E+04  0.46999998093E+01 0.  1.
       -5    1    3    3    0  502  0.57855678077E+03  0.70044400273E+02  0.38726328623E+03  0.69973502803E+03  0.46999998093E+01 0. -1.
</event>
<event>
 5   0  0.1234158E-04  0.1703277E+04  0.7818609E-02  0.8759497E-01
        1   -1    0    0  501    0  0.00000000000E+00  0.00000000000E+00  0.57147374770E+03  0.57147374772E+03  0.50400001928E-02 0.  1.
       -1   -1    0    0    0  501  0.00000000000E+00  0.00000000000E+00 -0.12691544903E+04  0.12691544903E+04  0.50400001928E-02 0. -1.
    10030    2    1    2    0    0  0.00000000000E+00  0.00000000000E+00 -0.69768074256E+03  0.18406282380E+04  0.17032773972E+04 0.  0.
        5    1    3    3  502    0  0.70210867272E+03  0.35599945640E+03 -0.69996359821E+03  0.10534055867E+04  0.46999998093E+01 0. -1.
       -5    1    3    3    0  502 -0.70210867272E+03 -0.35599945640E+03  0.22828556547E+01  0.78722265129E+03  0.46999998093E+01 0.  1.
</event>
<event>
 5   0  0.1186302E-04  0.1693586E+04  0.7818609E-02  0.8765031E-01
       -1   -1    0    0    0  501  0.00000000000E+00  0.00000000000E+00  0.12623223079E+04  0.12623223079E+04  0.50400001928E-02 0. -1.
        1   -1    0    0  501    0  0.00000000000E+00  0.00000000000E+00 -0.56804700122E+03  0.56804700125E+03  0.50400001928E-02 0.  1.
    10030    2    1    2    0    0  0.00000000000E+00  0.00000000000E+00  0.69427530665E+03  0.18303693091E+04  0.16935860198E+04 0.  0.
        3    1    3    3  502    0  0.57844111148E+03 -0.34310576122E+03 -0.20895027701E+03  0.70425557242E+03  0.10100000352E+00 0.  1.
       -3    1    3    3    0  502 -0.57844111148E+03  0.34310576122E+03  0.90322558366E+03  0.11261137367E+04  0.10100000352E+00 0. -1.
</event>
<event>
 5   0  0.1215233E-04  0.1701034E+04  0.7818609E-02  0.8760775E-01
       -1   -1    0    0    0  501  0.00000000000E+00  0.00000000000E+00  0.59084294416E+03  0.59084294418E+03  0.50400001928E-02 0. -1.
        1   -1    0    0  501    0  0.00000000000E+00  0.00000000000E+00 -0.12243168549E+04  0.12243168550E+04  0.50400001928E-02 0.  1.
    10030    2    1    2    0    0  0.00000000000E+00  0.00000000000E+00 -0.63347391079E+03  0.18151597991E+04  0.17010337741E+04 0.  0.
        2    1    3    3  502    0 -0.23600282380E+03  0.71841282154E+03  0.98695959590E+02  0.76259767076E+03  0.25500000920E-02 0. -1.
       -2    1    3    3    0  502  0.23600282380E+03 -0.71841282154E+03 -0.73216987037E+03  0.10525621284E+04  0.25500000920E-02 0.  1.
</event>
<event>
 5   0  0.2356829E-04  0.1686297E+04  0.7818609E-02  0.8769219E-01
        2   -1    0    0  501    0  0.00000000000E+00  0.00000000000E+00  0.10780509767E+04  0.10780509767E+04  0.25500000920E-02 0.  1.
       -2   -1    0    0    0  501  0.00000000000E+00  0.00000000000E+00 -0.65943004481E+03  0.65943004482E+03  0.25500000920E-02 0. -1.
    10030    2    1    2    0    0  0.00000000000E+00  0.00000000000E+00  0.41862093189E+03  0.17374810215E+04  0.16862967756E+04 0.  0.
        5    1    3    3  502    0 -0.28710215773E+03  0.15770762925E+03  0.10097945061E+04  0.10616055670E+04  0.46999998093E+01 0.  1.
       -5    1    3    3    0  502  0.28710215773E+03 -0.15770762925E+03 -0.59117357418E+03  0.67587545458E+03  0.46999998093E+01 0. -1.
</event>
<event>
 5   0  0.1126958E-04  0.1694837E+04  0.7818609E-02  0.8764315E-01
        1   -1    0    0  501    0  0.00000000000E+00  0.00000000000E+00  0.81015756173E+03  0.81015756175E+03  0.50400001928E-02 0. -1.
       -1   -1    0    0    0  501  0.00000000000E+00  0.00000000000E+00 -0.88639302860E+03  0.88639302861E+03  0.50400001928E-02 0.  1.
    10030    2    1    2    0    0  0.00000000000E+00  0.00000000000E+00 -0.76235466864E+02  0.16965505904E+04  0.16948368828E+04 0.  0.
        4    1    3    3  502    0  0.35789630388E+03  0.65701707373E+03  0.36022332777E+03  0.83037561276E+03  0.12699999809E+01 0. -1.
       -4    1    3    3    0  502 -0.35789630388E+03 -0.65701707373E+03 -0.43645879463E+03  0.86617497760E+03  0.12699999809E+01 0.  1.
</event>
<event>
 5   0  0.1234158E-04  0.1732807E+04  0.7818609E-02  0.8742871E-01
       -1   -1    0    0    0  501  0.00000000000E+00  0.00000000000E+00  0.42878396440E+03  0.42878396443E+03  0.50400001928E-02 0. -1.
        1   -1    0    0  501    0  0.00000000000E+00  0.00000000000E+00 -0.17506599729E+04  0.17506599729E+04  0.50400001928E-02 0.  1.
    10030    2    1    2    0    0  0.00000000000E+00  0.00000000000E+00 -0.13218760085E+04  0.21794439374E+04  0.17328068831E+04 0.  0.
        5    1    3    3  502    0 -0.67097396719E+03 -0.39944150045E+02  0.26618716387E+02  0.67270517007E+03  0.46999998093E+01 0. -1.
       -5    1    3    3    0  502  0.67097396719E+03  0.39944150045E+02 -0.13484947249E+04  0.15067387673E+04  0.46999998093E+01 0.  1.
</event>
<event>
 5   0  0.2224454E-04  0.1740752E+04  0.7818609E-02  0.8738457E-01
        2   -1    0    0  501    0  0.00000000000E+00  0.00000000000E+00  0.10889998503E+04  0.10889998503E+04  0.25500000920E-02 0. -1.
       -2   -1    0    0    0  501  0.00000000000E+00  0.00000000000E+00 -0.69564264090E+03  0.69564264090E+03  0.25500000920E-02 0.  1.
    10030    2    1    2    0    0  0.00000000000E+00  0.00000000000E+00  0.39335720937E+03  0.17846424912E+04  0.17407524026E+04 0.  0.
        2    1    3    3  502    0 -0.33544818116E+03 -0.55773601273E+03  0.78914171635E+03  0.10229074204E+04  0.25500000920E-02 0. -1.
       -2    1    3    3    0  502  0.33544818116E+03  0.55773601273E+03 -0.39578450699E+03  0.76173507081E+03  0.25500000920E-02 0.  1.
</event>
<event>
 5   0  0.1215233E-04  0.1686423E+04  0.7818609E-02  0.8769146E-01
       -1   -1    0    0    0  501  0.00000000000E+00  0.00000000000E+00  0.84762093600E+03  0.84762093601E+03  0.50400001928E-02 0.  1.
        1   -1    0    0  501    0  0.00000000000E+00  0.00000000000E+00 -0.83882520534E+03  0.83882520536E+03  0.50400001928E-02 0. -1.
    10030    2    1    2    0    0  0.00000000000E+00  0.00000000000E+00  0.87957306569E+01  0.16864461414E+04  0.16864232040E+04 0.  0.
        2    1    3    3  502    0  0.34880735277E+03 -0.71402317473E+03 -0.27758139843E+03  0.84175239599E+03  0.25500000920E-02 0. -1.
       -2    1    3    3    0  502 -0.34880735277E+03  0.71402317473E+03  0.28637712909E+03  0.84469374537E+03  0.25500000920E-02 0.  1.
</event>
<event>
 5   0  0.2356829E-04  0.1700660E+04  0.7818609E-02  0.8760988E-01
       -2   -1    0    0    0  501  0.00000000000E+00  0.00000000000E+00  0.57937089516E+03  0.57937089516E+03  0.25500000920E-02 0. -1.
        2   -1    0    0  501    0  0.00000000000E+00  0.00000000000E+00 -0.12480110449E+04  0.12480110449E+04  0.25500000920E-02 0.  1.
    10030    2    1    2    0    0  0.00000000000E+00  0.00000000000E+00 -0.66864014973E+03  0.18273819401E+04  0.17006601968E+04 0.  0.
        5    1    3    3  502    0 -0.60026723709E+03  0.28976444536E+03  0.23299341614E+03  0.70611062284E+03  0.46999998093E+01 0. -1.
       -5    1    3    3    0  502  0.60026723709E+03 -0.28976444536E+03 -0.90163356586E+03  0.11212713172E+04  0.46999998093E+01 0.  1.
</event>
<event>
 5   0  0.1204741E-04  0.1695754E+04  0.7818609E-02  0.8763790E-01
        1   -1    0    0  501    0  0.00000000000E+00  0.00000000000E+00  0.75841515296E+03  0.75841515297E+03  0.50400001928E-02 0.  1.
       -1   -1    0    0    0  501  0.00000000000E+00  0.00000000000E+00 -0.94789193143E+03  0.94789193144E+03  0.50400001928E-02 0. -1.
    10030    2    1    2    0    0  0.00000000000E+00  0.00000000000E+00 -0.18947677847E+03  0.17063070844E+04  0.16957542324E+04 0.  0.
        1    1    3    3  502    0 -0.35427163838E+03  0.75517405784E+03  0.58192139451E+02  0.83617137987E+03  0.50400001928E-02 0.  1.
       -1    1    3    3    0  502  0.35427163838E+03 -0.75517405784E+03 -0.24766891792E+03  0.87013570455E+03  0.50400001928E-02 0. -1.
</event>
<event>
 5   0  0.2288806E-04  0.1710557E+04  0.7818609E-02  0.8755366E-01
        2   -1    0    0  501    0  0.00000000000E+00  0.00000000000E+00  0.22350540088E+04  0.22350540088E+04  0.25500000920E-02 0.  1.
       -2   -1    0    0    0  501  0.00000000000E+00  0.00000000000E+00 -0.32728584889E+03  0.32728584890E+03  0.25500000920E-02 0. -1.
    10030    2    1    2    0    0  0.00000000000E+00  0.00000000000E+00  0.19077681599E+04  0.25623398577E+04  0.17105572760E+04 0.  0.
        3    1    3    3  502    0  0.45564818176E+03  0.31314025148E+02 -0.12932128288E+03  0.47467866828E+03  0.10100000352E+00 0. -1.
       -3    1    3    3    0  502 -0.45564818176E+03 -0.31314025148E+02  0.20370894428E+04  0.20876611895E+04  0.10100000352E+00 0.  1.
</event>
<event>
 5   0  0.2356829E-04  0.1700863E+04  0.7818609E-02  0.8760872E-01
        2   -1    0    0  501    0  0.00000000000E+00  0.00000000000E+00  0.15597791245E+04  0.15597791245E+04  0.25500000920E-02 0. -1.
       -2   -1    0    0    0  501  0.00000000000E+00  0.00000000000E+00 -0.46367709949E+03  0.46367709950E+03  0.25500000920E-02 0.  1.
    10030    2    1    2    0    0  0.00000000000E+00  0.00000000000E+00  0.10961020250E+04  0.20234562240E+04  0.17008631459E+04 0.  0.
        5    1    3    3  502    0 -0.35423610807E+03 -0.37207588486E+03 -0.25819398333E+03  0.57498687583E+03  0.46999998093E+01 0.  1.
       -5    1    3    3    0  502  0.35423610807E+03  0.37207588486E+03  0.13542960083E+04  0.14484693481E+04  0.46999998093E+01 0. -1.
</event>
<event>
 5   0  0.1204741E-04  0.1695600E+04  0.7818609E-02  0.8763878E-01
       -1   -1    0    0    0  501  0.00000000000E+00  0.00000000000E+00  0.66432487702E+03  0.66432487704E+03  0.50400001928E-02 0. -1.
        1   -1    0    0  501    0  0.00000000000E+00  0.00000000000E+00 -0.10819479865E+04  0.10819479865E+04  0.50400001928E-02 0.  1.
    10030    2    1    2    0    0  0.00000000000E+00  0.00000000000E+00 -0.41762310951E+03  0.17462728636E+04  0.16956001452E+04 0.  0.
        1    1    3    3  502    0  0.48218551841E+02  0.80235981081E+03 -0.48641981040E+03  0.93952675679E+03  0.50400001928E-02 0. -1.
       -1    1    3    3    0  502 -0.48218551841E+02 -0.80235981081E+03  0.68796700891E+02  0.80674610679E+03  0.50400001928E-02 0.  1.
</event>
<event>
 5   0  0.2224454E-04  0.1686684E+04  0.7818609E-02  0.8768996E-01
       -2   -1    0    0    0  501  0.00000000000E+00  0.00000000000E+00  0.30220445427E+03  0.30220445428E+03  0.25500000920E-02 0. -1.
        2   -1    0    0  501    0  0.00000000000E+00  0.00000000000E+00 -0.23534586280E+04  0.23534586280E+04  0.25500000920E-02 0.  1.
    10030    2    1    2    0    0  0.00000000000E+00  0.00000000000E+00 -0.20512541738E+04  0.26556630823E+04  0.16866839424E+04 0.  0.
        2    1    3    3  502    0  0.78566173289E+03  0.22485676400E+02 -0.54429789597E+03  0.95604924755E+03  0.25500000920E-02 0. -1.
       -2    1    3    3    0  502 -0.78566173289E+03 -0.22485676400E+02 -0.15069562778E+04  0.16996138348E+04  0.25500000920E-02 0.  1.
</event>
<event>
 5   0  0.2356829E-04  0.1699579E+04  0.7818609E-02  0.8761604E-01
       -2   -1    0    0    0  501  0.00000000000E+00  0.00000000000E+00  0.10190281736E+04  0.10190281736E+04  0.25500000920E-02 0. -1.
        2   -1    0    0  501    0  0.00000000000E+00  0.00000000000E+00 -0.70865802330E+03  0.70865802331E+03  0.25500000920E-02 0.  1.
    10030    2    1    2    0    0  0.00000000000E+00  0.00000000000E+00  0.31037015030E+03  0.17276861969E+04  0.16995793494E+04 0.  0.
        5    1    3    3  502    0  0.40561099879E+03 -0.23199500561E+03  0.87669648768E+03  0.99345900090E+03  0.46999998093E+01 0. -1.
       -5    1    3    3    0  502 -0.40561099879E+03  0.23199500561E+03 -0.56632633738E+03  0.73422719602E+03  0.46999998093E+01 0.  1.
</event>
<event>
 5   0  0.1215233E-04  0.1718442E+04  0.7818609E-02  0.8750916E-01
       -1   -1    0    0    0  501  0.00000000000E+00  0.00000000000E+00  0.81238845805E+03  0.81238845806E+03  0.50400001928E-02 0. -1.
        1   -1    0    0  501    0  0.00000000000E+00  0.00000000000E+00 -0.90875323312E+03  0.90875323314E+03  0.50400001928E-02 0.  1.
    10030    2    1    2    0    0  0.00000000000E+00  0.00000000000E+00 -0.96364775076E+02  0.17211416912E+04  0.17184418964E+04 0.  0.
        2    1    3    3  502    0  0.54919959811E+02  0.85322721082E+03  0.37085155749E+02  0.85579681237E+03  0.25500000920E-02 0. -1.
       -2    1    3    3    0  502 -0.54919959811E+02 -0.85322721082E+03 -0.13344993083E+03  0.86534487883E+03  0.25500000920E-02 0.  1.
</event>
<event>
 5   0  0.2356829E-04  0.1582564E+04  0.7818609E-02  0.8831332E-01
        2   -1    0    0  501    0  0.00000000000E+00  0.00000000000E+00  0.17338489086E+04  0.17338489086E+04  0.25500000920E-02 0. -1.
       -2   -1    0    0    0  501  0.00000000000E+00  0.00000000000E+00 -0.36111984712E+03  0.36111984712E+03  0.25500000920E-02 0.  1.
    10030    2    1    2    0    0  0.00000000000E+00  0.00000000000E+00  0.13727290615E+04  0.20949687557E+04  0.15825640623E+04 0.  0.
        5    1    3    3  502    0 -0.59539709580E+03  0.28355852758E+03  0.12652098049E+04  0.14267729605E+04  0.46999998093E+01 0. -1.
       -5    1    3    3    0  502  0.59539709580E+03 -0.28355852758E+03  0.10751925654E+03  0.66819579524E+03  0.46999998093E+01 0.  1.
</event>
<event>
 5   0  0.1126958E-04  0.1705775E+04  0.7818609E-02  0.8758078E-01
        1   -1    0    0  501    0  0.00000000000E+00  0.00000000000E+00  0.20069573416E+04  0.20069573416E+04  0.50400001928E-02 0. -1.
       -1   -1    0    0    0  501  0.00000000000E+00  0.00000000000E+00 -0.36244751399E+03  0.36244751403E+03  0.50400001928E-02 0.  1.
    10030    2    1    2    0    0  0.00000000000E+00  0.00000000000E+00  0.16445098276E+04  0.23694048556E+04  0.17057745445E+04 0.  0.
        4    1    3    3  502    0  0.21800269418E+03 -0.68447672757E+03  0.18362221038E+03  0.74145282675E+03  0.12699999809E+01 0.  1.
       -4    1    3    3    0  502 -0.21800269418E+03  0.68447672757E+03  0.14608876172E+04  0.16279520289E+04  0.12699999809E+01 0. -1.
</event>
<event>
 5   0  0.1234158E-04  0.1698988E+04  0.7818609E-02  0.8761942E-01
       -1   -1    0    0    0  501  0.00000000000E+00  0.00000000000E+00  0.74549790263E+03  0.74549790264E+03  0.50400001928E-02 0. -1.
        1   -1    0    0  501    0  0.00000000000E+00  0.00000000000E+00 -0.96799769728E+03  0.96799769729E+03  0.50400001928E-02 0.  1.
    10030    2    1    2    0    0  0.00000000000E+00  0.00000000000E+00 -0.22249979465E+03  0.17134955999E+04  0.16989882320E+04 0.  0.
        5    1    3    3  502    0  0.27033072941E+03 -0.24919444181E+02  0.70055713060E+03  0.75133352460E+03  0.46999998093E+01 0. -1.
       -5    1    3    3    0  502 -0.27033072941E+03  0.24919444181E+02 -0.92305692525E+03  0.96216207533E+03  0.46999998093E+01 0.  1.
</event>
<event>
 5   0  0.1234158E-04  0.1706090E+04  0.7818609E-02  0.8757899E-01
        1   -1    0    0  501    0  0.00000000000E+00  0.00000000000E+00  0.13556029470E+04  0.13556029470E+04  0.50400001928E-02 0. -1.
       -1   -1    0    0    0  501  0.00000000000E+00  0.00000000000E+00 -0.53679864931E+03  0.53679864933E+03  0.50400001928E-02 0.  1.
    10030    2    1    2    0    0  0.00000000000E+00  0.00000000000E+00  0.81880429769E+03  0.18924015963E+04  0.17060900691E+04 0.  0.
        5    1    3    3  502    0  0.76032081946E+02  0.24599013765E+03  0.13114595199E+04  0.13365029695E+04  0.46999998093E+01 0. -1.
       -5    1    3    3    0  502 -0.76032081946E+02 -0.24599013765E+03 -0.49265522220E+03  0.55589862679E+03  0.46999998093E+01 0.  1.
</event>
<event>
 5   0  0.8372750E-05  0.1709987E+04  0.7818609E-02  0.8755689E-01
       -3   -1    0    0    0  501  0.00000000000E+00  0.00000000000E+00  0.12556082210E+04  0.12556082251E+04  0.10100000352E+00 0.  1.
        3   -1    0    0  501    0  0.00000000000E+00  0.00000000000E+00 -0.58219903038E+03  0.58219903914E+03  0.10100000352E+00 0. -1.
    10030    2    1    2    0    0  0.00000000000E+00  0.00000000000E+00  0.67340919065E+03  0.18378072642E+04  0.17099870182E+04 0.  0.
        4    1    3    3  502    0 -0.44959948689E+03 -0.40996544270E+03 -0.30886188361E+03  0.68235521458E+03  0.12699999809E+01 0. -1.
       -4    1    3    3    0  502  0.44959948689E+03  0.40996544270E+03  0.98227107426E+03  0.11554520497E+04  0.12699999809E+01 0.  1.
</event>
<event>
 5   0  0.2288806E-04  0.1686466E+04  0.7818609E-02  0.8769121E-01
       -2   -1    0    0    0  501  0.00000000000E+00  0.00000000000E+00  0.11591563310E+04  0.11591563311E+04  0.25500000920E-02 0.  1.
        2   -1    0    0  501    0  0.00000000000E+00  0.00000000000E+00 -0.61341351411E+03  0.61341351412E+03  0.25500000920E-02 0. -1.
    10030    2    1    2    0    0  0.00000000000E+00  0.00000000000E+00  0.54574281694E+03  0.17725698452E+04  0.16864663156E+04 0.  0.
        3    1    3    3  502    0  0.13747135522E+02 -0.57734865879E+03  0.91866932593E+03  0.10851146475E+04  0.10100000352E+00 0.  1.
       -3    1    3    3    0  502 -0.13747135522E+02  0.57734865879E+03 -0.37292650899E+03  0.68745519770E+03  0.10100000352E+00 0. -1.
</event>
<event>
 5   0  0.1234158E-04  0.1670398E+04  0.7818609E-02  0.8778430E-01
       -1   -1    0    0    0  501  0.00000000000E+00  0.00000000000E+00  0.37317612653E+03  0.37317612657E+03  0.50400001928E-02 0. -1.
        1   -1    0    0  501    0  0.00000000000E+00  0.00000000000E+00 -0.18692443233E+04  0.18692443233E+04  0.50400001928E-02 0.  1.
    10030    2    1    2    0    0  0.00000000000E+00  0.00000000000E+00 -0.14960681967E+04  0.22424204498E+04  0.16703979839E+04 0.  0.
        5    1    3    3  502    0  0.83365132352E+03 -0.43472229680E+02 -0.78280585978E+03  0.11444087854E+04  0.46999998093E+01 0.  1.
       -5    1    3    3    0  502 -0.83365132352E+03  0.43472229680E+02 -0.71326233694E+03  0.10980116644E+04  0.46999998093E+01 0. -1.
</event>
<event>
 5   0  0.1234158E-04  0.1723004E+04  0.7818609E-02  0.8748352E-01
        1   -1    0    0  501    0  0.00000000000E+00  0.00000000000E+00  0.11028626965E+04  0.11028626965E+04  0.50400001928E-02 0. -1.
       -1   -1    0    0    0  501  0.00000000000E+00  0.00000000000E+00 -0.67296279109E+03  0.67296279110E+03  0.50400001928E-02 0.  1.
    10030    2    1    2    0    0  0.00000000000E+00  0.00000000000E+00  0.42989990544E+03  0.17758254876E+04  0.17230038403E+04 0.  0.
        5    1    3    3  502    0 -0.69986050603E+03 -0.47463610321E+03  0.45347223258E+02  0.84685454420E+03  0.46999998093E+01 0. -1.
       -5    1    3    3    0  502  0.69986050603E+03  0.47463610321E+03  0.38455268218E+03  0.92897094344E+03  0.46999998093E+01 0.  1.
</event>
<event>
 5   0  0.2288806E-04  0.1704439E+04  0.7818609E-02  0.8758837E-01
       -2   -1    0    0    0  501  0.00000000000E+00  0.00000000000E+00  0.43054007749E+03  0.43054007750E+03  0.25500000920E-02 0. -1.
        2   -1    0    0  501    0  0.00000000000E+00  0.00000000000E+00 -0.16869001949E+04  0.16869001949E+04  0.25500000920E-02 0.  1.
    10030    2    1    2    0    0  0.00000000000E+00  0.00000000000E+00 -0.12563601174E+04  0.21174402724E+04  0.17044390756E+04 0.  0.
        3    1    3    3  502    0  0.80427897686E+03  0.24029744720E+03 -0.44530052681E+03  0.95021055831E+03  0.10100000352E+00 0.  1.
       -3    1    3    3    0  502 -0.80427897686E+03 -0.24029744720E+03 -0.81105959060E+03  0.11672297141E+04  0.10100000352E+00 0. -1.
</event>
<event>
 5   0  0.2234723E-04  0.1704682E+04  0.7818609E-02  0.8758699E-01
        2   -1    0    0  501    0  0.00000000000E+00  0.00000000000E+00  0.14961406001E+04  0.14961406001E+04  0.25500000920E-02 0.  1.
       -2   -1    0    0    0  501  0.00000000000E+00  0.00000000000E+00 -0.48557278940E+03  0.48557278941E+03  0.25500000920E-02 0. -1.
    10030    2    1    2    0    0  0.00000000000E+00  0.00000000000E+00  0.10105678107E+04  0.19817133895E+04  0.17046819815E+04 0.  0.
        1    1    3    3  502    0 -0.32438970115E+03  0.76833565144E+03  0.30087734378E+03  0.88662028372E+03  0.50400001928E-02 0. -1.
       -1    1    3    3    0  502  0.32438970115E+03 -0.76833565144E+03  0.70969046690E+03  0.10950931058E+04  0.50400001928E-02 0.  1.
</event>
<event>
 5   0  0.2242967E-04  0.1681828E+04  0.7818609E-02  0.8771797E-01
        2   -1    0    0  501    0  0.00000000000E+00  0.00000000000E+00  0.12662736484E+04  0.12662736484E+04  0.25500000920E-02 0. -1.
       -2   -1    0    0    0  501  0.00000000000E+00  0.00000000000E+00 -0.55843892854E+03  0.55843892854E+03  0.25500000920E-02 0.  1.
    10030    2    1    2    0    0  0.00000000000E+00  0.00000000000E+00  0.70783471983E+03  0.18247125769E+04  0.16818281713E+04 0.  0.
        4    1    3    3  502    0 -0.38942117599E+01  0.37269704812E+03 -0.46392540012E+03  0.59510221336E+03  0.12699999809E+01 0.  1.
       -4    1    3    3    0  502  0.38942117599E+01 -0.37269704812E+03  0.11717601200E+04  0.12296103636E+04  0.12699999809E+01 0. -1.
</event>
<event>
 5   0  0.1215233E-04  0.1707384E+04  0.7818609E-02  0.8757164E-01
       -1   -1    0    0    0  501  0.00000000000E+00  0.00000000000E+00  0.38303349784E+03  0.38303349788E+03  0.50400001928E-02 0. -1.
        1   -1    0    0  501    0  0.00000000000E+00  0.00000000000E+00 -0.19026797643E+04  0.19026797643E+04  0.50400001928E-02 0.  1.
    10030    2    1    2    0    0  0.00000000000E+00  0.00000000000E+00 -0.15196462664E+04  0.22857132622E+04  0.17073840639E+04 0.  0.
        2    1    3    3  502    0 -0.76826517663E+03  0.33081911161E+03 -0.98826040466E+03  0.12947321320E+04  0.25500000920E-02 0. -1.
       -2    1    3    3    0  502  0.76826517663E+03 -0.33081911161E+03 -0.53138586178E+03  0.99098113016E+03  0.25500000920E-02 0.  1.
</event>
<event>
 5   0  0.2356829E-04  0.1692073E+04  0.7818609E-02  0.8765898E-01
        2   -1    0    0  501    0  0.00000000000E+00  0.00000000000E+00  0.93037762458E+03  0.93037762458E+03  0.25500000920E-02 0. -1.
       -2   -1    0    0    0  501  0.00000000000E+00  0.00000000000E+00 -0.76934103348E+03  0.76934103348E+03  0.25500000920E-02 0.  1.
    10030    2    1    2    0    0  0.00000000000E+00  0.00000000000E+00  0.16103659110E+03  0.16997186581E+04  0.16920729100E+04 0.  0.
        5    1    3    3  502    0 -0.63255805872E+02 -0.84157866194E+03  0.13994346118E+03  0.85548945261E+03  0.46999998093E+01 0. -1.
       -5    1    3    3    0  502  0.63255805872E+02  0.84157866194E+03  0.21093129919E+02  0.84422920545E+03  0.46999998093E+01 0.  1.
</event>
<event>
 5   0  0.1126958E-04  0.1719349E+04  0.7818609E-02  0.8750405E-01
        1   -1    0    0  501    0  0.00000000000E+00  0.00000000000E+00  0.78183797664E+03  0.78183797665E+03  0.50400001928E-02 0.  1.
       -1   -1    0    0    0  501  0.00000000000E+00  0.00000000000E+00 -0.94525962585E+03  0.94525962587E+03  0.50400001928E-02 0. -1.
    10030    2    1    2    0    0  0.00000000000E+00  0.00000000000E+00 -0.16342164922E+03  0.17270976025E+04  0.17193485665E+04 0.  0.
        4    1    3    3  502    0  0.26109384735E+03  0.79282995017E+03  0.12485873147E+03  0.84400275043E+03  0.12699999809E+01 0. -1.
       -4    1    3    3    0  502 -0.26109384735E+03 -0.79282995017E+03 -0.28828038069E+03  0.88309485209E+03  0.12699999809E+01 0.  1.
</event>
<event>
 5   0  0.2234723E-04  0.1490620E+04  0.7818609E-02  0.8890715E-01
       -2   -1    0    0    0  501  0.00000000000E+00  0.00000000000E+00  0.69969653616E+03  0.69969653617E+03  0.25500000920E-02 0.  1.
        2   -1    0    0  501    0  0.00000000000E+00  0.00000000000E+00 -0.79389706969E+03  0.79389706970E+03  0.25500000920E-02 0. -1.
    10030    2    1    2    0    0  0.00000000000E+00  0.00000000000E+00 -0.94200533533E+02  0.14935936059E+04  0.14906200451E+04 0.  0.
        1    1    3    3  502    0 -0.62030543655E+03  0.27308229908E+03 -0.35777402182E+03  0.76639091030E+03  0.50400001928E-02 0. -1.
       -1    1    3    3    0  502  0.62030543655E+03 -0.27308229908E+03  0.26357348828E+03  0.72720269556E+03  0.50400001928E-02 0.  1.
</event>
<event>
 5   0  0.2356829E-04  0.1689214E+04  0.7818609E-02  0.8767540E-01
        2   -1    0    0  501    0  0.00000000000E+00  0.00000000000E+00  0.14402086890E+04  0.14402086890E+04  0.25500000920E-02 0. -1.
       -2   -1    0    0    0  501  0.00000000000E+00  0.00000000000E+00 -0.49531751997E+03  0.49531751998E+03  0.25500000920E-02 0.  1.
    10030    2    1    2    0    0  0.00000000000E+00  0.00000000000E+00  0.94489116907E+03  0.19355262090E+04  0.16892135402E+04 0.  0.
        5    1    3    3  502    0  0.71226985721E+03  0.13328658753E+03  0.96958253663E+03  0.12104569589E+04  0.46999998093E+01 0. -1.
       -5    1    3    3    0  502 -0.71226985721E+03 -0.13328658753E+03 -0.24691367562E+02  0.72506925017E+03  0.46999998093E+01 0.  1.
</event>
<event>
 5   0  0.2224454E-04  0.1696486E+04  0.7818609E-02  0.8763371E-01
        2   -1    0    0  501    0  0.00000000000E+00  0.00000000000E+00  0.17964262422E+04  0.17964262422E+04  0.25500000920E-02 0. -1.
       -2   -1    0    0    0  501  0.00000000000E+00  0.00000000000E+00 -0.40052626737E+03  0.40052626738E+03  0.25500000920E-02 0.  1.
    10030    2    1    2    0    0  0.00000000000E+00  0.00000000000E+00  0.13958999748E+04  0.21969525096E+04  0.16964856586E+04 0.  0.
        2    1    3    3  502    0 -0.28065123964E+03  0.74704543325E+03  0.10703028427E+04  0.13350618610E+04  0.25500000920E-02 0. -1.
       -2    1    3    3    0  502  0.28065123964E+03 -0.74704543325E+03  0.32559713215E+03  0.86189064859E+03  0.25500000920E-02 0.  1.
</event>
<event>
 5   0  0.1204741E-04  0.1626251E+04  0.7818609E-02  0.8804581E-01
        1   -1    0    0  501    0  0.00000000000E+00  0.00000000000E+00  0.18266871806E+04  0.18266871806E+04  0.50400001928E-02 0. -1.
       -1   -1    0    0    0  501  0.00000000000E+00  0.00000000000E+00 -0.36195212086E+03  0.36195212089E+03  0.50400001928E-02 0.  1.
    10030    2    1    2    0    0  0.00000000000E+00  0.00000000000E+00  0.14647350598E+04  0.21886393015E+04  0.16262512711E+04 0.  0.
        1    1    3    3  502    0 -0.36361776296E+03  0.12921600817E+02  0.17110178138E+04  0.17492760802E+04  0.50400001928E-02 0. -1.
       -1    1    3    3    0  502  0.36361776296E+03 -0.12921600817E+02 -0.24628275408E+03  0.43936322137E+03  0.50400001928E-02 0.  1.
</event>
<event>
 5   0  0.1126958E-04  0.1694025E+04  0.7818609E-02  0.8764780E-01
       -1   -1    0    0    0  501  0.00000000000E+00  0.00000000000E+00  0.75058402486E+03  0.75058402488E+03  0.50400001928E-02 0. -1.
        1   -1    0    0  501    0  0.00000000000E+00  0.00000000000E+00 -0.95582875612E+03  0.95582875613E+03  0.50400001928E-02 0.  1.
    10030    2    1    2    0    0  0.00000000000E+00  0.00000000000E+00 -0.20524473126E+03  0.17064127810E+04  0.16940245510E+04 0.  0.
        4    1    3    3  502    0  0.48974459703E+03 -0.59764177938E+03  0.24690608798E+03  0.81116564027E+03  0.12699999809E+01 0. -1.
       -4    1    3    3    0  502 -0.48974459703E+03  0.59764177938E+03 -0.45215081923E+03  0.89524714074E+03  0.12699999809E+01 0.  1.
</event>
<event>
 5   0  0.2224454E-04  0.1695508E+04  0.7818609E-02  0.8763930E-01
       -2   -1    0    0    0  501  0.00000000000E+00  0.00000000000E+00  0.11576834741E+04  0.11576834741E+04  0.25500000920E-02 0. -1.
        2   -1    0    0  501    0  0.00000000000E+00  0.00000000000E+00 -0.62079772351E+03  0.62079772351E+03  0.25500000920E-02 0.  1.
    10030    2    1    2    0    0  0.00000000000E+00  0.00000000000E+00  0.53688575063E+03  0.17784811977E+04  0.16955084963E+04 0.  0.
        2    1    3    3  502    0 -0.74074517615E+03 -0.13482944701E+03  0.67713113232E+03  0.10126149150E+04  0.25500000920E-02 0. -1.
       -2    1    3    3    0  502  0.74074517615E+03  0.13482944701E+03 -0.14024538169E+03  0.76586628263E+03  0.25500000920E-02 0.  1.
</event>
<event>
 5   0  0.2356829E-04  0.1705534E+04  0.7818609E-02  0.8758214E-01
        2   -1    0    0  501    0  0.00000000000E+00  0.00000000000E+00  0.16521237021E+04  0.16521237021E+04  0.25500000920E-02 0. -1.
       -2   -1    0    0    0  501  0.00000000000E+00  0.00000000000E+00 -0.44016774440E+03  0.44016774441E+03  0.25500000920E-02 0.  1.
    10030    2    1    2    0    0  0.00000000000E+00  0.00000000000E+00  0.12119559577E+04  0.20922914465E+04  0.17055340084E+04 0.  0.
        5    1    3    3  502    0  0.75792301490E+03  0.18966532844E+03  0.10251825628E+04  0.12889692046E+04  0.46999998093E+01 0. -1.
       -5    1    3    3    0  502 -0.75792301490E+03 -0.18966532844E+03  0.18677339491E+03  0.80332224193E+03  0.46999998093E+01 0.  1.
</event>
<event>
 5   0  0.1126958E-04  0.1695139E+04  0.7818609E-02  0.8764142E-01
       -1   -1    0    0    0  501  0.00000000000E+00  0.00000000000E+00  0.40419326200E+03  0.40419326203E+03  0.50400001928E-02 0.  1.
        1   -1    0    0  501    0  0.00000000000E+00  0.00000000000E+00 -0.17773033303E+04  0.17773033303E+04  0.50400001928E-02 0. -1.
    10030    2    1    2    0    0  0.00000000000E+00  0.00000000000E+00 -0.13731100683E+04  0.21814965923E+04  0.16951389685E+04 0.  0.
        4    1    3    3  502    0 -0.59863835691E+03  0.31945050747E+03 -0.13401699753E+04  0.15021563449E+04  0.12699999809E+01 0. -1.
       -4    1    3    3    0  502  0.59863835691E+03 -0.31945050747E+03 -0.32940092998E+02  0.67934024738E+03  0.12699999809E+01 0.  1.
</event>
<event>
 5   0  0.1215233E-04  0.1706829E+04  0.7818609E-02  0.8757479E-01
        1   -1    0    0  501    0  0.00000000000E+00  0.00000000000E+00  0.14820777018E+04  0.14820777018E+04  0.50400001928E-02 0.  1.
       -1   -1    0    0    0  501  0.00000000000E+00  0.00000000000E+00 -0.49141594324E+03  0.49141594327E+03  0.50400001928E-02 0. -1.
    10030    2    1    2    0    0  0.00000000000E+00  0.00000000000E+00  0.99066175852E+03  0.19734936450E+04  0.17068293550E+04 0.  0.
        2    1    3    3  502    0 -0.64905788876E+03  0.43490813818E+03  0.98327665528E+02  0.78745765691E+03  0.25500000920E-02 0. -1.
       -2    1    3    3    0  502  0.64905788876E+03 -0.43490813818E+03  0.89233409300E+03  0.11860359881E+04  0.25500000920E-02 0.  1.
</event>
<event>
 5   0  0.2242967E-04  0.1700229E+04  0.7818609E-02  0.8761234E-01
        2   -1    0    0  501    0  0.00000000000E+00  0.00000000000E+00  0.13598491337E+04  0.13598491337E+04  0.25500000920E-02 0.  1.
       -2   -1    0    0    0  501  0.00000000000E+00  0.00000000000E+00 -0.53145209364E+03  0.53145209365E+03  0.25500000920E-02 0. -1.
    10030    2    1    2    0    0  0.00000000000E+00  0.00000000000E+00  0.82839704002E+03  0.18913012273E+04  0.17002290071E+04 0.  0.
        4    1    3    3  502    0 -0.69464633705E+03  0.47445588458E+03  0.27772828900E+03  0.88587613999E+03  0.12699999809E+01 0. -1.
       -4    1    3    3    0  502  0.69464633705E+03 -0.47445588458E+03  0.55066875102E+03  0.10054250873E+04  0.12699999809E+01 0.  1.
</event>
<event>
 5   0  0.8372750E-05  0.1713246E+04  0.7818609E-02  0.8753846E-01
        3   -1    0    0  501    0  0.00000000000E+00  0.00000000000E+00  0.86991034241E+03  0.86991034828E+03  0.10100000352E+00 0.  1.
       -3   -1    0    0    0  501  0.00000000000E+00  0.00000000000E+00 -0.84353836341E+03  0.84353836945E+03  0.10100000352E+00 0. -1.
    10030    2    1    2    0    0  0.00000000000E+00  0.00000000000E+00  0.26371979007E+02  0.17134487177E+04  0.17132457579E+04 0.  0.
        2    1    3    3  502    0  0.41974608326E+03  0.39647226293E+03 -0.61968098359E+03  0.84698379625E+03  0.25500000920E-02 0. -1.
       -2    1    3    3    0  502 -0.41974608326E+03 -0.39647226293E+03  0.64605296259E+03  0.86646492148E+03  0.25500000920E-02 0.  1.
</event>
<event>
 5   0  0.2242967E-04  0.1698589E+04  0.7818609E-02  0.8762170E-01
        2   -1    0    0  501    0  0.00000000000E+00  0.00000000000E+00  0.71293035236E+03  0.71293035237E+03  0.25500000920E-02 0.  1.
       -2   -1    0    0    0  501  0.00000000000E+00  0.00000000000E+00 -0.10117408830E+04  0.10117408830E+04  0.25500000920E-02 0. -1.
    10030    2    1    2    0    0  0.00000000000E+00  0.00000000000E+00 -0.29881053067E+03  0.17246712354E+04  0.16985885720E+04 0.  0.
        4    1    3    3  502    0  0.35768368480E+03 -0.65784228403E+03  0.25750417387E+03  0.79183590566E+03  0.12699999809E+01 0.  1.
       -4    1    3    3    0  502 -0.35768368480E+03  0.65784228403E+03 -0.55631470455E+03  0.93283532975E+03  0.12699999809E+01 0. -1.
</event>
<event>
 5   0  0.2242967E-04  0.1703176E+04  0.7818609E-02  0.8759555E-01
       -2   -1    0    0    0  501  0.00000000000E+00  0.00000000000E+00  0.78122257594E+03  0.78122257595E+03  0.25500000920E-02 0.  1.
        2   -1    0    0  501    0  0.00000000000E+00  0.00000000000E+00 -0.92829150290E+03  0.92829150290E+03  0.25500000920E-02 0. -1.
    10030    2    1    2    0    0  0.00000000000E+00  0.00000000000E+00 -0.14706892695E+03  0.17095140788E+04  0.17031761848E+04 0.  0.
        4    1    3    3  502    0 -0.12804138339E+03  0.49989825055E+03  0.60641373927E+03  0.79626132195E+03  0.12699999809E+01 0.  1.
       -4    1    3    3    0  502  0.12804138339E+03 -0.49989825055E+03 -0.75348266623E+03  0.91325275689E+03  0.12699999809E+01 0. -1.
</event>
<event>
 5   0  0.2288806E-04  0.1702787E+04  0.7818609E-02  0.8759777E-01
        2   -1    0    0  501    0  0.00000000000E+00  0.00000000000E+00  0.64437394552E+03  0.64437394553E+03  0.25500000920E-02 0. -1.
       -2   -1    0    0    0  501  0.00000000000E+00  0.00000000000E+00 -0.11249223256E+04  0.11249223256E+04  0.25500000920E-02 0.  1.
    10030    2    1    2    0    0  0.00000000000E+00  0.00000000000E+00 -0.48054838009E+03  0.17692962711E+04  0.17027867011E+04 0.  0.
        3    1    3    3  502    0  0.46056214265E+03 -0.24507204701E+03 -0.93937872829E+03  0.10745278967E+04  0.10100000352E+00 0.  1.
       -3    1    3    3    0  502 -0.46056214265E+03  0.24507204701E+03  0.45883034820E+03  0.69476837442E+03  0.10100000352E+00 0. -1.
</event>
<event>
 5   0  0.1215233E-04  0.1702813E+04  0.7818609E-02  0.8759762E-01
        1   -1    0    0  501    0  0.00000000000E+00  0.00000000000E+00  0.14508575267E+04  0.14508575267E+04  0.50400001928E-02 0.  1.
       -1   -1    0    0    0  501  0.00000000000E+00  0.00000000000E+00 -0.49963052246E+03  0.49963052248E+03  0.50400001928E-02 0. -1.
    10030    2    1    2    0    0  0.00000000000E+00  0.00000000000E+00  0.95122700421E+03  0.19504880492E+04  0.17028126193E+04 0.  0.
        2    1    3    3  502    0  0.15551360327E+03  0.11356458740E+03  0.14255861246E+04  0.14385330010E+04  0.25500000920E-02 0.  1.
       -2    1    3    3    0  502 -0.15551360327E+03 -0.11356458740E+03 -0.47435912035E+03  0.51195504820E+03  0.25500000920E-02 0. -1.
</event>
<event>
 5   0  0.1204741E-04  0.1695201E+04  0.7818609E-02  0.8764106E-01
       -1   -1    0    0    0  501  0.00000000000E+00  0.00000000000E+00  0.13406043646E+04  0.13406043646E+04  0.50400001928E-02 0. -1.
        1   -1    0    0  501    0  0.00000000000E+00  0.00000000000E+00 -0.53589764470E+03  0.53589764472E+03  0.50400001928E-02 0.  1.
    10030    2    1    2    0    0  0.00000000000E+00  0.00000000000E+00  0.80470671990E+03  0.18765020093E+04  0.16952011344E+04 0.  0.
        1    1    3    3  502    0 -0.42523555411E+03 -0.64870426852E+03  0.78063901792E+03  0.11004725261E+04  0.50400001928E-02 0. -1.
       -1    1    3    3    0  502  0.42523555411E+03  0.64870426852E+03  0.24067701984E+02  0.77602948319E+03  0.50400001928E-02 0.  1.
</event>
<event>
 5   0  0.1234158E-04  0.1695985E+04  0.7818609E-02  0.8763658E-01
       -1   -1    0    0    0  501  0.00000000000E+00  0.00000000000E+00  0.16255324919E+04  0.16255324919E+04  0.50400001928E-02 0. -1.
        1   -1    0    0  501    0  0.00000000000E+00  0.00000000000E+00 -0.44237271669E+03  0.44237271672E+03  0.50400001928E-02 0.  1.
    10030    2    1    2    0    0  0.00000000000E+00  0.00000000000E+00  0.11831597752E+04  0.20679052086E+04  0.16959849345E+04 0.  0.
        5    1    3    3  502    0  0.23017588705E+03  0.79340821420E+03  0.82481790654E+03  0.11674006177E+04  0.46999998093E+01 0.  1.
       -5    1    3    3    0  502 -0.23017588705E+03 -0.79340821420E+03  0.35834186864E+03  0.90050459085E+03  0.46999998093E+01 0. -1.
</event>
<event>
 5   0  0.2234723E-04  0.1687435E+04  0.7818609E-02  0.8768563E-01
       -2   -1    0    0    0  501  0.00000000000E+00  0.00000000000E+00  0.31046551796E+03  0.31046551797E+03  0.25500000920E-02 0.  1.
        2   -1    0    0  501    0  0.00000000000E+00  0.00000000000E+00 -0.22928767402E+04  0.22928767402E+04  0.25500000920E-02 0. -1.
    10030    2    1    2    0    0  0.00000000000E+00  0.00000000000E+00 -0.19824112223E+04  0.26033422582E+04  0.16874349348E+04 0.  0.
        1    1    3    3  502    0 -0.61387213734E+03 -0.15583098732E+03 -0.18512099126E+04  0.19565532035E+04  0.50400001928E-02 0. -1.
       -1    1    3    3    0  502  0.61387213734E+03  0.15583098732E+03 -0.13120130970E+03  0.64678905471E+03  0.50400001928E-02 0.  1.
</event>
<event>
 5   0  0.2356829E-04  0.1704331E+04  0.7818609E-02  0.8758898E-01
        2   -1    0    0  501    0  0.00000000000E+00  0.00000000000E+00  0.16891572853E+04  0.16891572853E+04  0.25500000920E-02 0. -1.
       -2   -1    0    0    0  501  0.00000000000E+00  0.00000000000E+00 -0.42991041911E+03  0.42991041912E+03  0.25500000920E-02 0.  1.
    10030    2    1    2    0    0  0.00000000000E+00  0.00000000000E+00  0.12592468662E+04  0.21190677044E+04  0.17043313252E+04 0.  0.
        5    1    3    3  502    0 -0.44228668919E+03 -0.36647386432E+02 -0.27486336905E+03  0.52204646154E+03  0.46999998093E+01 0.  1.
       -5    1    3    3    0  502  0.44228668919E+03  0.36647386432E+02  0.15341102353E+04  0.15970212429E+04  0.46999998093E+01 0. -1.
</event>
<event>
 5   0  0.2242967E-04  0.1698615E+04  0.7818609E-02  0.8762154E-01
        2   -1    0    0  501    0  0.00000000000E+00  0.00000000000E+00  0.17256765857E+04  0.17256765857E+04  0.25500000920E-02 0.  1.
       -2   -1    0    0    0  501  0.00000000000E+00  0.00000000000E+00 -0.41799467989E+03  0.41799467989E+03  0.25500000920E-02 0. -1.
    10030    2    1    2    0    0  0.00000000000E+00  0.00000000000E+00  0.13076819058E+04  0.21436712656E+04  0.16986154739E+04 0.  0.
        4    1    3    3  502    0 -0.60054583034E+03 -0.53803750001E+03  0.31713612579E+03  0.86643902321E+03  0.12699999809E+01 0. -1.
       -4    1    3    3    0  502  0.60054583034E+03  0.53803750001E+03  0.99054578001E+03  0.12772322424E+04  0.12699999809E+01 0.  1.
</event>
<event>
 5   0  0.1234158E-04  0.1692865E+04  0.7818609E-02  0.8765444E-01
        1   -1    0    0  501    0  0.00000000000E+00  0.00000000000E+00  0.18015855028E+04  0.18015855028E+04  0.50400001928E-02 0. -1.
       -1   -1    0    0    0  501  0.00000000000E+00  0.00000000000E+00 -0.39767615936E+03  0.39767615939E+03  0.50400001928E-02 0.  1.
    10030    2    1    2    0    0  0.00000000000E+00  0.00000000000E+00  0.14039093435E+04  0.21992616622E+04  0.16928645587E+04 0.  0.
        5    1    3    3  502    0 -0.34212996759E+02 -0.60743558992E+02 -0.39392290886E+03  0.40007206504E+03  0.46999998093E+01 0.  1.
       -5    1    3    3    0  502  0.34212996759E+02  0.60743558992E+02  0.17978322523E+04  0.17991895972E+04  0.46999998093E+01 0. -1.
</event>
<event>
 5   0  0.1204741E-04  0.1698193E+04  0.7818609E-02  0.8762396E-01
       -1   -1    0    0    0  501  0.00000000000E+00  0.00000000000E+00  0.15831749934E+04  0.15831749934E+04  0.50400001928E-02 0. -1.
        1   -1    0    0  501    0  0.00000000000E+00  0.00000000000E+00 -0.45539154467E+03  0.45539154470E+03  0.50400001928E-02 0.  1.
    10030    2    1    2    0    0  0.00000000000E+00  0.00000000000E+00  0.11277834487E+04  0.20385665381E+04  0.16981925754E+04 0.  0.
        1    1    3    3  502    0 -0.93639985631E+02  0.37008631617E+03 -0.34656548526E+03  0.51559670666E+03  0.50400001928E-02 0.  1.
       -1    1    3    3    0  502  0.93639985631E+02 -0.37008631617E+03  0.14743489340E+04  0.15229698314E+04  0.50400001928E-02 0. -1.
</event>
<event>
 5   0  0.1215233E-04  0.1688355E+04  0.7818609E-02  0.8768034E-01
       -1   -1    0    0    0  501  0.00000000000E+00  0.00000000000E+00  0.35778873317E+03  0.35778873321E+03  0.50400001928E-02 0.  1.
        1   -1    0    0  501    0  0.00000000000E+00  0.00000000000E+00 -0.19917775913E+04  0.19917775913E+04  0.50400001928E-02 0. -1.
    10030    2    1    2    0    0  0.00000000000E+00  0.00000000000E+00 -0.16339888581E+04  0.23495663245E+04  0.16883549167E+04 0.  0.
        2    1    3    3  502    0  0.93254780724E+02  0.82933054563E+03 -0.99384638377E+03  0.12977735714E+04  0.25500000920E-02 0. -1.
       -2    1    3    3    0  502 -0.93254780724E+02 -0.82933054563E+03 -0.64014247435E+03  0.10517927531E+04  0.25500000920E-02 0.  1.
</event>
<event>
 5   0  0.1215233E-04  0.1654137E+04  0.7818609E-02  0.8787963E-01
       -1   -1    0    0    0  501  0.00000000000E+00  0.00000000000E+00  0.69075651506E+03  0.69075651507E+03  0.50400001928E-02 0. -1.
        1   -1    0    0  501    0  0.00000000000E+00  0.00000000000E+00 -0.99027936277E+03  0.99027936279E+03  0.50400001928E-02 0.  1.
    10030    2    1    2    0    0  0.00000000000E+00  0.00000000000E+00 -0.29952284772E+03  0.16810358779E+04  0.16541365380E+04 0.  0.
        2    1    3    3  502    0  0.14550051938E+03  0.42760029032E+03  0.55434709213E+03  0.71506161132E+03  0.25500000920E-02 0. -1.
       -2    1    3    3    0  502 -0.14550051938E+03 -0.42760029032E+03 -0.85386993985E+03  0.96597426654E+03  0.25500000920E-02 0.  1.
</event>
<event>
 5   0  0.1234158E-04  0.1702659E+04  0.7818609E-02  0.8759849E-01
        1   -1    0    0  501    0  0.00000000000E+00  0.00000000000E+00  0.21830355000E+04  0.21830355000E+04  0.50400001928E-02 0. -1.
       -1   -1    0    0    0  501  0.00000000000E+00  0.00000000000E+00 -0.33199739393E+03  0.33199739397E+03  0.50400001928E-02 0.  1.
    10030    2    1    2    0    0  0.00000000000E+00  0.00000000000E+00  0.18510381061E+04  0.25150328940E+04  0.17026592107E+04 0.  0.
        5    1    3    3  502    0 -0.23663501587E+03 -0.62460184030E+03  0.17052042506E+04  0.18313566599E+04  0.46999998093E+01 0. -1.
       -5    1    3    3    0  502  0.23663501587E+03  0.62460184030E+03  0.14583385552E+03  0.68367623409E+03  0.46999998093E+01 0.  1.
</event>
<event>
 5   0  0.2234723E-04  0.1697311E+04  0.7818609E-02  0.8762899E-01
       -2   -1    0    0    0  501  0.00000000000E+00  0.00000000000E+00  0.81736808102E+03  0.81736808103E+03  0.25500000920E-02 0.  1.
        2   -1    0    0  501    0  0.00000000000E+00  0.00000000000E+00 -0.88114050777E+03  0.88114050777E+03  0.25500000920E-02 0. -1.
    10030    2    1    2    0    0  0.00000000000E+00  0.00000000000E+00 -0.63772426749E+02  0.16985085888E+04  0.16973109626E+04 0.  0.
        1    1    3    3  502    0 -0.81068846132E+02  0.20683629250E+03  0.78775381402E+03  0.81847998219E+03  0.50400001928E-02 0.  1.
       -1    1    3    3    0  502  0.81068846132E+02 -0.20683629250E+03 -0.85152624077E+03  0.88002860661E+03  0.50400001928E-02 0. -1.
</event>
<event>
 5   0  0.1215233E-04  0.1667388E+04  0.7818609E-02  0.8780186E-01
        1   -1    0    0  501    0  0.00000000000E+00  0.00000000000E+00  0.12214999317E+04  0.12214999317E+04  0.50400001928E-02 0. -1.
       -1   -1    0    0    0  501  0.00000000000E+00  0.00000000000E+00 -0.56901012634E+03  0.56901012636E+03  0.50400001928E-02 0.  1.
    10030    2    1    2    0    0  0.00000000000E+00  0.00000000000E+00  0.65248980533E+03  0.17905100580E+04  0.16673881737E+04 0.  0.
        2    1    3    3  502    0 -0.24280469707E+03  0.65918422313E+03  0.80835996596E+03  0.10709452813E+04  0.25500000920E-02 0. -1.
       -2    1    3    3    0  502  0.24280469707E+03 -0.65918422313E+03 -0.15587016063E+03  0.71956477674E+03  0.25500000920E-02 0.  1.
</event>
<event>
 5   0  0.1204741E-04  0.1698797E+04  0.7818609E-02  0.8762051E-01
       -1   -1    0    0    0  501  0.00000000000E+00  0.00000000000E+00  0.84449512777E+03  0.84449512779E+03  0.50400001928E-02 0.  1.
        1   -1    0    0  501    0  0.00000000000E+00  0.00000000000E+00 -0.85432989723E+03  0.85432989724E+03  0.50400001928E-02 0. -1.
    10030    2    1    2    0    0  0.00000000000E+00  0.00000000000E+00 -0.98347694538E+01  0.16988250250E+04  0.16987965573E+04 0.  0.
        1    1    3    3  502    0  0.33650340669E+03 -0.32333543797E+03  0.70481071054E+03  0.84530378320E+03  0.50400001928E-02 0.  1.
       -1    1    3    3    0  502 -0.33650340669E+03  0.32333543797E+03 -0.71464548000E+03  0.85352124184E+03  0.50400001928E-02 0. -1.
</event>
<event>
 5   0  0.2242967E-04  0.1699789E+04  0.7818609E-02  0.8761485E-01
       -2   -1    0    0    0  501  0.00000000000E+00  0.00000000000E+00  0.12650084180E+04  0.12650084180E+04  0.25500000920E-02 0. -1.
        2   -1    0    0  501    0  0.00000000000E+00  0.00000000000E+00 -0.57100079699E+03  0.57100079700E+03  0.25500000920E-02 0.  1.
    10030    2    1    2    0    0  0.00000000000E+00  0.00000000000E+00  0.69400762101E+03  0.18360092150E+04  0.16997891809E+04 0.  0.
        4    1    3    3  502    0  0.37601801900E+03  0.71891897975E+03  0.73566039512E+02  0.81464570527E+03  0.12699999809E+01 0.  1.
       -4    1    3    3    0  502 -0.37601801900E+03 -0.71891897975E+03  0.62044158149E+03  0.10213635097E+04  0.12699999809E+01 0. -1.
</event>
<event>
 5   0  0.1234158E-04  0.1721047E+04  0.7818609E-02  0.8749451E-01
        1   -1    0    0  501    0  0.00000000000E+00  0.00000000000E+00  0.13007436463E+04  0.13007436463E+04  0.50400001928E-02 0. -1.
       -1   -1    0    0    0  501  0.00000000000E+00  0.00000000000E+00 -0.56929029500E+03  0.56929029502E+03  0.50400001928E-02 0.  1.
    10030    2    1    2    0    0  0.00000000000E+00  0.00000000000E+00  0.73145335130E+03  0.18700339413E+04  0.17210470466E+04 0.  0.
        5    1    3    3  502    0  0.21821166584E+03  0.79225419310E+03  0.64316465444E+03  0.10435352894E+04  0.46999998093E+01 0.  1.
       -5    1    3    3    0  502 -0.21821166584E+03 -0.79225419310E+03  0.88288696868E+02  0.82649865189E+03  0.46999998093E+01 0. -1.
</event>
<event>
 5   0  0.1234158E-04  0.1695557E+04  0.7818609E-02  0.8763902E-01
        1   -1    0    0  501    0  0.00000000000E+00  0.00000000000E+00  0.15431211709E+04  0.15431211709E+04  0.50400001928E-02 0.  1.
       -1   -1    0    0    0  501  0.00000000000E+00  0.00000000000E+00 -0.46576298568E+03  0.46576298571E+03  0.50400001928E-02 0. -1.
    10030    2    1    2    0    0  0.00000000000E+00  0.00000000000E+00  0.10773581852E+04  0.20088841566E+04  0.16955573996E+04 0.  0.
        5    1    3    3  502    0  0.63407007438E+02  0.70826117478E+03  0.10855508611E+04  0.12977276688E+04  0.46999998093E+01 0.  1.
       -5    1    3    3    0  502 -0.63407007438E+02 -0.70826117478E+03 -0.81926758506E+01  0.71115648786E+03  0.46999998093E+01 0. -1.
</event>
<event>
 5   0  0.1215233E-04  0.1701503E+04  0.7818609E-02  0.8760508E-01
        1   -1    0    0  501    0  0.00000000000E+00  0.00000000000E+00  0.19247502217E+04  0.19247502217E+04  0.50400001928E-02 0. -1.
       -1   -1    0    0    0  501  0.00000000000E+00  0.00000000000E+00 -0.37603741766E+03  0.37603741770E+03  0.50400001928E-02 0.  1.
    10030    2    1    2    0    0  0.00000000000E+00  0.00000000000E+00  0.15487128040E+04  0.23007876394E+04  0.17015029862E+04 0.  0.
        2    1    3    3  502    0  0.74035120668E+03  0.26604797373E+03  0.12122647894E+04  0.14451599750E+04  0.25500000920E-02 0. -1.
       -2    1    3    3    0  502 -0.74035120668E+03 -0.26604797373E+03  0.33644801456E+03  0.85562766438E+03  0.25500000920E-02 0.  1.
</event>
<event>
 5   0  0.2234723E-04  0.1698245E+04  0.7818609E-02  0.8762366E-01
       -2   -1    0    0    0  501  0.00000000000E+00  0.00000000000E+00  0.50289443441E+03  0.50289443442E+03  0.25500000920E-02 0. -1.
        2   -1    0    0  501    0  0.00000000000E+00  0.00000000000E+00 -0.14337182583E+04  0.14337182583E+04  0.25500000920E-02 0.  1.
    10030    2    1    2    0    0  0.00000000000E+00  0.00000000000E+00 -0.93082382390E+03  0.19366126927E+04  0.16982448971E+04 0.  0.
        1    1    3    3  502    0  0.20017544419E+02 -0.58010736465E+03  0.24132110398E+03  0.62861843105E+03  0.50400001928E-02 0. -1.
       -1    1    3    3    0  502 -0.20017544419E+02  0.58010736465E+03 -0.11721449279E+04  0.13079942617E+04  0.50400001928E-02 0.  1.
</event>
<event>
 5   0  0.1126958E-04  0.1693867E+04  0.7818609E-02  0.8764870E-01
        1   -1    0    0  501    0  0.00000000000E+00  0.00000000000E+00  0.19568984664E+04  0.19568984664E+04  0.50400001928E-02 0.  1.
       -1   -1    0    0    0  501  0.00000000000E+00  0.00000000000E+00 -0.36654755537E+03  0.36654755540E+03  0.50400001928E-02 0. -1.
    10030    2    1    2    0    0  0.00000000000E+00  0.00000000000E+00  0.15903509111E+04  0.23234460218E+04  0.16938669948E+04 0.  0.
        4    1    3    3  502    0 -0.14571148933E+03 -0.21570940325E+03  0.19006625452E+04  0.19184061375E+04  0.12699999809E+01 0.  1.
       -4    1    3    3    0  502  0.14571148933E+03  0.21570940325E+03 -0.31031163410E+03  0.40503988437E+03  0.12699999809E+01 0. -1.
</event>
<event>
 5   0  0.2234723E-04  0.1708788E+04  0.7818609E-02  0.8756368E-01
       -2   -1    0    0    0  501  0.00000000000E+00  0.00000000000E+00  0.48068637307E+03  0.48068637308E+03  0.25500000920E-02 0. -1.
        2   -1    0    0  501    0  0.00000000000E+00  0.00000000000E+00 -0.15186390819E+04  0.15186390819E+04  0.25500000920E-02 0.  1.
    10030    2    1    2    0    0  0.00000000000E+00  0.00000000000E+00 -0.10379527088E+04  0.19993254550E+04  0.17087880059E+04 0.  0.
        1    1    3    3  502    0 -0.50820593878E+03  0.60788217874E+03 -0.89300970664E+03  0.11938426846E+04  0.50400001928E-02 0.  1.
       -1    1    3    3    0  502  0.50820593878E+03 -0.60788217874E+03 -0.14494300219E+03  0.80548277036E+03  0.50400001928E-02 0. -1.
</event>
<event>
 5   0  0.2288806E-04  0.1715627E+04  0.7818609E-02  0.8752501E-01
        2   -1    0    0  501    0  0.00000000000E+00  0.00000000000E+00  0.15653826156E+04  0.15653826156E+04  0.25500000920E-02 0.  1.
       -2   -1    0    0    0  501  0.00000000000E+00  0.00000000000E+00 -0.47007301209E+03  0.47007301210E+03  0.25500000920E-02 0. -1.
    10030    2    1    2    0    0  0.00000000000E+00  0.00000000000E+00  0.10953096035E+04  0.20354556277E+04  0.17156271404E+04 0.  0.
        3    1    3    3  502    0  0.21146411789E+03  0.28286886855E+03  0.14751234181E+04  0.15168127699E+04  0.10100000352E+00 0.  1.
       -3    1    3    3    0  502 -0.21146411789E+03 -0.28286886855E+03 -0.37981381464E+03  0.51864285780E+03  0.10100000352E+00 0. -1.
</event>
<event>
 5   0  0.2288806E-04  0.1697557E+04  0.7818609E-02  0.8762759E-01
        2   -1    0    0  501    0  0.00000000000E+00  0.00000000000E+00  0.15480877531E+04  0.15480877531E+04  0.25500000920E-02 0. -1.
       -2   -1    0    0    0  501  0.00000000000E+00  0.00000000000E+00 -0.46536465174E+03  0.46536465175E+03  0.25500000920E-02 0.  1.
    10030    2    1    2    0    0  0.00000000000E+00  0.00000000000E+00  0.10827231013E+04  0.20134524048E+04  0.16975574430E+04 0.  0.
        3    1    3    3  502    0  0.21089382379E+03 -0.20441984049E+02  0.15162156089E+04  0.15309486806E+04  0.10100000352E+00 0. -1.
       -3    1    3    3    0  502 -0.21089382379E+03  0.20441984049E+02 -0.43349250757E+03  0.48250372428E+03  0.10100000352E+00 0.  1.
</event>
<event>
 5   0  0.1204741E-04  0.1676680E+04  0.7818609E-02  0.8774778E-01
       -1   -1    0    0    0  501  0.00000000000E+00  0.00000000000E+00  0.67353993674E+03  0.67353993676E+03  0.50400001928E-02 0. -1.
        1   -1    0    0  501    0  0.00000000000E+00  0.00000000000E+00 -0.10434625678E+04  0.10434625678E+04  0.50400001928E-02 0.  1.
    10030    2    1    2    0    0  0.00000000000E+00  0.00000000000E+00 -0.36992263107E+03  0.17170025046E+04  0.16766797094E+04 0.  0.
        1    1    3    3  502    0 -0.10938088849E+03  0.75428846128E+03  0.17257479576E+03  0.78147125459E+03  0.50400001928E-02 0. -1.
       -1    1    3    3    0  502  0.10938088849E+03 -0.75428846128E+03 -0.54249742683E+03  0.93553125000E+03  0.50400001928E-02 0.  1.
</event>
<event>
 5   0  0.1234158E-04  0.1670324E+04  0.7818609E-02  0.8778473E-01
        1   -1    0    0  501    0  0.00000000000E+00  0.00000000000E+00  0.16422211821E+04  0.16422211821E+04  0.50400001928E-02 0. -1.
       -1   -1    0    0    0  501  0.00000000000E+00  0.00000000000E+00 -0.42472704066E+03  0.42472704069E+03  0.50400001928E-02 0.  1.
    10030    2    1    2    0    0  0.00000000000E+00  0.00000000000E+00  0.12174941414E+04  0.20669482227E+04  0.16703242114E+04 0.  0.
        5    1    3    3  502    0  0.33946231943E+03 -0.40580199539E+03 -0.19088500010E+03  0.56246697595E+03  0.46999998093E+01 0.  1.
       -5    1    3    3    0  502 -0.33946231943E+03  0.40580199539E+03  0.14083791415E+04  0.15044812468E+04  0.46999998093E+01 0. -1.
</event>
<event>
 5   0  0.2288806E-04  0.1694750E+04  0.7818609E-02  0.8764364E-01
       -2   -1    0    0    0  501  0.00000000000E+00  0.00000000000E+00  0.12135314056E+04  0.12135314056E+04  0.25500000920E-02 0.  1.
        2   -1    0    0  501    0  0.00000000000E+00  0.00000000000E+00 -0.59169833599E+03  0.59169833599E+03  0.25500000920E-02 0. -1.
    10030    2    1    2    0    0  0.00000000000E+00  0.00000000000E+00  0.62183306961E+03  0.18052297416E+04  0.16947501449E+04 0.  0.
        3    1    3    3  502    0 -0.75409043190E+03  0.38183149984E+03  0.37479974346E+03  0.92462020941E+03  0.10100000352E+00 0. -1.
       -3    1    3    3    0  502  0.75409043190E+03 -0.38183149984E+03  0.24703332615E+03  0.88060953219E+03  0.10100000352E+00 0.  1.
</event>
<event>
 5   0  0.1234158E-04  0.1701605E+04  0.7818609E-02  0.8760449E-01
        1   -1    0    0  501    0  0.00000000000E+00  0.00000000000E+00  0.87892124713E+03  0.87892124715E+03  0.50400001928E-02 0. -1.
       -1   -1    0    0    0  501  0.00000000000E+00  0.00000000000E+00 -0.82358358062E+03  0.82358358063E+03  0.50400001928E-02 0.  1.
    10030    2    1    2    0    0  0.00000000000E+00  0.00000000000E+00  0.55337666517E+02  0.17025048278E+04  0.17016052513E+04 0.  0.
        5    1    3    3  502    0 -0.51078235128E+03 -0.63887694527E+03 -0.20650758017E+03  0.84364081945E+03  0.46999998093E+01 0. -1.
       -5    1    3    3    0  502  0.51078235128E+03  0.63887694527E+03  0.26184524669E+03  0.85886400832E+03  0.46999998093E+01 0.  1.
</event>
<event>
 5   0  0.2224454E-04  0.1704300E+04  0.7818609E-02  0.8758915E-01
        2   -1    0    0  501    0  0.00000000000E+00  0.00000000000E+00  0.74967159715E+03  0.74967159715E+03  0.25500000920E-02 0. -1.
       -2   -1    0    0    0  501  0.00000000000E+00  0.00000000000E+00 -0.96863740025E+03  0.96863740025E+03  0.25500000920E-02 0.  1.
    10030    2    1    2    0    0  0.00000000000E+00  0.00000000000E+00 -0.21896580310E+03  0.17183089974E+04  0.17043003807E+04 0.  0.
        2    1    3    3  502    0 -0.50000785830E+03 -0.48225580927E+03 -0.60707927301E+03  0.92256369301E+03  0.25500000920E-02 0.  1.
       -2    1    3    3    0  502  0.50000785830E+03  0.48225580927E+03  0.38811346991E+03  0.79574530440E+03  0.25500000920E-02 0. -1.
</event>
<event>
 5   0  0.1186302E-04  0.1685914E+04  0.7818609E-02  0.8769439E-01
       -1   -1    0    0    0  501  0.00000000000E+00  0.00000000000E+00  0.10573902240E+04  0.10573902240E+04  0.50400001928E-02 0.  1.
        1   -1    0    0  501    0  0.00000000000E+00  0.00000000000E+00 -0.67200987464E+03  0.67200987466E+03  0.50400001928E-02 0. -1.
    10030    2    1    2    0    0  0.00000000000E+00  0.00000000000E+00  0.38538034932E+03  0.17294000986E+04  0.16859141993E+04 0.  0.
        3    1    3    3  502    0  0.10825020554E+03 -0.82897974757E+03  0.81965583064E+02  0.84002612810E+03  0.10100000352E+00 0. -1.
       -3    1    3    3    0  502 -0.10825020554E+03  0.82897974757E+03  0.30341476625E+03  0.88937397053E+03  0.10100000352E+00 0.  1.
</event>
<event>
 5   0  0.1204741E-04  0.1594211E+04  0.7818609E-02  0.8824112E-01
        1   -1    0    0  501    0  0.00000000000E+00  0.00000000000E+00  0.10873756165E+04  0.10873756165E+04  0.50400001928E-02 0. -1.
       -1   -1    0    0    0  501  0.00000000000E+00  0.00000000000E+00 -0.58432164460E+03  0.58432164462E+03  0.50400001928E-02 0.  1.
    10030    2    1    2    0    0  0.00000000000E+00  0.00000000000E+00  0.50305397189E+03  0.16716972611E+04  0.15942109127E+04 0.  0.
        1    1    3    3  502    0  0.49786020518E+03 -0.42505387103E+03  0.72843072286E+03  0.97936045213E+03  0.50400001928E-02 0. -1.
       -1    1    3    3    0  502 -0.49786020518E+03  0.42505387103E+03 -0.22537675097E+03  0.69233680899E+03  0.50400001928E-02 0.  1.
</event>
<event>
 5   0  0.1126958E-04  0.1698977E+04  0.7818609E-02  0.8761948E-01
        1   -1    0    0  501    0  0.00000000000E+00  0.00000000000E+00  0.55448980350E+03  0.55448980352E+03  0.50400001928E-02 0. -1.
       -1   -1    0    0    0  501  0.00000000000E+00  0.00000000000E+00 -0.13014317130E+04  0.13014317130E+04  0.50400001928E-02 0.  1.
    10030    2    1    2    0    0  0.00000000000E+00  0.00000000000E+00 -0.74694190951E+03  0.18559215165E+04  0.16989768861E+04 0.  0.
        4    1    3    3  502    0 -0.42351253569E+03 -0.27515050380E+03  0.37267727365E+03  0.62766283212E+03  0.12699999809E+01 0. -1.
       -4    1    3    3    0  502  0.42351253569E+03  0.27515050380E+03 -0.11196191832E+04  0.12282586844E+04  0.12699999809E+01 0.  1.
</event>
<event>
 5   0  0.2242967E-04  0.1702120E+04  0.7818609E-02  0.8760156E-01
        2   -1    0    0  501    0  0.00000000000E+00  0.00000000000E+00  0.16815928999E+04  0.16815928999E+04  0.25500000920E-02 0.  1.
       -2   -1    0    0    0  501  0.00000000000E+00  0.00000000000E+00 -0.43072433464E+03  0.43072433464E+03  0.25500000920E-02 0. -1.
    10030    2    1    2    0    0  0.00000000000E+00  0.00000000000E+00  0.12508685653E+04  0.21123172346E+04  0.17021198347E+04 0.  0.
        4    1    3    3  502    0  0.11962378054E+03 -0.14346796784E+03  0.16558377590E+04  0.16663412627E+04  0.12699999809E+01 0.  1.
       -4    1    3    3    0  502 -0.11962378054E+03  0.14346796784E+03 -0.40496919376E+03  0.44597597184E+03  0.12699999809E+01 0. -1.
</event>
<event>
 5   0  0.1186302E-04  0.1709394E+04  0.7818609E-02  0.8756025E-01
        1   -1    0    0  501    0  0.00000000000E+00  0.00000000000E+00  0.18575248439E+04  0.18575248439E+04  0.50400001928E-02 0.  1.
       -1   -1    0    0    0  501  0.00000000000E+00  0.00000000000E+00 -0.39326884534E+03  0.39326884537E+03  0.50400001928E-02 0. -1.
    10030    2    1    2    0    0  0.00000000000E+00  0.00000000000E+00  0.14642559986E+04  0.22507936893E+04  0.17093936359E+04 0.  0.
        3    1    3    3  502    0 -0.30705338965E+03  0.17937347874E+02  0.17821274693E+04  0.18084750094E+04  0.10100000352E+00 0.  1.
       -3    1    3    3    0  502  0.30705338965E+03 -0.17937347874E+02 -0.31787147068E+03  0.44231867994E+03  0.10100000352E+00 0. -1.
</event>
<event>
 5   0  0.1234158E-04  0.1702166E+04  0.7818609E-02  0.8760130E-01
        1   -1    0    0  501    0  0.00000000000E+00  0.00000000000E+00  0.79085918456E+03  0.79085918458E+03  0.50400001928E-02 0.  1.
       -1   -1    0    0    0  501  0.00000000000E+00  0.00000000000E+00 -0.91589330987E+03  0.91589330989E+03  0.50400001928E-02 0. -1.
    10030    2    1    2    0    0  0.00000000000E+00  0.00000000000E+00 -0.12503412531E+03  0.17067524945E+04  0.17021664269E+04 0.  0.
        5    1    3    3  502    0 -0.58555520169E+03  0.23083620358E+02 -0.68136123905E+03  0.89871184249E+03  0.46999998093E+01 0. -1.
       -5    1    3    3    0  502  0.58555520169E+03 -0.23083620358E+02  0.55632711374E+03  0.80804065197E+03  0.46999998093E+01 0.  1.
</event>
<event>
 5   0  0.1126958E-04  0.1709043E+04  0.7818609E-02  0.8756224E-01
       -1   -1    0    0    0  501  0.00000000000E+00  0.00000000000E+00  0.41850642926E+03  0.41850642929E+03  0.50400001928E-02 0.  1.
        1   -1    0    0  501    0  0.00000000000E+00  0.00000000000E+00 -0.17447927959E+04  0.17447927959E+04  0.50400001928E-02 0. -1.
    10030    2    1    2    0    0  0.00000000000E+00  0.00000000000E+00 -0.13262863666E+04  0.21632992252E+04  0.17090430104E+04 0.  0.
        4    1    3    3  502    0 -0.33338497158E+03 -0.42008496912E+02 -0.16576551885E+04  0.16913700334E+04  0.12699999809E+01 0. -1.
       -4    1    3    3    0  502  0.33338497158E+03  0.42008496912E+02  0.33136882184E+03  0.47192919180E+03  0.12699999809E+01 0.  1.
</event>
<event>
 5   0  0.2224454E-04  0.1714788E+04  0.7818609E-02  0.8752975E-01
       -2   -1    0    0    0  501  0.00000000000E+00  0.00000000000E+00  0.63726566427E+03  0.63726566428E+03  0.25500000920E-02 0. -1.
        2   -1    0    0  501    0  0.00000000000E+00  0.00000000000E+00 -0.11535600202E+04  0.11535600202E+04  0.25500000920E-02 0.  1.
    10030    2    1    2    0    0  0.00000000000E+00  0.00000000000E+00 -0.51629435588E+03  0.17908256844E+04  0.17147876749E+04 0.  0.
        2    1    3    3  502    0  0.70475385683E+02  0.66785011767E+03 -0.81482546631E+03  0.10559029786E+04  0.25500000920E-02 0.  1.
       -2    1    3    3    0  502 -0.70475385683E+02 -0.66785011767E+03  0.29853111043E+03  0.73492270584E+03  0.25500000920E-02 0. -1.
</event>
<event>
 5   0  0.2242967E-04  0.1698232E+04  0.7818609E-02  0.8762373E-01
        2   -1    0    0  501    0  0.00000000000E+00  0.00000000000E+00  0.80097005907E+03  0.80097005908E+03  0.25500000920E-02 0. -1.
       -2   -1    0    0    0  501  0.00000000000E+00  0.00000000000E+00 -0.90015570706E+03  0.90015570706E+03  0.25500000920E-02 0.  1.
    10030    2    1    2    0    0  0.00000000000E+00  0.00000000000E+00 -0.99185647982E+02  0.17011257661E+04  0.16982317508E+04 0.  0.
        4    1    3    3  502    0 -0.24590392342E+02 -0.77229764075E+03 -0.40225502943E+03  0.87112516604E+03  0.12699999809E+01 0.  1.
       -4    1    3    3    0  502  0.24590392342E+02  0.77229764075E+03  0.30306938145E+03  0.83000060010E+03  0.12699999809E+01 0. -1.
</event>
<event>
 5   0  0.2242967E-04  0.1695769E+04  0.7818609E-02  0.8763781E-01
       -2   -1    0    0    0  501  0.00000000000E+00  0.00000000000E+00  0.95773168719E+03  0.95773168719E+03  0.25500000920E-02 0.  1.
        2   -1    0    0  501    0  0.00000000000E+00  0.00000000000E+00 -0.75063641540E+03  0.75063641541E+03  0.25500000920E-02 0. -1.
    10030    2    1    2    0    0  0.00000000000E+00  0.00000000000E+00  0.20709527179E+03  0.17083681026E+04  0.16957691831E+04 0.  0.
        4    1    3    3  502    0 -0.78103306908E+03 -0.32754490287E+03  0.14394982561E+03  0.85908176769E+03  0.12699999809E+01 0. -1.
       -4    1    3    3    0  502  0.78103306908E+03  0.32754490287E+03  0.63145446173E+02  0.84928633491E+03  0.12699999809E+01 0.  1.
</event>
<event>
 5   0  0.1126958E-04  0.1698721E+04  0.7818609E-02  0.8762094E-01
        1   -1    0    0  501    0  0.00000000000E+00  0.00000000000E+00  0.10214098503E+04  0.10214098503E+04  0.50400001928E-02 0.  1.
       -1   -1    0    0    0  501  0.00000000000E+00  0.00000000000E+00 -0.70629194684E+03  0.70629194685E+03  0.50400001928E-02 0. -1.
    10030    2    1    2    0    0  0.00000000000E+00  0.00000000000E+00  0.31511790348E+03  0.17277017972E+04  0.16987213447E+04 0.  0.
        4    1    3    3  502    0  0.64859336462E+03  0.54221034944E+03  0.74020456317E+02  0.84861419769E+03  0.12699999809E+01 0.  1.
       -4    1    3    3    0  502 -0.64859336462E+03 -0.54221034944E+03  0.24109744717E+03  0.87908759950E+03  0.12699999809E+01 0. -1.
</event>
<event>
 5   0  0.2224454E-04  0.1692409E+04  0.7818609E-02  0.8765706E-01
       -2   -1    0    0    0  501  0.00000000000E+00  0.00000000000E+00  0.44429735767E+03  0.44429735768E+03  0.25500000920E-02 0. -1.
        2   -1    0    0  501    0  0.00000000000E+00  0.00000000000E+00 -0.16116727094E+04  0.16116727094E+04  0.25500000920E-02 0.  1.
    10030    2    1    2    0    0  0.00000000000E+00  0.00000000000E+00 -0.11673753517E+04  0.20559700671E+04  0.16924088468E+04 0.  0.
        2    1    3    3  502    0 -0.57790574805E+03  0.47487448965E+03 -0.10297988716E+03  0.75504019212E+03  0.25500000920E-02 0. -1.
       -2    1    3    3    0  502  0.57790574805E+03 -0.47487448965E+03 -0.10643954645E+04  0.13009298749E+04  0.25500000920E-02 0.  1.
</event>
<event>
 5   0  0.2242967E-04  0.1700430E+04  0.7818609E-02  0.8761119E-01
       -2   -1    0    0    0  501  0.00000000000E+00  0.00000000000E+00  0.29140469281E+03  0.29140469282E+03  0.25500000920E-02 0. -1.
        2   -1    0    0  501    0  0.00000000000E+00  0.00000000000E+00 -0.24806228239E+04  0.24806228239E+04  0.25500000920E-02 0.  1.
    10030    2    1    2    0    0  0.00000000000E+00  0.00000000000E+00 -0.21892181311E+04  0.27720275167E+04  0.17004295128E+04 0.  0.
        4    1    3    3  502    0 -0.18422297557E+03 -0.51812867242E+03 -0.37534981043E+02  0.55118591565E+03  0.12699999809E+01 0. -1.
       -4    1    3    3    0  502  0.18422297557E+03  0.51812867242E+03 -0.21516831500E+04  0.22208416010E+04  0.12699999809E+01 0.  1.
</event>
<event>
 5   0  0.2356829E-04  0.1705057E+04  0.7818609E-02  0.8758485E-01
       -2   -1    0    0    0  501  0.00000000000E+00  0.00000000000E+00  0.41579391041E+03  0.41579391042E+03  0.25500000920E-02 0. -1.
        2   -1    0    0  501    0  0.00000000000E+00  0.00000000000E+00 -0.17479932486E+04  0.17479932486E+04  0.25500000920E-02 0.  1.
    10030    2    1    2    0    0  0.00000000000E+00  0.00000000000E+00 -0.13321993382E+04  0.21637871590E+04  0.17050571230E+04 0.  0.
        5    1    3    3  502    0 -0.45311773520E+03 -0.12597639359E+03  0.23625631643E+03  0.52633152171E+03  0.46999998093E+01 0. -1.
       -5    1    3    3    0  502  0.45311773520E+03  0.12597639359E+03 -0.15684556546E+04  0.16374556373E+04  0.46999998093E+01 0.  1.
</event>
<event>
 5   0  0.8372750E-05  0.1706182E+04  0.7818609E-02  0.8757846E-01
        4   -1    0    0  501    0  0.00000000000E+00  0.00000000000E+00  0.66112229559E+03  0.66112351541E+03  0.12699999809E+01 0. -1.
       -4   -1    0    0    0  501  0.00000000000E+00  0.00000000000E+00 -0.11007990114E+04  0.11007997440E+04  0.12699999809E+01 0.  1.
    10030    2    1    2    0    0  0.00000000000E+00  0.00000000000E+00 -0.43967671582E+03  0.17619232594E+04  0.17061822756E+04 0.  0.
        1    1    3    3  502    0 -0.41315377215E+02  0.63847437976E+03  0.36287308292E+03  0.73554970487E+03  0.50400001928E-02 0. -1.
       -1    1    3    3    0  502  0.41315377215E+02 -0.63847437976E+03 -0.80254979875E+03  0.10263735546E+04  0.50400001928E-02 0.  1.
</event>
<event>
 5   0  0.2288806E-04  0.1705323E+04  0.7818609E-02  0.8758334E-01
        2   -1    0    0  501    0  0.00000000000E+00  0.00000000000E+00  0.79586622364E+03  0.79586622364E+03  0.25500000920E-02 0. -1.
       -2   -1    0    0    0  501  0.00000000000E+00  0.00000000000E+00 -0.91351008828E+03  0.91351008829E+03  0.25500000920E-02 0.  1.
    10030    2    1    2    0    0  0.00000000000E+00  0.00000000000E+00 -0.11764386464E+03  0.17093763119E+04  0.17053232236E+04 0.  0.
        3    1    3    3  502    0 -0.75269630272E+03 -0.23812114607E+03 -0.38173415242E+03  0.87691184144E+03  0.10100000352E+00 0.  1.
       -3    1    3    3    0  502  0.75269630272E+03  0.23812114607E+03  0.26409028777E+03  0.83246447049E+03  0.10100000352E+00 0. -1.
</event>
<event>
 5   0  0.1234158E-04  0.1643263E+04  0.7818609E-02  0.8794402E-01
       -1   -1    0    0    0  501  0.00000000000E+00  0.00000000000E+00  0.77059317829E+03  0.77059317831E+03  0.50400001928E-02 0. -1.
        1   -1    0    0  501    0  0.00000000000E+00  0.00000000000E+00 -0.87604981364E+03  0.87604981366E+03  0.50400001928E-02 0.  1.
    10030    2    1    2    0    0  0.00000000000E+00  0.00000000000E+00 -0.10545663535E+03  0.16466429920E+04  0.16432626208E+04 0.  0.
        5    1    3    3  502    0 -0.49172627420E+03 -0.44470591659E+03 -0.53900779032E+03  0.85446449254E+03  0.46999998093E+01 0.  1.
       -5    1    3    3    0  502  0.49172627420E+03  0.44470591659E+03  0.43355115497E+03  0.79217849943E+03  0.46999998093E+01 0. -1.
</event>
<event>
 5   0  0.1215233E-04  0.1719137E+04  0.7818609E-02  0.8750525E-01
       -1   -1    0    0    0  501  0.00000000000E+00  0.00000000000E+00  0.36086769555E+03  0.36086769559E+03  0.50400001928E-02 0.  1.
        1   -1    0    0  501    0  0.00000000000E+00  0.00000000000E+00 -0.20474483033E+04  0.20474483033E+04  0.50400001928E-02 0. -1.
    10030    2    1    2    0    0  0.00000000000E+00  0.00000000000E+00 -0.16865806077E+04  0.24083159989E+04  0.17191369358E+04 0.  0.
        2    1    3    3  502    0 -0.29148247565E+03  0.37740977472E+03 -0.18451522795E+04  0.19057772971E+04  0.25500000920E-02 0. -1.
       -2    1    3    3    0  502  0.29148247565E+03 -0.37740977472E+03  0.15857167177E+03  0.50253870176E+03  0.25500000920E-02 0.  1.
</event>
<event>
 5   0  0.2234723E-04  0.1697452E+04  0.7818609E-02  0.8762819E-01
       -2   -1    0    0    0  501  0.00000000000E+00  0.00000000000E+00  0.51632202739E+03  0.51632202740E+03  0.25500000920E-02 0. -1.
        2   -1    0    0  501    0  0.00000000000E+00  0.00000000000E+00 -0.13951293823E+04  0.13951293823E+04  0.25500000920E-02 0.  1.
    10030    2    1    2    0    0  0.00000000000E+00  0.00000000000E+00 -0.87880735487E+03  0.19114514097E+04  0.16974522451E+04 0.  0.
        1    1    3    3  502    0  0.49184206166E+03 -0.24458959109E+03  0.28915921364E+03  0.62076221901E+03  0.50400001928E-02 0. -1.
       -1    1    3    3    0  502 -0.49184206166E+03  0.24458959109E+03 -0.11679665685E+04  0.12906891907E+04  0.50400001928E-02 0.  1.
</event>
<event>
 5   0  0.1126958E-04  0.1744466E+04  0.7818609E-02  0.8736402E-01
       -1   -1    0    0    0  501  0.00000000000E+00  0.00000000000E+00  0.72330932316E+03  0.72330932317E+03  0.50400001928E-02 0.  1.
        1   -1    0    0  501    0  0.00000000000E+00  0.00000000000E+00 -0.10518193751E+04  0.10518193751E+04  0.50400001928E-02 0. -1.
    10030    2    1    2    0    0  0.00000000000E+00  0.00000000000E+00 -0.32851005192E+03  0.17751286983E+04  0.17444664059E+04 0.  0.
        4    1    3    3  502    0 -0.79558328206E+03 -0.19145405798E+03  0.14301567731E+03  0.83070001316E+03  0.12699999809E+01 0.  1.
       -4    1    3    3    0  502  0.79558328206E+03  0.19145405798E+03 -0.47152572922E+03  0.94442868510E+03  0.12699999809E+01 0. -1.
</event>
<event>
 5   0  0.2288806E-04  0.1694719E+04  0.7818609E-02  0.8764382E-01
        2   -1    0    0  501    0  0.00000000000E+00  0.00000000000E+00  0.12506275570E+04  0.12506275570E+04  0.25500000920E-02 0.  1.
       -2   -1    0    0    0  501  0.00000000000E+00  0.00000000000E+00 -0.57412647813E+03  0.57412647813E+03  0.25500000920E-02 0. -1.
    10030    2    1    2    0    0  0.00000000000E+00  0.00000000000E+00  0.67650107887E+03  0.18247540351E+04  0.16947193216E+04 0.  0.
        3    1    3    3  502    0  0.31114018495E+03  0.76028395685E+03  0.56198877080E+03  0.99532472010E+03  0.10100000352E+00 0.  1.
       -3    1    3    3    0  502 -0.31114018495E+03 -0.76028395685E+03  0.11451230806E+03  0.82942931503E+03  0.10100000352E+00 0. -1.
</event>
<event>
 5   0  0.1234158E-04  0.1754934E+04  0.7818609E-02  0.8730639E-01
       -1   -1    0    0    0  501  0.00000000000E+00  0.00000000000E+00  0.43644761208E+03  0.43644761211E+03  0.50400001928E-02 0.  1.
        1   -1    0    0  501    0  0.00000000000E+00  0.00000000000E+00 -0.17641249724E+04  0.17641249724E+04  0.50400001928E-02 0. -1.
    10030    2    1    2    0    0  0.00000000000E+00  0.00000000000E+00 -0.13276773604E+04  0.22005725845E+04  0.17549337670E+04 0.  0.
        5    1    3    3  502    0 -0.12706025825E+03  0.55346362468E+03 -0.15026261899E+04  0.16063542105E+04  0.46999998093E+01 0. -1.
       -5    1    3    3    0  502  0.12706025825E+03 -0.55346362468E+03  0.17494882954E+03  0.59421837403E+03  0.46999998093E+01 0.  1.
</event>
<event>
 5   0  0.1186302E-04  0.1692937E+04  0.7818609E-02  0.8765403E-01
       -1   -1    0    0    0  501  0.00000000000E+00  0.00000000000E+00  0.64584815449E+03  0.64584815451E+03  0.50400001928E-02 0. -1.
        1   -1    0    0  501    0  0.00000000000E+00  0.00000000000E+00 -0.11094075756E+04  0.11094075756E+04  0.50400001928E-02 0.  1.
    10030    2    1    2    0    0  0.00000000000E+00  0.00000000000E+00 -0.46355942110E+03  0.17552557301E+04  0.16929368982E+04 0.  0.
        3    1    3    3  502    0 -0.70670184092E+03  0.43012794338E+03 -0.41745658311E+03  0.92666474446E+03  0.10100000352E+00 0. -1.
       -3    1    3    3    0  502  0.70670184092E+03 -0.43012794338E+03 -0.46102837990E+02  0.82859098565E+03  0.10100000352E+00 0.  1.
</event>
<event>
 5   0  0.8372750E-05  0.1696234E+04  0.7818609E-02  0.8763515E-01
        3   -1    0    0  501    0  0.00000000000E+00  0.00000000000E+00  0.54321107352E+03  0.54321108291E+03  0.10100000352E+00 0.  1.
       -3   -1    0    0    0  501  0.00000000000E+00  0.00000000000E+00 -0.13241680235E+04  0.13241680274E+04  0.10100000352E+00 0. -1.
    10030    2    1    2    0    0  0.00000000000E+00  0.00000000000E+00 -0.78095695003E+03  0.18673791103E+04  0.16962343540E+04 0.  0.
        1    1    3    3  502    0 -0.77216438699E+03 -0.35063791270E+03 -0.37852172318E+03  0.92868911984E+03  0.50400001928E-02 0.  1.
       -1    1    3    3    0  502  0.77216438699E+03  0.35063791270E+03 -0.40243522684E+03  0.93868999046E+03  0.50400001928E-02 0. -1.
</event>
<event>
 5   0  0.2224454E-04  0.1690101E+04  0.7818609E-02  0.8767031E-01
       -2   -1    0    0    0  501  0.00000000000E+00  0.00000000000E+00  0.74400634594E+03  0.74400634594E+03  0.25500000920E-02 0. -1.
        2   -1    0    0  501    0  0.00000000000E+00  0.00000000000E+00 -0.95981708142E+03  0.95981708142E+03  0.25500000920E-02 0.  1.
    10030    2    1    2    0    0  0.00000000000E+00  0.00000000000E+00 -0.21581073548E+03  0.17038234274E+04  0.16901005882E+04 0.  0.
        2    1    3    3  502    0  0.79364872118E+03  0.25502921268E+03 -0.24756470365E+03  0.86960133076E+03  0.25500000920E-02 0.  1.
       -2    1    3    3    0  502 -0.79364872118E+03 -0.25502921268E+03  0.31753968168E+02  0.83422209660E+03  0.25500000920E-02 0. -1.
</event>
<event>
 5   0  0.2356829E-04  0.1706337E+04  0.7818609E-02  0.8757758E-01
       -2   -1    0    0    0  501  0.00000000000E+00  0.00000000000E+00  0.62459418113E+03  0.62459418113E+03  0.25500000920E-02 0. -1.
        2   -1    0    0  501    0  0.00000000000E+00  0.00000000000E+00 -0.11653912313E+04  0.11653912313E+04  0.25500000920E-02 0.  1.
    10030    2    1    2    0    0  0.00000000000E+00  0.00000000000E+00 -0.54079705020E+03  0.17899854125E+04  0.17063371084E+04 0.  0.
        5    1    3    3  502    0 -0.61490516025E+03  0.43672037170E+03 -0.68874857295E+03  0.10213861786E+04  0.46999998093E+01 0. -1.
       -5    1    3    3    0  502  0.61490516025E+03 -0.43672037170E+03  0.14795152275E+03  0.76859923383E+03  0.46999998093E+01 0.  1.
</event>
<event>
 5   0  0.1126958E-04  0.1688686E+04  0.7818609E-02  0.8767843E-01
       -1   -1    0    0    0  501  0.00000000000E+00  0.00000000000E+00  0.34050879762E+03  0.34050879765E+03  0.50400001928E-02 0. -1.
        1   -1    0    0  501    0  0.00000000000E+00  0.00000000000E+00 -0.20936769471E+04  0.20936769471E+04  0.50400001928E-02 0.  1.
    10030    2    1    2    0    0  0.00000000000E+00  0.00000000000E+00 -0.17531681495E+04  0.24341857448E+04  0.16886863769E+04 0.  0.
        4    1    3    3  502    0  0.68621545162E+03  0.49193866605E+03 -0.87038244403E+03  0.12126262858E+04  0.12699999809E+01 0.  1.
       -4    1    3    3    0  502 -0.68621545162E+03 -0.49193866605E+03 -0.88278570550E+03  0.12215594590E+04  0.12699999809E+01 0. -1.
</event>
<event>
 5   0  0.2242967E-04  0.1721175E+04  0.7818609E-02  0.8749379E-01
        2   -1    0    0  501    0  0.00000000000E+00  0.00000000000E+00  0.10765707902E+04  0.10765707902E+04  0.25500000920E-02 0. -1.
       -2   -1    0    0    0  501  0.00000000000E+00  0.00000000000E+00 -0.68793486078E+03  0.68793486079E+03  0.25500000920E-02 0.  1.
    10030    2    1    2    0    0  0.00000000000E+00  0.00000000000E+00  0.38863592938E+03  0.17645056509E+04  0.17211746880E+04 0.  0.
        4    1    3    3  502    0  0.39484173055E+03 -0.33675879863E+03 -0.50947993569E+03  0.72723991806E+03  0.12699999809E+01 0.  1.
       -4    1    3    3    0  502 -0.39484173055E+03  0.33675879863E+03  0.89811586507E+03  0.10372657329E+04  0.12699999809E+01 0. -1.
</event>
<event>
 5   0  0.1234158E-04  0.1702845E+04  0.7818609E-02  0.8759743E-01
       -1   -1    0    0    0  501  0.00000000000E+00  0.00000000000E+00  0.73251389830E+03  0.73251389832E+03  0.50400001928E-02 0. -1.
        1   -1    0    0  501    0  0.00000000000E+00  0.00000000000E+00 -0.98963380971E+03  0.98963380973E+03  0.50400001928E-02 0.  1.
    10030    2    1    2    0    0  0.00000000000E+00  0.00000000000E+00 -0.25711991141E+03  0.17221477080E+04  0.17028452894E+04 0.  0.
        5    1    3    3  502    0 -0.36215998239E+03  0.31840680500E+03 -0.83819439408E+03  0.96702361842E+03  0.46999998093E+01 0.  1.
       -5    1    3    3    0  502  0.36215998239E+03 -0.31840680500E+03  0.58107448268E+03  0.75512408962E+03  0.46999998093E+01 0. -1.
</event>
<event>
 5   0  0.2224454E-04  0.1715708E+04  0.7818609E-02  0.8752456E-01
        2   -1    0    0  501    0  0.00000000000E+00  0.00000000000E+00  0.12657892918E+04  0.12657892918E+04  0.25500000920E-02 0.  1.
       -2   -1    0    0    0  501  0.00000000000E+00  0.00000000000E+00 -0.58138704712E+03  0.58138704713E+03  0.25500000920E-02 0. -1.
    10030    2    1    2    0    0  0.00000000000E+00  0.00000000000E+00  0.68440224468E+03  0.18471763389E+04  0.17157080155E+04 0.  0.
        2    1    3    3  502    0  0.49812416641E+03  0.24688057508E+03 -0.36118758753E+03  0.66297373772E+03  0.25500000920E-02 0. -1.
       -2    1    3    3    0  502 -0.49812416641E+03 -0.24688057508E+03  0.10455898322E+04  0.11842026012E+04  0.25500000920E-02 0.  1.
</event>
<event>
 5   0  0.2288806E-04  0.1698835E+04  0.7818609E-02  0.8762029E-01
        2   -1    0    0  501    0  0.00000000000E+00  0.00000000000E+00  0.14623433083E+04  0.14623433083E+04  0.25500000920E-02 0.  1.
       -2   -1    0    0    0  501  0.00000000000E+00  0.00000000000E+00 -0.49339280382E+03  0.49339280383E+03  0.25500000920E-02 0. -1.
    10030    2    1    2    0    0  0.00000000000E+00  0.00000000000E+00  0.96895050448E+03  0.19557361121E+04  0.16988345005E+04 0.  0.
        3    1    3    3  502    0 -0.72963456367E+02 -0.34529209418E+03 -0.40499528123E+03  0.53718849977E+03  0.10100000352E+00 0. -1.
       -3    1    3    3    0  502  0.72963456367E+02  0.34529209418E+03  0.13739457857E+04  0.14185476124E+04  0.10100000352E+00 0.  1.
</event>
<event>
 5   0  0.1215233E-04  0.1697966E+04  0.7818609E-02  0.8762525E-01
       -1   -1    0    0    0  501  0.00000000000E+00  0.00000000000E+00  0.62440296241E+03  0.62440296243E+03  0.50400001928E-02 0.  1.
        1   -1    0    0  501    0  0.00000000000E+00  0.00000000000E+00 -0.11543381288E+04  0.11543381288E+04  0.50400001928E-02 0. -1.
    10030    2    1    2    0    0  0.00000000000E+00  0.00000000000E+00 -0.52993516643E+03  0.17787410913E+04  0.16979660153E+04 0.  0.
        2    1    3    3  502    0 -0.58712996500E+03 -0.58843746774E+03 -0.44578190673E+03  0.94324003182E+03  0.25500000920E-02 0. -1.
       -2    1    3    3    0  502  0.58712996500E+03  0.58843746774E+03 -0.84153259694E+02  0.83550105946E+03  0.25500000920E-02 0.  1.
</event>
<event>
 5   0  0.1234158E-04  0.1713040E+04  0.7818609E-02  0.8753962E-01
        1   -1    0    0  501    0  0.00000000000E+00  0.00000000000E+00  0.60930548988E+03  0.60930548990E+03  0.50400001928E-02 0.  1.
       -1   -1    0    0    0  501  0.00000000000E+00  0.00000000000E+00 -0.12040378679E+04  0.12040378679E+04  0.50400001928E-02 0. -1.
    10030    2    1    2    0    0  0.00000000000E+00  0.00000000000E+00 -0.59473237802E+03  0.18133433578E+04  0.17130404350E+04 0.  0.
        5    1    3    3  502    0 -0.11886112398E+03 -0.10921690181E+03  0.59304485329E+03  0.61463858197E+03  0.46999998093E+01 0.  1.
       -5    1    3    3    0  502  0.11886112398E+03  0.10921690181E+03 -0.11877772313E+04  0.11987047758E+04  0.46999998093E+01 0. -1.
</event>
<event>
 5   0  0.2288806E-04  0.1690574E+04  0.7818609E-02  0.8766759E-01
       -2   -1    0    0    0  501  0.00000000000E+00  0.00000000000E+00  0.38325873693E+03  0.38325873694E+03  0.25500000920E-02 0.  1.
        2   -1    0    0  501    0  0.00000000000E+00  0.00000000000E+00 -0.18643023623E+04  0.18643023623E+04  0.25500000920E-02 0. -1.
    10030    2    1    2    0    0  0.00000000000E+00  0.00000000000E+00 -0.14810436254E+04  0.22475610993E+04  0.16905740666E+04 0.  0.
        3    1    3    3  502    0  0.38711180985E+03  0.68588017213E+03 -0.33243199797E+03  0.85486736241E+03  0.10100000352E+00 0.  1.
       -3    1    3    3    0  502 -0.38711180985E+03 -0.68588017213E+03 -0.11486116274E+04  0.13926937369E+04  0.10100000352E+00 0. -1.
</event>
<event>
 5   0  0.2288806E-04  0.1699241E+04  0.7818609E-02  0.8761798E-01
       -2   -1    0    0    0  501  0.00000000000E+00  0.00000000000E+00  0.33424389837E+03  0.33424389838E+03  0.25500000920E-02 0. -1.
        2   -1    0    0  501    0  0.00000000000E+00  0.00000000000E+00 -0.21596644426E+04  0.21596644426E+04  0.25500000920E-02 0.  1.
    10030    2    1    2    0    0  0.00000000000E+00  0.00000000000E+00 -0.18254205443E+04  0.24939083410E+04  0.16992406098E+04 0.  0.
        3    1    3    3  502    0  0.37180972429E+03 -0.52991569792E+03 -0.10509477332E+03  0.65581860263E+03  0.10100000352E+00 0. -1.
       -3    1    3    3    0  502 -0.37180972429E+03  0.52991569792E+03 -0.17203257709E+04  0.18380897384E+04  0.10100000352E+00 0.  1.
</event>
<event>
 5   0  0.2224454E-04  0.1736196E+04  0.7818609E-02  0.8740985E-01
       -2   -1    0    0    0  501  0.00000000000E+00  0.00000000000E+00  0.11205124301E+04  0.11205124301E+04  0.25500000920E-02 0. -1.
        2   -1    0    0  501    0  0.00000000000E+00  0.00000000000E+00 -0.67254456815E+03  0.67254456815E+03  0.25500000920E-02 0.  1.
    10030    2    1    2    0    0  0.00000000000E+00  0.00000000000E+00  0.44796786194E+03  0.17930569982E+04  0.17361964732E+04 0.  0.
        2    1    3    3  502    0 -0.54616797280E+01 -0.55740126028E+03  0.91126225571E+03  0.10682344750E+04  0.25500000920E-02 0. -1.
       -2    1    3    3    0  502  0.54616797280E+01  0.55740126028E+03 -0.46329439376E+03  0.72482252324E+03  0.25500000920E-02 0.  1.
</event>
<event>
 5   0  0.1204741E-04  0.1701611E+04  0.7818609E-02  0.8760446E-01
       -1   -1    0    0    0  501  0.00000000000E+00  0.00000000000E+00  0.34203130287E+03  0.34203130291E+03  0.50400001928E-02 0. -1.
        1   -1    0    0  501    0  0.00000000000E+00  0.00000000000E+00 -0.21163842428E+04  0.21163842428E+04  0.50400001928E-02 0.  1.
    10030    2    1    2    0    0  0.00000000000E+00  0.00000000000E+00 -0.17743529399E+04  0.24584155457E+04  0.17016106017E+04 0.  0.
        1    1    3    3  502    0  0.45624550836E+03 -0.66873029492E+02  0.14583833167E+03  0.48363290312E+03  0.50400001928E-02 0. -1.
       -1    1    3    3    0  502 -0.45624550836E+03  0.66873029492E+02 -0.19201912716E+04  0.19747826426E+04  0.50400001928E-02 0.  1.
</event>
<event>
 5   0  0.2242967E-04  0.1794113E+04  0.7818609E-02  0.8709436E-01
       -2   -1    0    0    0  501  0.00000000000E+00  0.00000000000E+00  0.51861075526E+03  0.51861075526E+03  0.25500000920E-02 0. -1.
        2   -1    0    0  501    0  0.00000000000E+00  0.00000000000E+00 -0.15516654234E+04  0.15516654234E+04  0.25500000920E-02 0.  1.
    10030    2    1    2    0    0  0.00000000000E+00  0.00000000000E+00 -0.10330546682E+04  0.20702761787E+04  0.17941130145E+04 0.  0.
        4    1    3    3  502    0 -0.85218133154E+03  0.28006367873E+03 -0.50758322156E+03  0.10306750340E+04  0.12699999809E+01 0.  1.
       -4    1    3    3    0  502  0.85218133154E+03 -0.28006367873E+03 -0.52547144662E+03  0.10396011447E+04  0.12699999809E+01 0. -1.
</event>
<event>
 5   0  0.2288806E-04  0.1697961E+04  0.7818609E-02  0.8762528E-01
        2   -1    0    0  501    0  0.00000000000E+00  0.00000000000E+00  0.24888837242E+04  0.24888837242E+04  0.25500000920E-02 0. -1.
       -2   -1    0    0    0  501  0.00000000000E+00  0.00000000000E+00 -0.28959475245E+03  0.28959475246E+03  0.25500000920E-02 0.  1.
    10030    2    1    2    0    0  0.00000000000E+00  0.00000000000E+00  0.21992889717E+04  0.27784784766E+04  0.16979607369E+04 0.  0.
        3    1    3    3  502    0 -0.75846529866E+03  0.20711376404E+03  0.57549257961E+03  0.97434975236E+03  0.10100000352E+00 0. -1.
       -3    1    3    3    0  502  0.75846529866E+03 -0.20711376404E+03  0.16237963921E+04  0.18041287243E+04  0.10100000352E+00 0.  1.
</event>
<event>
 5   0  0.1215233E-04  0.1697568E+04  0.7818609E-02  0.8762752E-01
        1   -1    0    0  501    0  0.00000000000E+00  0.00000000000E+00  0.91960766955E+03  0.91960766956E+03  0.50400001928E-02 0. -1.
       -1   -1    0    0    0  501  0.00000000000E+00  0.00000000000E+00 -0.78341513192E+03  0.78341513194E+03  0.50400001928E-02 0.  1.
    10030    2    1    2    0    0  0.00000000000E+00  0.00000000000E+00  0.13619253763E+03  0.17030228015E+04  0.16975683359E+04 0.  0.
        2    1    3    3  502    0  0.52765851614E+03  0.17797585741E+03  0.71072896934E+03  0.90290341862E+03  0.25500000920E-02 0. -1.
       -2    1    3    3    0  502 -0.52765851614E+03 -0.17797585741E+03 -0.57453643172E+03  0.80011938288E+03  0.25500000920E-02 0.  1.
</event>
<event>
 5   0  0.1204741E-04  0.1697272E+04  0.7818609E-02  0.8762922E-01
        1   -1    0    0  501    0  0.00000000000E+00  0.00000000000E+00  0.10488241302E+04  0.10488241302E+04  0.50400001928E-02 0. -1.
       -1   -1    0    0    0  501  0.00000000000E+00  0.00000000000E+00 -0.68665756728E+03  0.68665756730E+03  0.50400001928E-02 0.  1.
    10030    2    1    2    0    0  0.00000000000E+00  0.00000000000E+00  0.36216656290E+03  0.17354816975E+04  0.16972719591E+04 0.  0.
        1    1    3    3  502    0  0.40052662810E+03 -0.33840251455E+03  0.86337204186E+03  0.10101233214E+04  0.50400001928E-02 0. -1.
       -1    1    3    3    0  502 -0.40052662810E+03  0.33840251455E+03 -0.50120547896E+03  0.72535837614E+03  0.50400001928E-02 0.  1.
</event>
<event>
 5   0  0.2234723E-04  0.1683545E+04  0.7818609E-02  0.8770805E-01
        2   -1    0    0  501    0  0.00000000000E+00  0.00000000000E+00  0.34239924610E+03  0.34239924611E+03  0.25500000920E-02 0.  1.
       -2   -1    0    0    0  501  0.00000000000E+00  0.00000000000E+00 -0.20694574264E+04  0.20694574264E+04  0.25500000920E-02 0. -1.
    10030    2    1    2    0    0  0.00000000000E+00  0.00000000000E+00 -0.17270581803E+04  0.24118566725E+04  0.16835446684E+04 0.  0.
        1    1    3    3  502    0  0.27013514960E+03  0.78134575006E+03 -0.10905259173E+04  0.13684739517E+04  0.50400001928E-02 0.  1.
       -1    1    3    3    0  502 -0.27013514960E+03 -0.78134575006E+03 -0.63653226299E+03  0.10433827208E+04  0.50400001928E-02 0. -1.
</event>
<event>
 5   0  0.1234158E-04  0.1689510E+04  0.7818609E-02  0.8767370E-01
       -1   -1    0    0    0  501  0.00000000000E+00  0.00000000000E+00  0.38761585327E+03  0.38761585330E+03  0.50400001928E-02 0. -1.
        1   -1    0    0  501    0  0.00000000000E+00  0.00000000000E+00 -0.18410254119E+04  0.18410254119E+04  0.50400001928E-02 0.  1.
    10030    2    1    2    0    0  0.00000000000E+00  0.00000000000E+00 -0.14534095586E+04  0.22286412652E+04  0.16895095572E+04 0.  0.
        5    1    3    3  502    0 -0.53545988987E+02 -0.84110615463E+03 -0.65136769250E+03  0.10651895123E+04  0.46999998093E+01 0. -1.
       -5    1    3    3    0  502  0.53545988987E+02  0.84110615463E+03 -0.80204186613E+03  0.11634517529E+04  0.46999998093E+01 0.  1.
</event>
<event>
 5   0  0.1126958E-04  0.1686093E+04  0.7818609E-02  0.8769336E-01
       -1   -1    0    0    0  501  0.00000000000E+00  0.00000000000E+00  0.14147263336E+04  0.14147263336E+04  0.50400001928E-02 0. -1.
        1   -1    0    0  501    0  0.00000000000E+00  0.00000000000E+00 -0.50237776804E+03  0.50237776806E+03  0.50400001928E-02 0.  1.
    10030    2    1    2    0    0  0.00000000000E+00  0.00000000000E+00  0.91234856552E+03  0.19171041016E+04  0.16860925928E+04 0.  0.
        4    1    3    3  502    0 -0.25968071135E+03 -0.59646412865E+03  0.10658512006E+04  0.12486968901E+04  0.12699999809E+01 0. -1.
       -4    1    3    3    0  502  0.25968071135E+03  0.59646412865E+03 -0.15350263504E+03  0.66840721157E+03  0.12699999809E+01 0.  1.
</event>
<event>
 5   0  0.2288806E-04  0.1699760E+04  0.7818609E-02  0.8761501E-01
        2   -1    0    0  501    0  0.00000000000E+00  0.00000000000E+00  0.13397633814E+04  0.13397633814E+04  0.25500000920E-02 0.  1.
       -2   -1    0    0    0  501  0.00000000000E+00  0.00000000000E+00 -0.53912200762E+03  0.53912200763E+03  0.25500000920E-02 0. -1.
    10030    2    1    2    0    0  0.00000000000E+00  0.00000000000E+00  0.80064137376E+03  0.18788853890E+04  0.16997598935E+04 0.  0.
        3    1    3    3  502    0  0.36628080623E+03  0.50624071096E+03 -0.23645526003E+03  0.66809609088E+03  0.10100000352E+00 0. -1.
       -3    1    3    3    0  502 -0.36628080623E+03 -0.50624071096E+03  0.10370966338E+04  0.12107892981E+04  0.10100000352E+00 0.  1.
</event>
<event>
 5   0  0.1126958E-04  0.1702813E+04  0.7818609E-02  0.8759762E-01
        1   -1    0    0  501    0  0.00000000000E+00  0.00000000000E+00  0.11115612294E+04  0.11115612294E+04  0.50400001928E-02 0.  1.
       -1   -1    0    0    0  501  0.00000000000E+00  0.00000000000E+00 -0.65213936158E+03  0.65213936160E+03  0.50400001928E-02 0. -1.
    10030    2    1    2    0    0  0.00000000000E+00  0.00000000000E+00  0.45942186782E+03  0.17637005910E+04  0.17028127678E+04 0.  0.
        4    1    3    3  502    0 -0.48023415485E+03  0.58356152794E+03  0.63580479453E+03  0.98763264933E+03  0.12699999809E+01 0.  1.
       -4    1    3    3    0  502  0.48023415485E+03 -0.58356152794E+03 -0.17638292671E+03  0.77606794168E+03  0.12699999809E+01 0. -1.
</event>
<event>
 5   0  0.1204741E-04  0.1707723E+04  0.7818609E-02  0.8756972E-01
        1   -1    0    0  501    0  0.00000000000E+00  0.00000000000E+00  0.96849312334E+03  0.96849312335E+03  0.50400001928E-02 0.  1.
       -1   -1    0    0    0  501  0.00000000000E+00  0.00000000000E+00 -0.75279739006E+03  0.75279739007E+03  0.50400001928E-02 0. -1.
    10030    2    1    2    0    0  0.00000000000E+00  0.00000000000E+00  0.21569573328E+03  0.17212905134E+04  0.17077225718E+04 0.  0.
        1    1    3    3  502    0 -0.19667223693E+02 -0.62617889954E+03 -0.47692731561E+03  0.78736680037E+03  0.50400001928E-02 0. -1.
       -1    1    3    3    0  502  0.19667223693E+02  0.62617889954E+03  0.69262304890E+03  0.93392371306E+03  0.50400001928E-02 0.  1.
</event>
<event>
 5   0  0.1215233E-04  0.1680020E+04  0.7818609E-02  0.8772843E-01
       -1   -1    0    0    0  501  0.00000000000E+00  0.00000000000E+00  0.12623704290E+04  0.12623704291E+04  0.50400001928E-02 0.  1.
        1   -1    0    0  501    0  0.00000000000E+00  0.00000000000E+00 -0.55896156585E+03  0.55896156587E+03  0.50400001928E-02 0. -1.
    10030    2    1    2    0    0  0.00000000000E+00  0.00000000000E+00  0.70340886320E+03  0.18213319949E+04  0.16800197043E+04 0.  0.
        2    1    3    3  502    0 -0.87317584381E+02 -0.67044900289E+02 -0.55110708144E+03  0.56199501280E+03  0.25500000920E-02 0. -1.
       -2    1    3    3    0  502  0.87317584381E+02  0.67044900289E+02  0.12545159446E+04  0.12593369821E+04  0.25500000920E-02 0.  1.
</event>
<event>
 5   0  0.2234723E-04  0.1702628E+04  0.7818609E-02  0.8759867E-01
       -2   -1    0    0    0  501  0.00000000000E+00  0.00000000000E+00  0.32720447237E+03  0.32720447238E+03  0.25500000920E-02 0. -1.
        2   -1    0    0  501    0  0.00000000000E+00  0.00000000000E+00 -0.22149315878E+04  0.22149315878E+04  0.25500000920E-02 0.  1.
    10030    2    1    2    0    0  0.00000000000E+00  0.00000000000E+00 -0.18877271155E+04  0.25421360602E+04  0.17026279941E+04 0.  0.
        1    1    3    3  502    0 -0.43174587721E+03 -0.29330361476E+03  0.60276378228E+02  0.52541864709E+03  0.50400001928E-02 0. -1.
       -1    1    3    3    0  502  0.43174587721E+03  0.29330361476E+03 -0.19480034937E+04  0.20167174131E+04  0.50400001928E-02 0.  1.
</event>
<event>
 5   0  0.8372750E-05  0.1699469E+04  0.7818609E-02  0.8761667E-01
        3   -1    0    0  501    0  0.00000000000E+00  0.00000000000E+00  0.94434910227E+03  0.94434910767E+03  0.10100000352E+00 0. -1.
       -3   -1    0    0    0  501  0.00000000000E+00  0.00000000000E+00 -0.76459908125E+03  0.76459908792E+03  0.10100000352E+00 0.  1.
    10030    2    1    2    0    0  0.00000000000E+00  0.00000000000E+00  0.17975002102E+03  0.17089481956E+04  0.16994687008E+04 0.  0.
        1    1    3    3  502    0  0.56723204353E+03  0.20126784037E+03 -0.51329366849E+03  0.79103181031E+03  0.50400001928E-02 0.  1.
       -1    1    3    3    0  502 -0.56723204353E+03 -0.20126784037E+03  0.69304368951E+03  0.91791638529E+03  0.50400001928E-02 0. -1.
</event>
<event>
 5   0  0.2288806E-04  0.1698730E+04  0.7818609E-02  0.8762089E-01
       -2   -1    0    0    0  501  0.00000000000E+00  0.00000000000E+00  0.42496294446E+03  0.42496294447E+03  0.25500000920E-02 0. -1.
        2   -1    0    0  501    0  0.00000000000E+00  0.00000000000E+00 -0.16976087117E+04  0.16976087117E+04  0.25500000920E-02 0.  1.
    10030    2    1    2    0    0  0.00000000000E+00  0.00000000000E+00 -0.12726457672E+04  0.21225716561E+04  0.16987298745E+04 0.  0.
        3    1    3    3  502    0  0.27662480269E+03  0.31960723060E+03 -0.15568535083E+04  0.16132150879E+04  0.10100000352E+00 0.  1.
       -3    1    3    3    0  502 -0.27662480269E+03 -0.31960723060E+03  0.28420774109E+03  0.50935656824E+03  0.10100000352E+00 0. -1.
</event>
<event>
 5   0  0.2224454E-04  0.1701711E+04  0.7818609E-02  0.8760389E-01
       -2   -1    0    0    0  501  0.00000000000E+00  0.00000000000E+00  0.65563605272E+03  0.65563605273E+03  0.25500000920E-02 0. -1.
        2   -1    0    0  501    0  0.00000000000E+00  0.00000000000E+00 -0.11042028708E+04  0.11042028708E+04  0.25500000920E-02 0.  1.
    10030    2    1    2    0    0  0.00000000000E+00  0.00000000000E+00 -0.44856681809E+03  0.17598389235E+04  0.17017111525E+04 0.  0.
        2    1    3    3  502    0 -0.27533568533E+02 -0.21885390811E+03 -0.10741200950E+04  0.10965350469E+04  0.25500000920E-02 0.  1.
       -2    1    3    3    0  502  0.27533568533E+02  0.21885390811E+03  0.62555327694E+03  0.66330387666E+03  0.25500000920E-02 0. -1.
</event>
<event>
 5   0  0.2242967E-04  0.1736875E+04  0.7818609E-02  0.8740608E-01
        2   -1    0    0  501    0  0.00000000000E+00  0.00000000000E+00  0.12977520844E+04  0.12977520844E+04  0.25500000920E-02 0.  1.
       -2   -1    0    0    0  501  0.00000000000E+00  0.00000000000E+00 -0.58114650519E+03  0.58114650520E+03  0.25500000920E-02 0. -1.
    10030    2    1    2    0    0  0.00000000000E+00  0.00000000000E+00  0.71660557918E+03  0.18788985896E+04  0.17368754572E+04 0.  0.
        4    1    3    3  502    0  0.18888691289E+03  0.84646241488E+03  0.30985703467E+03  0.92097224740E+03  0.12699999809E+01 0. -1.
       -4    1    3    3    0  502 -0.18888691289E+03 -0.84646241488E+03  0.40674854451E+03  0.95792634217E+03  0.12699999809E+01 0.  1.
</event>
<event>
 5   0  0.2288806E-04  0.1702342E+04  0.7818609E-02  0.8760030E-01
        2   -1    0    0  501    0  0.00000000000E+00  0.00000000000E+00  0.22549327368E+04  0.22549327368E+04  0.25500000920E-02 0. -1.
       -2   -1    0    0    0  501  0.00000000000E+00  0.00000000000E+00 -0.32129223279E+03  0.32129223280E+03  0.25500000920E-02 0.  1.
    10030    2    1    2    0    0  0.00000000000E+00  0.00000000000E+00  0.19336405040E+04  0.25762249696E+04  0.17023423555E+04 0.  0.
        3    1    3    3  502    0  0.69480294682E+03 -0.11782619228E+03  0.16892060976E+04  0.18303145623E+04  0.10100000352E+00 0. -1.
       -3    1    3    3    0  502 -0.69480294682E+03  0.11782619228E+03  0.24443440638E+03  0.74591040730E+03  0.10100000352E+00 0.  1.
</event>
<event>
 5   0  0.1204741E-04  0.1709942E+04  0.7818609E-02  0.8755715E-01
        1   -1    0    0  501    0  0.00000000000E+00  0.00000000000E+00  0.13802574485E+04  0.13802574485E+04  0.50400001928E-02 0. -1.
       -1   -1    0    0    0  501  0.00000000000E+00  0.00000000000E+00 -0.52959324487E+03  0.52959324490E+03  0.50400001928E-02 0.  1.
    10030    2    1    2    0    0  0.00000000000E+00  0.00000000000E+00  0.85066420367E+03  0.19098506934E+04  0.17099415440E+04 0.  0.
        1    1    3    3  502    0 -0.57898377149E+03  0.18622103772E+03  0.10964774513E+04  0.12538593556E+04  0.50400001928E-02 0. -1.
       -1    1    3    3    0  502  0.57898377149E+03 -0.18622103772E+03 -0.24581324762E+03  0.65599133780E+03  0.50400001928E-02 0.  1.
</event>
<event>
 5   0  0.8372750E-05  0.1705351E+04  0.7818609E-02  0.8758318E-01
       -3   -1    0    0    0  501  0.00000000000E+00  0.00000000000E+00  0.37114183942E+03  0.37114185316E+03  0.10100000352E+00 0. -1.
        3   -1    0    0  501    0  0.00000000000E+00  0.00000000000E+00 -0.19589692805E+04  0.19589692831E+04  0.10100000352E+00 0.  1.
    10030    2    1    2    0    0  0.00000000000E+00  0.00000000000E+00 -0.15878274411E+04  0.23301111363E+04  0.17053509682E+04 0.  0.
        4    1    3    3  502    0  0.82918276149E+03  0.19814250980E+03 -0.77233736407E+03  0.11503526081E+04  0.12699999809E+01 0.  1.
       -4    1    3    3    0  502 -0.82918276149E+03 -0.19814250980E+03 -0.81549007703E+03  0.11797585282E+04  0.12699999809E+01 0. -1.
</event>
<event>
 5   0  0.8372750E-05  0.1491575E+04  0.7818609E-02  0.8890075E-01
        3   -1    0    0  501    0  0.00000000000E+00  0.00000000000E+00  0.91028756920E+03  0.91028757480E+03  0.10100000352E+00 0.  1.
       -3   -1    0    0    0  501  0.00000000000E+00  0.00000000000E+00 -0.61101474801E+03  0.61101475636E+03  0.10100000352E+00 0. -1.
    10030    2    1    2    0    0  0.00000000000E+00  0.00000000000E+00  0.29927282119E+03  0.15213023312E+04  0.14915751947E+04 0.  0.
        5    1    3    3  502    0 -0.12441999164E+03  0.18572510411E+03 -0.57602276928E+03  0.61789842963E+03  0.46999998093E+01 0. -1.
       -5    1    3    3    0  502  0.12441999164E+03 -0.18572510411E+03  0.87529559047E+03  0.90340390153E+03  0.46999998093E+01 0.  1.
</event>
<event>
 5   0  0.2242967E-04  0.1700092E+04  0.7818609E-02  0.8761312E-01
        2   -1    0    0  501    0  0.00000000000E+00  0.00000000000E+00  0.67837634497E+03  0.67837634497E+03  0.25500000920E-02 0. -1.
       -2   -1    0    0    0  501  0.00000000000E+00  0.00000000000E+00 -0.10651578658E+04  0.10651578658E+04  0.25500000920E-02 0.  1.
    10030    2    1    2    0    0  0.00000000000E+00  0.00000000000E+00 -0.38678152083E+03  0.17435342108E+04  0.17000916444E+04 0.  0.
        4    1    3    3  502    0 -0.27598537661E+03  0.60238915046E+03  0.35269643324E+03  0.75062440915E+03  0.12699999809E+01 0. -1.
       -4    1    3    3    0  502  0.27598537661E+03 -0.60238915046E+03 -0.73947795407E+03  0.99290980162E+03  0.12699999809E+01 0.  1.
</event>
<event>
 5   0  0.2224454E-04  0.1690211E+04  0.7818609E-02  0.8766967E-01
       -2   -1    0    0    0  501  0.00000000000E+00  0.00000000000E+00  0.67478002110E+03  0.67478002111E+03  0.25500000920E-02 0.  1.
        2   -1    0    0  501    0  0.00000000000E+00  0.00000000000E+00 -0.10584238732E+04  0.10584238732E+04  0.25500000920E-02 0. -1.
    10030    2    1    2    0    0  0.00000000000E+00  0.00000000000E+00 -0.38364385208E+03  0.17332038943E+04  0.16902109732E+04 0.  0.
        2    1    3    3  502    0  0.54655507506E+03 -0.13872869773E+03 -0.83730559113E+03  0.10094794473E+04  0.25500000920E-02 0. -1.
       -2    1    3    3    0  502 -0.54655507506E+03  0.13872869773E+03  0.45366173905E+03  0.72372444696E+03  0.25500000920E-02 0.  1.
</event>
<event>
 5   0  0.1215233E-04  0.1688156E+04  0.7818609E-02  0.8768148E-01
       -1   -1    0    0    0  501  0.00000000000E+00  0.00000000000E+00  0.72351098391E+03  0.72351098393E+03  0.50400001928E-02 0. -1.
        1   -1    0    0  501    0  0.00000000000E+00  0.00000000000E+00 -0.98473675262E+03  0.98473675263E+03  0.50400001928E-02 0.  1.
    10030    2    1    2    0    0  0.00000000000E+00  0.00000000000E+00 -0.26122576870E+03  0.17082477366E+04  0.16881562212E+04 0.  0.
        2    1    3    3  502    0 -0.79830674826E+03 -0.27299201998E+03 -0.10482329964E+03  0.85018011706E+03  0.25500000920E-02 0. -1.
       -2    1    3    3    0  502  0.79830674826E+03  0.27299201998E+03 -0.15640246906E+03  0.85806761950E+03  0.25500000920E-02 0.  1.
</event>
<event>
 5   0  0.8372750E-05  0.1721489E+04  0.7818609E-02  0.8749202E-01
        4   -1    0    0  501    0  0.00000000000E+00  0.00000000000E+00  0.12835964516E+04  0.12835970798E+04  0.12699999809E+01 0.  1.
       -4   -1    0    0    0  501  0.00000000000E+00  0.00000000000E+00 -0.57719042384E+03  0.57719182104E+03  0.12699999809E+01 0. -1.
    10030    2    1    2    0    0  0.00000000000E+00  0.00000000000E+00  0.70640602773E+03  0.18607889009E+04  0.17214894300E+04 0.  0.
        3    1    3    3  502    0  0.27123675831E+03 -0.79472279495E+03  0.55751582828E+03  0.10079571463E+04  0.10100000352E+00 0.  1.
       -3    1    3    3    0  502 -0.27123675831E+03  0.79472279495E+03  0.14889019944E+03  0.85283175454E+03  0.10100000352E+00 0. -1.
</event>
<event>
 5   0  0.2234723E-04  0.1713190E+04  0.7818609E-02  0.8753877E-01
        2   -1    0    0  501    0  0.00000000000E+00  0.00000000000E+00  0.28496556680E+04  0.28496556680E+04  0.25500000920E-02 0. -1.
       -2   -1    0    0    0  501  0.00000000000E+00  0.00000000000E+00 -0.25748914839E+03  0.25748914840E+03  0.25500000920E-02 0.  1.
    10030    2    1    2    0    0  0.00000000000E+00  0.00000000000E+00  0.25921665196E+04  0.31071448164E+04  0.17131904870E+04 0.  0.
        1    1    3    3  502    0 -0.60803513026E+03  0.61803552234E+02  0.23846252455E+04  0.24616994049E+04  0.50400001928E-02 0. -1.
       -1    1    3    3    0  502  0.60803513026E+03 -0.61803552234E+02  0.20754127410E+03  0.64544541146E+03  0.50400001928E-02 0.  1.
</event>
<event>
 5   0  0.1126958E-04  0.1699032E+04  0.7818609E-02  0.8761917E-01
        1   -1    0    0  501    0  0.00000000000E+00  0.00000000000E+00  0.10169673648E+04  0.10169673648E+04  0.50400001928E-02 0. -1.
       -1   -1    0    0    0  501  0.00000000000E+00  0.00000000000E+00 -0.70963653841E+03  0.70963653842E+03  0.50400001928E-02 0.  1.
    10030    2    1    2    0    0  0.00000000000E+00  0.00000000000E+00  0.30733082637E+03  0.17266039032E+04  0.16990317248E+04 0.  0.
        4    1    3    3  502    0  0.47518442710E+03  0.23711212941E+03 -0.52015838041E+03  0.74336313823E+03  0.12699999809E+01 0.  1.
       -4    1    3    3    0  502 -0.47518442710E+03 -0.23711212941E+03  0.82748920678E+03  0.98324076498E+03  0.12699999809E+01 0. -1.
</event>
<event>
 5   0  0.1234158E-04  0.1691426E+04  0.7818609E-02  0.8766270E-01
        1   -1    0    0  501    0  0.00000000000E+00  0.00000000000E+00  0.87159672319E+03  0.87159672320E+03  0.50400001928E-02 0. -1.
       -1   -1    0    0    0  501  0.00000000000E+00  0.00000000000E+00 -0.82059769873E+03  0.82059769874E+03  0.50400001928E-02 0.  1.
    10030    2    1    2    0    0  0.00000000000E+00  0.00000000000E+00  0.50999024457E+02  0.16921944219E+04  0.16914257480E+04 0.  0.
        5    1    3    3  502    0  0.38794849871E+03 -0.29134393489E+03 -0.66750774778E+03  0.82521149374E+03  0.46999998093E+01 0.  1.
       -5    1    3    3    0  502 -0.38794849871E+03  0.29134393489E+03  0.71850677224E+03  0.86698292821E+03  0.46999998093E+01 0. -1.
</event>
<event>
 5   0  0.1204741E-04  0.1719934E+04  0.7818609E-02  0.8750077E-01
        1   -1    0    0  501    0  0.00000000000E+00  0.00000000000E+00  0.67602771109E+03  0.67602771111E+03  0.50400001928E-02 0.  1.
       -1   -1    0    0    0  501  0.00000000000E+00  0.00000000000E+00 -0.10939534282E+04  0.10939534282E+04  0.50400001928E-02 0. -1.
    10030    2    1    2    0    0  0.00000000000E+00  0.00000000000E+00 -0.41792571709E+03  0.17699811393E+04  0.17199335244E+04 0.  0.
        1    1    3    3  502    0  0.48435760034E+03 -0.70524313216E+03 -0.29851614725E+03  0.90613577938E+03  0.50400001928E-02 0. -1.
       -1    1    3    3    0  502 -0.48435760034E+03  0.70524313216E+03 -0.11940956984E+03  0.86384535993E+03  0.50400001928E-02 0.  1.
</event>
<event>
 5   0  0.1186302E-04  0.1698082E+04  0.7818609E-02  0.8762459E-01
        1   -1    0    0  501    0  0.00000000000E+00  0.00000000000E+00  0.15449120173E+04  0.15449120173E+04  0.50400001928E-02 0. -1.
       -1   -1    0    0    0  501  0.00000000000E+00  0.00000000000E+00 -0.46660944225E+03  0.46660944228E+03  0.50400001928E-02 0.  1.
    10030    2    1    2    0    0  0.00000000000E+00  0.00000000000E+00  0.10783025750E+04  0.20115214596E+04  0.16980819000E+04 0.  0.
        3    1    3    3  502    0 -0.65059021265E+03 -0.34273940025E+03  0.36389571312E+02  0.73624868922E+03  0.10100000352E+00 0.  1.
       -3    1    3    3    0  502  0.65059021265E+03  0.34273940025E+03  0.10419130037E+04  0.12752727704E+04  0.10100000352E+00 0. -1.
</event>
<event>
 5   0  0.2234723E-04  0.1743904E+04  0.7818609E-02  0.8736713E-01
       -2   -1    0    0    0  501  0.00000000000E+00  0.00000000000E+00  0.27031438247E+03  0.27031438248E+03  0.25500000920E-02 0.  1.
        2   -1    0    0  501    0  0.00000000000E+00  0.00000000000E+00 -0.28126534857E+04  0.28126534857E+04  0.25500000920E-02 0. -1.
    10030    2    1    2    0    0  0.00000000000E+00  0.00000000000E+00 -0.25423391033E+04  0.30829678682E+04  0.17439044585E+04 0.  0.
        1    1    3    3  502    0 -0.56827430549E+03  0.53515319849E+03 -0.19580803619E+04  0.21079381717E+04  0.50400001928E-02 0. -1.
       -1    1    3    3    0  502  0.56827430549E+03 -0.53515319849E+03 -0.58425874135E+03  0.97502969647E+03  0.50400001928E-02 0.  1.
</event>
<event>
 5   0  0.2234723E-04  0.1701281E+04  0.7818609E-02  0.8760634E-01
       -2   -1    0    0    0  501  0.00000000000E+00  0.00000000000E+00  0.70040816861E+03  0.70040816862E+03  0.25500000920E-02 0. -1.
        2   -1    0    0  501    0  0.00000000000E+00  0.00000000000E+00 -0.10330967605E+04  0.10330967605E+04  0.25500000920E-02 0.  1.
    10030    2    1    2    0    0  0.00000000000E+00  0.00000000000E+00 -0.33268859193E+03  0.17335049292E+04  0.17012811761E+04 0.  0.
        1    1    3    3  502    0  0.18606180360E+03 -0.10485930161E+03  0.67264381279E+03  0.70573661291E+03  0.50400001928E-02 0. -1.
       -1    1    3    3    0  502 -0.18606180360E+03  0.10485930161E+03 -0.10053324047E+04  0.10277683163E+04  0.50400001928E-02 0.  1.
</event>
<event>
 5   0  0.8372750E-05  0.1698780E+04  0.7818609E-02  0.8762060E-01
        3   -1    0    0  501    0  0.00000000000E+00  0.00000000000E+00  0.40832448988E+03  0.40832450237E+03  0.10100000352E+00 0.  1.
       -3   -1    0    0    0  501  0.00000000000E+00  0.00000000000E+00 -0.17668879076E+04  0.17668879105E+04  0.10100000352E+00 0. -1.
    10030    2    1    2    0    0  0.00000000000E+00  0.00000000000E+00 -0.13585634177E+04  0.21752124129E+04  0.16987802922E+04 0.  0.
        3    1    3    3  502    0 -0.29787504223E+03 -0.57905430902E+03 -0.13776057171E+04  0.15237555433E+04  0.10100000352E+00 0. -1.
       -3    1    3    3    0  502  0.29787504223E+03  0.57905430902E+03  0.19042299398E+02  0.65145686960E+03  0.10100000352E+00 0.  1.
</event>
<event>
 5   0  0.2242967E-04  0.1687555E+04  0.7818609E-02  0.8768494E-01
        2   -1    0    0  501    0  0.00000000000E+00  0.00000000000E+00  0.10721405756E+04  0.10721405756E+04  0.25500000920E-02 0.  1.
       -2   -1    0    0    0  501  0.00000000000E+00  0.00000000000E+00 -0.66405509898E+03  0.66405509898E+03  0.25500000920E-02 0. -1.
    10030    2    1    2    0    0  0.00000000000E+00  0.00000000000E+00  0.40808547666E+03  0.17361956746E+04  0.16875549367E+04 0.  0.
        4    1    3    3  502    0 -0.15174793674E+03 -0.90476572731E+02  0.10528969231E+04  0.10676174362E+04  0.12699999809E+01 0.  1.
       -4    1    3    3    0  502  0.15174793674E+03  0.90476572731E+02 -0.64481144644E+03  0.66857823841E+03  0.12699999809E+01 0. -1.
</event>
<event>
 5   0  0.1215233E-04  0.1680721E+04  0.7818609E-02  0.8772437E-01
       -1   -1    0    0    0  501  0.00000000000E+00  0.00000000000E+00  0.49580775317E+03  0.49580775320E+03  0.50400001928E-02 0. -1.
        1   -1    0    0  501    0  0.00000000000E+00  0.00000000000E+00 -0.14243541851E+04  0.14243541851E+04  0.50400001928E-02 0.  1.
    10030    2    1    2    0    0  0.00000000000E+00  0.00000000000E+00 -0.92854643188E+03  0.19201619383E+04  0.16807210932E+04 0.  0.
        2    1    3    3  502    0  0.62187102783E+03  0.50918283227E+03 -0.74461960785E+03  0.10956500775E+04  0.25500000920E-02 0.  1.
       -2    1    3    3    0  502 -0.62187102783E+03 -0.50918283227E+03 -0.18392682403E+03  0.82451186076E+03  0.25500000920E-02 0. -1.
</event>
<event>
 5   0  0.2356829E-04  0.1697607E+04  0.7818609E-02  0.8762730E-01
       -2   -1    0    0    0  501  0.00000000000E+00  0.00000000000E+00  0.49887274365E+03  0.49887274366E+03  0.25500000920E-02 0. -1.
        2   -1    0    0  501    0  0.00000000000E+00  0.00000000000E+00 -0.14441903922E+04  0.14441903922E+04  0.25500000920E-02 0.  1.
    10030    2    1    2    0    0  0.00000000000E+00  0.00000000000E+00 -0.94531764854E+03  0.19430631358E+04  0.16976068135E+04 0.  0.
        5    1    3    3  502    0 -0.19947461112E+03 -0.62751842578E+03 -0.10857098694E+04  0.12697864016E+04  0.46999998093E+01 0.  1.
       -5    1    3    3    0  502  0.19947461112E+03  0.62751842578E+03  0.14039222088E+03  0.67327673423E+03  0.46999998093E+01 0. -1.
</event>
<event>
 5   0  0.2356829E-04  0.1748992E+04  0.7818609E-02  0.8733905E-01
       -2   -1    0    0    0  501  0.00000000000E+00  0.00000000000E+00  0.40188218376E+03  0.40188218377E+03  0.25500000920E-02 0.  1.
        2   -1    0    0  501    0  0.00000000000E+00  0.00000000000E+00 -0.19029050735E+04  0.19029050735E+04  0.25500000920E-02 0. -1.
    10030    2    1    2    0    0  0.00000000000E+00  0.00000000000E+00 -0.15010228897E+04  0.23047872572E+04  0.17489924487E+04 0.  0.
        5    1    3    3  502    0  0.55957198905E+03 -0.32329298122E+02 -0.16350506512E+04  0.17284613726E+04  0.46999998093E+01 0. -1.
       -5    1    3    3    0  502 -0.55957198905E+03  0.32329298122E+02  0.13402776153E+03  0.57632588464E+03  0.46999998093E+01 0.  1.
</event>
<event>
 5   0  0.2288806E-04  0.1703260E+04  0.7818609E-02  0.8759507E-01
        2   -1    0    0  501    0  0.00000000000E+00  0.00000000000E+00  0.93744166984E+03  0.93744166984E+03  0.25500000920E-02 0.  1.
       -2   -1    0    0    0  501  0.00000000000E+00  0.00000000000E+00 -0.77367315282E+03  0.77367315282E+03  0.25500000920E-02 0. -1.
    10030    2    1    2    0    0  0.00000000000E+00  0.00000000000E+00  0.16376851702E+03  0.17111148227E+04  0.17032597597E+04 0.  0.
        3    1    3    3  502    0 -0.39781002062E+03 -0.29529628954E+03  0.77776973285E+03  0.92215968176E+03  0.10100000352E+00 0.  1.
       -3    1    3    3    0  502  0.39781002062E+03  0.29529628954E+03 -0.61400121583E+03  0.78895514090E+03  0.10100000352E+00 0. -1.
</event>
<event>
 5   0  0.2356829E-04  0.1698321E+04  0.7818609E-02  0.8762323E-01
        2   -1    0    0  501    0  0.00000000000E+00  0.00000000000E+00  0.12950396210E+04  0.12950396210E+04  0.25500000920E-02 0. -1.
       -2   -1    0    0    0  501  0.00000000000E+00  0.00000000000E+00 -0.55679632338E+03  0.55679632339E+03  0.25500000920E-02 0.  1.
    10030    2    1    2    0    0  0.00000000000E+00  0.00000000000E+00  0.73824329765E+03  0.18518359444E+04  0.16983206995E+04 0.  0.
        5    1    3    3  502    0  0.32798257752E+03  0.77815397864E+03  0.46637477125E+03  0.96468839678E+03  0.46999998093E+01 0.  1.
       -5    1    3    3    0  502 -0.32798257752E+03 -0.77815397864E+03  0.27186852639E+03  0.88714754763E+03  0.46999998093E+01 0. -1.
</event>
<event>
 5   0  0.2224454E-04  0.1701927E+04  0.7818609E-02  0.8760266E-01
        2   -1    0    0  501    0  0.00000000000E+00  0.00000000000E+00  0.52567711614E+03  0.52567711615E+03  0.25500000920E-02 0.  1.
       -2   -1    0    0    0  501  0.00000000000E+00  0.00000000000E+00 -0.13775358237E+04  0.13775358237E+04  0.25500000920E-02 0. -1.
    10030    2    1    2    0    0  0.00000000000E+00  0.00000000000E+00 -0.85185870760E+03  0.19032129399E+04  0.17019272126E+04 0.  0.
        2    1    3    3  502    0 -0.60892813331E+03  0.14954091637E+03  0.21742361644E+03  0.66364823980E+03  0.25500000920E-02 0.  1.
       -2    1    3    3    0  502  0.60892813331E+03 -0.14954091637E+03 -0.10692823240E+04  0.12395647001E+04  0.25500000920E-02 0. -1.
</event>
<event>
 5   0  0.2356829E-04  0.1698317E+04  0.7818609E-02  0.8762325E-01
       -2   -1    0    0    0  501  0.00000000000E+00  0.00000000000E+00  0.37681029514E+03  0.37681029515E+03  0.25500000920E-02 0.  1.
        2   -1    0    0  501    0  0.00000000000E+00  0.00000000000E+00 -0.19136154262E+04  0.19136154262E+04  0.25500000920E-02 0. -1.
    10030    2    1    2    0    0  0.00000000000E+00  0.00000000000E+00 -0.15368051310E+04  0.22904257213E+04  0.16983168062E+04 0.  0.
        5    1    3    3  502    0 -0.81723489383E+03  0.17523556871E+03 -0.56625191472E+03  0.10095759987E+04  0.46999998093E+01 0.  1.
       -5    1    3    3    0  502  0.81723489383E+03 -0.17523556871E+03 -0.97055321630E+03  0.12808497226E+04  0.46999998093E+01 0. -1.
</event>
<event>
 5   0  0.2224454E-04  0.1698999E+04  0.7818609E-02  0.8761935E-01
       -2   -1    0    0    0  501  0.00000000000E+00  0.00000000000E+00  0.39073327838E+03  0.39073327839E+03  0.25500000920E-02 0.  1.
        2   -1    0    0  501    0  0.00000000000E+00  0.00000000000E+00 -0.18469109709E+04  0.18469109709E+04  0.25500000920E-02 0. -1.
    10030    2    1    2    0    0  0.00000000000E+00  0.00000000000E+00 -0.14561776925E+04  0.22376442493E+04  0.16989992096E+04 0.  0.
        2    1    3    3  502    0 -0.28545661790E+03 -0.20252494987E+03 -0.17475362600E+04  0.17822415145E+04  0.25500000920E-02 0. -1.
       -2    1    3    3    0  502  0.28545661790E+03  0.20252494987E+03  0.29135856746E+03  0.45540273480E+03  0.25500000920E-02 0.  1.
</event>
<event>
 5   0  0.2242967E-04  0.1519886E+04  0.7818609E-02  0.8871336E-01
       -2   -1    0    0    0  501  0.00000000000E+00  0.00000000000E+00  0.46944804417E+03  0.46944804417E+03  0.25500000920E-02 0. -1.
        2   -1    0    0  501    0  0.00000000000E+00  0.00000000000E+00 -0.12301962359E+04  0.12301962359E+04  0.25500000920E-02 0.  1.
    10030    2    1    2    0    0  0.00000000000E+00  0.00000000000E+00 -0.76074819172E+03  0.16996442801E+04  0.15198858074E+04 0.  0.
        4    1    3    3  502    0 -0.48922436599E+03 -0.30476931002E+03 -0.93421389174E+03  0.10977167308E+04  0.12699999809E+01 0.  1.
       -4    1    3    3    0  502  0.48922436599E+03  0.30476931002E+03  0.17346570002E+03  0.60192754929E+03  0.12699999809E+01 0. -1.
</event>
<event>
 5   0  0.2234723E-04  0.1741193E+04  0.7818609E-02  0.8738213E-01
        2   -1    0    0  501    0  0.00000000000E+00  0.00000000000E+00  0.10216830036E+04  0.10216830036E+04  0.25500000920E-02 0.  1.
       -2   -1    0    0    0  501  0.00000000000E+00  0.00000000000E+00 -0.74185308230E+03  0.74185308230E+03  0.25500000920E-02 0. -1.
    10030    2    1    2    0    0  0.00000000000E+00  0.00000000000E+00  0.27982992128E+03  0.17635360859E+04  0.17411934819E+04 0.  0.
        1    1    3    3  502    0  0.40191697232E+03  0.76780824137E+03  0.55954094935E+02  0.86844551292E+03  0.50400001928E-02 0. -1.
       -1    1    3    3    0  502 -0.40191697232E+03 -0.76780824137E+03  0.22387582634E+03  0.89509057296E+03  0.50400001928E-02 0.  1.
</event>
<event>
 5   0  0.1204741E-04  0.1703573E+04  0.7818609E-02  0.8759329E-01
        1   -1    0    0  501    0  0.00000000000E+00  0.00000000000E+00  0.65377949799E+03  0.65377949801E+03  0.50400001928E-02 0. -1.
       -1   -1    0    0    0  501  0.00000000000E+00  0.00000000000E+00 -0.11097627487E+04  0.11097627487E+04  0.50400001928E-02 0.  1.
    10030    2    1    2    0    0  0.00000000000E+00  0.00000000000E+00 -0.45598325069E+03  0.17635422467E+04  0.17035728722E+04 0.  0.
        1    1    3    3  502    0 -0.41625618119E+03 -0.10642967931E+03  0.53338784918E+03  0.68490808339E+03  0.50400001928E-02 0. -1.
       -1    1    3    3    0  502  0.41625618119E+03  0.10642967931E+03 -0.98937109987E+03  0.10786341633E+04  0.50400001928E-02 0.  1.
</event>
<event>
 5   0  0.1234158E-04  0.1699524E+04  0.7818609E-02  0.8761636E-01
       -1   -1    0    0    0  501  0.00000000000E+00  0.00000000000E+00  0.68361088813E+03  0.68361088815E+03  0.50400001928E-02 0. -1.
        1   -1    0    0  501    0  0.00000000000E+00  0.00000000000E+00 -0.10562964309E+04  0.10562964309E+04  0.50400001928E-02 0.  1.
    10030    2    1    2    0    0  0.00000000000E+00  0.00000000000E+00 -0.37268554276E+03  0.17399073190E+04  0.16995243350E+04 0.  0.
        5    1    3    3  502    0  0.49959021237E+03  0.44928012853E+03 -0.71892565829E+03  0.98403211652E+03  0.46999998093E+01 0. -1.
       -5    1    3    3    0  502 -0.49959021237E+03 -0.44928012853E+03  0.34624011553E+03  0.75587520253E+03  0.46999998093E+01 0.  1.
</event>
<event>
 5   0  0.1215233E-04  0.1702021E+04  0.7818609E-02  0.8760213E-01
       -1   -1    0    0    0  501  0.00000000000E+00  0.00000000000E+00  0.54767923684E+03  0.54767923687E+03  0.50400001928E-02 0. -1.
        1   -1    0    0  501    0  0.00000000000E+00  0.00000000000E+00 -0.13223410803E+04  0.13223410803E+04  0.50400001928E-02 0.  1.
    10030    2    1    2    0    0  0.00000000000E+00  0.00000000000E+00 -0.77466184347E+03  0.18700203172E+04  0.17020208621E+04 0.  0.
        2    1    3    3  502    0 -0.62339745327E+03 -0.32362501174E+02  0.24816100875E+03  0.67175561218E+03  0.25500000920E-02 0. -1.
       -2    1    3    3    0  502  0.62339745327E+03  0.32362501174E+02 -0.10228228522E+04  0.11982647050E+04  0.25500000920E-02 0.  1.
</event>
<event>
 5   0  0.1234158E-04  0.1719594E+04  0.7818609E-02  0.8750267E-01
       -1   -1    0    0    0  501  0.00000000000E+00  0.00000000000E+00  0.60986051934E+03  0.60986051936E+03  0.50400001928E-02 0. -1.
        1   -1    0    0  501    0  0.00000000000E+00  0.00000000000E+00 -0.12121642302E+04  0.12121642302E+04  0.50400001928E-02 0.  1.
    10030    2    1    2    0    0  0.00000000000E+00  0.00000000000E+00 -0.60230371086E+03  0.18220247496E+04  0.17195942626E+04 0.  0.
        5    1    3    3  502    0 -0.25966447604E+03 -0.50476702997E+02  0.56565882186E+03  0.62447220146E+03  0.46999998093E+01 0. -1.
       -5    1    3    3    0  502  0.25966447604E+03  0.50476702997E+02 -0.11679625327E+04  0.11975525481E+04  0.46999998093E+01 0.  1.
</event>
<event>
 5   0  0.2234723E-04  0.1694391E+04  0.7818609E-02  0.8764570E-01
        2   -1    0    0  501    0  0.00000000000E+00  0.00000000000E+00  0.12828007909E+04  0.12828007909E+04  0.25500000920E-02 0. -1.
       -2   -1    0    0    0  501  0.00000000000E+00  0.00000000000E+00 -0.55951051997E+03  0.55951051998E+03  0.25500000920E-02 0.  1.
    10030    2    1    2    0    0  0.00000000000E+00  0.00000000000E+00  0.72329027093E+03  0.18423113109E+04  0.16943913805E+04 0.  0.
        1    1    3    3  502    0 -0.10769604483E+03  0.15291941724E+03 -0.53678147059E+03  0.56843393058E+03  0.50400001928E-02 0.  1.
       -1    1    3    3    0  502  0.10769604483E+03 -0.15291941724E+03  0.12600717415E+04  0.12738773803E+04  0.50400001928E-02 0. -1.
</event>
<event>
 5   0  0.2242967E-04  0.1710710E+04  0.7818609E-02  0.8755279E-01
       -2   -1    0    0    0  501  0.00000000000E+00  0.00000000000E+00  0.18750085712E+04  0.18750085712E+04  0.25500000920E-02 0. -1.
        2   -1    0    0  501    0  0.00000000000E+00  0.00000000000E+00 -0.39020220987E+03  0.39020220987E+03  0.25500000920E-02 0.  1.
    10030    2    1    2    0    0  0.00000000000E+00  0.00000000000E+00  0.14848063613E+04  0.22652107811E+04  0.17107103648E+04 0.  0.
        4    1    3    3  502    0  0.69229229338E+03 -0.19529044094E+03  0.12953638379E+03  0.73088183957E+03  0.12699999809E+01 0.  1.
       -4    1    3    3    0  502 -0.69229229338E+03  0.19529044094E+03  0.13552699776E+04  0.15343289415E+04  0.12699999809E+01 0. -1.
</event>
<event>
 5   0  0.1126958E-04  0.1706538E+04  0.7818609E-02  0.8757644E-01
        1   -1    0    0  501    0  0.00000000000E+00  0.00000000000E+00  0.98083484825E+03  0.98083484826E+03  0.50400001928E-02 0. -1.
       -1   -1    0    0    0  501  0.00000000000E+00  0.00000000000E+00 -0.74229414587E+03  0.74229414589E+03  0.50400001928E-02 0.  1.
    10030    2    1    2    0    0  0.00000000000E+00  0.00000000000E+00  0.23854070237E+03  0.17231289941E+04  0.17065379761E+04 0.  0.
        4    1    3    3  502    0 -0.27105179392E+03 -0.80388420540E+03  0.26907205292E+02  0.84877824035E+03  0.12699999809E+01 0.  1.
       -4    1    3    3    0  502  0.27105179392E+03  0.80388420540E+03  0.21163349708E+03  0.87435075380E+03  0.12699999809E+01 0. -1.
</event>
<event>
 5   0  0.1215233E-04  0.1709062E+04  0.7818609E-02  0.8756213E-01
       -1   -1    0    0    0  501  0.00000000000E+00  0.00000000000E+00  0.66188291783E+03  0.66188291785E+03  0.50400001928E-02 0. -1.
        1   -1    0    0  501    0  0.00000000000E+00  0.00000000000E+00 -0.11032519612E+04  0.11032519612E+04  0.50400001928E-02 0.  1.
    10030    2    1    2    0    0  0.00000000000E+00  0.00000000000E+00 -0.44136904336E+03  0.17651348791E+04  0.17090624649E+04 0.  0.
        2    1    3    3  502    0  0.45009171540E+03  0.55210911939E+03 -0.70820597034E+03  0.10044713676E+04  0.25500000920E-02 0.  1.
       -2    1    3    3    0  502 -0.45009171540E+03 -0.55210911939E+03  0.26683692697E+03  0.76066351141E+03  0.25500000920E-02 0. -1.
</event>
<event>
 5   0  0.1215233E-04  0.1700523E+04  0.7818609E-02  0.8761066E-01
       -1   -1    0    0    0  501  0.00000000000E+00  0.00000000000E+00  0.45360215871E+03  0.45360215874E+03  0.50400001928E-02 0. -1.
        1   -1    0    0  501    0  0.00000000000E+00  0.00000000000E+00 -0.15937863323E+04  0.15937863323E+04  0.50400001928E-02 0.  1.
    10030    2    1    2    0    0  0.00000000000E+00  0.00000000000E+00 -0.11401841736E+04  0.20473884911E+04  0.17005233558E+04 0.  0.
        2    1    3    3  502    0  0.52906228250E+03  0.54345876922E+03 -0.10739787485E+03  0.76602130267E+03  0.25500000920E-02 0. -1.
       -2    1    3    3    0  502 -0.52906228250E+03 -0.54345876922E+03 -0.10327862988E+04  0.12813671884E+04  0.25500000920E-02 0.  1.
</event>
<event>
 5   0  0.2224454E-04  0.1689324E+04  0.7818609E-02  0.8767477E-01
        2   -1    0    0  501    0  0.00000000000E+00  0.00000000000E+00  0.49983085257E+03  0.49983085258E+03  0.25500000920E-02 0. -1.
       -2   -1    0    0    0  501  0.00000000000E+00  0.00000000000E+00 -0.14273898245E+04  0.14273898245E+04  0.25500000920E-02 0.  1.
    10030    2    1    2    0    0  0.00000000000E+00  0.00000000000E+00 -0.92755897191E+03  0.19272206771E+04  0.16893235012E+04 0.  0.
        2    1    3    3  502    0  0.62621481879E+03 -0.27776702174E+03  0.99923720022E+02  0.69230359487E+03  0.25500000920E-02 0. -1.
       -2    1    3    3    0  502 -0.62621481879E+03  0.27776702174E+03 -0.10274826919E+04  0.12349170822E+04  0.25500000920E-02 0.  1.
</event>
<event>
 5   0  0.1204741E-04  0.1696429E+04  0.7818609E-02  0.8763404E-01
       -1   -1    0    0    0  501  0.00000000000E+00  0.00000000000E+00  0.79949788250E+03  0.79949788252E+03  0.50400001928E-02 0. -1.
        1   -1    0    0  501    0  0.00000000000E+00  0.00000000000E+00 -0.89989989170E+03  0.89989989171E+03  0.50400001928E-02 0.  1.
    10030    2    1    2    0    0  0.00000000000E+00  0.00000000000E+00 -0.10040200920E+03  0.16993977742E+04  0.16964292592E+04 0.  0.
        1    1    3    3  502    0  0.25807197001E+03 -0.61144349127E+03  0.47893136351E+03  0.81843725214E+03  0.50400001928E-02 0. -1.
       -1    1    3    3    0  502 -0.25807197001E+03  0.61144349127E+03 -0.57933337270E+03  0.88096052208E+03  0.50400001928E-02 0.  1.
</event>
<event>
 5   0  0.1215233E-04  0.1710398E+04  0.7818609E-02  0.8755456E-01
       -1   -1    0    0    0  501  0.00000000000E+00  0.00000000000E+00  0.70795407133E+03  0.70795407135E+03  0.50400001928E-02 0.  1.
        1   -1    0    0  501    0  0.00000000000E+00  0.00000000000E+00 -0.10330683381E+04  0.10330683381E+04  0.50400001928E-02 0. -1.
    10030    2    1    2    0    0  0.00000000000E+00  0.00000000000E+00 -0.32511426674E+03  0.17410224094E+04  0.17103975397E+04 0.  0.
        2    1    3    3  502    0 -0.30480275494E+03 -0.76569785177E+03  0.69933412335E+02  0.82709648881E+03  0.25500000920E-02 0.  1.
       -2    1    3    3    0  502  0.30480275494E+03  0.76569785177E+03 -0.39504767907E+03  0.91392592062E+03  0.25500000920E-02 0. -1.
</event>
<event>
 5   0  0.1186302E-04  0.1686373E+04  0.7818609E-02  0.8769175E-01
        1   -1    0    0  501    0  0.00000000000E+00  0.00000000000E+00  0.19634518286E+04  0.19634518286E+04  0.50400001928E-02 0. -1.
       -1   -1    0    0    0  501  0.00000000000E+00  0.00000000000E+00 -0.36209883572E+03  0.36209883575E+03  0.50400001928E-02 0.  1.
    10030    2    1    2    0    0  0.00000000000E+00  0.00000000000E+00  0.16013529929E+04  0.23255506643E+04  0.16863731748E+04 0.  0.
        3    1    3    3  502    0 -0.44762632474E+03  0.58107907084E+03  0.22719210439E+03  0.76787920643E+03  0.10100000352E+00 0.  1.
       -3    1    3    3    0  502  0.44762632474E+03 -0.58107907084E+03  0.13741608885E+04  0.15576714579E+04  0.10100000352E+00 0. -1.
</event>
<event>
 5   0  0.1126958E-04  0.1688918E+04  0.7818609E-02  0.8767710E-01
        1   -1    0    0  501    0  0.00000000000E+00  0.00000000000E+00  0.22230354935E+04  0.22230354935E+04  0.50400001928E-02 0. -1.
       -1   -1    0    0    0  501  0.00000000000E+00  0.00000000000E+00 -0.32078268197E+03  0.32078268200E+03  0.50400001928E-02 0.  1.
    10030    2    1    2    0    0  0.00000000000E+00  0.00000000000E+00  0.19022528115E+04  0.25438181755E+04  0.16889183376E+04 0.  0.
        4    1    3    3  502    0 -0.81579759370E+03 -0.21738696547E+03  0.97835741682E+03  0.12922722835E+04  0.12699999809E+01 0. -1.
       -4    1    3    3    0  502  0.81579759370E+03  0.21738696547E+03  0.92389539471E+03  0.12515458921E+04  0.12699999809E+01 0.  1.
</event>
<event>
 5   0  0.2242967E-04  0.1704735E+04  0.7818609E-02  0.8758669E-01
        2   -1    0    0  501    0  0.00000000000E+00  0.00000000000E+00  0.23993580545E+04  0.23993580545E+04  0.25500000920E-02 0.  1.
       -2   -1    0    0    0  501  0.00000000000E+00  0.00000000000E+00 -0.30280184004E+03  0.30280184005E+03  0.25500000920E-02 0. -1.
    10030    2    1    2    0    0  0.00000000000E+00  0.00000000000E+00  0.20965562145E+04  0.27021598946E+04  0.17047346231E+04 0.  0.
        4    1    3    3  502    0 -0.19104664677E+03  0.62058372766E+03  0.19235376334E+04  0.20301777322E+04  0.12699999809E+01 0.  1.
       -4    1    3    3    0  502  0.19104664677E+03 -0.62058372766E+03  0.17301858110E+03  0.67198216240E+03  0.12699999809E+01 0. -1.
</event>
<event>
 5   0  0.2224454E-04  0.1701842E+04  0.7818609E-02  0.8760315E-01
       -2   -1    0    0    0  501  0.00000000000E+00  0.00000000000E+00  0.59812629649E+03  0.59812629650E+03  0.25500000920E-02 0. -1.
        2   -1    0    0  501    0  0.00000000000E+00  0.00000000000E+00 -0.12105574001E+04  0.12105574001E+04  0.25500000920E-02 0.  1.
    10030    2    1    2    0    0  0.00000000000E+00  0.00000000000E+00 -0.61243110356E+03  0.18086836966E+04  0.17018416077E+04 0.  0.
        2    1    3    3  502    0 -0.35495800910E+03  0.38179518860E+03  0.40854148815E+03  0.66232084506E+03  0.25500000920E-02 0. -1.
       -2    1    3    3    0  502  0.35495800910E+03 -0.38179518860E+03 -0.10209725917E+04  0.11463628515E+04  0.25500000920E-02 0.  1.
</event>
<event>
 5   0  0.2356829E-04  0.1713742E+04  0.7818609E-02  0.8753565E-01
       -2   -1    0    0    0  501  0.00000000000E+00  0.00000000000E+00  0.13539249190E+04  0.13539249190E+04  0.25500000920E-02 0.  1.
        2   -1    0    0  501    0  0.00000000000E+00  0.00000000000E+00 -0.54229577387E+03  0.54229577388E+03  0.25500000920E-02 0. -1.
    10030    2    1    2    0    0  0.00000000000E+00  0.00000000000E+00  0.81162914517E+03  0.18962206929E+04  0.17137418262E+04 0.  0.
        5    1    3    3  502    0  0.41622489700E+03  0.23923210184E+02 -0.42248749610E+03  0.59357666668E+03  0.46999998093E+01 0. -1.
       -5    1    3    3    0  502 -0.41622489700E+03 -0.23923210184E+02  0.12341166413E+04  0.13026440262E+04  0.46999998093E+01 0.  1.
</event>
<event>
 5   0  0.2288806E-04  0.1685999E+04  0.7818609E-02  0.8769390E-01
       -2   -1    0    0    0  501  0.00000000000E+00  0.00000000000E+00  0.51879616179E+03  0.51879616180E+03  0.25500000920E-02 0. -1.
        2   -1    0    0  501    0  0.00000000000E+00  0.00000000000E+00 -0.13698030267E+04  0.13698030267E+04  0.25500000920E-02 0.  1.
    10030    2    1    2    0    0  0.00000000000E+00  0.00000000000E+00 -0.85100686491E+03  0.18885991885E+04  0.16859994694E+04 0.  0.
        3    1    3    3  502    0 -0.18487334947E+03  0.26642694405E+03  0.44613185106E+03  0.55153885683E+03  0.10100000352E+00 0. -1.
       -3    1    3    3    0  502  0.18487334947E+03 -0.26642694405E+03 -0.12971387160E+04  0.13370603317E+04  0.10100000352E+00 0.  1.
</event>
<event>
 5   0  0.2234723E-04  0.1705980E+04  0.7818609E-02  0.8757961E-01
        2   -1    0    0  501    0  0.00000000000E+00  0.00000000000E+00  0.86203472107E+03  0.86203472107E+03  0.25500000920E-02 0. -1.
       -2   -1    0    0    0  501  0.00000000000E+00  0.00000000000E+00 -0.84404054673E+03  0.84404054673E+03  0.25500000920E-02 0.  1.
    10030    2    1    2    0    0  0.00000000000E+00  0.00000000000E+00  0.17994174338E+02  0.17060752678E+04  0.17059803718E+04 0.  0.
        1    1    3    3  502    0  0.48794171191E+03  0.33249153181E+03  0.62462415328E+03  0.85953072419E+03  0.50400001928E-02 0. -1.
       -1    1    3    3    0  502 -0.48794171191E+03 -0.33249153181E+03 -0.60662997894E+03  0.84654454361E+03  0.50400001928E-02 0.  1.
</event>
<event>
 5   0  0.1186302E-04  0.1702471E+04  0.7818609E-02  0.8759957E-01
        1   -1    0    0  501    0  0.00000000000E+00  0.00000000000E+00  0.89869658129E+03  0.89869658131E+03  0.50400001928E-02 0. -1.
       -1   -1    0    0    0  501  0.00000000000E+00  0.00000000000E+00 -0.80628049195E+03  0.80628049197E+03  0.50400001928E-02 0.  1.
    10030    2    1    2    0    0  0.00000000000E+00  0.00000000000E+00  0.92416089336E+02  0.17049770733E+04  0.17024705832E+04 0.  0.
        3    1    3    3  502    0  0.25058992563E+03  0.58358072895E+03  0.61382264159E+03  0.88325535581E+03  0.10100000352E+00 0. -1.
       -3    1    3    3    0  502 -0.25058992563E+03 -0.58358072895E+03 -0.52140655226E+03  0.82172171747E+03  0.10100000352E+00 0.  1.
</event>
<event>
 5   0  0.1186302E-04  0.1683466E+04  0.7818609E-02  0.8770851E-01
        1   -1    0    0  501    0  0.00000000000E+00  0.00000000000E+00  0.11732884193E+04  0.11732884193E+04  0.50400001928E-02 0.  1.
       -1   -1    0    0    0  501  0.00000000000E+00  0.00000000000E+00 -0.60387037465E+03  0.60387037467E+03  0.50400001928E-02 0. -1.
    10030    2    1    2    0    0  0.00000000000E+00  0.00000000000E+00  0.56941804466E+03  0.17771587940E+04  0.16834656128E+04 0.  0.
        3    1    3    3  502    0  0.78978155040E+03  0.22959689122E+03  0.95736534111E+02  0.82803087140E+03  0.10100000352E+00 0.  1.
       -3    1    3    3    0  502 -0.78978155040E+03 -0.22959689122E+03  0.47368151055E+03  0.94912792260E+03  0.10100000352E+00 0. -1.
</event>
<event>
 5   0  0.2288806E-04  0.1700073E+04  0.7818609E-02  0.8761322E-01
        2   -1    0    0  501    0  0.00000000000E+00  0.00000000000E+00  0.70734426483E+03  0.70734426483E+03  0.25500000920E-02 0. -1.
       -2   -1    0    0    0  501  0.00000000000E+00  0.00000000000E+00 -0.10215144499E+04  0.10215144499E+04  0.25500000920E-02 0.  1.
    10030    2    1    2    0    0  0.00000000000E+00  0.00000000000E+00 -0.31417018503E+03  0.17288587147E+04  0.17000733955E+04 0.  0.
        3    1    3    3  502    0 -0.68510643380E+03 -0.16300220126E+02 -0.66851773691E+03  0.95736748304E+03  0.10100000352E+00 0. -1.
       -3    1    3    3    0  502  0.68510643380E+03  0.16300220126E+02  0.35434755188E+03  0.77149123166E+03  0.10100000352E+00 0.  1.
</event>
<event>
 5   0  0.1126958E-04  0.1707430E+04  0.7818609E-02  0.8757138E-01
        1   -1    0    0  501    0  0.00000000000E+00  0.00000000000E+00  0.96436239311E+03  0.96436239312E+03  0.50400001928E-02 0. -1.
       -1   -1    0    0    0  501  0.00000000000E+00  0.00000000000E+00 -0.75576330840E+03  0.75576330841E+03  0.50400001928E-02 0.  1.
    10030    2    1    2    0    0  0.00000000000E+00  0.00000000000E+00  0.20859908471E+03  0.17201257015E+04  0.17074304820E+04 0.  0.
        4    1    3    3  502    0 -0.70975909808E+03 -0.19610147163E+03  0.53950031301E+03  0.91283950677E+03  0.12699999809E+01 0. -1.
       -4    1    3    3    0  502  0.70975909808E+03  0.19610147163E+03 -0.33090122829E+03  0.80728619477E+03  0.12699999809E+01 0.  1.
</event>
<event>
 5   0  0.2234723E-04  0.1698130E+04  0.7818609E-02  0.8762432E-01
       -2   -1    0    0    0  501  0.00000000000E+00  0.00000000000E+00  0.64275012225E+03  0.64275012225E+03  0.25500000920E-02 0. -1.
        2   -1    0    0  501    0  0.00000000000E+00  0.00000000000E+00 -0.11216045902E+04  0.11216045902E+04  0.25500000920E-02 0.  1.
    10030    2    1    2    0    0  0.00000000000E+00  0.00000000000E+00 -0.47885446799E+03  0.17643547125E+04  0.16981301334E+04 0.  0.
        1    1    3    3  502    0 -0.76092679210E+03 -0.28483547831E+03 -0.49555808423E+03  0.95169251732E+03  0.50400001928E-02 0.  1.
       -1    1    3    3    0  502  0.76092679210E+03  0.28483547831E+03  0.16703616245E+02  0.81266219517E+03  0.50400001928E-02 0. -1.
</event>
<event>
 5   0  0.2288806E-04  0.1701378E+04  0.7818609E-02  0.8760579E-01
       -2   -1    0    0    0  501  0.00000000000E+00  0.00000000000E+00  0.71463845339E+03  0.71463845339E+03  0.25500000920E-02 0. -1.
        2   -1    0    0  501    0  0.00000000000E+00  0.00000000000E+00 -0.10126399317E+04  0.10126399317E+04  0.25500000920E-02 0.  1.
    10030    2    1    2    0    0  0.00000000000E+00  0.00000000000E+00 -0.29800147828E+03  0.17272783851E+04  0.17013776002E+04 0.  0.
        3    1    3    3  502    0 -0.73335335847E+03 -0.37343651237E+03  0.69707339632E+02  0.82590622988E+03  0.10100000352E+00 0. -1.
       -3    1    3    3    0  502  0.73335335847E+03  0.37343651237E+03 -0.36770881791E+03  0.90137215518E+03  0.10100000352E+00 0.  1.
</event>
<event>
 5   0  0.1204741E-04  0.1701747E+04  0.7818609E-02  0.8760368E-01
       -1   -1    0    0    0  501  0.00000000000E+00  0.00000000000E+00  0.71832756280E+03  0.71832756282E+03  0.50400001928E-02 0.  1.
        1   -1    0    0  501    0  0.00000000000E+00  0.00000000000E+00 -0.10078772377E+04  0.10078772377E+04  0.50400001928E-02 0. -1.
    10030    2    1    2    0    0  0.00000000000E+00  0.00000000000E+00 -0.28954967487E+03  0.17262048005E+04  0.17017473370E+04 0.  0.
        1    1    3    3  502    0 -0.76848404425E+03 -0.35520849125E+03 -0.23111690931E+03  0.87758522339E+03  0.50400001928E-02 0. -1.
       -1    1    3    3    0  502  0.76848404425E+03  0.35520849125E+03 -0.58432765560E+02  0.84861957710E+03  0.50400001928E-02 0.  1.
</event>
<event>
 5   0  0.2288806E-04  0.1664203E+04  0.7818609E-02  0.8782048E-01
        2   -1    0    0  501    0  0.00000000000E+00  0.00000000000E+00  0.73255900448E+03  0.73255900448E+03  0.25500000920E-02 0. -1.
       -2   -1    0    0    0  501  0.00000000000E+00  0.00000000000E+00 -0.94517010649E+03  0.94517010649E+03  0.25500000920E-02 0.  1.
    10030    2    1    2    0    0  0.00000000000E+00  0.00000000000E+00 -0.21261110201E+03  0.16777291110E+04  0.16642029591E+04 0.  0.
        3    1    3    3  502    0  0.49753942002E+03  0.66551015204E+03 -0.15075043759E+03  0.84449685706E+03  0.10100000352E+00 0.  1.
       -3    1    3    3    0  502 -0.49753942002E+03 -0.66551015204E+03 -0.61860664420E+02  0.83323225391E+03  0.10100000352E+00 0. -1.
</event>
<event>
 5   0  0.2234723E-04  0.1672159E+04  0.7818609E-02  0.8777405E-01
        2   -1    0    0  501    0  0.00000000000E+00  0.00000000000E+00  0.81154710062E+03  0.81154710062E+03  0.25500000920E-02 0. -1.
       -2   -1    0    0    0  501  0.00000000000E+00  0.00000000000E+00 -0.86135313127E+03  0.86135313128E+03  0.25500000920E-02 0.  1.
    10030    2    1    2    0    0  0.00000000000E+00  0.00000000000E+00 -0.49806030655E+02  0.16729002319E+04  0.16721586483E+04 0.  0.
        1    1    3    3  502    0 -0.51811000118E+03  0.25862961308E+03  0.57844104297E+03  0.81848719617E+03  0.50400001928E-02 0. -1.
       -1    1    3    3    0  502  0.51811000118E+03 -0.25862961308E+03 -0.62824707362E+03  0.85441303573E+03  0.50400001928E-02 0.  1.
</event>
<event>
 5   0  0.1215233E-04  0.1706971E+04  0.7818609E-02  0.8757399E-01
        1   -1    0    0  501    0  0.00000000000E+00  0.00000000000E+00  0.10279462180E+04  0.10279462180E+04  0.50400001928E-02 0.  1.
       -1   -1    0    0    0  501  0.00000000000E+00  0.00000000000E+00 -0.70863386612E+03  0.70863386614E+03  0.50400001928E-02 0. -1.
    10030    2    1    2    0    0  0.00000000000E+00  0.00000000000E+00  0.31931235186E+03  0.17365800841E+04  0.17069710046E+04 0.  0.
        2    1    3    3  502    0  0.26620877035E+03 -0.86086348126E+02 -0.66065502126E+03  0.71745594002E+03  0.25500000920E-02 0. -1.
       -2    1    3    3    0  502 -0.26620877035E+03  0.86086348126E+02  0.97996737312E+03  0.10191241441E+04  0.25500000920E-02 0.  1.
</event>
<event>
 5   0  0.2242967E-04  0.1737772E+04  0.7818609E-02  0.8740110E-01
       -2   -1    0    0    0  501  0.00000000000E+00  0.00000000000E+00  0.12493830826E+04  0.12493830826E+04  0.25500000920E-02 0. -1.
        2   -1    0    0  501    0  0.00000000000E+00  0.00000000000E+00 -0.60426838724E+03  0.60426838724E+03  0.25500000920E-02 0.  1.
    10030    2    1    2    0    0  0.00000000000E+00  0.00000000000E+00  0.64511469537E+03  0.18536514698E+04  0.17377717921E+04 0.  0.
        4    1    3    3  502    0 -0.18716004018E+03 -0.43805026256E+02 -0.58130352996E+03  0.61226070249E+03  0.12699999809E+01 0.  1.
       -4    1    3    3    0  502  0.18716004018E+03  0.43805026256E+02  0.12264182253E+04  0.12413907674E+04  0.12699999809E+01 0. -1.
</event>
<event>
 5   0  0.2224454E-04  0.1708116E+04  0.7818609E-02  0.8756749E-01
       -2   -1    0    0    0  501  0.00000000000E+00  0.00000000000E+00  0.51954331093E+03  0.51954331093E+03  0.25500000920E-02 0. -1.
        2   -1    0    0  501    0  0.00000000000E+00  0.00000000000E+00 -0.14039543330E+04  0.14039543330E+04  0.25500000920E-02 0.  1.
    10030    2    1    2    0    0  0.00000000000E+00  0.00000000000E+00 -0.88441102207E+03  0.19234976439E+04  0.17081160178E+04 0.  0.
        2    1    3    3  502    0 -0.49999292085E+03 -0.65218286649E+03 -0.70407886532E+03  0.10821563939E+04  0.25500000920E-02 0.  1.
       -2    1    3    3    0  502  0.49999292085E+03  0.65218286649E+03 -0.18033215675E+03  0.84134125004E+03  0.25500000920E-02 0. -1.
</event>
<event>
 5   0  0.1186302E-04  0.1683269E+04  0.7818609E-02  0.8770965E-01
       -1   -1    0    0    0  501  0.00000000000E+00  0.00000000000E+00  0.10530496600E+04  0.10530496600E+04  0.50400001928E-02 0. -1.
        1   -1    0    0  501    0  0.00000000000E+00  0.00000000000E+00 -0.67266393216E+03  0.67266393218E+03  0.50400001928E-02 0.  1.
    10030    2    1    2    0    0  0.00000000000E+00  0.00000000000E+00  0.38038572779E+03  0.17257135921E+04  0.16832688734E+04 0.  0.
        3    1    3    3  502    0  0.58810032923E+03  0.57841759279E+03  0.18887930860E+02  0.82509737184E+03  0.10100000352E+00 0.  1.
       -3    1    3    3    0  502 -0.58810032923E+03 -0.57841759279E+03  0.36149779693E+03  0.90061622030E+03  0.10100000352E+00 0. -1.
</event>
<event>
 5   0  0.1126958E-04  0.1686345E+04  0.7818609E-02  0.8769191E-01
        1   -1    0    0  501    0  0.00000000000E+00  0.00000000000E+00  0.61281734709E+03  0.61281734711E+03  0.50400001928E-02 0. -1.
       -1   -1    0    0    0  501  0.00000000000E+00  0.00000000000E+00 -0.11601172324E+04  0.11601172324E+04  0.50400001928E-02 0.  1.
    10030    2    1    2    0    0  0.00000000000E+00  0.00000000000E+00 -0.54729988529E+03  0.17729345795E+04  0.16863451185E+04 0.  0.
        4    1    3    3  502    0 -0.82737379813E+02  0.12138810369E+03  0.59925831056E+03  0.61700298330E+03  0.12699999809E+01 0. -1.
       -4    1    3    3    0  502  0.82737379813E+02 -0.12138810369E+03 -0.11465581958E+04  0.11559315962E+04  0.12699999809E+01 0.  1.
</event>
<event>
 5   0  0.1234158E-04  0.1700881E+04  0.7818609E-02  0.8760862E-01
       -1   -1    0    0    0  501  0.00000000000E+00  0.00000000000E+00  0.49832298745E+03  0.49832298747E+03  0.50400001928E-02 0. -1.
        1   -1    0    0  501    0  0.00000000000E+00  0.00000000000E+00 -0.14513660225E+04  0.14513660225E+04  0.50400001928E-02 0.  1.
    10030    2    1    2    0    0  0.00000000000E+00  0.00000000000E+00 -0.95304303503E+03  0.19496890100E+04  0.17008810096E+04 0.  0.
        5    1    3    3  502    0  0.38287808869E+02  0.77614329540E+03 -0.87254918691E+03  0.11684299486E+04  0.46999998093E+01 0.  1.
       -5    1    3    3    0  502 -0.38287808869E+02 -0.77614329540E+03 -0.80493848120E+02  0.78125906132E+03  0.46999998093E+01 0. -1.
</event>
<event>
 5   0  0.1126958E-04  0.1707081E+04  0.7818609E-02  0.8757336E-01
       -1   -1    0    0    0  501  0.00000000000E+00  0.00000000000E+00  0.60852926935E+03  0.60852926937E+03  0.50400001928E-02 0.  1.
        1   -1    0    0  501    0  0.00000000000E+00  0.00000000000E+00 -0.11972005477E+04  0.11972005477E+04  0.50400001928E-02 0. -1.
    10030    2    1    2    0    0  0.00000000000E+00  0.00000000000E+00 -0.58867127836E+03  0.18057298171E+04  0.17070812220E+04 0.  0.
        4    1    3    3  502    0  0.85160995978E+03 -0.49042037089E+02 -0.26286193119E+03  0.89260442121E+03  0.12699999809E+01 0.  1.
       -4    1    3    3    0  502 -0.85160995978E+03  0.49042037089E+02 -0.32580934717E+03  0.91312539588E+03  0.12699999809E+01 0. -1.
</event>
<event>
 5   0  0.1204741E-04  0.1661714E+04  0.7818609E-02  0.8783506E-01
       -1   -1    0    0    0  501  0.00000000000E+00  0.00000000000E+00  0.10328508638E+04  0.10328508638E+04  0.50400001928E-02 0. -1.
        1   -1    0    0  501    0  0.00000000000E+00  0.00000000000E+00 -0.66836713129E+03  0.66836713131E+03  0.50400001928E-02 0.  1.
    10030    2    1    2    0    0  0.00000000000E+00  0.00000000000E+00  0.36448373251E+03  0.17012179951E+04  0.16617142581E+04 0.  0.
        1    1    3    3  502    0  0.35657784320E+03  0.68567826793E+03  0.49448608924E+03  0.91750691433E+03  0.50400001928E-02 0. -1.
       -1    1    3    3    0  502 -0.35657784320E+03 -0.68567826793E+03 -0.13000235673E+03  0.78371108079E+03  0.50400001928E-02 0.  1.
</event>
<event>
 5   0  0.2356829E-04  0.1715025E+04  0.7818609E-02  0.8752841E-01
       -2   -1    0    0    0  501  0.00000000000E+00  0.00000000000E+00  0.12026201480E+04  0.12026201480E+04  0.25500000920E-02 0. -1.
        2   -1    0    0  501    0  0.00000000000E+00  0.00000000000E+00 -0.61143799174E+03  0.61143799174E+03  0.25500000920E-02 0.  1.
    10030    2    1    2    0    0  0.00000000000E+00  0.00000000000E+00  0.59118215628E+03  0.18140581398E+04  0.17150249539E+04 0.  0.
        5    1    3    3  502    0 -0.57635565925E+03 -0.37576691488E+03 -0.24574155554E+03  0.73061455117E+03  0.46999998093E+01 0.  1.
       -5    1    3    3    0  502  0.57635565925E+03  0.37576691488E+03  0.83692371183E+03  0.10834435886E+04  0.46999998093E+01 0. -1.
</event>
<event>
 5   0  0.1126958E-04  0.1752318E+04  0.7818609E-02  0.8732075E-01
        1   -1    0    0  501    0  0.00000000000E+00  0.00000000000E+00  0.84852346078E+03  0.84852346079E+03  0.50400001928E-02 0.  1.
       -1   -1    0    0    0  501  0.00000000000E+00  0.00000000000E+00 -0.90469492997E+03  0.90469492998E+03  0.50400001928E-02 0. -1.
    10030    2    1    2    0    0  0.00000000000E+00  0.00000000000E+00 -0.56171469192E+02  0.17532183908E+04  0.17523183192E+04 0.  0.
        4    1    3    3  502    0  0.71656698831E+03 -0.45476510413E+03 -0.24585256065E+03  0.88358623979E+03  0.12699999809E+01 0.  1.
       -4    1    3    3    0  502 -0.71656698831E+03  0.45476510413E+03  0.18968109146E+03  0.86963215098E+03  0.12699999809E+01 0. -1.
</event>
<event>
 5   0  0.8372750E-05  0.1712758E+04  0.7818609E-02  0.8754121E-01
        4   -1    0    0  501    0  0.00000000000E+00  0.00000000000E+00  0.11653687774E+04  0.11653694694E+04  0.12699999809E+01 0.  1.
       -4   -1    0    0    0  501  0.00000000000E+00  0.00000000000E+00 -0.62931425060E+03  0.62931553207E+03  0.12699999809E+01 0. -1.
    10030    2    1    2    0    0  0.00000000000E+00  0.00000000000E+00  0.53605452675E+03  0.17946850014E+04  0.17127579510E+04 0.  0.
        2    1    3    3  502    0 -0.74539556791E+03  0.41485991133E+03  0.34687038089E+03  0.92089215429E+03  0.25500000920E-02 0.  1.
       -2    1    3    3    0  502  0.74539556791E+03 -0.41485991133E+03  0.18918414586E+03  0.87379284715E+03  0.25500000920E-02 0. -1.
</event>
<event>
 5   0  0.2288806E-04  0.1693182E+04  0.7818609E-02  0.8765262E-01
       -2   -1    0    0    0  501  0.00000000000E+00  0.00000000000E+00  0.54300509915E+03  0.54300509916E+03  0.25500000920E-02 0.  1.
        2   -1    0    0  501    0  0.00000000000E+00  0.00000000000E+00 -0.13199072183E+04  0.13199072183E+04  0.25500000920E-02 0. -1.
    10030    2    1    2    0    0  0.00000000000E+00  0.00000000000E+00 -0.77690211913E+03  0.18629123174E+04  0.16931820339E+04 0.  0.
        3    1    3    3  502    0 -0.64077850200E+03 -0.92627557268E+02 -0.98860269573E+03  0.11817411955E+04  0.10100000352E+00 0.  1.
       -3    1    3    3    0  502  0.64077850200E+03  0.92627557268E+02  0.21170057661E+03  0.68117112192E+03  0.10100000352E+00 0. -1.
</event>
<event>
 5   0  0.2288806E-04  0.1689956E+04  0.7818609E-02  0.8767114E-01
       -2   -1    0    0    0  501  0.00000000000E+00  0.00000000000E+00  0.10620096313E+04  0.10620096313E+04  0.25500000920E-02 0. -1.
        2   -1    0    0  501    0  0.00000000000E+00  0.00000000000E+00 -0.67229885971E+03  0.67229885972E+03  0.25500000920E-02 0.  1.
    10030    2    1    2    0    0  0.00000000000E+00  0.00000000000E+00  0.38971077155E+03  0.17343084910E+04  0.16899560516E+04 0.  0.
        3    1    3    3  502    0  0.98677203682E+02 -0.77952118570E+03 -0.12410270516E+03  0.79548221923E+03  0.10100000352E+00 0.  1.
       -3    1    3    3    0  502 -0.98677203682E+02  0.77952118570E+03  0.51381347671E+03  0.93882627175E+03  0.10100000352E+00 0. -1.
</event>
<event>
 5   0  0.1234158E-04  0.1692707E+04  0.7818609E-02  0.8765535E-01
       -1   -1    0    0    0  501  0.00000000000E+00  0.00000000000E+00  0.95705988181E+03  0.95705988183E+03  0.50400001928E-02 0. -1.
        1   -1    0    0  501    0  0.00000000000E+00  0.00000000000E+00 -0.74845309062E+03  0.74845309064E+03  0.50400001928E-02 0.  1.
    10030    2    1    2    0    0  0.00000000000E+00  0.00000000000E+00  0.20860679119E+03  0.17055129725E+04  0.16927072121E+04 0.  0.
        5    1    3    3  502    0 -0.21979953895E+02 -0.62403679364E+02  0.95443713794E+03  0.95673908557E+03  0.46999998093E+01 0. -1.
       -5    1    3    3    0  502  0.21979953895E+02  0.62403679364E+02 -0.74583034675E+03  0.74877388690E+03  0.46999998093E+01 0.  1.
</event>
<event>
 5   0  0.2356829E-04  0.1709847E+04  0.7818609E-02  0.8755768E-01
       -2   -1    0    0    0  501  0.00000000000E+00  0.00000000000E+00  0.33795303968E+03  0.33795303969E+03  0.25500000920E-02 0.  1.
        2   -1    0    0  501    0  0.00000000000E+00  0.00000000000E+00 -0.21627094766E+04  0.21627094766E+04  0.25500000920E-02 0. -1.
    10030    2    1    2    0    0  0.00000000000E+00  0.00000000000E+00 -0.18247564369E+04  0.25006625163E+04  0.17098470593E+04 0.  0.
        5    1    3    3  502    0 -0.72641436505E+03 -0.12601939961E+03 -0.15453469841E+04  0.17122143879E+04  0.46999998093E+01 0. -1.
       -5    1    3    3    0  502  0.72641436505E+03  0.12601939961E+03 -0.27940945278E+03  0.78844812838E+03  0.46999998093E+01 0.  1.
</event>
<event>
 5   0  0.2288806E-04  0.1680162E+04  0.7818609E-02  0.8772760E-01
       -2   -1    0    0    0  501  0.00000000000E+00  0.00000000000E+00  0.91679009026E+03  0.91679009026E+03  0.25500000920E-02 0.  1.
        2   -1    0    0  501    0  0.00000000000E+00  0.00000000000E+00 -0.76979071547E+03  0.76979071547E+03  0.25500000920E-02 0. -1.
    10030    2    1    2    0    0  0.00000000000E+00  0.00000000000E+00  0.14699937479E+03  0.16865808057E+04  0.16801624916E+04 0.  0.
        3    1    3    3  502    0  0.58313044521E+02  0.83385566507E+03 -0.10610657969E+02  0.83595949519E+03  0.10100000352E+00 0. -1.
       -3    1    3    3    0  502 -0.58313044521E+02 -0.83385566507E+03  0.15761003276E+03  0.85062131055E+03  0.10100000352E+00 0.  1.
</event>
<event>
 5   0  0.1186302E-04  0.1695589E+04  0.7818609E-02  0.8763884E-01
        1   -1    0    0  501    0  0.00000000000E+00  0.00000000000E+00  0.81437568734E+03  0.81437568736E+03  0.50400001928E-02 0. -1.
       -1   -1    0    0    0  501  0.00000000000E+00  0.00000000000E+00 -0.88258478758E+03  0.88258478760E+03  0.50400001928E-02 0.  1.
    10030    2    1    2    0    0  0.00000000000E+00  0.00000000000E+00 -0.68209100245E+02  0.16969604750E+04  0.16955890930E+04 0.  0.
        3    1    3    3  502    0 -0.32041078142E+03  0.65246816878E+03  0.40257139385E+03  0.83092810608E+03  0.10100000352E+00 0. -1.
       -3    1    3    3    0  502  0.32041078142E+03 -0.65246816878E+03 -0.47078049409E+03  0.86603236888E+03  0.10100000352E+00 0.  1.
</event>
<event>
 5   0  0.1186302E-04  0.1696904E+04  0.7818609E-02  0.8763132E-01
       -1   -1    0    0    0  501  0.00000000000E+00  0.00000000000E+00  0.14958098350E+04  0.14958098350E+04  0.50400001928E-02 0.  1.
        1   -1    0    0  501    0  0.00000000000E+00  0.00000000000E+00 -0.48125794953E+03  0.48125794955E+03  0.50400001928E-02 0. -1.
    10030    2    1    2    0    0  0.00000000000E+00  0.00000000000E+00  0.10145518855E+04  0.19770677846E+04  0.16969035024E+04 0.  0.
        3    1    3    3  502    0 -0.46910047751E+03 -0.12174623763E+03  0.13186705755E+04  0.14049090722E+04  0.10100000352E+00 0.  1.
       -3    1    3    3    0  502  0.46910047751E+03  0.12174623763E+03 -0.30411868995E+03  0.57215871239E+03  0.10100000352E+00 0. -1.
</event>
<event>
 5   0  0.1126958E-04  0.1699914E+04  0.7818609E-02  0.8761414E-01
        1   -1    0    0  501    0  0.00000000000E+00  0.00000000000E+00  0.10857501025E+04  0.10857501025E+04  0.50400001928E-02 0. -1.
       -1   -1    0    0    0  501  0.00000000000E+00  0.00000000000E+00 -0.66537105146E+03  0.66537105148E+03  0.50400001928E-02 0.  1.
    10030    2    1    2    0    0  0.00000000000E+00  0.00000000000E+00  0.42037905101E+03  0.17511211540E+04  0.16999137476E+04 0.  0.
        4    1    3    3  502    0  0.29411323061E+03  0.63821115485E+03  0.70272325145E+03  0.99379960335E+03  0.12699999809E+01 0. -1.
       -4    1    3    3    0  502 -0.29411323061E+03 -0.63821115485E+03 -0.28234420044E+03  0.75732155061E+03  0.12699999809E+01 0.  1.
</event>
<event>
 5   0  0.2234723E-04  0.1701786E+04  0.7818609E-02  0.8760346E-01
       -2   -1    0    0    0  501  0.00000000000E+00  0.00000000000E+00  0.12967423808E+04  0.12967423808E+04  0.25500000920E-02 0.  1.
        2   -1    0    0  501    0  0.00000000000E+00  0.00000000000E+00 -0.55833660404E+03  0.55833660405E+03  0.25500000920E-02 0. -1.
    10030    2    1    2    0    0  0.00000000000E+00  0.00000000000E+00  0.73840577679E+03  0.18550789849E+04  0.17017858117E+04 0.  0.
        1    1    3    3  502    0 -0.44604891864E+03 -0.45071343585E+03 -0.24928204499E+03  0.68135436966E+03  0.50400001928E-02 0. -1.
       -1    1    3    3    0  502  0.44604891864E+03  0.45071343585E+03  0.98768782178E+03  0.11737246152E+04  0.50400001928E-02 0.  1.
</event>
<event>
 5   0  0.2356829E-04  0.1715804E+04  0.7818609E-02  0.8752402E-01
        2   -1    0    0  501    0  0.00000000000E+00  0.00000000000E+00  0.18331635933E+04  0.18331635933E+04  0.25500000920E-02 0.  1.
       -2   -1    0    0    0  501  0.00000000000E+00  0.00000000000E+00 -0.40148945943E+03  0.40148945944E+03  0.25500000920E-02 0. -1.
    10030    2    1    2    0    0  0.00000000000E+00  0.00000000000E+00  0.14316741339E+04  0.22346530528E+04  0.17158040216E+04 0.  0.
        5    1    3    3  502    0  0.62211812810E+03  0.30866964627E+03  0.59882999634E+02  0.69707673859E+03  0.46999998093E+01 0. -1.
       -5    1    3    3    0  502 -0.62211812810E+03 -0.30866964627E+03  0.13717911343E+04  0.15375763142E+04  0.46999998093E+01 0.  1.
</event>
<event>
 5   0  0.2224454E-04  0.1691818E+04  0.7818609E-02  0.8766045E-01
       -2   -1    0    0    0  501  0.00000000000E+00  0.00000000000E+00  0.15237488477E+04  0.15237488477E+04  0.25500000920E-02 0.  1.
        2   -1    0    0  501    0  0.00000000000E+00  0.00000000000E+00 -0.46960639294E+03  0.46960639295E+03  0.25500000920E-02 0. -1.
    10030    2    1    2    0    0  0.00000000000E+00  0.00000000000E+00  0.10541424548E+04  0.19933552407E+04  0.16918181937E+04 0.  0.
        2    1    3    3  502    0  0.35218606436E+03  0.54598870158E+03 -0.11116061513E+03  0.65916262678E+03  0.25500000920E-02 0. -1.
       -2    1    3    3    0  502 -0.35218606436E+03 -0.54598870158E+03  0.11653030699E+04  0.13341926139E+04  0.25500000920E-02 0.  1.
</event>
<event>
 5   0  0.2288806E-04  0.1677909E+04  0.7818609E-02  0.8774065E-01
       -2   -1    0    0    0  501  0.00000000000E+00  0.00000000000E+00  0.90662008265E+03  0.90662008266E+03  0.25500000920E-02 0. -1.
        2   -1    0    0  501    0  0.00000000000E+00  0.00000000000E+00 -0.77633878092E+03  0.77633878092E+03  0.25500000920E-02 0.  1.
    10030    2    1    2    0    0  0.00000000000E+00  0.00000000000E+00  0.13028130174E+03  0.16829588636E+04  0.16779086146E+04 0.  0.
        3    1    3    3  502    0  0.43773454820E+03 -0.18417053733E+03  0.75882475440E+03  0.89517894278E+03  0.10100000352E+00 0. -1.
       -3    1    3    3    0  502 -0.43773454820E+03  0.18417053733E+03 -0.62854345267E+03  0.78777992079E+03  0.10100000352E+00 0.  1.
</event>
<event>
 5   0  0.1215233E-04  0.1706879E+04  0.7818609E-02  0.8757451E-01
       -1   -1    0    0    0  501  0.00000000000E+00  0.00000000000E+00  0.62351532907E+03  0.62351532909E+03  0.50400001928E-02 0. -1.
        1   -1    0    0  501    0  0.00000000000E+00  0.00000000000E+00 -0.11681491812E+04  0.11681491812E+04  0.50400001928E-02 0.  1.
    10030    2    1    2    0    0  0.00000000000E+00  0.00000000000E+00 -0.54463385209E+03  0.17916645103E+04  0.17068789308E+04 0.  0.
        2    1    3    3  502    0  0.55498599845E+02 -0.25386692502E+03  0.58097764766E+03  0.63644602072E+03  0.25500000920E-02 0. -1.
       -2    1    3    3    0  502 -0.55498599845E+02  0.25386692502E+03 -0.11256114997E+04  0.11552184895E+04  0.25500000920E-02 0.  1.
</event>
<event>
 5   0  0.1204741E-04  0.1697077E+04  0.7818609E-02  0.8763033E-01
        1   -1    0    0  501    0  0.00000000000E+00  0.00000000000E+00  0.56283914627E+03  0.56283914629E+03  0.50400001928E-02 0.  1.
       -1   -1    0    0    0  501  0.00000000000E+00  0.00000000000E+00 -0.12792597479E+04  0.12792597480E+04  0.50400001928E-02 0. -1.
    10030    2    1    2    0    0  0.00000000000E+00  0.00000000000E+00 -0.71642060167E+03  0.18420988942E+04  0.16970768567E+04 0.  0.
        1    1    3    3  502    0  0.39996279443E+03  0.27023422174E+03 -0.11157146628E+04  0.12156545481E+04  0.50400001928E-02 0. -1.
       -1    1    3    3    0  502 -0.39996279443E+03 -0.27023422174E+03  0.39929406113E+03  0.62644434614E+03  0.50400001928E-02 0.  1.
</event>
<event>
 5   0  0.2288806E-04  0.1693673E+04  0.7818609E-02  0.8764981E-01
        2   -1    0    0  501    0  0.00000000000E+00  0.00000000000E+00  0.18447768661E+04  0.18447768661E+04  0.25500000920E-02 0.  1.
       -2   -1    0    0    0  501  0.00000000000E+00  0.00000000000E+00 -0.38873668341E+03  0.38873668342E+03  0.25500000920E-02 0. -1.
    10030    2    1    2    0    0  0.00000000000E+00  0.00000000000E+00  0.14560401827E+04  0.22335135495E+04  0.16936734521E+04 0.  0.
        3    1    3    3  502    0 -0.26240407726E+03  0.13390523526E+03  0.17750241951E+04  0.17993047033E+04  0.10100000352E+00 0.  1.
       -3    1    3    3    0  502  0.26240407726E+03 -0.13390523526E+03 -0.31898401242E+03  0.43420884626E+03  0.10100000352E+00 0. -1.
</event>
<event>
 5   0  0.2356829E-04  0.1699834E+04  0.7818609E-02  0.8761459E-01
        2   -1    0    0  501    0  0.00000000000E+00  0.00000000000E+00  0.14808161963E+04  0.14808161963E+04  0.25500000920E-02 0. -1.
       -2   -1    0    0    0  501  0.00000000000E+00  0.00000000000E+00 -0.48781149892E+03  0.48781149893E+03  0.25500000920E-02 0.  1.
    10030    2    1    2    0    0  0.00000000000E+00  0.00000000000E+00  0.99300469742E+03  0.19686276953E+04  0.16998343077E+04 0.  0.
        5    1    3    3  502    0 -0.51604891193E+03 -0.33477507175E+01  0.12785778030E+04  0.13788041831E+04  0.46999998093E+01 0. -1.
       -5    1    3    3    0  502  0.51604891193E+03  0.33477507175E+01 -0.28557310557E+03  0.58982351221E+03  0.46999998093E+01 0.  1.
</event>
<event>
 5   0  0.1186302E-04  0.1693934E+04  0.7818609E-02  0.8764832E-01
       -1   -1    0    0    0  501  0.00000000000E+00  0.00000000000E+00  0.75960971205E+03  0.75960971207E+03  0.50400001928E-02 0. -1.
        1   -1    0    0  501    0  0.00000000000E+00  0.00000000000E+00 -0.94437056967E+03  0.94437056969E+03  0.50400001928E-02 0.  1.
    10030    2    1    2    0    0  0.00000000000E+00  0.00000000000E+00 -0.18476085762E+03  0.17039802818E+04  0.16939339498E+04 0.  0.
        3    1    3    3  502    0 -0.26137665986E+03 -0.37597883467E+03 -0.80911948190E+03  0.92970543111E+03  0.10100000352E+00 0.  1.
       -3    1    3    3    0  502  0.26137665986E+03  0.37597883467E+03  0.62435862428E+03  0.77427485065E+03  0.10100000352E+00 0. -1.
</event>
<event>
 5   0  0.1215233E-04  0.1677207E+04  0.7818609E-02  0.8774472E-01
        1   -1    0    0  501    0  0.00000000000E+00  0.00000000000E+00  0.96925253712E+03  0.96925253713E+03  0.50400001928E-02 0. -1.
       -1   -1    0    0    0  501  0.00000000000E+00  0.00000000000E+00 -0.72556505648E+03  0.72556505650E+03  0.50400001928E-02 0.  1.
    10030    2    1    2    0    0  0.00000000000E+00  0.00000000000E+00  0.24368748064E+03  0.16948175936E+04  0.16772069304E+04 0.  0.
        2    1    3    3  502    0  0.24089422660E+03  0.78781888362E+03 -0.36541134163E+02  0.82463560212E+03  0.25500000920E-02 0.  1.
       -2    1    3    3    0  502 -0.24089422660E+03 -0.78781888362E+03  0.28022861480E+03  0.87018199151E+03  0.25500000920E-02 0. -1.
</event>
<event>
 5   0  0.1215233E-04  0.1687856E+04  0.7818609E-02  0.8768321E-01
        1   -1    0    0  501    0  0.00000000000E+00  0.00000000000E+00  0.93250966030E+03  0.93250966032E+03  0.50400001928E-02 0. -1.
       -1   -1    0    0    0  501  0.00000000000E+00  0.00000000000E+00 -0.76376078078E+03  0.76376078080E+03  0.50400001928E-02 0.  1.
    10030    2    1    2    0    0  0.00000000000E+00  0.00000000000E+00  0.16874887952E+03  0.16962704411E+04  0.16878558070E+04 0.  0.
        2    1    3    3  502    0 -0.24252217066E+03 -0.20233180037E+02 -0.72773082509E+03  0.76734512354E+03  0.25500000920E-02 0.  1.
       -2    1    3    3    0  502  0.24252217066E+03  0.20233180037E+02  0.89647970461E+03  0.92892531757E+03  0.25500000920E-02 0. -1.
</event>
<event>
 5   0  0.2242967E-04  0.1687610E+04  0.7818609E-02  0.8768463E-01
       -2   -1    0    0    0  501  0.00000000000E+00  0.00000000000E+00  0.95937022909E+03  0.95937022910E+03  0.25500000920E-02 0. -1.
        2   -1    0    0  501    0  0.00000000000E+00  0.00000000000E+00 -0.74216073233E+03  0.74216073233E+03  0.25500000920E-02 0.  1.
    10030    2    1    2    0    0  0.00000000000E+00  0.00000000000E+00  0.21720949677E+03  0.17015309614E+04  0.16876100400E+04 0.  0.
        4    1    3    3  502    0  0.15701879260E+03  0.44417637270E+03  0.81442056360E+03  0.94086663168E+03  0.12699999809E+01 0. -1.
       -4    1    3    3    0  502 -0.15701879260E+03 -0.44417637270E+03 -0.59721106683E+03  0.76066432974E+03  0.12699999809E+01 0.  1.
</event>
<event>
 5   0  0.1234158E-04  0.1630797E+04  0.7818609E-02  0.8801849E-01
        1   -1    0    0  501    0  0.00000000000E+00  0.00000000000E+00  0.15794983752E+04  0.15794983752E+04  0.50400001928E-02 0.  1.
       -1   -1    0    0    0  501  0.00000000000E+00  0.00000000000E+00 -0.42094034154E+03  0.42094034157E+03  0.50400001928E-02 0. -1.
    10030    2    1    2    0    0  0.00000000000E+00  0.00000000000E+00  0.11585580336E+04  0.20004387167E+04  0.16307968427E+04 0.  0.
        5    1    3    3  502    0  0.69637537215E+03  0.33456336652E+03  0.25944859423E+03  0.81498893747E+03  0.46999998093E+01 0.  1.
       -5    1    3    3    0  502 -0.69637537215E+03 -0.33456336652E+03  0.89910943940E+03  0.11854497793E+04  0.46999998093E+01 0. -1.
</event>
<event>
 5   0  0.2356829E-04  0.1705866E+04  0.7818609E-02  0.8758026E-01
        2   -1    0    0  501    0  0.00000000000E+00  0.00000000000E+00  0.98906561741E+03  0.98906561741E+03  0.25500000920E-02 0. -1.
       -2   -1    0    0    0  501  0.00000000000E+00  0.00000000000E+00 -0.73553773980E+03  0.73553773980E+03  0.25500000920E-02 0.  1.
    10030    2    1    2    0    0  0.00000000000E+00  0.00000000000E+00  0.25352787761E+03  0.17246033572E+04  0.17058664529E+04 0.  0.
        5    1    3    3  502    0  0.76085754121E+03 -0.16599193622E+03 -0.22492981781E+03  0.81060041564E+03  0.46999998093E+01 0. -1.
       -5    1    3    3    0  502 -0.76085754121E+03  0.16599193622E+03  0.47845769542E+03  0.91400294158E+03  0.46999998093E+01 0.  1.
</event>
<event>
 5   0  0.1215233E-04  0.1708549E+04  0.7818609E-02  0.8756504E-01
        1   -1    0    0  501    0  0.00000000000E+00  0.00000000000E+00  0.12230498715E+04  0.12230498715E+04  0.50400001928E-02 0. -1.
       -1   -1    0    0    0  501  0.00000000000E+00  0.00000000000E+00 -0.59669237059E+03  0.59669237061E+03  0.50400001928E-02 0.  1.
    10030    2    1    2    0    0  0.00000000000E+00  0.00000000000E+00  0.62635750088E+03  0.18197422421E+04  0.17085485386E+04 0.  0.
        2    1    3    3  502    0  0.76405153944E+03  0.36162862466E+03  0.44463971113E+03  0.95512014417E+03  0.25500000920E-02 0.  1.
       -2    1    3    3    0  502 -0.76405153944E+03 -0.36162862466E+03  0.18171778975E+03  0.86462209792E+03  0.25500000920E-02 0. -1.
</event>
<event>
 5   0  0.2234723E-04  0.1685516E+04  0.7818609E-02  0.8769668E-01
        2   -1    0    0  501    0  0.00000000000E+00  0.00000000000E+00  0.17855678066E+04  0.17855678066E+04  0.25500000920E-02 0.  1.
       -2   -1    0    0    0  501  0.00000000000E+00  0.00000000000E+00 -0.39776775369E+03  0.39776775370E+03  0.25500000920E-02 0. -1.
    10030    2    1    2    0    0  0.00000000000E+00  0.00000000000E+00  0.13878000529E+04  0.21833355603E+04  0.16855162954E+04 0.  0.
        1    1    3    3  502    0 -0.33449367232E+03 -0.93139050801E+02 -0.30080858447E+03  0.45939819778E+03  0.50400001928E-02 0. -1.
       -1    1    3    3    0  502  0.33449367232E+03  0.93139050801E+02  0.16886086374E+04  0.17239373626E+04  0.50400001928E-02 0.  1.
</event>
<event>
 5   0  0.1234158E-04  0.1704746E+04  0.7818609E-02  0.8758662E-01
       -1   -1    0    0    0  501  0.00000000000E+00  0.00000000000E+00  0.79267792826E+03  0.79267792827E+03  0.50400001928E-02 0.  1.
        1   -1    0    0  501    0  0.00000000000E+00  0.00000000000E+00 -0.91656316941E+03  0.91656316942E+03  0.50400001928E-02 0. -1.
    10030    2    1    2    0    0  0.00000000000E+00  0.00000000000E+00 -0.12388524115E+03  0.17092410977E+04  0.17047456048E+04 0.  0.
        5    1    3    3  502    0 -0.12935144801E+02 -0.20731092900E+03  0.76690060050E+03  0.79454626064E+03  0.46999998093E+01 0.  1.
       -5    1    3    3    0  502  0.12935144801E+02  0.20731092900E+03 -0.89078584165E+03  0.91469483706E+03  0.46999998093E+01 0. -1.
</event>
<event>
 5   0  0.8372750E-05  0.1714374E+04  0.7818609E-02  0.8753209E-01
        4   -1    0    0  501    0  0.00000000000E+00  0.00000000000E+00  0.42487294538E+03  0.42487484347E+03  0.12699999809E+01 0.  1.
       -4   -1    0    0    0  501  0.00000000000E+00  0.00000000000E+00 -0.17293796155E+04  0.17293800819E+04  0.12699999809E+01 0. -1.
    10030    2    1    2    0    0  0.00000000000E+00  0.00000000000E+00 -0.13045066701E+04  0.21542549253E+04  0.17143735389E+04 0.  0.
        5    1    3    3  502    0  0.42053797317E+03 -0.73743349056E+03 -0.50311245494E+03  0.98681536884E+03  0.46999998093E+01 0.  1.
       -5    1    3    3    0  502 -0.42053797317E+03  0.73743349056E+03 -0.80139421521E+03  0.11674395565E+04  0.46999998093E+01 0. -1.
</event>
<event>
 5   0  0.2224454E-04  0.1701574E+04  0.7818609E-02  0.8760467E-01
        2   -1    0    0  501    0  0.00000000000E+00  0.00000000000E+00  0.14806462516E+04  0.14806462517E+04  0.25500000920E-02 0. -1.
       -2   -1    0    0    0  501  0.00000000000E+00  0.00000000000E+00 -0.48886638783E+03  0.48886638783E+03  0.25500000920E-02 0.  1.
    10030    2    1    2    0    0  0.00000000000E+00  0.00000000000E+00  0.99177986382E+03  0.19695126395E+04  0.17015736066E+04 0.  0.
        2    1    3    3  502    0 -0.23894745228E+03 -0.70555776668E+03  0.97162165665E+03  0.12243187047E+04  0.25500000920E-02 0. -1.
       -2    1    3    3    0  502  0.23894745228E+03  0.70555776668E+03  0.20158207170E+02  0.74519393475E+03  0.25500000920E-02 0.  1.
</event>
<event>
 5   0  0.2224454E-04  0.1700118E+04  0.7818609E-02  0.8761297E-01
        2   -1    0    0  501    0  0.00000000000E+00  0.00000000000E+00  0.83961164251E+03  0.83961164251E+03  0.25500000920E-02 0.  1.
       -2   -1    0    0    0  501  0.00000000000E+00  0.00000000000E+00 -0.86063652485E+03  0.86063652485E+03  0.25500000920E-02 0. -1.
    10030    2    1    2    0    0  0.00000000000E+00  0.00000000000E+00 -0.21024882340E+02  0.17002481674E+04  0.17001181679E+04 0.  0.
        2    1    3    3  502    0  0.32889333025E+03 -0.74424374163E+03 -0.25656148898E+03  0.85316667028E+03  0.25500000920E-02 0. -1.
       -2    1    3    3    0  502 -0.32889333025E+03  0.74424374163E+03  0.23553660664E+03  0.84708149709E+03  0.25500000920E-02 0.  1.
</event>
<event>
 5   0  0.2242967E-04  0.1712220E+04  0.7818609E-02  0.8754425E-01
        2   -1    0    0  501    0  0.00000000000E+00  0.00000000000E+00  0.13074305441E+04  0.13074305441E+04  0.25500000920E-02 0.  1.
       -2   -1    0    0    0  501  0.00000000000E+00  0.00000000000E+00 -0.56058399041E+03  0.56058399042E+03  0.25500000920E-02 0. -1.
    10030    2    1    2    0    0  0.00000000000E+00  0.00000000000E+00  0.74684655370E+03  0.18680145345E+04  0.17122203499E+04 0.  0.
        4    1    3    3  502    0 -0.61583736913E+03  0.57632763343E+03  0.21340142730E+03  0.87002930315E+03  0.12699999809E+01 0. -1.
       -4    1    3    3    0  502  0.61583736913E+03 -0.57632763343E+03  0.53344512641E+03  0.99798523138E+03  0.12699999809E+01 0.  1.
</event>
<event>
 5   0  0.2224454E-04  0.1695979E+04  0.7818609E-02  0.8763661E-01
       -2   -1    0    0    0  501  0.00000000000E+00  0.00000000000E+00  0.10330741108E+04  0.10330741108E+04  0.25500000920E-02 0. -1.
        2   -1    0    0  501    0  0.00000000000E+00  0.00000000000E+00 -0.69606452250E+03  0.69606452250E+03  0.25500000920E-02 0.  1.
    10030    2    1    2    0    0  0.00000000000E+00  0.00000000000E+00  0.33700958832E+03  0.17291386333E+04  0.16959790537E+04 0.  0.
        2    1    3    3  502    0 -0.55203952290E+02 -0.70174802515E+03  0.65060135407E+03  0.95853006686E+03  0.25500000920E-02 0. -1.
       -2    1    3    3    0  502  0.55203952290E+02  0.70174802515E+03 -0.31359176576E+03  0.77060856646E+03  0.25500000920E-02 0.  1.
</event>
<event>
 5   0  0.2224454E-04  0.1699490E+04  0.7818609E-02  0.8761655E-01
       -2   -1    0    0    0  501  0.00000000000E+00  0.00000000000E+00  0.93240349600E+03  0.93240349600E+03  0.25500000920E-02 0. -1.
        2   -1    0    0  501    0  0.00000000000E+00  0.00000000000E+00 -0.77441421253E+03  0.77441421253E+03  0.25500000920E-02 0.  1.
    10030    2    1    2    0    0  0.00000000000E+00  0.00000000000E+00  0.15798928347E+03  0.17068177085E+04  0.16994899460E+04 0.  0.
        2    1    3    3  502    0  0.60724174581E+03  0.16407482061E+03  0.65277529463E+03  0.90652008798E+03  0.25500000920E-02 0. -1.
       -2    1    3    3    0  502 -0.60724174581E+03 -0.16407482061E+03 -0.49478601117E+03  0.80029762056E+03  0.25500000920E-02 0.  1.
</event>
<event>
 5   0  0.2288806E-04  0.1701990E+04  0.7818609E-02  0.8760230E-01
       -2   -1    0    0    0  501  0.00000000000E+00  0.00000000000E+00  0.10444889757E+04  0.10444889757E+04  0.25500000920E-02 0.  1.
        2   -1    0    0  501    0  0.00000000000E+00  0.00000000000E+00 -0.69334647093E+03  0.69334647093E+03  0.25500000920E-02 0. -1.
    10030    2    1    2    0    0  0.00000000000E+00  0.00000000000E+00  0.35114250477E+03  0.17378354466E+04  0.17019902999E+04 0.  0.
        3    1    3    3  502    0 -0.67282890073E+03  0.18766649935E+03 -0.32074754465E+03  0.76863283968E+03  0.10100000352E+00 0. -1.
       -3    1    3    3    0  502  0.67282890073E+03 -0.18766649935E+03  0.67189004941E+03  0.96920260696E+03  0.10100000352E+00 0.  1.
</event>
<event>
 5   0  0.1126958E-04  0.1705351E+04  0.7818609E-02  0.8758319E-01
       -1   -1    0    0    0  501  0.00000000000E+00  0.00000000000E+00  0.59566904531E+03  0.59566904533E+03  0.50400001928E-02 0.  1.
        1   -1    0    0  501    0  0.00000000000E+00  0.00000000000E+00 -0.12205691411E+04  0.12205691411E+04  0.50400001928E-02 0. -1.
    10030    2    1    2    0    0  0.00000000000E+00  0.00000000000E+00 -0.62490009580E+03  0.18162381865E+04  0.17053507030E+04 0.  0.
        4    1    3    3  502    0  0.50969987586E+03 -0.44429951818E+02 -0.10389221328E+04  0.11580711529E+04  0.12699999809E+01 0. -1.
       -4    1    3    3    0  502 -0.50969987586E+03  0.44429951818E+02  0.41402203704E+03  0.65816703360E+03  0.12699999809E+01 0.  1.
</event>
<event>
 5   0  0.1204741E-04  0.1673150E+04  0.7818609E-02  0.8776828E-01
       -1   -1    0    0    0  501  0.00000000000E+00  0.00000000000E+00  0.33140532453E+03  0.33140532456E+03  0.50400001928E-02 0. -1.
        1   -1    0    0  501    0  0.00000000000E+00  0.00000000000E+00 -0.21117885607E+04  0.21117885607E+04  0.50400001928E-02 0.  1.
    10030    2    1    2    0    0  0.00000000000E+00  0.00000000000E+00 -0.17803832362E+04  0.24431938853E+04  0.16731502901E+04 0.  0.
        1    1    3    3  502    0 -0.50698219337E+03 -0.36264976205E+03 -0.75447872341E+02  0.62788388718E+03  0.50400001928E-02 0. -1.
       -1    1    3    3    0  502  0.50698219337E+03  0.36264976205E+03 -0.17049353639E+04  0.18153099981E+04  0.50400001928E-02 0.  1.
</event>
<event>
 5   0  0.1186302E-04  0.1695298E+04  0.7818609E-02  0.8764051E-01
        1   -1    0    0  501    0  0.00000000000E+00  0.00000000000E+00  0.49823187632E+03  0.49823187635E+03  0.50400001928E-02 0. -1.
       -1   -1    0    0    0  501  0.00000000000E+00  0.00000000000E+00 -0.14421176345E+04  0.14421176345E+04  0.50400001928E-02 0.  1.
    10030    2    1    2    0    0  0.00000000000E+00  0.00000000000E+00 -0.94388575816E+03  0.19403495108E+04  0.16952981743E+04 0.  0.
        3    1    3    3  502    0  0.26028996010E+03 -0.13070835902E+03  0.43915832090E+03  0.52696829076E+03  0.10100000352E+00 0. -1.
       -3    1    3    3    0  502 -0.26028996010E+03  0.13070835902E+03 -0.13830440791E+04  0.14133812201E+04  0.10100000352E+00 0.  1.
</event>
<event>
 5   0  0.1215233E-04  0.1700402E+04  0.7818609E-02  0.8761135E-01
        1   -1    0    0  501    0  0.00000000000E+00  0.00000000000E+00  0.49637613125E+03  0.49637613128E+03  0.50400001928E-02 0.  1.
       -1   -1    0    0    0  501  0.00000000000E+00  0.00000000000E+00 -0.14562371854E+04  0.14562371854E+04  0.50400001928E-02 0. -1.
    10030    2    1    2    0    0  0.00000000000E+00  0.00000000000E+00 -0.95986105419E+03  0.19526133167E+04  0.17004015765E+04 0.  0.
        2    1    3    3  502    0 -0.29420091682E+03  0.51539112757E+03  0.21919012597E+03  0.63263457475E+03  0.25500000920E-02 0.  1.
       -2    1    3    3    0  502  0.29420091682E+03 -0.51539112757E+03 -0.11790511802E+04  0.13199787420E+04  0.25500000920E-02 0. -1.
</event>
<event>
 5   0  0.1204741E-04  0.1720892E+04  0.7818609E-02  0.8749538E-01
        1   -1    0    0  501    0  0.00000000000E+00  0.00000000000E+00  0.18346182126E+04  0.18346182126E+04  0.50400001928E-02 0. -1.
       -1   -1    0    0    0  501  0.00000000000E+00  0.00000000000E+00 -0.40355386260E+03  0.40355386263E+03  0.50400001928E-02 0.  1.
    10030    2    1    2    0    0  0.00000000000E+00  0.00000000000E+00  0.14310643500E+04  0.22381720753E+04  0.17208919387E+04 0.  0.
        1    1    3    3  502    0 -0.15503202047E+03  0.75377537501E+03  0.21492385581E+03  0.79900219472E+03  0.50400001928E-02 0.  1.
       -1    1    3    3    0  502  0.15503202047E+03 -0.75377537501E+03  0.12161404942E+04  0.14391698805E+04  0.50400001928E-02 0. -1.
</event>
<event>
 5   0  0.2242967E-04  0.1712215E+04  0.7818609E-02  0.8754428E-01
        2   -1    0    0  501    0  0.00000000000E+00  0.00000000000E+00  0.52941997714E+03  0.52941997715E+03  0.25500000920E-02 0.  1.
       -2   -1    0    0    0  501  0.00000000000E+00  0.00000000000E+00 -0.13843825049E+04  0.13843825049E+04  0.25500000920E-02 0. -1.
    10030    2    1    2    0    0  0.00000000000E+00  0.00000000000E+00 -0.85496252779E+03  0.19138024821E+04  0.17122146526E+04 0.  0.
        4    1    3    3  502    0 -0.15817000191E+03 -0.73570948219E+03 -0.88374719528E+03  0.11607311962E+04  0.12699999809E+01 0. -1.
       -4    1    3    3    0  502  0.15817000191E+03  0.73570948219E+03  0.28784667491E+02  0.75307128592E+03  0.12699999809E+01 0.  1.
</event>
<event>
 5   0  0.2242967E-04  0.1690481E+04  0.7818609E-02  0.8766812E-01
        2   -1    0    0  501    0  0.00000000000E+00  0.00000000000E+00  0.14084402798E+04  0.14084402798E+04  0.25500000920E-02 0. -1.
       -2   -1    0    0    0  501  0.00000000000E+00  0.00000000000E+00 -0.50724982555E+03  0.50724982556E+03  0.25500000920E-02 0.  1.
    10030    2    1    2    0    0  0.00000000000E+00  0.00000000000E+00  0.90119045427E+03  0.19156901054E+04  0.16904805071E+04 0.  0.
        4    1    3    3  502    0 -0.19588192861E+02  0.54773075325E+03 -0.27858445577E+03  0.61481996328E+03  0.12699999809E+01 0.  1.
       -4    1    3    3    0  502  0.19588192861E+02 -0.54773075325E+03  0.11797749100E+04  0.13008701421E+04  0.12699999809E+01 0. -1.
</event>
<event>
 5   0  0.2224454E-04  0.1702466E+04  0.7818609E-02  0.8759959E-01
        2   -1    0    0  501    0  0.00000000000E+00  0.00000000000E+00  0.11348477747E+04  0.11348477747E+04  0.25500000920E-02 0. -1.
       -2   -1    0    0    0  501  0.00000000000E+00  0.00000000000E+00 -0.63849786309E+03  0.63849786310E+03  0.25500000920E-02 0.  1.
    10030    2    1    2    0    0  0.00000000000E+00  0.00000000000E+00  0.49634991157E+03  0.17733456378E+04  0.17024663040E+04 0.  0.
        2    1    3    3  502    0 -0.37462817323E+03 -0.72958512782E+03  0.48560601796E+03  0.95312849689E+03  0.25500000920E-02 0. -1.
       -2    1    3    3    0  502  0.37462817323E+03  0.72958512782E+03  0.10743893610E+02  0.82021714086E+03  0.25500000920E-02 0.  1.
</event>
<event>
 5   0  0.8372750E-05  0.1698835E+04  0.7818609E-02  0.8762029E-01
        3   -1    0    0  501    0  0.00000000000E+00  0.00000000000E+00  0.82174394818E+03  0.82174395439E+03  0.10100000352E+00 0. -1.
       -3   -1    0    0    0  501  0.00000000000E+00  0.00000000000E+00 -0.87802273543E+03  0.87802274124E+03  0.10100000352E+00 0.  1.
    10030    2    1    2    0    0  0.00000000000E+00  0.00000000000E+00 -0.56278787252E+02  0.16997666956E+04  0.16988347529E+04 0.  0.
        4    1    3    3  502    0  0.12459217742E+03 -0.24516121936E+03  0.77596872006E+03  0.82325955905E+03  0.12699999809E+01 0. -1.
       -4    1    3    3    0  502 -0.12459217742E+03  0.24516121936E+03 -0.83224750731E+03  0.87650713658E+03  0.12699999809E+01 0.  1.
</event>
<event>
 5   0  0.1126958E-04  0.1734216E+04  0.7818609E-02  0.8742087E-01
       -1   -1    0    0    0  501  0.00000000000E+00  0.00000000000E+00  0.53943745005E+03  0.53943745008E+03  0.50400001928E-02 0. -1.
        1   -1    0    0  501    0  0.00000000000E+00  0.00000000000E+00 -0.13938157706E+04  0.13938157706E+04  0.50400001928E-02 0.  1.
    10030    2    1    2    0    0  0.00000000000E+00  0.00000000000E+00 -0.85437832057E+03  0.19332532207E+04  0.17342161632E+04 0.  0.
        4    1    3    3  502    0  0.46605210847E+01  0.85352986457E+03 -0.25688131445E+03  0.89136107879E+03  0.12699999809E+01 0. -1.
       -4    1    3    3    0  502 -0.46605210847E+01 -0.85352986457E+03 -0.59749700611E+03  0.10418921419E+04  0.12699999809E+01 0.  1.
</event>
<event>
 5   0  0.1186302E-04  0.1755017E+04  0.7818609E-02  0.8730594E-01
        1   -1    0    0  501    0  0.00000000000E+00  0.00000000000E+00  0.97593383680E+03  0.97593383681E+03  0.50400001928E-02 0.  1.
       -1   -1    0    0    0  501  0.00000000000E+00  0.00000000000E+00 -0.78900937691E+03  0.78900937693E+03  0.50400001928E-02 0. -1.
    10030    2    1    2    0    0  0.00000000000E+00  0.00000000000E+00  0.18692445989E+03  0.17649432137E+04  0.17550167504E+04 0.  0.
        3    1    3    3  502    0 -0.14807035923E+02  0.55699871441E+03 -0.58827624363E+03  0.81026894620E+03  0.10100000352E+00 0. -1.
       -3    1    3    3    0  502  0.14807035923E+02 -0.55699871441E+03  0.77520070352E+03  0.95467426754E+03  0.10100000352E+00 0.  1.
</event>
<event>
 5   0  0.1126958E-04  0.1694097E+04  0.7818609E-02  0.8764738E-01
        1   -1    0    0  501    0  0.00000000000E+00  0.00000000000E+00  0.77905932400E+03  0.77905932401E+03  0.50400001928E-02 0.  1.
       -1   -1    0    0    0  501  0.00000000000E+00  0.00000000000E+00 -0.92097107156E+03  0.92097107157E+03  0.50400001928E-02 0. -1.
    10030    2    1    2    0    0  0.00000000000E+00  0.00000000000E+00 -0.14191174756E+03  0.17000303956E+04  0.16940969281E+04 0.  0.
        4    1    3    3  502    0 -0.75491606420E+03  0.51117729365E+02  0.31113774532E+03  0.81811954854E+03  0.12699999809E+01 0.  1.
       -4    1    3    3    0  502  0.75491606420E+03 -0.51117729365E+02 -0.45304949288E+03  0.88191084705E+03  0.12699999809E+01 0. -1.
</event>
<event>
 5   0  0.1126958E-04  0.1652811E+04  0.7818609E-02  0.8788745E-01
        1   -1    0    0  501    0  0.00000000000E+00  0.00000000000E+00  0.77496816687E+03  0.77496816688E+03  0.50400001928E-02 0.  1.
       -1   -1    0    0    0  501  0.00000000000E+00  0.00000000000E+00 -0.88125727893E+03  0.88125727894E+03  0.50400001928E-02 0. -1.
    10030    2    1    2    0    0  0.00000000000E+00  0.00000000000E+00 -0.10628911206E+03  0.16562254458E+04  0.16528113480E+04 0.  0.
        4    1    3    3  502    0 -0.22190420939E+03  0.53622281544E+03 -0.64272061397E+03  0.86594906690E+03  0.12699999809E+01 0. -1.
       -4    1    3    3    0  502  0.22190420939E+03 -0.53622281544E+03  0.53643150191E+03  0.79027637892E+03  0.12699999809E+01 0.  1.
</event>
<event>
 5   0  0.2234723E-04  0.1699317E+04  0.7818609E-02  0.8761754E-01
        2   -1    0    0  501    0  0.00000000000E+00  0.00000000000E+00  0.13811454760E+04  0.13811454760E+04  0.25500000920E-02 0.  1.
       -2   -1    0    0    0  501  0.00000000000E+00  0.00000000000E+00 -0.52269643318E+03  0.52269643319E+03  0.25500000920E-02 0. -1.
    10030    2    1    2    0    0  0.00000000000E+00  0.00000000000E+00  0.85844904277E+03  0.19038419091E+04  0.16993172911E+04 0.  0.
        1    1    3    3  502    0 -0.16297826168E+03  0.69110626798E+03  0.95200043409E+03  0.11876424605E+04  0.50400001928E-02 0. -1.
       -1    1    3    3    0  502  0.16297826168E+03 -0.69110626798E+03 -0.93551391314E+02  0.71619944866E+03  0.50400001928E-02 0.  1.
</event>
<event>
 5   0  0.2224454E-04  0.1692883E+04  0.7818609E-02  0.8765434E-01
       -2   -1    0    0    0  501  0.00000000000E+00  0.00000000000E+00  0.33894634366E+03  0.33894634367E+03  0.25500000920E-02 0. -1.
        2   -1    0    0  501    0  0.00000000000E+00  0.00000000000E+00 -0.21137964218E+04  0.21137964218E+04  0.25500000920E-02 0.  1.
    10030    2    1    2    0    0  0.00000000000E+00  0.00000000000E+00 -0.17748500781E+04  0.24527427654E+04  0.16928834200E+04 0.  0.
        2    1    3    3  502    0 -0.71974491154E+02 -0.63176079394E+03 -0.77929146724E+02  0.64060516705E+03  0.25500000920E-02 0. -1.
       -2    1    3    3    0  502  0.71974491154E+02  0.63176079394E+03 -0.16969209314E+04  0.18121375984E+04  0.25500000920E-02 0.  1.
</event>
<event>
 5   0  0.2288806E-04  0.1704865E+04  0.7818609E-02  0.8758595E-01
       -2   -1    0    0    0  501  0.00000000000E+00  0.00000000000E+00  0.47486675448E+03  0.47486675449E+03  0.25500000920E-02 0. -1.
        2   -1    0    0  501    0  0.00000000000E+00  0.00000000000E+00 -0.15302000821E+04  0.15302000821E+04  0.25500000920E-02 0.  1.
    10030    2    1    2    0    0  0.00000000000E+00  0.00000000000E+00 -0.10553333276E+04  0.20050668366E+04  0.17048649761E+04 0.  0.
        3    1    3    3  502    0  0.19337923628E+03 -0.28543510309E+03  0.38920669835E+03  0.51995248950E+03  0.10100000352E+00 0. -1.
       -3    1    3    3    0  502 -0.19337923628E+03  0.28543510309E+03 -0.14445400260E+04  0.14851143471E+04  0.10100000352E+00 0.  1.
</event>
<event>
 5   0  0.2356829E-04  0.1708616E+04  0.7818609E-02  0.8756466E-01
       -2   -1    0    0    0  501  0.00000000000E+00  0.00000000000E+00  0.24916678838E+03  0.24916678839E+03  0.25500000920E-02 0.  1.
        2   -1    0    0  501    0  0.00000000000E+00  0.00000000000E+00 -0.29291293179E+04  0.29291293179E+04  0.25500000920E-02 0. -1.
    10030    2    1    2    0    0  0.00000000000E+00  0.00000000000E+00 -0.26799625296E+04  0.31782961063E+04  0.17086155155E+04 0.  0.
        5    1    3    3  502    0 -0.12460721537E+03  0.67288567249E+03 -0.38871861506E+03  0.78703642740E+03  0.46999998093E+01 0.  1.
       -5    1    3    3    0  502  0.12460721537E+03 -0.67288567249E+03 -0.22912439145E+04  0.23912596789E+04  0.46999998093E+01 0. -1.
</event>
<event>
 5   0  0.1234158E-04  0.1695435E+04  0.7818609E-02  0.8763972E-01
        1   -1    0    0  501    0  0.00000000000E+00  0.00000000000E+00  0.18249400001E+04  0.18249400001E+04  0.50400001928E-02 0.  1.
       -1   -1    0    0    0  501  0.00000000000E+00  0.00000000000E+00 -0.39377989065E+03  0.39377989068E+03  0.50400001928E-02 0. -1.
    10030    2    1    2    0    0  0.00000000000E+00  0.00000000000E+00  0.14311601094E+04  0.22187198907E+04  0.16954346625E+04 0.  0.
        5    1    3    3  502    0 -0.71497262806E+03  0.41163945150E+03  0.46058020391E+03  0.94487518284E+03  0.46999998093E+01 0.  1.
       -5    1    3    3    0  502  0.71497262806E+03 -0.41163945150E+03  0.97057990550E+03  0.12738447079E+04  0.46999998093E+01 0. -1.
</event>
<event>
 5   0  0.1215233E-04  0.1728793E+04  0.7818609E-02  0.8745111E-01
       -1   -1    0    0    0  501  0.00000000000E+00  0.00000000000E+00  0.63312290298E+03  0.63312290300E+03  0.50400001928E-02 0. -1.
        1   -1    0    0  501    0  0.00000000000E+00  0.00000000000E+00 -0.11801521900E+04  0.11801521900E+04  0.50400001928E-02 0.  1.
    10030    2    1    2    0    0  0.00000000000E+00  0.00000000000E+00 -0.54702928704E+03  0.18132750930E+04  0.17287930825E+04 0.  0.
        2    1    3    3  502    0  0.35548254012E+03 -0.70770482252E+03 -0.63680373275E+03  0.10162346905E+04  0.25500000920E-02 0.  1.
       -2    1    3    3    0  502 -0.35548254012E+03  0.70770482252E+03  0.89774445705E+02  0.79704040253E+03  0.25500000920E-02 0. -1.
</event>
<event>
 5   0  0.1234158E-04  0.1690995E+04  0.7818609E-02  0.8766517E-01
       -1   -1    0    0    0  501  0.00000000000E+00  0.00000000000E+00  0.79143693710E+03  0.79143693711E+03  0.50400001928E-02 0.  1.
        1   -1    0    0  501    0  0.00000000000E+00  0.00000000000E+00 -0.90325084169E+03  0.90325084171E+03  0.50400001928E-02 0. -1.
    10030    2    1    2    0    0  0.00000000000E+00  0.00000000000E+00 -0.11181390459E+03  0.16946877788E+04  0.16909950675E+04 0.  0.
        5    1    3    3  502    0  0.33123173172E+03 -0.74324738702E+03 -0.28600111998E+03  0.86252528603E+03  0.46999998093E+01 0. -1.
       -5    1    3    3    0  502 -0.33123173172E+03  0.74324738702E+03  0.17418721538E+03  0.83216249279E+03  0.46999998093E+01 0.  1.
</event>
<event>
 5   0  0.2224454E-04  0.1689550E+04  0.7818609E-02  0.8767347E-01
        2   -1    0    0  501    0  0.00000000000E+00  0.00000000000E+00  0.11027899033E+04  0.11027899033E+04  0.25500000920E-02 0.  1.
       -2   -1    0    0    0  501  0.00000000000E+00  0.00000000000E+00 -0.64712657989E+03  0.64712657989E+03  0.25500000920E-02 0. -1.
    10030    2    1    2    0    0  0.00000000000E+00  0.00000000000E+00  0.45566332338E+03  0.17499164832E+04  0.16895498317E+04 0.  0.
        2    1    3    3  502    0 -0.28715120915E+02  0.77600200130E+03 -0.11668033645E+03  0.78525025635E+03  0.25500000920E-02 0. -1.
       -2    1    3    3    0  502  0.28715120915E+02 -0.77600200130E+03  0.57234365982E+03  0.96466622680E+03  0.25500000920E-02 0.  1.
</event>
<event>
 5   0  0.2234723E-04  0.1659652E+04  0.7818609E-02  0.8784717E-01
        2   -1    0    0  501    0  0.00000000000E+00  0.00000000000E+00  0.13534525422E+04  0.13534525422E+04  0.25500000920E-02 0.  1.
       -2   -1    0    0    0  501  0.00000000000E+00  0.00000000000E+00 -0.50878105157E+03  0.50878105158E+03  0.25500000920E-02 0. -1.
    10030    2    1    2    0    0  0.00000000000E+00  0.00000000000E+00  0.84467149065E+03  0.18622335938E+04  0.16596517800E+04 0.  0.
        1    1    3    3  502    0 -0.68170689104E+02  0.65332439273E+03  0.99131234100E+03  0.11891930720E+04  0.50400001928E-02 0.  1.
       -1    1    3    3    0  502  0.68170689104E+02 -0.65332439273E+03 -0.14664085036E+03  0.67304052182E+03  0.50400001928E-02 0. -1.
</event>
<event>
 5   0  0.2234723E-04  0.1729321E+04  0.7818609E-02  0.8744816E-01
        2   -1    0    0  501    0  0.00000000000E+00  0.00000000000E+00  0.79953811135E+03  0.79953811135E+03  0.25500000920E-02 0. -1.
       -2   -1    0    0    0  501  0.00000000000E+00  0.00000000000E+00 -0.93508664566E+03  0.93508664567E+03  0.25500000920E-02 0.  1.
    10030    2    1    2    0    0  0.00000000000E+00  0.00000000000E+00 -0.13554853431E+03  0.17346247570E+04  0.17293205725E+04 0.  0.
        1    1    3    3  502    0  0.55958313067E+03 -0.65534930984E+03 -0.13885354146E+03  0.87286671608E+03  0.50400001928E-02 0.  1.
       -1    1    3    3    0  502 -0.55958313067E+03  0.65534930984E+03  0.33050071508E+01  0.86175804094E+03  0.50400001928E-02 0. -1.
</event>
<event>
 5   0  0.2288806E-04  0.1727146E+04  0.7818609E-02  0.8746032E-01
       -2   -1    0    0    0  501  0.00000000000E+00  0.00000000000E+00  0.57912564516E+03  0.57912564517E+03  0.25500000920E-02 0.  1.
        2   -1    0    0  501    0  0.00000000000E+00  0.00000000000E+00 -0.12877318080E+04  0.12877318080E+04  0.25500000920E-02 0. -1.
    10030    2    1    2    0    0  0.00000000000E+00  0.00000000000E+00 -0.70860616282E+03  0.18668574532E+04  0.17271462174E+04 0.  0.
        3    1    3    3  502    0 -0.71698413272E+03 -0.16552852895E+03 -0.84285230917E+03  0.11188681628E+04  0.10100000352E+00 0. -1.
       -3    1    3    3    0  502  0.71698413272E+03  0.16552852895E+03  0.13424614635E+03  0.74798929035E+03  0.10100000352E+00 0.  1.
</event>
<event>
 5   0  0.1126958E-04  0.1700589E+04  0.7818609E-02  0.8761029E-01
       -1   -1    0    0    0  501  0.00000000000E+00  0.00000000000E+00  0.96361872799E+03  0.96361872800E+03  0.50400001928E-02 0.  1.
        1   -1    0    0  501    0  0.00000000000E+00  0.00000000000E+00 -0.75029746750E+03  0.75029746751E+03  0.50400001928E-02 0. -1.
    10030    2    1    2    0    0  0.00000000000E+00  0.00000000000E+00  0.21332126049E+03  0.17139161955E+04  0.17005889465E+04 0.  0.
        4    1    3    3  502    0  0.54505876876E+03 -0.42953246651E+03 -0.38852672605E+03  0.79532498448E+03  0.12699999809E+01 0. -1.
       -4    1    3    3    0  502 -0.54505876876E+03  0.42953246651E+03  0.60184798654E+03  0.91859121103E+03  0.12699999809E+01 0.  1.
</event>
<event>
 5   0  0.2234723E-04  0.1697067E+04  0.7818609E-02  0.8763039E-01
        2   -1    0    0  501    0  0.00000000000E+00  0.00000000000E+00  0.18076022615E+04  0.18076022615E+04  0.25500000920E-02 0. -1.
       -2   -1    0    0    0  501  0.00000000000E+00  0.00000000000E+00 -0.39832264623E+03  0.39832264624E+03  0.25500000920E-02 0.  1.
    10030    2    1    2    0    0  0.00000000000E+00  0.00000000000E+00  0.14092796153E+04  0.22059249078E+04  0.16970667826E+04 0.  0.
        1    1    3    3  502    0  0.65115783065E+03  0.39002468012E+03  0.21158323557E+03  0.78796778939E+03  0.50400001928E-02 0.  1.
       -1    1    3    3    0  502 -0.65115783065E+03 -0.39002468012E+03  0.11976963797E+04  0.14179571184E+04  0.50400001928E-02 0. -1.
</event>
<event>
 5   0  0.1215233E-04  0.1696483E+04  0.7818609E-02  0.8763373E-01
       -1   -1    0    0    0  501  0.00000000000E+00  0.00000000000E+00  0.68144776999E+03  0.68144777000E+03  0.50400001928E-02 0. -1.
        1   -1    0    0  501    0  0.00000000000E+00  0.00000000000E+00 -0.10558599343E+04  0.10558599343E+04  0.50400001928E-02 0.  1.
    10030    2    1    2    0    0  0.00000000000E+00  0.00000000000E+00 -0.37441216429E+03  0.17373077043E+04  0.16964827116E+04 0.  0.
        2    1    3    3  502    0 -0.45219353469E+03  0.60250174729E+03 -0.58649413174E+03  0.95470556449E+03  0.25500000920E-02 0.  1.
       -2    1    3    3    0  502  0.45219353469E+03 -0.60250174729E+03  0.21208196744E+03  0.78260213980E+03  0.25500000920E-02 0. -1.
</event>
<event>
 5   0  0.2356829E-04  0.1696398E+04  0.7818609E-02  0.8763421E-01
       -2   -1    0    0    0  501  0.00000000000E+00  0.00000000000E+00  0.39198725084E+03  0.39198725085E+03  0.25500000920E-02 0.  1.
        2   -1    0    0  501    0  0.00000000000E+00  0.00000000000E+00 -0.18353696136E+04  0.18353696136E+04  0.25500000920E-02 0. -1.
    10030    2    1    2    0    0  0.00000000000E+00  0.00000000000E+00 -0.14433823628E+04  0.22273568645E+04  0.16963979358E+04 0.  0.
        5    1    3    3  502    0  0.29749285011E+03 -0.54131264691E+03  0.41537871744E+02  0.61908712017E+03  0.46999998093E+01 0.  1.
       -5    1    3    3    0  502 -0.29749285011E+03  0.54131264691E+03 -0.14849202345E+04  0.16082697443E+04  0.46999998093E+01 0. -1.
</event>
<event>
 5   0  0.2288806E-04  0.1595972E+04  0.7818609E-02  0.8823026E-01
        2   -1    0    0  501    0  0.00000000000E+00  0.00000000000E+00  0.95585895594E+03  0.95585895594E+03  0.25500000920E-02 0. -1.
       -2   -1    0    0    0  501  0.00000000000E+00  0.00000000000E+00 -0.66618799685E+03  0.66618799686E+03  0.25500000920E-02 0.  1.
    10030    2    1    2    0    0  0.00000000000E+00  0.00000000000E+00  0.28967095909E+03  0.16220469528E+04  0.15959721340E+04 0.  0.
        3    1    3    3  502    0  0.36690943108E+03  0.57695078657E+01  0.86502109695E+03  0.93963680548E+03  0.10100000352E+00 0. -1.
       -3    1    3    3    0  502 -0.36690943108E+03 -0.57695078657E+01 -0.57535013786E+03  0.68241014733E+03  0.10100000352E+00 0.  1.
</event>
<event>
 5   0  0.1215233E-04  0.1706156E+04  0.7818609E-02  0.8757861E-01
        1   -1    0    0  501    0  0.00000000000E+00  0.00000000000E+00  0.75613958985E+03  0.75613958987E+03  0.50400001928E-02 0.  1.
       -1   -1    0    0    0  501  0.00000000000E+00  0.00000000000E+00 -0.96244427380E+03  0.96244427382E+03  0.50400001928E-02 0. -1.
    10030    2    1    2    0    0  0.00000000000E+00  0.00000000000E+00 -0.20630468395E+03  0.17185838637E+04  0.17061561693E+04 0.  0.
        2    1    3    3  502    0 -0.11631593948E+03 -0.52782879531E+03  0.56166243158E+03  0.77948529299E+03  0.25500000920E-02 0.  1.
       -2    1    3    3    0  502  0.11631593948E+03  0.52782879531E+03 -0.76796711553E+03  0.93909857069E+03  0.25500000920E-02 0. -1.
</event>
<event>
 5   0  0.1215233E-04  0.1727495E+04  0.7818609E-02  0.8745837E-01
       -1   -1    0    0    0  501  0.00000000000E+00  0.00000000000E+00  0.38838068804E+03  0.38838068808E+03  0.50400001928E-02 0. -1.
        1   -1    0    0  501    0  0.00000000000E+00  0.00000000000E+00 -0.19209493358E+04  0.19209493358E+04  0.50400001928E-02 0.  1.
    10030    2    1    2    0    0  0.00000000000E+00  0.00000000000E+00 -0.15325686478E+04  0.23093300239E+04  0.17274948623E+04 0.  0.
        2    1    3    3  502    0  0.27212282547E+03 -0.47517884061E+03 -0.16592623383E+04  0.17472828249E+04  0.25500000920E-02 0.  1.
       -2    1    3    3    0  502 -0.27212282547E+03  0.47517884061E+03  0.12669369055E+03  0.56204719903E+03  0.25500000920E-02 0. -1.
</event>
<event>
 5   0  0.1234158E-04  0.1764590E+04  0.7818609E-02  0.8725360E-01
       -1   -1    0    0    0  501  0.00000000000E+00  0.00000000000E+00  0.95937100495E+03  0.95937100497E+03  0.50400001928E-02 0. -1.
        1   -1    0    0  501    0  0.00000000000E+00  0.00000000000E+00 -0.81141170254E+03  0.81141170256E+03  0.50400001928E-02 0.  1.
    10030    2    1    2    0    0  0.00000000000E+00  0.00000000000E+00  0.14795930241E+03  0.17707827075E+04  0.17645904460E+04 0.  0.
        5    1    3    3  502    0 -0.60296283041E+03 -0.22312889051E+02 -0.57198781248E+03  0.83141697571E+03  0.46999998093E+01 0.  1.
       -5    1    3    3    0  502  0.60296283041E+03  0.22312889051E+02  0.71994711489E+03  0.93936573182E+03  0.46999998093E+01 0. -1.
</event>
<event>
 5   0  0.2224454E-04  0.1703522E+04  0.7818609E-02  0.8759358E-01
       -2   -1    0    0    0  501  0.00000000000E+00  0.00000000000E+00  0.46720284293E+03  0.46720284294E+03  0.25500000920E-02 0.  1.
        2   -1    0    0  501    0  0.00000000000E+00  0.00000000000E+00 -0.15528515448E+04  0.15528515448E+04  0.25500000920E-02 0. -1.
    10030    2    1    2    0    0  0.00000000000E+00  0.00000000000E+00 -0.10856487018E+04  0.20200543877E+04  0.17035218301E+04 0.  0.
        2    1    3    3  502    0  0.84478810621E+03 -0.10643568172E+03 -0.51627814060E+03  0.99576032116E+03  0.25500000920E-02 0. -1.
       -2    1    3    3    0  502 -0.84478810621E+03  0.10643568172E+03 -0.56937056123E+03  0.10242940665E+04  0.25500000920E-02 0.  1.
</event>
<event>
 5   0  0.2224454E-04  0.1692396E+04  0.7818609E-02  0.8765713E-01
        2   -1    0    0  501    0  0.00000000000E+00  0.00000000000E+00  0.11366940692E+04  0.11366940692E+04  0.25500000920E-02 0. -1.
       -2   -1    0    0    0  501  0.00000000000E+00  0.00000000000E+00 -0.62994188903E+03  0.62994188904E+03  0.25500000920E-02 0.  1.
    10030    2    1    2    0    0  0.00000000000E+00  0.00000000000E+00  0.50675218013E+03  0.17666359582E+04  0.16923961820E+04 0.  0.
        2    1    3    3  502    0 -0.79066825938E+03 -0.13081009691E+03  0.53692308032E+03  0.96465225446E+03  0.25500000920E-02 0. -1.
       -2    1    3    3    0  502  0.79066825938E+03  0.13081009691E+03 -0.30170900188E+02  0.80198370375E+03  0.25500000920E-02 0.  1.
</event>
<event>
 5   0  0.1186302E-04  0.1707257E+04  0.7818609E-02  0.8757236E-01
       -1   -1    0    0    0  501  0.00000000000E+00  0.00000000000E+00  0.45392774326E+03  0.45392774329E+03  0.50400001928E-02 0. -1.
        1   -1    0    0  501    0  0.00000000000E+00  0.00000000000E+00 -0.16052818311E+04  0.16052818311E+04  0.50400001928E-02 0.  1.
    10030    2    1    2    0    0  0.00000000000E+00  0.00000000000E+00 -0.11513540879E+04  0.20592095744E+04  0.17072574017E+04 0.  0.
        3    1    3    3  502    0  0.12955744135E+03 -0.11698970255E+03 -0.15835241374E+04  0.15931165761E+04  0.10100000352E+00 0.  1.
       -3    1    3    3    0  502 -0.12955744135E+03  0.11698970255E+03  0.43217004957E+03  0.46609299829E+03  0.10100000352E+00 0. -1.
</event>
<event>
 5   0  0.2242967E-04  0.1709067E+04  0.7818609E-02  0.8756210E-01
       -2   -1    0    0    0  501  0.00000000000E+00  0.00000000000E+00  0.93461537334E+03  0.93461537334E+03  0.25500000920E-02 0. -1.
        2   -1    0    0  501    0  0.00000000000E+00  0.00000000000E+00 -0.78131301261E+03  0.78131301262E+03  0.25500000920E-02 0.  1.
    10030    2    1    2    0    0  0.00000000000E+00  0.00000000000E+00  0.15330236073E+03  0.17159283860E+04  0.17090665908E+04 0.  0.
        4    1    3    3  502    0 -0.48571854591E+03  0.88958877025E+02 -0.62356509934E+03  0.79540633242E+03  0.12699999809E+01 0.  1.
       -4    1    3    3    0  502  0.48571854591E+03 -0.88958877025E+02  0.77686746007E+03  0.92052205354E+03  0.12699999809E+01 0. -1.
</event>
<event>
 5   0  0.1204741E-04  0.1707562E+04  0.7818609E-02  0.8757063E-01
        1   -1    0    0  501    0  0.00000000000E+00  0.00000000000E+00  0.11686808784E+04  0.11686808785E+04  0.50400001928E-02 0. -1.
       -1   -1    0    0    0  501  0.00000000000E+00  0.00000000000E+00 -0.62373029236E+03  0.62373029238E+03  0.50400001928E-02 0.  1.
    10030    2    1    2    0    0  0.00000000000E+00  0.00000000000E+00  0.54495058608E+03  0.17924111708E+04  0.17075616135E+04 0.  0.
        1    1    3    3  502    0  0.49752771386E+03  0.29685031483E+03  0.93076408014E+03  0.10963465275E+04  0.50400001928E-02 0. -1.
       -1    1    3    3    0  502 -0.49752771386E+03 -0.29685031483E+03 -0.38581349406E+03  0.69606464333E+03  0.50400001928E-02 0.  1.
</event>
<event>
 5   0  0.2224454E-04  0.1708182E+04  0.7818609E-02  0.8756712E-01
       -2   -1    0    0    0  501  0.00000000000E+00  0.00000000000E+00  0.42438399282E+03  0.42438399283E+03  0.25500000920E-02 0.  1.
        2   -1    0    0  501    0  0.00000000000E+00  0.00000000000E+00 -0.17188949437E+04  0.17188949437E+04  0.25500000920E-02 0. -1.
    10030    2    1    2    0    0  0.00000000000E+00  0.00000000000E+00 -0.12945109509E+04  0.21432789366E+04  0.17081820740E+04 0.  0.
        2    1    3    3  502    0 -0.25527305411E+03  0.51592864325E+03 -0.14389436409E+04  0.15498082136E+04  0.25500000920E-02 0. -1.
       -2    1    3    3    0  502  0.25527305411E+03 -0.51592864325E+03  0.14443269002E+03  0.59347072298E+03  0.25500000920E-02 0.  1.
</event>
<event>
 5   0  0.1186302E-04  0.1697550E+04  0.7818609E-02  0.8762763E-01
        1   -1    0    0  501    0  0.00000000000E+00  0.00000000000E+00  0.14066391648E+04  0.14066391648E+04  0.50400001928E-02 0.  1.
       -1   -1    0    0    0  501  0.00000000000E+00  0.00000000000E+00 -0.51215594211E+03  0.51215594214E+03  0.50400001928E-02 0. -1.
    10030    2    1    2    0    0  0.00000000000E+00  0.00000000000E+00  0.89448322266E+03  0.19187951069E+04  0.16975495359E+04 0.  0.
        3    1    3    3  502    0 -0.54625319306E+03 -0.32769040446E+03 -0.18679829645E+03  0.66382766277E+03  0.10100000352E+00 0. -1.
       -3    1    3    3    0  502  0.54625319306E+03  0.32769040446E+03  0.10812815191E+04  0.12549674441E+04  0.10100000352E+00 0.  1.
</event>
<event>
 5   0  0.2234723E-04  0.1710499E+04  0.7818609E-02  0.8755399E-01
       -2   -1    0    0    0  501  0.00000000000E+00  0.00000000000E+00  0.94375749004E+03  0.94375749004E+03  0.25500000920E-02 0. -1.
        2   -1    0    0  501    0  0.00000000000E+00  0.00000000000E+00 -0.77504178135E+03  0.77504178135E+03  0.25500000920E-02 0.  1.
    10030    2    1    2    0    0  0.00000000000E+00  0.00000000000E+00  0.16871570870E+03  0.17187992714E+04  0.17104987416E+04 0.  0.
        1    1    3    3  502    0  0.68189808756E+03 -0.11239142752E+03 -0.42190708963E+03  0.80970514825E+03  0.50400001928E-02 0.  1.
       -1    1    3    3    0  502 -0.68189808756E+03  0.11239142752E+03  0.59062279833E+03  0.90909412314E+03  0.50400001928E-02 0. -1.
</event>
<event>
 5   0  0.2356829E-04  0.1707283E+04  0.7818609E-02  0.8757221E-01
       -2   -1    0    0    0  501  0.00000000000E+00  0.00000000000E+00  0.55958947977E+03  0.55958947977E+03  0.25500000920E-02 0. -1.
        2   -1    0    0  501    0  0.00000000000E+00  0.00000000000E+00 -0.13022117608E+04  0.13022117608E+04  0.25500000920E-02 0.  1.
    10030    2    1    2    0    0  0.00000000000E+00  0.00000000000E+00 -0.74262228103E+03  0.18618012406E+04  0.17072832240E+04 0.  0.
        5    1    3    3  502    0  0.70445278982E+03 -0.47699347274E+03 -0.29493368141E+03  0.90043571261E+03  0.46999998093E+01 0. -1.
       -5    1    3    3    0  502 -0.70445278982E+03  0.47699347274E+03 -0.44768859962E+03  0.96136552795E+03  0.46999998093E+01 0.  1.
</event>
<event>
 5   0  0.1204741E-04  0.1749151E+04  0.7818609E-02  0.8733818E-01
       -1   -1    0    0    0  501  0.00000000000E+00  0.00000000000E+00  0.86705923912E+03  0.86705923913E+03  0.50400001928E-02 0.  1.
        1   -1    0    0  501    0  0.00000000000E+00  0.00000000000E+00 -0.88215737511E+03  0.88215737512E+03  0.50400001928E-02 0. -1.
    10030    2    1    2    0    0  0.00000000000E+00  0.00000000000E+00 -0.15098135989E+02  0.17492166143E+04  0.17491514542E+04 0.  0.
        1    1    3    3  502    0  0.58531338551E+03  0.93229938584E+02  0.63559161443E+03  0.86905712187E+03  0.50400001928E-02 0.  1.
       -1    1    3    3    0  502 -0.58531338551E+03 -0.93229938584E+02 -0.65068975042E+03  0.88015949239E+03  0.50400001928E-02 0. -1.
</event>
<event>
 5   0  0.1126958E-04  0.1693446E+04  0.7818609E-02  0.8765111E-01
       -1   -1    0    0    0  501  0.00000000000E+00  0.00000000000E+00  0.95352291626E+03  0.95352291627E+03  0.50400001928E-02 0.  1.
        1   -1    0    0  501    0  0.00000000000E+00  0.00000000000E+00 -0.75188493960E+03  0.75188493962E+03  0.50400001928E-02 0. -1.
    10030    2    1    2    0    0  0.00000000000E+00  0.00000000000E+00  0.20163797665E+03  0.17054078559E+04  0.16934456240E+04 0.  0.
        4    1    3    3  502    0 -0.29380593814E+03  0.56654847818E+03 -0.45956367495E+03  0.78644738645E+03  0.12699999809E+01 0. -1.
       -4    1    3    3    0  502  0.29380593814E+03 -0.56654847818E+03  0.66120165160E+03  0.91896046944E+03  0.12699999809E+01 0.  1.
</event>
<event>
 5   0  0.1126958E-04  0.1703489E+04  0.7818609E-02  0.8759377E-01
        1   -1    0    0  501    0  0.00000000000E+00  0.00000000000E+00  0.64187007662E+03  0.64187007664E+03  0.50400001928E-02 0.  1.
       -1   -1    0    0    0  501  0.00000000000E+00  0.00000000000E+00 -0.11302420252E+04  0.11302420252E+04  0.50400001928E-02 0. -1.
    10030    2    1    2    0    0  0.00000000000E+00  0.00000000000E+00 -0.48837194854E+03  0.17721121018E+04  0.17034888145E+04 0.  0.
        4    1    3    3  502    0 -0.33090395135E+03 -0.27542621747E+02  0.57176472018E+03  0.66119023675E+03  0.12699999809E+01 0.  1.
       -4    1    3    3    0  502  0.33090395135E+03  0.27542621747E+02 -0.10601366687E+04  0.11109218651E+04  0.12699999809E+01 0. -1.
</event>
<event>
 5   0  0.2224454E-04  0.1704440E+04  0.7818609E-02  0.8758836E-01
        2   -1    0    0  501    0  0.00000000000E+00  0.00000000000E+00  0.96771202157E+03  0.96771202157E+03  0.25500000920E-02 0.  1.
       -2   -1    0    0    0  501  0.00000000000E+00  0.00000000000E+00 -0.75051180520E+03  0.75051180520E+03  0.25500000920E-02 0. -1.
    10030    2    1    2    0    0  0.00000000000E+00  0.00000000000E+00  0.21720021637E+03  0.17182238268E+04  0.17044404316E+04 0.  0.
        2    1    3    3  502    0  0.69983118454E+03 -0.38088221172E+03 -0.19624297711E+03  0.82057678016E+03  0.25500000920E-02 0. -1.
       -2    1    3    3    0  502 -0.69983118454E+03  0.38088221172E+03  0.41344319348E+03  0.89764704662E+03  0.25500000920E-02 0.  1.
</event>
<event>
 5   0  0.2224454E-04  0.1706230E+04  0.7818609E-02  0.8757819E-01
       -2   -1    0    0    0  501  0.00000000000E+00  0.00000000000E+00  0.41715973645E+03  0.41715973645E+03  0.25500000920E-02 0.  1.
        2   -1    0    0  501    0  0.00000000000E+00  0.00000000000E+00 -0.17446681619E+04  0.17446681619E+04  0.25500000920E-02 0. -1.
    10030    2    1    2    0    0  0.00000000000E+00  0.00000000000E+00 -0.13275084255E+04  0.21618278984E+04  0.17062301259E+04 0.  0.
        2    1    3    3  502    0 -0.45190598825E+03 -0.57837106713E+03 -0.12146868431E+04  0.14192238161E+04  0.25500000920E-02 0. -1.
       -2    1    3    3    0  502  0.45190598825E+03  0.57837106713E+03 -0.11282158241E+03  0.74260408225E+03  0.25500000920E-02 0.  1.
</event>
<event>
 5   0  0.2242967E-04  0.1698940E+04  0.7818609E-02  0.8761969E-01
       -2   -1    0    0    0  501  0.00000000000E+00  0.00000000000E+00  0.80460684996E+03  0.80460684997E+03  0.25500000920E-02 0.  1.
        2   -1    0    0  501    0  0.00000000000E+00  0.00000000000E+00 -0.89683418008E+03  0.89683418008E+03  0.25500000920E-02 0. -1.
    10030    2    1    2    0    0  0.00000000000E+00  0.00000000000E+00 -0.92227330112E+02  0.17014410300E+04  0.16989395805E+04 0.  0.
        4    1    3    3  502    0 -0.53094582778E+03  0.66001480849E+03 -0.11003782857E+03  0.85418555132E+03  0.12699999809E+01 0. -1.
       -4    1    3    3    0  502  0.53094582778E+03 -0.66001480849E+03  0.17810498461E+02  0.84725547872E+03  0.12699999809E+01 0.  1.
</event>
<event>
 5   0  0.2356829E-04  0.1706271E+04  0.7818609E-02  0.8757796E-01
       -2   -1    0    0    0  501  0.00000000000E+00  0.00000000000E+00  0.49616727445E+03  0.49616727445E+03  0.25500000920E-02 0.  1.
        2   -1    0    0  501    0  0.00000000000E+00  0.00000000000E+00 -0.14669248485E+04  0.14669248485E+04  0.25500000920E-02 0. -1.
    10030    2    1    2    0    0  0.00000000000E+00  0.00000000000E+00 -0.97075757410E+03  0.19630921230E+04  0.17062709092E+04 0.  0.
        5    1    3    3  502    0  0.20354521161E+02 -0.78267371356E+03 -0.87524176023E+03  0.11743349936E+04  0.46999998093E+01 0. -1.
       -5    1    3    3    0  502 -0.20354521161E+02  0.78267371356E+03 -0.95515813876E+02  0.78875712937E+03  0.46999998093E+01 0.  1.
</event>
<event>
 5   0  0.2224454E-04  0.1699419E+04  0.7818609E-02  0.8761696E-01
       -2   -1    0    0    0  501  0.00000000000E+00  0.00000000000E+00  0.85658734732E+03  0.85658734733E+03  0.25500000920E-02 0.  1.
        2   -1    0    0  501    0  0.00000000000E+00  0.00000000000E+00 -0.84288657355E+03  0.84288657355E+03  0.25500000920E-02 0. -1.
    10030    2    1    2    0    0  0.00000000000E+00  0.00000000000E+00  0.13700773777E+02  0.16994739209E+04  0.16994186937E+04 0.  0.
        2    1    3    3  502    0 -0.51641617673E+03  0.22814066221E+03  0.64190814491E+03  0.85485665223E+03  0.25500000920E-02 0.  1.
       -2    1    3    3    0  502  0.51641617673E+03 -0.22814066221E+03 -0.62820737114E+03  0.84461726865E+03  0.25500000920E-02 0. -1.
</event>
<event>
 5   0  0.2234723E-04  0.1689350E+04  0.7818609E-02  0.8767462E-01
       -2   -1    0    0    0  501  0.00000000000E+00  0.00000000000E+00  0.23685511289E+04  0.23685511289E+04  0.25500000920E-02 0. -1.
        2   -1    0    0  501    0  0.00000000000E+00  0.00000000000E+00 -0.30122885593E+03  0.30122885594E+03  0.25500000920E-02 0.  1.
    10030    2    1    2    0    0  0.00000000000E+00  0.00000000000E+00  0.20673222729E+04  0.26697799848E+04  0.16893501079E+04 0.  0.
        1    1    3    3  502    0 -0.35207715137E+03 -0.72660440160E+03  0.14257802924E+04  0.16385242504E+04  0.50400001928E-02 0.  1.
       -1    1    3    3    0  502  0.35207715137E+03  0.72660440160E+03  0.64154198054E+03  0.10312557344E+04  0.50400001928E-02 0. -1.
</event>
<event>
 5   0  0.2242967E-04  0.1705088E+04  0.7818609E-02  0.8758468E-01
        2   -1    0    0  501    0  0.00000000000E+00  0.00000000000E+00  0.99613612078E+03  0.99613612078E+03  0.25500000920E-02 0. -1.
       -2   -1    0    0    0  501  0.00000000000E+00  0.00000000000E+00 -0.72965024228E+03  0.72965024229E+03  0.25500000920E-02 0.  1.
    10030    2    1    2    0    0  0.00000000000E+00  0.00000000000E+00  0.26648587850E+03  0.17257863631E+04  0.17050876363E+04 0.  0.
        4    1    3    3  502    0 -0.25050215568E+01 -0.82721370755E+03  0.34200035306E+03  0.89512828549E+03  0.12699999809E+01 0. -1.
       -4    1    3    3    0  502  0.25050215568E+01  0.82721370755E+03 -0.75514474558E+02  0.83065807758E+03  0.12699999809E+01 0.  1.
</event>
<event>
 5   0  0.2242967E-04  0.1706566E+04  0.7818609E-02  0.8757628E-01
       -2   -1    0    0    0  501  0.00000000000E+00  0.00000000000E+00  0.57972753396E+03  0.57972753397E+03  0.25500000920E-02 0.  1.
        2   -1    0    0  501    0  0.00000000000E+00  0.00000000000E+00 -0.12559213106E+04  0.12559213106E+04  0.25500000920E-02 0. -1.
    10030    2    1    2    0    0  0.00000000000E+00  0.00000000000E+00 -0.67619377664E+03  0.18356488446E+04  0.17065663354E+04 0.  0.
        4    1    3    3  502    0  0.55468175184E+03 -0.18246243107E+03 -0.10073535375E+04  0.11643569672E+04  0.12699999809E+01 0. -1.
       -4    1    3    3    0  502 -0.55468175184E+03  0.18246243107E+03  0.33115976085E+03  0.67129187742E+03  0.12699999809E+01 0.  1.
</event>
<event>
 5   0  0.2356829E-04  0.1718001E+04  0.7818609E-02  0.8751164E-01
        2   -1    0    0  501    0  0.00000000000E+00  0.00000000000E+00  0.19473794856E+04  0.19473794856E+04  0.25500000920E-02 0.  1.
       -2   -1    0    0    0  501  0.00000000000E+00  0.00000000000E+00 -0.37890993958E+03  0.37890993959E+03  0.25500000920E-02 0. -1.
    10030    2    1    2    0    0  0.00000000000E+00  0.00000000000E+00  0.15684695461E+04  0.23262894252E+04  0.17180005160E+04 0.  0.
        5    1    3    3  502    0  0.77630927430E+03 -0.36743747384E+03  0.76542508266E+03  0.11504625303E+04  0.46999998093E+01 0.  1.
       -5    1    3    3    0  502 -0.77630927430E+03  0.36743747384E+03  0.80304446340E+03  0.11758268949E+04  0.46999998093E+01 0. -1.
</event>
<event>
 5   0  0.1126958E-04  0.1696876E+04  0.7818609E-02  0.8763148E-01
       -1   -1    0    0    0  501  0.00000000000E+00  0.00000000000E+00  0.41243284422E+03  0.41243284425E+03  0.50400001928E-02 0. -1.
        1   -1    0    0  501    0  0.00000000000E+00  0.00000000000E+00 -0.17453674773E+04  0.17453674773E+04  0.50400001928E-02 0.  1.
    10030    2    1    2    0    0  0.00000000000E+00  0.00000000000E+00 -0.13329346330E+04  0.21578003215E+04  0.16968758032E+04 0.  0.
        4    1    3    3  502    0  0.50825404495E+03  0.36606306667E+03 -0.13942148083E+04  0.15284504858E+04  0.12699999809E+01 0.  1.
       -4    1    3    3    0  502 -0.50825404495E+03 -0.36606306667E+03  0.61280175216E+02  0.62934983575E+03  0.12699999809E+01 0. -1.
</event>
<event>
 5   0  0.2356829E-04  0.1678867E+04  0.7818609E-02  0.8773510E-01
        2   -1    0    0  501    0  0.00000000000E+00  0.00000000000E+00  0.13102563936E+04  0.13102563936E+04  0.25500000920E-02 0.  1.
       -2   -1    0    0    0  501  0.00000000000E+00  0.00000000000E+00 -0.53779415339E+03  0.53779415339E+03  0.25500000920E-02 0. -1.
    10030    2    1    2    0    0  0.00000000000E+00  0.00000000000E+00  0.77246224025E+03  0.18480505470E+04  0.16788665557E+04 0.  0.
        5    1    3    3  502    0  0.16367594619E+03  0.41698135292E+03 -0.39521122255E+03  0.59739205257E+03  0.46999998093E+01 0. -1.
       -5    1    3    3    0  502 -0.16367594619E+03 -0.41698135292E+03  0.11676734628E+04  0.12506584945E+04  0.46999998093E+01 0.  1.
</event>
<event>
 5   0  0.2288806E-04  0.1738743E+04  0.7818609E-02  0.8739571E-01
        2   -1    0    0  501    0  0.00000000000E+00  0.00000000000E+00  0.11855037105E+04  0.11855037105E+04  0.25500000920E-02 0.  1.
       -2   -1    0    0    0  501  0.00000000000E+00  0.00000000000E+00 -0.63754065431E+03  0.63754065431E+03  0.25500000920E-02 0. -1.
    10030    2    1    2    0    0  0.00000000000E+00  0.00000000000E+00  0.54796305622E+03  0.18230443648E+04  0.17387430072E+04 0.  0.
        3    1    3    3  502    0 -0.41390063173E+03 -0.11236841328E+03  0.10668645792E+04  0.11498436563E+04  0.10100000352E+00 0.  1.
       -3    1    3    3    0  502  0.41390063173E+03  0.11236841328E+03 -0.51890152300E+03  0.67320070858E+03  0.10100000352E+00 0. -1.
</event>
<event>
 5   0  0.8372750E-05  0.1696703E+04  0.7818609E-02  0.8763247E-01
        4   -1    0    0  501    0  0.00000000000E+00  0.00000000000E+00  0.65244975866E+03  0.65245099470E+03  0.12699999809E+01 0. -1.
       -4   -1    0    0    0  501  0.00000000000E+00  0.00000000000E+00 -0.11030712381E+04  0.11030719692E+04  0.12699999809E+01 0.  1.
    10030    2    1    2    0    0  0.00000000000E+00  0.00000000000E+00 -0.45062147948E+03  0.17555229639E+04  0.16967030262E+04 0.  0.
        2    1    3    3  502    0  0.50277281721E+03 -0.23483743419E+03  0.43862897142E+03  0.70733620068E+03  0.25500000920E-02 0. -1.
       -2    1    3    3    0  502 -0.50277281721E+03  0.23483743419E+03 -0.88925045090E+03  0.10481867632E+04  0.25500000920E-02 0.  1.
</event>
<event>
 5   0  0.1204741E-04  0.1696148E+04  0.7818609E-02  0.8763564E-01
       -1   -1    0    0    0  501  0.00000000000E+00  0.00000000000E+00  0.59690345663E+03  0.59690345665E+03  0.50400001928E-02 0. -1.
        1   -1    0    0  501    0  0.00000000000E+00  0.00000000000E+00 -0.12049342337E+04  0.12049342337E+04  0.50400001928E-02 0.  1.
    10030    2    1    2    0    0  0.00000000000E+00  0.00000000000E+00 -0.60803077703E+03  0.18018376903E+04  0.16961478817E+04 0.  0.
        1    1    3    3  502    0  0.80001628593E+03 -0.24755061141E+03 -0.44623050068E+03  0.94890938594E+03  0.50400001928E-02 0. -1.
       -1    1    3    3    0  502 -0.80001628593E+03  0.24755061141E+03 -0.16180027635E+03  0.85292830438E+03  0.50400001928E-02 0.  1.
</event>
<event>
 5   0  0.1234158E-04  0.1701391E+04  0.7818609E-02  0.8760571E-01
       -1   -1    0    0    0  501  0.00000000000E+00  0.00000000000E+00  0.44071366063E+03  0.44071366066E+03  0.50400001928E-02 0.  1.
        1   -1    0    0  501    0  0.00000000000E+00  0.00000000000E+00 -0.16420708642E+04  0.16420708642E+04  0.50400001928E-02 0. -1.
    10030    2    1    2    0    0  0.00000000000E+00  0.00000000000E+00 -0.12013572036E+04  0.20827845248E+04  0.17013912679E+04 0.  0.
        5    1    3    3  502    0 -0.16434531726E+03  0.52436814902E+03 -0.13956227278E+04  0.14999187402E+04  0.46999998093E+01 0. -1.
       -5    1    3    3    0  502  0.16434531726E+03 -0.52436814902E+03  0.19426552420E+03  0.58286578464E+03  0.46999998093E+01 0.  1.
</event>
<event>
 5   0  0.1234158E-04  0.1694597E+04  0.7818609E-02  0.8764452E-01
        1   -1    0    0  501    0  0.00000000000E+00  0.00000000000E+00  0.15977746187E+04  0.15977746188E+04  0.50400001928E-02 0. -1.
       -1   -1    0    0    0  501  0.00000000000E+00  0.00000000000E+00 -0.44932166246E+03  0.44932166249E+03  0.50400001928E-02 0.  1.
    10030    2    1    2    0    0  0.00000000000E+00  0.00000000000E+00  0.11484529563E+04  0.20470962812E+04  0.16945969998E+04 0.  0.
        5    1    3    3  502    0  0.26018556160E+03 -0.45575216896E+03  0.13777926551E+04  0.14743613046E+04  0.46999998093E+01 0. -1.
       -5    1    3    3    0  502 -0.26018556160E+03  0.45575216896E+03 -0.22933969886E+03  0.57273497663E+03  0.46999998093E+01 0.  1.
</event>
<event>
 5   0  0.2234723E-04  0.1713831E+04  0.7818609E-02  0.8753515E-01
       -2   -1    0    0    0  501  0.00000000000E+00  0.00000000000E+00  0.59273583923E+03  0.59273583923E+03  0.25500000920E-02 0.  1.
        2   -1    0    0  501    0  0.00000000000E+00  0.00000000000E+00 -0.12388392163E+04  0.12388392163E+04  0.25500000920E-02 0. -1.
    10030    2    1    2    0    0  0.00000000000E+00  0.00000000000E+00 -0.64610337710E+03  0.18315750556E+04  0.17138312666E+04 0.  0.
        1    1    3    3  502    0 -0.83865654275E+03 -0.14436225156E+03 -0.43055667113E+03  0.95371080703E+03  0.50400001928E-02 0. -1.
       -1    1    3    3    0  502  0.83865654275E+03  0.14436225156E+03 -0.21554670597E+03  0.87786424853E+03  0.50400001928E-02 0.  1.
</event>
<event>
 5   0  0.2234723E-04  0.1564352E+04  0.7818609E-02  0.8842752E-01
       -2   -1    0    0    0  501  0.00000000000E+00  0.00000000000E+00  0.51385383006E+03  0.51385383007E+03  0.25500000920E-02 0. -1.
        2   -1    0    0  501    0  0.00000000000E+00  0.00000000000E+00 -0.11906102793E+04  0.11906102793E+04  0.25500000920E-02 0.  1.
    10030    2    1    2    0    0  0.00000000000E+00  0.00000000000E+00 -0.67675644920E+03  0.17044641093E+04  0.15643524566E+04 0.  0.
        1    1    3    3  502    0  0.22080740417E+03 -0.72634071326E+03 -0.13316673893E+03  0.77075295774E+03  0.50400001928E-02 0.  1.
       -1    1    3    3    0  502 -0.22080740417E+03  0.72634071326E+03 -0.54358971027E+03  0.93371115160E+03  0.50400001928E-02 0. -1.
</event>
<event>
 5   0  0.1126958E-04  0.1698514E+04  0.7818609E-02  0.8762212E-01
        1   -1    0    0  501    0  0.00000000000E+00  0.00000000000E+00  0.83928943314E+03  0.83928943316E+03  0.50400001928E-02 0. -1.
       -1   -1    0    0    0  501  0.00000000000E+00  0.00000000000E+00 -0.85934270792E+03  0.85934270794E+03  0.50400001928E-02 0.  1.
    10030    2    1    2    0    0  0.00000000000E+00  0.00000000000E+00 -0.20053274778E+02  0.16986321411E+04  0.16985137671E+04 0.  0.
        4    1    3    3  502    0 -0.65574687164E+03 -0.20828551316E+03  0.48785223784E+03  0.84343834008E+03  0.12699999809E+01 0. -1.
       -4    1    3    3    0  502  0.65574687164E+03  0.20828551316E+03 -0.50790551262E+03  0.85519380102E+03  0.12699999809E+01 0.  1.
</event>
<event>
 5   0  0.2224454E-04  0.1692993E+04  0.7818609E-02  0.8765371E-01
        2   -1    0    0  501    0  0.00000000000E+00  0.00000000000E+00  0.15729790784E+04  0.15729790784E+04  0.25500000920E-02 0. -1.
       -2   -1    0    0    0  501  0.00000000000E+00  0.00000000000E+00 -0.45554096289E+03  0.45554096290E+03  0.25500000920E-02 0.  1.
    10030    2    1    2    0    0  0.00000000000E+00  0.00000000000E+00  0.11174381155E+04  0.20285200413E+04  0.16929930939E+04 0.  0.
        2    1    3    3  502    0  0.78830248031E+02 -0.84241457518E+03  0.58996114845E+03  0.10314701552E+04  0.25500000920E-02 0. -1.
       -2    1    3    3    0  502 -0.78830248031E+02  0.84241457518E+03  0.52747696705E+03  0.99704988604E+03  0.25500000920E-02 0.  1.
</event>
<event>
 5   0  0.8372750E-05  0.1699425E+04  0.7818609E-02  0.8761692E-01
       -3   -1    0    0    0  501  0.00000000000E+00  0.00000000000E+00  0.22923811235E+03  0.22923813460E+03  0.10100000352E+00 0. -1.
        3   -1    0    0  501    0  0.00000000000E+00  0.00000000000E+00 -0.31496122854E+04  0.31496122871E+04  0.10100000352E+00 0.  1.
    10030    2    1    2    0    0  0.00000000000E+00  0.00000000000E+00 -0.29203741731E+04  0.33788504217E+04  0.16994248618E+04 0.  0.
        3    1    3    3  502    0 -0.61566953436E+03 -0.46292713344E+03 -0.74702220077E+03  0.10730296758E+04  0.10100000352E+00 0. -1.
       -3    1    3    3    0  502  0.61566953436E+03  0.46292713344E+03 -0.21733519723E+04  0.23058207459E+04  0.10100000352E+00 0.  1.
</event>
<event>
 5   0  0.2356829E-04  0.1702712E+04  0.7818609E-02  0.8759819E-01
        2   -1    0    0  501    0  0.00000000000E+00  0.00000000000E+00  0.98521819044E+03  0.98521819044E+03  0.25500000920E-02 0.  1.
       -2   -1    0    0    0  501  0.00000000000E+00  0.00000000000E+00 -0.73568182296E+03  0.73568182296E+03  0.25500000920E-02 0. -1.
    10030    2    1    2    0    0  0.00000000000E+00  0.00000000000E+00  0.24953636748E+03  0.17209000134E+04  0.17027120888E+04 0.  0.
        5    1    3    3  502    0 -0.53820996526E+03  0.63856312231E+03  0.29191977767E+03  0.88468755754E+03  0.46999998093E+01 0.  1.
       -5    1    3    3    0  502  0.53820996526E+03 -0.63856312231E+03 -0.42383410185E+02  0.83621245586E+03  0.46999998093E+01 0. -1.
</event>
<event>
 5   0  0.2356829E-04  0.1697343E+04  0.7818609E-02  0.8762881E-01
       -2   -1    0    0    0  501  0.00000000000E+00  0.00000000000E+00  0.34546476662E+03  0.34546476663E+03  0.25500000920E-02 0.  1.
        2   -1    0    0  501    0  0.00000000000E+00  0.00000000000E+00 -0.20848537030E+04  0.20848537030E+04  0.25500000920E-02 0. -1.
    10030    2    1    2    0    0  0.00000000000E+00  0.00000000000E+00 -0.17393889364E+04  0.24303184696E+04  0.16973432157E+04 0.  0.
        5    1    3    3  502    0 -0.52294092876E+03  0.17267535575E+03  0.54852445189E+02  0.55345720178E+03  0.46999998093E+01 0.  1.
       -5    1    3    3    0  502  0.52294092876E+03 -0.17267535575E+03 -0.17942413816E+04  0.18768612679E+04  0.46999998093E+01 0. -1.
</event>
<event>
 5   0  0.1204741E-04  0.1697216E+04  0.7818609E-02  0.8762954E-01
        1   -1    0    0  501    0  0.00000000000E+00  0.00000000000E+00  0.10775944691E+04  0.10775944691E+04  0.50400001928E-02 0. -1.
       -1   -1    0    0    0  501  0.00000000000E+00  0.00000000000E+00 -0.66828042989E+03  0.66828042991E+03  0.50400001928E-02 0.  1.
    10030    2    1    2    0    0  0.00000000000E+00  0.00000000000E+00  0.40931403922E+03  0.17458748990E+04  0.16972157142E+04 0.  0.
        1    1    3    3  502    0 -0.62747216615E+03 -0.36536779300E+03 -0.24716261424E+03  0.76700997474E+03  0.50400001928E-02 0.  1.
       -1    1    3    3    0  502  0.62747216615E+03  0.36536779300E+03  0.65647665347E+03  0.97886492430E+03  0.50400001928E-02 0. -1.
</event>
<event>
 5   0  0.1126958E-04  0.1693406E+04  0.7818609E-02  0.8765134E-01
       -1   -1    0    0    0  501  0.00000000000E+00  0.00000000000E+00  0.38214094416E+03  0.38214094419E+03  0.50400001928E-02 0. -1.
        1   -1    0    0  501    0  0.00000000000E+00  0.00000000000E+00 -0.18760240943E+04  0.18760240943E+04  0.50400001928E-02 0.  1.
    10030    2    1    2    0    0  0.00000000000E+00  0.00000000000E+00 -0.14938831502E+04  0.22581650385E+04  0.16934055849E+04 0.  0.
        4    1    3    3  502    0  0.76214092665E+03 -0.66849940988E+02 -0.12306498587E+04  0.14490784639E+04  0.12699999809E+01 0.  1.
       -4    1    3    3    0  502 -0.76214092665E+03  0.66849940988E+02 -0.26323329142E+03  0.80908657466E+03  0.12699999809E+01 0. -1.
</event>
<event>
 5   0  0.2288806E-04  0.1687699E+04  0.7818609E-02  0.8768411E-01
       -2   -1    0    0    0  501  0.00000000000E+00  0.00000000000E+00  0.57126438845E+03  0.57126438846E+03  0.25500000920E-02 0. -1.
        2   -1    0    0  501    0  0.00000000000E+00  0.00000000000E+00 -0.12465014796E+04  0.12465014796E+04  0.25500000920E-02 0.  1.
    10030    2    1    2    0    0  0.00000000000E+00  0.00000000000E+00 -0.67523709111E+03  0.18177658680E+04  0.16876989132E+04 0.  0.
        3    1    3    3  502    0  0.77507963156E+03 -0.67164204582E+02 -0.68964410672E+03  0.10396482433E+04  0.10100000352E+00 0.  1.
       -3    1    3    3    0  502 -0.77507963156E+03  0.67164204582E+02  0.14407015609E+02  0.77811762474E+03  0.10100000352E+00 0. -1.
</event>
<event>
 5   0  0.2234723E-04  0.1686265E+04  0.7818609E-02  0.8769237E-01
       -2   -1    0    0    0  501  0.00000000000E+00  0.00000000000E+00  0.90143615413E+03  0.90143615414E+03  0.25500000920E-02 0.  1.
        2   -1    0    0  501    0  0.00000000000E+00  0.00000000000E+00 -0.78859978192E+03  0.78859978192E+03  0.25500000920E-02 0. -1.
    10030    2    1    2    0    0  0.00000000000E+00  0.00000000000E+00  0.11283637221E+03  0.16900359361E+04  0.16862649312E+04 0.  0.
        1    1    3    3  502    0 -0.57189106987E+03  0.23339074533E+03  0.63158458264E+03  0.88341933466E+03  0.50400001928E-02 0.  1.
       -1    1    3    3    0  502  0.57189106987E+03 -0.23339074533E+03 -0.51874821043E+03  0.80661660140E+03  0.50400001928E-02 0. -1.
</event>
<event>
 5   0  0.2356829E-04  0.1738553E+04  0.7818609E-02  0.8739677E-01
       -2   -1    0    0    0  501  0.00000000000E+00  0.00000000000E+00  0.60807925810E+03  0.60807925811E+03  0.25500000920E-02 0.  1.
        2   -1    0    0  501    0  0.00000000000E+00  0.00000000000E+00 -0.12426696416E+04  0.12426696416E+04  0.25500000920E-02 0. -1.
    10030    2    1    2    0    0  0.00000000000E+00  0.00000000000E+00 -0.63459038346E+03  0.18507488997E+04  0.17385530003E+04 0.  0.
        5    1    3    3  502    0  0.81480266751E+03  0.22139315870E+03 -0.53727343897E+03  0.10008012570E+04  0.46999998093E+01 0. -1.
       -5    1    3    3    0  502 -0.81480266751E+03 -0.22139315870E+03 -0.97316944494E+02  0.84994764273E+03  0.46999998093E+01 0.  1.
</event>
<event>
 5   0  0.8372750E-05  0.1681072E+04  0.7818609E-02  0.8772234E-01
        4   -1    0    0  501    0  0.00000000000E+00  0.00000000000E+00  0.13055197802E+04  0.13055203979E+04  0.12699999809E+01 0. -1.
       -4   -1    0    0    0  501  0.00000000000E+00  0.00000000000E+00 -0.54116262829E+03  0.54116411850E+03  0.12699999809E+01 0.  1.
    10030    2    1    2    0    0  0.00000000000E+00  0.00000000000E+00  0.76435715193E+03  0.18466845164E+04  0.16810716367E+04 0.  0.
        4    1    3    3  502    0 -0.11832555477E+03 -0.82566404491E+03  0.26814011734E+03  0.87614084907E+03  0.12699999809E+01 0.  1.
       -4    1    3    3    0  502  0.11832555477E+03  0.82566404491E+03  0.49621703459E+03  0.97054366738E+03  0.12699999809E+01 0. -1.
</event>
<event>
 5   0  0.2288806E-04  0.1710416E+04  0.7818609E-02  0.8755446E-01
        2   -1    0    0  501    0  0.00000000000E+00  0.00000000000E+00  0.16583817487E+04  0.16583817487E+04  0.25500000920E-02 0. -1.
       -2   -1    0    0    0  501  0.00000000000E+00  0.00000000000E+00 -0.44102053431E+03  0.44102053431E+03  0.25500000920E-02 0.  1.
    10030    2    1    2    0    0  0.00000000000E+00  0.00000000000E+00  0.12173612144E+04  0.20994022830E+04  0.17104156277E+04 0.  0.
        3    1    3    3  502    0 -0.80379839353E+03  0.18484927841E+03  0.33116565986E+03  0.88878108533E+03  0.10100000352E+00 0.  1.
       -3    1    3    3    0  502  0.80379839353E+03 -0.18484927841E+03  0.88619555450E+03  0.12106211976E+04  0.10100000352E+00 0. -1.
</event>
<event>
 5   0  0.2242967E-04  0.1740875E+04  0.7818609E-02  0.8738389E-01
        2   -1    0    0  501    0  0.00000000000E+00  0.00000000000E+00  0.11911523528E+04  0.11911523528E+04  0.25500000920E-02 0.  1.
       -2   -1    0    0    0  501  0.00000000000E+00  0.00000000000E+00 -0.63607431905E+03  0.63607431906E+03  0.25500000920E-02 0. -1.
    10030    2    1    2    0    0  0.00000000000E+00  0.00000000000E+00  0.55507803377E+03  0.18272266719E+04  0.17408749774E+04 0.  0.
        4    1    3    3  502    0  0.40556737178E+03 -0.48283576779E+03  0.90733945140E+03  0.11049351857E+04  0.12699999809E+01 0.  1.
       -4    1    3    3    0  502 -0.40556737178E+03  0.48283576779E+03 -0.35226141763E+03  0.72229148614E+03  0.12699999809E+01 0. -1.
</event>
<event>
 5   0  0.8372750E-05  0.1694325E+04  0.7818609E-02  0.8764608E-01
        3   -1    0    0  501    0  0.00000000000E+00  0.00000000000E+00  0.14372731504E+04  0.14372731540E+04  0.10100000352E+00 0.  1.
       -3   -1    0    0    0  501  0.00000000000E+00  0.00000000000E+00 -0.49933731039E+03  0.49933732061E+03  0.10100000352E+00 0. -1.
    10030    2    1    2    0    0  0.00000000000E+00  0.00000000000E+00  0.93793584005E+03  0.19366104746E+04  0.16943247889E+04 0.  0.
        4    1    3    3  502    0 -0.64782019880E+02  0.83261848869E+03  0.63154814603E+03  0.10470458115E+04  0.12699999809E+01 0. -1.
       -4    1    3    3    0  502  0.64782019880E+02 -0.83261848869E+03  0.30638769401E+03  0.88956466305E+03  0.12699999809E+01 0.  1.
</event>
<event>
 5   0  0.2288806E-04  0.1736600E+04  0.7818609E-02  0.8740761E-01
       -2   -1    0    0    0  501  0.00000000000E+00  0.00000000000E+00  0.75043977319E+03  0.75043977320E+03  0.25500000920E-02 0.  1.
        2   -1    0    0  501    0  0.00000000000E+00  0.00000000000E+00 -0.10046705180E+04  0.10046705180E+04  0.25500000920E-02 0. -1.
    10030    2    1    2    0    0  0.00000000000E+00  0.00000000000E+00 -0.25423074479E+03  0.17551102912E+04  0.17365997992E+04 0.  0.
        3    1    3    3  502    0  0.43490062932E+03  0.39168917331E+01  0.63242082415E+03  0.76753502098E+03  0.10100000352E+00 0.  1.
       -3    1    3    3    0  502 -0.43490062932E+03 -0.39168917331E+01 -0.88665156893E+03  0.98757527020E+03  0.10100000352E+00 0. -1.
</event>
<event>
 5   0  0.2242967E-04  0.1696005E+04  0.7818609E-02  0.8763646E-01
        2   -1    0    0  501    0  0.00000000000E+00  0.00000000000E+00  0.15801086890E+04  0.15801086890E+04  0.25500000920E-02 0.  1.
       -2   -1    0    0    0  501  0.00000000000E+00  0.00000000000E+00 -0.45510063881E+03  0.45510063882E+03  0.25500000920E-02 0. -1.
    10030    2    1    2    0    0  0.00000000000E+00  0.00000000000E+00  0.11250080502E+04  0.20352093278E+04  0.16960052757E+04 0.  0.
        4    1    3    3  502    0 -0.10937425248E+03  0.66721654097E+03  0.11766965597E+04  0.13571134979E+04  0.12699999809E+01 0.  1.
       -4    1    3    3    0  502  0.10937425248E+03 -0.66721654097E+03 -0.51688509504E+02  0.67809582993E+03  0.12699999809E+01 0. -1.
</event>
<event>
 5   0  0.2234723E-04  0.1700238E+04  0.7818609E-02  0.8761229E-01
        2   -1    0    0  501    0  0.00000000000E+00  0.00000000000E+00  0.14743726882E+04  0.14743726882E+04  0.25500000920E-02 0.  1.
       -2   -1    0    0    0  501  0.00000000000E+00  0.00000000000E+00 -0.49017594268E+03  0.49017594269E+03  0.25500000920E-02 0. -1.
    10030    2    1    2    0    0  0.00000000000E+00  0.00000000000E+00  0.98419674555E+03  0.19645486309E+04  0.17002376567E+04 0.  0.
        1    1    3    3  502    0 -0.64701443057E+02 -0.84763543061E+03  0.49841886609E+03  0.98544074710E+03  0.50400001928E-02 0.  1.
       -1    1    3    3    0  502  0.64701443057E+02  0.84763543061E+03  0.48577787945E+03  0.97910788381E+03  0.50400001928E-02 0. -1.
</event>
<event>
 5   0  0.1126958E-04  0.1706020E+04  0.7818609E-02  0.8757938E-01
        1   -1    0    0  501    0  0.00000000000E+00  0.00000000000E+00  0.63681181841E+03  0.63681181843E+03  0.50400001928E-02 0.  1.
       -1   -1    0    0    0  501  0.00000000000E+00  0.00000000000E+00 -0.11426082225E+04  0.11426082225E+04  0.50400001928E-02 0. -1.
    10030    2    1    2    0    0  0.00000000000E+00  0.00000000000E+00 -0.50579640410E+03  0.17794200409E+04  0.17060204218E+04 0.  0.
        4    1    3    3  502    0 -0.31359369511E+03 -0.40760332757E+03  0.45692788854E+03  0.68794344716E+03  0.12699999809E+01 0.  1.
       -4    1    3    3    0  502  0.31359369511E+03  0.40760332757E+03 -0.96272429264E+03  0.10914765938E+04  0.12699999809E+01 0. -1.
</event>
<event>
 5   0  0.2288806E-04  0.1710254E+04  0.7818609E-02  0.8755538E-01
        2   -1    0    0  501    0  0.00000000000E+00  0.00000000000E+00  0.19138496713E+04  0.19138496713E+04  0.25500000920E-02 0. -1.
       -2   -1    0    0    0  501  0.00000000000E+00  0.00000000000E+00 -0.38207932370E+03  0.38207932370E+03  0.25500000920E-02 0.  1.
    10030    2    1    2    0    0  0.00000000000E+00  0.00000000000E+00  0.15317703476E+04  0.22959289950E+04  0.17102542362E+04 0.  0.
        3    1    3    3  502    0  0.47229143599E+03 -0.16962482542E+03  0.16953898783E+04  0.17681002889E+04  0.10100000352E+00 0. -1.
       -3    1    3    3    0  502 -0.47229143599E+03  0.16962482542E+03 -0.16361953075E+03  0.52782870607E+03  0.10100000352E+00 0.  1.
</event>
<event>
 5   0  0.2356829E-04  0.1692749E+04  0.7818609E-02  0.8765511E-01
        2   -1    0    0  501    0  0.00000000000E+00  0.00000000000E+00  0.66113729392E+03  0.66113729393E+03  0.25500000920E-02 0.  1.
       -2   -1    0    0    0  501  0.00000000000E+00  0.00000000000E+00 -0.10835111977E+04  0.10835111977E+04  0.25500000920E-02 0. -1.
    10030    2    1    2    0    0  0.00000000000E+00  0.00000000000E+00 -0.42237390374E+03  0.17446484916E+04  0.16927488428E+04 0.  0.
        5    1    3    3  502    0 -0.61218689936E+03 -0.44293073406E+03 -0.60414712021E+03  0.96745866463E+03  0.46999998093E+01 0. -1.
       -5    1    3    3    0  502  0.61218689936E+03  0.44293073406E+03  0.18177321646E+03  0.77718982697E+03  0.46999998093E+01 0.  1.
</event>
<event>
 5   0  0.1186302E-04  0.1700216E+04  0.7818609E-02  0.8761241E-01
       -1   -1    0    0    0  501  0.00000000000E+00  0.00000000000E+00  0.53160577393E+03  0.53160577396E+03  0.50400001928E-02 0. -1.
        1   -1    0    0  501    0  0.00000000000E+00  0.00000000000E+00 -0.13594358792E+04  0.13594358792E+04  0.50400001928E-02 0.  1.
    10030    2    1    2    0    0  0.00000000000E+00  0.00000000000E+00 -0.82783010528E+03  0.18910416532E+04  0.17002164129E+04 0.  0.
        3    1    3    3  502    0  0.10293948269E+03  0.63531505818E+03  0.20381376360E+03  0.67510134105E+03  0.10100000352E+00 0. -1.
       -3    1    3    3    0  502 -0.10293948269E+03 -0.63531505818E+03 -0.10316438689E+04  0.12159403121E+04  0.10100000352E+00 0.  1.
</event>
<event>
 5   0  0.1126958E-04  0.1700199E+04  0.7818609E-02  0.8761251E-01
       -1   -1    0    0    0  501  0.00000000000E+00  0.00000000000E+00  0.16787020281E+04  0.16787020281E+04  0.50400001928E-02 0. -1.
        1   -1    0    0  501    0  0.00000000000E+00  0.00000000000E+00 -0.43049298410E+03  0.43049298413E+03  0.50400001928E-02 0.  1.
    10030    2    1    2    0    0  0.00000000000E+00  0.00000000000E+00  0.12482090440E+04  0.21091950122E+04  0.17001993360E+04 0.  0.
        4    1    3    3  502    0 -0.84280190752E+02  0.20140129951E+03 -0.39511911554E+03  0.45142702883E+03  0.12699999809E+01 0.  1.
       -4    1    3    3    0  502  0.84280190752E+02 -0.20140129951E+03  0.16433281595E+04  0.16577679834E+04  0.12699999809E+01 0. -1.
</event>
<event>
 5   0  0.2242967E-04  0.1727706E+04  0.7818609E-02  0.8745719E-01
       -2   -1    0    0    0  501  0.00000000000E+00  0.00000000000E+00  0.11538962834E+04  0.11538962834E+04  0.25500000920E-02 0.  1.
        2   -1    0    0  501    0  0.00000000000E+00  0.00000000000E+00 -0.64671467828E+03  0.64671467829E+03  0.25500000920E-02 0. -1.
    10030    2    1    2    0    0  0.00000000000E+00  0.00000000000E+00  0.50718160509E+03  0.18006109617E+04  0.17277056042E+04 0.  0.
        4    1    3    3  502    0  0.83441114349E+03  0.50122674586E+01  0.20611288446E+02  0.83468168623E+03  0.12699999809E+01 0.  1.
       -4    1    3    3    0  502 -0.83441114349E+03 -0.50122674586E+01  0.48657031665E+03  0.96592927544E+03  0.12699999809E+01 0. -1.
</event>
<event>
 5   0  0.1186302E-04  0.1662672E+04  0.7818609E-02  0.8782945E-01
        1   -1    0    0  501    0  0.00000000000E+00  0.00000000000E+00  0.76756888958E+03  0.76756888960E+03  0.50400001928E-02 0.  1.
       -1   -1    0    0    0  501  0.00000000000E+00  0.00000000000E+00 -0.90040051038E+03  0.90040051040E+03  0.50400001928E-02 0. -1.
    10030    2    1    2    0    0  0.00000000000E+00  0.00000000000E+00 -0.13283162080E+03  0.16679694000E+04  0.16626718497E+04 0.  0.
        3    1    3    3  502    0 -0.54777156907E+03  0.63659846691E+02  0.55767011931E+03  0.78428454029E+03  0.10100000352E+00 0.  1.
       -3    1    3    3    0  502  0.54777156907E+03 -0.63659846691E+02 -0.69050174012E+03  0.88368485970E+03  0.10100000352E+00 0. -1.
</event>
<event>
 5   0  0.2356829E-04  0.1689158E+04  0.7818609E-02  0.8767572E-01
        2   -1    0    0  501    0  0.00000000000E+00  0.00000000000E+00  0.13929233106E+04  0.13929233106E+04  0.25500000920E-02 0. -1.
       -2   -1    0    0    0  501  0.00000000000E+00  0.00000000000E+00 -0.51209853772E+03  0.51209853772E+03  0.25500000920E-02 0.  1.
    10030    2    1    2    0    0  0.00000000000E+00  0.00000000000E+00  0.88082477286E+03  0.19050218483E+04  0.16891583591E+04 0.  0.
        5    1    3    3  502    0  0.29776007957E+03 -0.52118193662E+03  0.11104776198E+04  0.12623289231E+04  0.46999998093E+01 0. -1.
       -5    1    3    3    0  502 -0.29776007957E+03  0.52118193662E+03 -0.22965284691E+03  0.64269292522E+03  0.46999998093E+01 0.  1.
</event>
<event>
 5   0  0.2224454E-04  0.1685001E+04  0.7818609E-02  0.8769965E-01
        2   -1    0    0  501    0  0.00000000000E+00  0.00000000000E+00  0.10992297178E+04  0.10992297178E+04  0.25500000920E-02 0.  1.
       -2   -1    0    0    0  501  0.00000000000E+00  0.00000000000E+00 -0.64573143320E+03  0.64573143321E+03  0.25500000920E-02 0. -1.
    10030    2    1    2    0    0  0.00000000000E+00  0.00000000000E+00  0.45349828460E+03  0.17449611510E+04  0.16850011052E+04 0.  0.
        2    1    3    3  502    0  0.30789456569E+03 -0.23503684406E+02 -0.58501686088E+03  0.66151055493E+03  0.25500000920E-02 0. -1.
       -2    1    3    3    0  502 -0.30789456569E+03  0.23503684406E+02  0.10385151455E+04  0.10834505961E+04  0.25500000920E-02 0.  1.
</event>
<event>
 5   0  0.2356829E-04  0.1653136E+04  0.7818609E-02  0.8788554E-01
       -2   -1    0    0    0  501  0.00000000000E+00  0.00000000000E+00  0.53689696254E+03  0.53689696254E+03  0.25500000920E-02 0. -1.
        2   -1    0    0  501    0  0.00000000000E+00  0.00000000000E+00 -0.12725240867E+04  0.12725240867E+04  0.25500000920E-02 0.  1.
    10030    2    1    2    0    0  0.00000000000E+00  0.00000000000E+00 -0.73562712418E+03  0.18094210493E+04  0.16531355866E+04 0.  0.
        5    1    3    3  502    0 -0.78625911153E+03 -0.10648090289E+03 -0.11428979898E+03  0.80163945842E+03  0.46999998093E+01 0. -1.
       -5    1    3    3    0  502  0.78625911153E+03  0.10648090289E+03 -0.62133732520E+03  0.10077815908E+04  0.46999998093E+01 0.  1.
</event>
<event>
 5   0  0.1234158E-04  0.1690589E+04  0.7818609E-02  0.8766750E-01
       -1   -1    0    0    0  501  0.00000000000E+00  0.00000000000E+00  0.76584588318E+03  0.76584588319E+03  0.50400001928E-02 0. -1.
        1   -1    0    0  501    0  0.00000000000E+00  0.00000000000E+00 -0.93298527514E+03  0.93298527515E+03  0.50400001928E-02 0.  1.
    10030    2    1    2    0    0  0.00000000000E+00  0.00000000000E+00 -0.16713939196E+03  0.16988311583E+04  0.16905891660E+04 0.  0.
        5    1    3    3  502    0  0.65847873885E+03 -0.46140484648E+03  0.17849313050E+03  0.82363254520E+03  0.46999998093E+01 0.  1.
       -5    1    3    3    0  502 -0.65847873885E+03  0.46140484648E+03 -0.34563252246E+03  0.87519861315E+03  0.46999998093E+01 0. -1.
</event>
<event>
 5   0  0.1126958E-04  0.1704617E+04  0.7818609E-02  0.8758735E-01
       -1   -1    0    0    0  501  0.00000000000E+00  0.00000000000E+00  0.92135824427E+03  0.92135824429E+03  0.50400001928E-02 0.  1.
        1   -1    0    0  501    0  0.00000000000E+00  0.00000000000E+00 -0.78843373023E+03  0.78843373025E+03  0.50400001928E-02 0. -1.
    10030    2    1    2    0    0  0.00000000000E+00  0.00000000000E+00  0.13292451404E+03  0.17097919745E+04  0.17046171622E+04 0.  0.
        4    1    3    3  502    0 -0.69535552019E+03 -0.34275414995E+03 -0.28877188616E+03  0.82727898674E+03  0.12699999809E+01 0. -1.
       -4    1    3    3    0  502  0.69535552019E+03  0.34275414995E+03  0.42169640020E+03  0.88251298779E+03  0.12699999809E+01 0.  1.
</event>
<event>
 5   0  0.2288806E-04  0.1707881E+04  0.7818609E-02  0.8756882E-01
       -2   -1    0    0    0  501  0.00000000000E+00  0.00000000000E+00  0.44808657319E+03  0.44808657319E+03  0.25500000920E-02 0.  1.
        2   -1    0    0  501    0  0.00000000000E+00  0.00000000000E+00 -0.16273954332E+04  0.16273954332E+04  0.25500000920E-02 0. -1.
    10030    2    1    2    0    0  0.00000000000E+00  0.00000000000E+00 -0.11793088600E+04  0.20754820064E+04  0.17078806081E+04 0.  0.
        3    1    3    3  502    0 -0.40994135785E+03 -0.69006787793E+03 -0.23542039455E+03  0.83646181347E+03  0.10100000352E+00 0.  1.
       -3    1    3    3    0  502  0.40994135785E+03  0.69006787793E+03 -0.94388846543E+03  0.12390201929E+04  0.10100000352E+00 0. -1.
</event>
<event>
 5   0  0.1215233E-04  0.1701459E+04  0.7818609E-02  0.8760532E-01
       -1   -1    0    0    0  501  0.00000000000E+00  0.00000000000E+00  0.52878177784E+03  0.52878177786E+03  0.50400001928E-02 0. -1.
        1   -1    0    0  501    0  0.00000000000E+00  0.00000000000E+00 -0.13686949566E+04  0.13686949566E+04  0.50400001928E-02 0.  1.
    10030    2    1    2    0    0  0.00000000000E+00  0.00000000000E+00 -0.83991317877E+03  0.18974767345E+04  0.17014593178E+04 0.  0.
        2    1    3    3  502    0  0.99263971540E+02  0.73873613171E+03 -0.87726772516E+03  0.11511659611E+04  0.25500000920E-02 0.  1.
       -2    1    3    3    0  502 -0.99263971540E+02 -0.73873613171E+03  0.37354546390E+02  0.74631077340E+03  0.25500000920E-02 0. -1.
</event>
<event>
 5   0  0.2242967E-04  0.1694457E+04  0.7818609E-02  0.8764532E-01
       -2   -1    0    0    0  501  0.00000000000E+00  0.00000000000E+00  0.52151060752E+03  0.52151060753E+03  0.25500000920E-02 0. -1.
        2   -1    0    0  501    0  0.00000000000E+00  0.00000000000E+00 -0.13763793974E+04  0.13763793974E+04  0.25500000920E-02 0.  1.
    10030    2    1    2    0    0  0.00000000000E+00  0.00000000000E+00 -0.85486878989E+03  0.18978900049E+04  0.16944573830E+04 0.  0.
        4    1    3    3  502    0 -0.41804771143E+03  0.37759538211E+03  0.28135300916E+03  0.62968507231E+03  0.12699999809E+01 0. -1.
       -4    1    3    3    0  502  0.41804771143E+03 -0.37759538211E+03 -0.11362217990E+04  0.12682049326E+04  0.12699999809E+01 0.  1.
</event>
<event>
 5   0  0.1126958E-04  0.1697105E+04  0.7818609E-02  0.8763017E-01
       -1   -1    0    0    0  501  0.00000000000E+00  0.00000000000E+00  0.70570325445E+03  0.70570325447E+03  0.50400001928E-02 0.  1.
        1   -1    0    0  501    0  0.00000000000E+00  0.00000000000E+00 -0.10203173137E+04  0.10203173137E+04  0.50400001928E-02 0. -1.
    10030    2    1    2    0    0  0.00000000000E+00  0.00000000000E+00 -0.31461405923E+03  0.17260205682E+04  0.16971048864E+04 0.  0.
        4    1    3    3  502    0  0.27541446909E+03 -0.31366303853E+03 -0.90867875097E+03  0.99996815793E+03  0.12699999809E+01 0. -1.
       -4    1    3    3    0  502 -0.27541446909E+03  0.31366303853E+03  0.59406469174E+03  0.72605241023E+03  0.12699999809E+01 0.  1.
</event>
<event>
 5   0  0.1204741E-04  0.1701814E+04  0.7818609E-02  0.8760330E-01
        1   -1    0    0  501    0  0.00000000000E+00  0.00000000000E+00  0.10197207806E+04  0.10197207806E+04  0.50400001928E-02 0. -1.
       -1   -1    0    0    0  501  0.00000000000E+00  0.00000000000E+00 -0.71004014190E+03  0.71004014192E+03  0.50400001928E-02 0.  1.
    10030    2    1    2    0    0  0.00000000000E+00  0.00000000000E+00  0.30968063871E+03  0.17297609225E+04  0.17018139590E+04 0.  0.
        1    1    3    3  502    0  0.31796831044E+03  0.32499305672E+03 -0.57621954870E+03  0.73399816192E+03  0.50400001928E-02 0.  1.
       -1    1    3    3    0  502 -0.31796831044E+03 -0.32499305672E+03  0.88590018742E+03  0.99576276063E+03  0.50400001928E-02 0. -1.
</event>
<event>
 5   0  0.1234158E-04  0.1701132E+04  0.7818609E-02  0.8760719E-01
        1   -1    0    0  501    0  0.00000000000E+00  0.00000000000E+00  0.11114996211E+04  0.11114996211E+04  0.50400001928E-02 0.  1.
       -1   -1    0    0    0  501  0.00000000000E+00  0.00000000000E+00 -0.65088845239E+03  0.65088845241E+03  0.50400001928E-02 0. -1.
    10030    2    1    2    0    0  0.00000000000E+00  0.00000000000E+00  0.46061116867E+03  0.17623880735E+04  0.17011317036E+04 0.  0.
        5    1    3    3  502    0 -0.93897905872E+02  0.44002420750E+03  0.97810190881E+03  0.10766352929E+04  0.46999998093E+01 0.  1.
       -5    1    3    3    0  502  0.93897905872E+02 -0.44002420750E+03 -0.51749074015E+03  0.68575278057E+03  0.46999998093E+01 0. -1.
</event>
<event>
 5   0  0.1186302E-04  0.1699984E+04  0.7818609E-02  0.8761373E-01
        1   -1    0    0  501    0  0.00000000000E+00  0.00000000000E+00  0.78637185234E+03  0.78637185235E+03  0.50400001928E-02 0.  1.
       -1   -1    0    0    0  501  0.00000000000E+00  0.00000000000E+00 -0.91875922498E+03  0.91875922499E+03  0.50400001928E-02 0. -1.
    10030    2    1    2    0    0  0.00000000000E+00  0.00000000000E+00 -0.13238737264E+03  0.17051310773E+04  0.16999839924E+04 0.  0.
        3    1    3    3  502    0 -0.10977605991E+03 -0.84193774109E+03 -0.26369061733E+02  0.84947353156E+03  0.10100000352E+00 0.  1.
       -3    1    3    3    0  502  0.10977605991E+03  0.84193774109E+03 -0.10601831091E+03  0.85565754578E+03  0.10100000352E+00 0. -1.
</event>
<event>
 5   0  0.2224454E-04  0.1688773E+04  0.7818609E-02  0.8767793E-01
       -2   -1    0    0    0  501  0.00000000000E+00  0.00000000000E+00  0.11601999329E+04  0.11601999329E+04  0.25500000920E-02 0. -1.
        2   -1    0    0  501    0  0.00000000000E+00  0.00000000000E+00 -0.61453953443E+03  0.61453953443E+03  0.25500000920E-02 0.  1.
    10030    2    1    2    0    0  0.00000000000E+00  0.00000000000E+00  0.54566039845E+03  0.17747394673E+04  0.16887731957E+04 0.  0.
        2    1    3    3  502    0  0.24940247327E+03 -0.39072271225E+03 -0.46887535629E+03  0.65932536072E+03  0.25500000920E-02 0.  1.
       -2    1    3    3    0  502 -0.24940247327E+03  0.39072271225E+03  0.10145357547E+04  0.11154141066E+04  0.25500000920E-02 0. -1.
</event>
<event>
 5   0  0.1126958E-04  0.1665332E+04  0.7818609E-02  0.8781387E-01
        1   -1    0    0  501    0  0.00000000000E+00  0.00000000000E+00  0.53233085365E+03  0.53233085367E+03  0.50400001928E-02 0. -1.
       -1   -1    0    0    0  501  0.00000000000E+00  0.00000000000E+00 -0.13024473902E+04  0.13024473902E+04  0.50400001928E-02 0.  1.
    10030    2    1    2    0    0  0.00000000000E+00  0.00000000000E+00 -0.77011653658E+03  0.18347782439E+04  0.16653323165E+04 0.  0.
        4    1    3    3  502    0  0.65520587325E+03 -0.29015723864E+03  0.82173419644E+02  0.72127667595E+03  0.12699999809E+01 0. -1.
       -4    1    3    3    0  502 -0.65520587325E+03  0.29015723864E+03 -0.85228995622E+03  0.11135015680E+04  0.12699999809E+01 0.  1.
</event>
<event>
 5   0  0.2288806E-04  0.1696874E+04  0.7818609E-02  0.8763149E-01
        2   -1    0    0  501    0  0.00000000000E+00  0.00000000000E+00  0.10092229977E+04  0.10092229977E+04  0.25500000920E-02 0. -1.
       -2   -1    0    0    0  501  0.00000000000E+00  0.00000000000E+00 -0.71326681824E+03  0.71326681824E+03  0.25500000920E-02 0.  1.
    10030    2    1    2    0    0  0.00000000000E+00  0.00000000000E+00  0.29595617951E+03  0.17224898160E+04  0.16968739217E+04 0.  0.
        3    1    3    3  502    0 -0.27914798201E+03 -0.27793066793E+03  0.91077132836E+03  0.99230714741E+03  0.10100000352E+00 0. -1.
       -3    1    3    3    0  502  0.27914798201E+03  0.27793066793E+03 -0.61481514885E+03  0.73018266858E+03  0.10100000352E+00 0.  1.
</event>
<event>
 5   0  0.2242967E-04  0.1700090E+04  0.7818609E-02  0.8761313E-01
       -2   -1    0    0    0  501  0.00000000000E+00  0.00000000000E+00  0.52717796186E+03  0.52717796187E+03  0.25500000920E-02 0. -1.
        2   -1    0    0  501    0  0.00000000000E+00  0.00000000000E+00 -0.13706501567E+04  0.13706501567E+04  0.25500000920E-02 0.  1.
    10030    2    1    2    0    0  0.00000000000E+00  0.00000000000E+00 -0.84347219487E+03  0.18978281186E+04  0.17000900636E+04 0.  0.
        4    1    3    3  502    0 -0.55375119759E+03 -0.47162583491E+03 -0.91279037874E+03  0.11671586034E+04  0.12699999809E+01 0.  1.
       -4    1    3    3    0  502  0.55375119759E+03  0.47162583491E+03  0.69318183864E+02  0.73066951524E+03  0.12699999809E+01 0. -1.
</event>
<event>
 5   0  0.1204741E-04  0.1715631E+04  0.7818609E-02  0.8752499E-01
        1   -1    0    0  501    0  0.00000000000E+00  0.00000000000E+00  0.73465314594E+03  0.73465314596E+03  0.50400001928E-02 0. -1.
       -1   -1    0    0    0  501  0.00000000000E+00  0.00000000000E+00 -0.10016261528E+04  0.10016261528E+04  0.50400001928E-02 0.  1.
    10030    2    1    2    0    0  0.00000000000E+00  0.00000000000E+00 -0.26697300687E+03  0.17362792988E+04  0.17156314339E+04 0.  0.
        1    1    3    3  502    0  0.50819762745E+02 -0.20904327068E+03  0.70690863902E+03  0.73891918452E+03  0.50400001928E-02 0. -1.
       -1    1    3    3    0  502 -0.50819762745E+02  0.20904327068E+03 -0.97388164589E+03  0.99736011427E+03  0.50400001928E-02 0.  1.
</event>
<event>
 5   0  0.2356829E-04  0.1690581E+04  0.7818609E-02  0.8766754E-01
        2   -1    0    0  501    0  0.00000000000E+00  0.00000000000E+00  0.10732286527E+04  0.10732286527E+04  0.25500000920E-02 0. -1.
       -2   -1    0    0    0  501  0.00000000000E+00  0.00000000000E+00 -0.66576344330E+03  0.66576344330E+03  0.25500000920E-02 0.  1.
    10030    2    1    2    0    0  0.00000000000E+00  0.00000000000E+00  0.40746520940E+03  0.17389920960E+04  0.16905814423E+04 0.  0.
        5    1    3    3  502    0 -0.66154548708E+03 -0.18543878239E+03 -0.30277439068E+03  0.75081581972E+03  0.46999998093E+01 0.  1.
       -5    1    3    3    0  502  0.66154548708E+03  0.18543878239E+03  0.71023960008E+03  0.98817627629E+03  0.46999998093E+01 0. -1.
</event>
<event>
 5   0  0.2234723E-04  0.1693971E+04  0.7818609E-02  0.8764811E-01
        2   -1    0    0  501    0  0.00000000000E+00  0.00000000000E+00  0.43299171353E+03  0.43299171353E+03  0.25500000920E-02 0. -1.
       -2   -1    0    0    0  501  0.00000000000E+00  0.00000000000E+00 -0.16568078197E+04  0.16568078197E+04  0.25500000920E-02 0.  1.
    10030    2    1    2    0    0  0.00000000000E+00  0.00000000000E+00 -0.12238161061E+04  0.20897995332E+04  0.16939705509E+04 0.  0.
        1    1    3    3  502    0  0.77562603028E+03 -0.33769097353E+03 -0.56025391337E+03  0.10146503732E+04  0.50400001928E-02 0.  1.
       -1    1    3    3    0  502 -0.77562603028E+03  0.33769097353E+03 -0.66356219277E+03  0.10751491600E+04  0.50400001928E-02 0. -1.
</event>
<event>
 5   0  0.2288806E-04  0.1652891E+04  0.7818609E-02  0.8788698E-01
        2   -1    0    0  501    0  0.00000000000E+00  0.00000000000E+00  0.75569501321E+03  0.75569501321E+03  0.25500000920E-02 0. -1.
       -2   -1    0    0    0  501  0.00000000000E+00  0.00000000000E+00 -0.90381945876E+03  0.90381945876E+03  0.25500000920E-02 0.  1.
    10030    2    1    2    0    0  0.00000000000E+00  0.00000000000E+00 -0.14812444555E+03  0.16595144720E+04  0.16528906290E+04 0.  0.
        3    1    3    3  502    0  0.22981631703E+03 -0.34508317279E+03  0.64372508994E+03  0.76568919108E+03  0.10100000352E+00 0. -1.
       -3    1    3    3    0  502 -0.22981631703E+03  0.34508317279E+03 -0.79184953549E+03  0.89382528090E+03  0.10100000352E+00 0.  1.
</event>
<event>
 5   0  0.1204741E-04  0.1703203E+04  0.7818609E-02  0.8759540E-01
       -1   -1    0    0    0  501  0.00000000000E+00  0.00000000000E+00  0.48235105052E+03  0.48235105054E+03  0.50400001928E-02 0.  1.
        1   -1    0    0  501    0  0.00000000000E+00  0.00000000000E+00 -0.15035206060E+04  0.15035206060E+04  0.50400001928E-02 0. -1.
    10030    2    1    2    0    0  0.00000000000E+00  0.00000000000E+00 -0.10211695554E+04  0.19858716565E+04  0.17032025643E+04 0.  0.
        1    1    3    3  502    0  0.53231994011E+03 -0.62073507778E+03 -0.23332030618E+03  0.85036164114E+03  0.50400001928E-02 0.  1.
       -1    1    3    3    0  502 -0.53231994011E+03  0.62073507778E+03 -0.78784924926E+03  0.11355100154E+04  0.50400001928E-02 0. -1.
</event>
<event>
 5   0  0.1215233E-04  0.1703592E+04  0.7818609E-02  0.8759318E-01
       -1   -1    0    0    0  501  0.00000000000E+00  0.00000000000E+00  0.87280321710E+03  0.87280321712E+03  0.50400001928E-02 0.  1.
        1   -1    0    0  501    0  0.00000000000E+00  0.00000000000E+00 -0.83129422307E+03  0.83129422308E+03  0.50400001928E-02 0. -1.
    10030    2    1    2    0    0  0.00000000000E+00  0.00000000000E+00  0.41508994037E+02  0.17040974402E+04  0.17035918200E+04 0.  0.
        2    1    3    3  502    0 -0.29916808541E+03 -0.41734765558E+03  0.70057055320E+03  0.86860791440E+03  0.25500000920E-02 0.  1.
       -2    1    3    3    0  502  0.29916808541E+03  0.41734765558E+03 -0.65906155916E+03  0.83548952580E+03  0.25500000920E-02 0. -1.
</event>
<event>
 5   0  0.2234723E-04  0.1688848E+04  0.7818609E-02  0.8767750E-01
        2   -1    0    0  501    0  0.00000000000E+00  0.00000000000E+00  0.63778739536E+03  0.63778739537E+03  0.25500000920E-02 0. -1.
       -2   -1    0    0    0  501  0.00000000000E+00  0.00000000000E+00 -0.11180091317E+04  0.11180091317E+04  0.25500000920E-02 0.  1.
    10030    2    1    2    0    0  0.00000000000E+00  0.00000000000E+00 -0.48022173638E+03  0.17557965271E+04  0.16888482846E+04 0.  0.
        1    1    3    3  502    0  0.19635307989E+03 -0.17145708534E+03  0.59490954484E+03  0.64951476555E+03  0.50400001928E-02 0. -1.
       -1    1    3    3    0  502 -0.19635307989E+03  0.17145708534E+03 -0.10751312812E+04  0.11062817616E+04  0.50400001928E-02 0.  1.
</event>
<event>
 5   0  0.2288806E-04  0.1707230E+04  0.7818609E-02  0.8757252E-01
       -2   -1    0    0    0  501  0.00000000000E+00  0.00000000000E+00  0.48294890553E+03  0.48294890554E+03  0.25500000920E-02 0.  1.
        2   -1    0    0  501    0  0.00000000000E+00  0.00000000000E+00 -0.15087688519E+04  0.15087688519E+04  0.25500000920E-02 0. -1.
    10030    2    1    2    0    0  0.00000000000E+00  0.00000000000E+00 -0.10258199464E+04  0.19917177575E+04  0.17072296457E+04 0.  0.
        3    1    3    3  502    0 -0.69829326424E+03  0.42687424464E+03 -0.22995977814E+03  0.85012741009E+03  0.10100000352E+00 0.  1.
       -3    1    3    3    0  502  0.69829326424E+03 -0.42687424464E+03 -0.79586016826E+03  0.11415903474E+04  0.10100000352E+00 0. -1.
</event>
<event>
 5   0  0.1234158E-04  0.1703399E+04  0.7818609E-02  0.8759428E-01
       -1   -1    0    0    0  501  0.00000000000E+00  0.00000000000E+00  0.87559961275E+03  0.87559961276E+03  0.50400001928E-02 0.  1.
        1   -1    0    0  501    0  0.00000000000E+00  0.00000000000E+00 -0.82845183530E+03  0.82845183532E+03  0.50400001928E-02 0. -1.
    10030    2    1    2    0    0  0.00000000000E+00  0.00000000000E+00  0.47147777447E+02  0.17040514481E+04  0.17033990797E+04 0.  0.
        5    1    3    3  502    0  0.14585311841E+03 -0.39572960792E+03  0.76378629161E+03  0.87250595642E+03  0.46999998093E+01 0.  1.
       -5    1    3    3    0  502 -0.14585311841E+03  0.39572960792E+03 -0.71663851416E+03  0.83154549167E+03  0.46999998093E+01 0. -1.
</event>
<event>
 5   0  0.2288806E-04  0.1690902E+04  0.7818609E-02  0.8766570E-01
       -2   -1    0    0    0  501  0.00000000000E+00  0.00000000000E+00  0.11263322888E+04  0.11263322888E+04  0.25500000920E-02 0. -1.
        2   -1    0    0  501    0  0.00000000000E+00  0.00000000000E+00 -0.63461511117E+03  0.63461511117E+03  0.25500000920E-02 0.  1.
    10030    2    1    2    0    0  0.00000000000E+00  0.00000000000E+00  0.49171717760E+03  0.17609473999E+04  0.16909021150E+04 0.  0.
        3    1    3    3  502    0  0.15478579341E+03  0.69825034821E+03 -0.22367883280E+03  0.74936267659E+03  0.10100000352E+00 0.  1.
       -3    1    3    3    0  502 -0.15478579341E+03 -0.69825034821E+03  0.71539601040E+03  0.10115847233E+04  0.10100000352E+00 0. -1.
</event>
<event>
 5   0  0.1126958E-04  0.1712171E+04  0.7818609E-02  0.8754453E-01
        1   -1    0    0  501    0  0.00000000000E+00  0.00000000000E+00  0.15631259366E+04  0.15631259367E+04  0.50400001928E-02 0.  1.
       -1   -1    0    0    0  501  0.00000000000E+00  0.00000000000E+00 -0.46885700868E+03  0.46885700871E+03  0.50400001928E-02 0. -1.
    10030    2    1    2    0    0  0.00000000000E+00  0.00000000000E+00  0.10942689280E+04  0.20319829454E+04  0.17121711957E+04 0.  0.
        4    1    3    3  502    0 -0.65518005276E+03  0.11004411022E+03  0.11879010355E+04  0.13610588124E+04  0.12699999809E+01 0.  1.
       -4    1    3    3    0  502  0.65518005276E+03 -0.11004411022E+03 -0.93632107551E+02  0.67092413296E+03  0.12699999809E+01 0. -1.
</event>
<event>
 5   0  0.1126958E-04  0.1783194E+04  0.7818609E-02  0.8715288E-01
       -1   -1    0    0    0  501  0.00000000000E+00  0.00000000000E+00  0.41101612172E+03  0.41101612175E+03  0.50400001928E-02 0.  1.
        1   -1    0    0  501    0  0.00000000000E+00  0.00000000000E+00 -0.19340976669E+04  0.19340976669E+04  0.50400001928E-02 0. -1.
    10030    2    1    2    0    0  0.00000000000E+00  0.00000000000E+00 -0.15230815452E+04  0.23451137887E+04  0.17831941253E+04 0.  0.
        4    1    3    3  502    0  0.74080867273E+03 -0.35830952123E+02 -0.14123089581E+04  0.15952114446E+04  0.12699999809E+01 0. -1.
       -4    1    3    3    0  502 -0.74080867273E+03  0.35830952123E+02 -0.11077258702E+03  0.74990234408E+03  0.12699999809E+01 0.  1.
</event>
<event>
 5   0  0.2288806E-04  0.1703621E+04  0.7818609E-02  0.8759302E-01
        2   -1    0    0  501    0  0.00000000000E+00  0.00000000000E+00  0.88955361102E+03  0.88955361102E+03  0.25500000920E-02 0.  1.
       -2   -1    0    0    0  501  0.00000000000E+00  0.00000000000E+00 -0.81566878874E+03  0.81566878875E+03  0.25500000920E-02 0. -1.
    10030    2    1    2    0    0  0.00000000000E+00  0.00000000000E+00  0.73884822273E+02  0.17052223998E+04  0.17036209865E+04 0.  0.
        3    1    3    3  502    0 -0.88829606447E+02  0.84414872566E+03 -0.34562379282E+02  0.84951300065E+03  0.10100000352E+00 0.  1.
       -3    1    3    3    0  502  0.88829606447E+02 -0.84414872566E+03  0.10844720155E+03  0.85570939912E+03  0.10100000352E+00 0. -1.
</event>
<event>
 5   0  0.1186302E-04  0.1694042E+04  0.7818609E-02  0.8764770E-01
       -1   -1    0    0    0  501  0.00000000000E+00  0.00000000000E+00  0.54312546166E+03  0.54312546168E+03  0.50400001928E-02 0. -1.
        1   -1    0    0  501    0  0.00000000000E+00  0.00000000000E+00 -0.13209558073E+04  0.13209558073E+04  0.50400001928E-02 0.  1.
    10030    2    1    2    0    0  0.00000000000E+00  0.00000000000E+00 -0.77783034564E+03  0.18640812690E+04  0.16940421869E+04 0.  0.
        3    1    3    3  502    0 -0.28798521917E+03  0.57071453233E+03 -0.10003851796E+04  0.11871904150E+04  0.10100000352E+00 0.  1.
       -3    1    3    3    0  502  0.28798521917E+03 -0.57071453233E+03  0.22255483392E+03  0.67689085396E+03  0.10100000352E+00 0. -1.
</event>
<event>
 5   0  0.1204741E-04  0.1696294E+04  0.7818609E-02  0.8763481E-01
       -1   -1    0    0    0  501  0.00000000000E+00  0.00000000000E+00  0.63731141640E+03  0.63731141642E+03  0.50400001928E-02 0.  1.
        1   -1    0    0  501    0  0.00000000000E+00  0.00000000000E+00 -0.11287314626E+04  0.11287314626E+04  0.50400001928E-02 0. -1.
    10030    2    1    2    0    0  0.00000000000E+00  0.00000000000E+00 -0.49142004619E+03  0.17660428790E+04  0.16962941339E+04 0.  0.
        1    1    3    3  502    0 -0.88649636235E+02 -0.82528562282E+03 -0.64189829644E+02  0.83251153235E+03  0.50400001928E-02 0. -1.
       -1    1    3    3    0  502  0.88649636235E+02  0.82528562282E+03 -0.42723021654E+03  0.93353134666E+03  0.50400001928E-02 0.  1.
</event>
<event>
 5   0  0.1126958E-04  0.1687837E+04  0.7818609E-02  0.8768332E-01
       -1   -1    0    0    0  501  0.00000000000E+00  0.00000000000E+00  0.54920364569E+03  0.54920364571E+03  0.50400001928E-02 0.  1.
        1   -1    0    0  501    0  0.00000000000E+00  0.00000000000E+00 -0.12967845447E+04  0.12967845447E+04  0.50400001928E-02 0. -1.
    10030    2    1    2    0    0  0.00000000000E+00  0.00000000000E+00 -0.74758089896E+03  0.18459881904E+04  0.16878374325E+04 0.  0.
        4    1    3    3  502    0 -0.75343868902E+03 -0.35619907566E+01 -0.78956148192E+03  0.10913713816E+04  0.12699999809E+01 0. -1.
       -4    1    3    3    0  502  0.75343868902E+03  0.35619907566E+01  0.41980582953E+02  0.75461680881E+03  0.12699999809E+01 0.  1.
</event>
<event>
 5   0  0.2224454E-04  0.1783043E+04  0.7818609E-02  0.8715370E-01
       -2   -1    0    0    0  501  0.00000000000E+00  0.00000000000E+00  0.78392752987E+03  0.78392752987E+03  0.25500000920E-02 0. -1.
        2   -1    0    0  501    0  0.00000000000E+00  0.00000000000E+00 -0.10138822444E+04  0.10138822444E+04  0.25500000920E-02 0.  1.
    10030    2    1    2    0    0  0.00000000000E+00  0.00000000000E+00 -0.22995471450E+03  0.17978097742E+04  0.17830425720E+04 0.  0.
        2    1    3    3  502    0  0.26307239891E+03  0.63827048817E+03  0.45379908195E+03  0.82615368420E+03  0.25500000920E-02 0.  1.
       -2    1    3    3    0  502 -0.26307239891E+03 -0.63827048817E+03 -0.68375379645E+03  0.97165609003E+03  0.25500000920E-02 0. -1.
</event>
<event>
 5   0  0.2224454E-04  0.1831781E+04  0.7818609E-02  0.8689579E-01
        2   -1    0    0  501    0  0.00000000000E+00  0.00000000000E+00  0.76969798652E+03  0.76969798652E+03  0.25500000920E-02 0.  1.
       -2   -1    0    0    0  501  0.00000000000E+00  0.00000000000E+00 -0.10898500287E+04  0.10898500287E+04  0.25500000920E-02 0. -1.
    10030    2    1    2    0    0  0.00000000000E+00  0.00000000000E+00 -0.32015204220E+03  0.18595480152E+04  0.18317809615E+04 0.  0.
        2    1    3    3  502    0 -0.62585675196E+03  0.35638796716E+03  0.41431561832E+03  0.83088295728E+03  0.25500000920E-02 0.  1.
       -2    1    3    3    0  502  0.62585675196E+03 -0.35638796716E+03 -0.73446766052E+03  0.10286650580E+04  0.25500000920E-02 0. -1.
</event>
<event>
 5   0  0.2224454E-04  0.1699485E+04  0.7818609E-02  0.8761658E-01
        2   -1    0    0  501    0  0.00000000000E+00  0.00000000000E+00  0.17510135558E+04  0.17510135558E+04  0.25500000920E-02 0.  1.
       -2   -1    0    0    0  501  0.00000000000E+00  0.00000000000E+00 -0.41236805322E+03  0.41236805323E+03  0.25500000920E-02 0. -1.
    10030    2    1    2    0    0  0.00000000000E+00  0.00000000000E+00  0.13386455025E+04  0.21633816090E+04  0.16994846880E+04 0.  0.
        2    1    3    3  502    0 -0.65415120786E+02  0.40413163524E+03  0.16171980308E+04  0.16682119132E+04  0.25500000920E-02 0.  1.
       -2    1    3    3    0  502  0.65415120786E+02 -0.40413163524E+03 -0.27855252824E+03  0.49516969578E+03  0.25500000920E-02 0. -1.
</event>
<event>
 5   0  0.1215233E-04  0.1711641E+04  0.7818609E-02  0.8754753E-01
       -1   -1    0    0    0  501  0.00000000000E+00  0.00000000000E+00  0.41733926308E+03  0.41733926311E+03  0.50400001928E-02 0.  1.
        1   -1    0    0  501    0  0.00000000000E+00  0.00000000000E+00 -0.17549956647E+04  0.17549956648E+04  0.50400001928E-02 0. -1.
    10030    2    1    2    0    0  0.00000000000E+00  0.00000000000E+00 -0.13376564017E+04  0.21723349279E+04  0.17116408472E+04 0.  0.
        2    1    3    3  502    0 -0.55813216203E+03 -0.27405011973E+03 -0.14151655736E+04  0.15457388457E+04  0.25500000920E-02 0. -1.
       -2    1    3    3    0  502  0.55813216203E+03  0.27405011973E+03  0.77509171950E+02  0.62659608214E+03  0.25500000920E-02 0.  1.
</event>
<event>
 5   0  0.1126958E-04  0.1703905E+04  0.7818609E-02  0.8759140E-01
        1   -1    0    0  501    0  0.00000000000E+00  0.00000000000E+00  0.10213562404E+04  0.10213562404E+04  0.50400001928E-02 0. -1.
       -1   -1    0    0    0  501  0.00000000000E+00  0.00000000000E+00 -0.71064640941E+03  0.71064640943E+03  0.50400001928E-02 0.  1.
    10030    2    1    2    0    0  0.00000000000E+00  0.00000000000E+00  0.31070983100E+03  0.17320026499E+04  0.17039050971E+04 0.  0.
        4    1    3    3  502    0  0.66815227133E+03  0.12377406685E+03 -0.36700039830E+03  0.77229423315E+03  0.12699999809E+01 0.  1.
       -4    1    3    3    0  502 -0.66815227133E+03 -0.12377406685E+03  0.67771022930E+03  0.95970841671E+03  0.12699999809E+01 0. -1.
</event>
<event>
 5   0  0.1186302E-04  0.1694997E+04  0.7818609E-02  0.8764223E-01
       -1   -1    0    0    0  501  0.00000000000E+00  0.00000000000E+00  0.35144534399E+03  0.35144534403E+03  0.50400001928E-02 0.  1.
        1   -1    0    0  501    0  0.00000000000E+00  0.00000000000E+00 -0.20437142513E+04  0.20437142513E+04  0.50400001928E-02 0. -1.
    10030    2    1    2    0    0  0.00000000000E+00  0.00000000000E+00 -0.16922689073E+04  0.23951595953E+04  0.16949971777E+04 0.  0.
        3    1    3    3  502    0  0.74595118575E+02 -0.40772799067E+03 -0.18907094363E+04  0.19356106863E+04  0.10100000352E+00 0. -1.
       -3    1    3    3    0  502 -0.74595118575E+02  0.40772799067E+03  0.19844052897E+03  0.45954890908E+03  0.10100000352E+00 0.  1.
</event>
<event>
 5   0  0.2356829E-04  0.1696642E+04  0.7818609E-02  0.8763282E-01
        2   -1    0    0  501    0  0.00000000000E+00  0.00000000000E+00  0.59298109345E+03  0.59298109346E+03  0.25500000920E-02 0. -1.
       -2   -1    0    0    0  501  0.00000000000E+00  0.00000000000E+00 -0.12136116733E+04  0.12136116733E+04  0.25500000920E-02 0.  1.
    10030    2    1    2    0    0  0.00000000000E+00  0.00000000000E+00 -0.62063057982E+03  0.18065927667E+04  0.16966423041E+04 0.  0.
        5    1    3    3  502    0  0.76745395487E+03 -0.19462545862E+03 -0.63462140135E+03  0.10147073741E+04  0.46999998093E+01 0.  1.
       -5    1    3    3    0  502 -0.76745395487E+03  0.19462545862E+03  0.13990821536E+02  0.79188539264E+03  0.46999998093E+01 0. -1.
</event>
<event>
 5   0  0.1126958E-04  0.1694233E+04  0.7818609E-02  0.8764660E-01
        1   -1    0    0  501    0  0.00000000000E+00  0.00000000000E+00  0.13806509237E+04  0.13806509237E+04  0.50400001928E-02 0.  1.
       -1   -1    0    0    0  501  0.00000000000E+00  0.00000000000E+00 -0.51975938465E+03  0.51975938467E+03  0.50400001928E-02 0. -1.
    10030    2    1    2    0    0  0.00000000000E+00  0.00000000000E+00  0.86089153902E+03  0.19004103083E+04  0.16942328937E+04 0.  0.
        4    1    3    3  502    0  0.10694112765E+03  0.25773943902E+03 -0.46672591611E+03  0.54378370413E+03  0.12699999809E+01 0. -1.
       -4    1    3    3    0  502 -0.10694112765E+03 -0.25773943902E+03  0.13276174551E+04  0.13566266042E+04  0.12699999809E+01 0.  1.
</event>
<event>
 5   0  0.2356829E-04  0.1706380E+04  0.7818609E-02  0.8757734E-01
        2   -1    0    0  501    0  0.00000000000E+00  0.00000000000E+00  0.17496090226E+04  0.17496090227E+04  0.25500000920E-02 0. -1.
       -2   -1    0    0    0  501  0.00000000000E+00  0.00000000000E+00 -0.41605463844E+03  0.41605463845E+03  0.25500000920E-02 0.  1.
    10030    2    1    2    0    0  0.00000000000E+00  0.00000000000E+00  0.13335543842E+04  0.21656636611E+04  0.17063797342E+04 0.  0.
        5    1    3    3  502    0  0.64598094554E+03 -0.53015436302E+03  0.88496822348E+03  0.12171876919E+04  0.46999998093E+01 0. -1.
       -5    1    3    3    0  502 -0.64598094554E+03  0.53015436302E+03  0.44858616073E+03  0.94847596924E+03  0.46999998093E+01 0.  1.
</event>
<event>
 5   0  0.1126958E-04  0.1698949E+04  0.7818609E-02  0.8761964E-01
       -1   -1    0    0    0  501  0.00000000000E+00  0.00000000000E+00  0.69462323951E+03  0.69462323953E+03  0.50400001928E-02 0.  1.
        1   -1    0    0  501    0  0.00000000000E+00  0.00000000000E+00 -0.10388465001E+04  0.10388465002E+04  0.50400001928E-02 0. -1.
    10030    2    1    2    0    0  0.00000000000E+00  0.00000000000E+00 -0.34422326063E+03  0.17334697397E+04  0.16989489943E+04 0.  0.
        4    1    3    3  502    0  0.40982900975E+03  0.68817359516E+03  0.11659100809E+03  0.80940582552E+03  0.12699999809E+01 0.  1.
       -4    1    3    3    0  502 -0.40982900975E+03 -0.68817359516E+03 -0.46081426871E+03  0.92406391417E+03  0.12699999809E+01 0. -1.
</event>
<event>
 5   0  0.1234158E-04  0.1488408E+04  0.7818609E-02  0.8892198E-01
       -1   -1    0    0    0  501  0.00000000000E+00  0.00000000000E+00  0.24420182811E+03  0.24420182816E+03  0.50400001928E-02 0.  1.
        1   -1    0    0  501    0  0.00000000000E+00  0.00000000000E+00 -0.22679577040E+04  0.22679577040E+04  0.50400001928E-02 0. -1.
    10030    2    1    2    0    0  0.00000000000E+00  0.00000000000E+00 -0.20237558758E+04  0.25121595321E+04  0.14884077633E+04 0.  0.
        5    1    3    3  502    0  0.61283713088E+03 -0.35228582505E+03 -0.14046089050E+04  0.15724576044E+04  0.46999998093E+01 0. -1.
       -5    1    3    3    0  502 -0.61283713088E+03  0.35228582505E+03 -0.61914697082E+03  0.93970192774E+03  0.46999998093E+01 0.  1.
</event>
<event>
 5   0  0.1186302E-04  0.1703270E+04  0.7818609E-02  0.8759502E-01
       -1   -1    0    0    0  501  0.00000000000E+00  0.00000000000E+00  0.55801783392E+03  0.55801783394E+03  0.50400001928E-02 0.  1.
        1   -1    0    0  501    0  0.00000000000E+00  0.00000000000E+00 -0.12997467789E+04  0.12997467789E+04  0.50400001928E-02 0. -1.
    10030    2    1    2    0    0  0.00000000000E+00  0.00000000000E+00 -0.74172894497E+03  0.18577646128E+04  0.17032696583E+04 0.  0.
        3    1    3    3  502    0 -0.54340596140E+03  0.62027363091E+03 -0.13884290681E+03  0.83624564517E+03  0.10100000352E+00 0.  1.
       -3    1    3    3    0  502  0.54340596140E+03 -0.62027363091E+03 -0.60288603816E+03  0.10215189677E+04  0.10100000352E+00 0. -1.
</event>
<event>
 5   0  0.1204741E-04  0.1704603E+04  0.7818609E-02  0.8758744E-01
       -1   -1    0    0    0  501  0.00000000000E+00  0.00000000000E+00  0.45634907281E+03  0.45634907283E+03  0.50400001928E-02 0. -1.
        1   -1    0    0  501    0  0.00000000000E+00  0.00000000000E+00 -0.15918025231E+04  0.15918025231E+04  0.50400001928E-02 0.  1.
    10030    2    1    2    0    0  0.00000000000E+00  0.00000000000E+00 -0.11354534503E+04  0.20481515959E+04  0.17046027168E+04 0.  0.
        1    1    3    3  502    0 -0.64240550614E+03  0.27132378405E+03 -0.11565020904E+04  0.13504808459E+04  0.50400001928E-02 0.  1.
       -1    1    3    3    0  502  0.64240550614E+03 -0.27132378405E+03  0.21048640116E+02  0.69767074999E+03  0.50400001928E-02 0. -1.
</event>
<event>
 5   0  0.2242967E-04  0.1696878E+04  0.7818609E-02  0.8763147E-01
        2   -1    0    0  501    0  0.00000000000E+00  0.00000000000E+00  0.16774360516E+04  0.16774360516E+04  0.25500000920E-02 0. -1.
       -2   -1    0    0    0  501  0.00000000000E+00  0.00000000000E+00 -0.42913614897E+03  0.42913614898E+03  0.25500000920E-02 0.  1.
    10030    2    1    2    0    0  0.00000000000E+00  0.00000000000E+00  0.12482999027E+04  0.21065722006E+04  0.16968776589E+04 0.  0.
        4    1    3    3  502    0  0.59419694508E+03  0.18257389120E+03  0.13410143446E+04  0.14780812970E+04  0.12699999809E+01 0. -1.
       -4    1    3    3    0  502 -0.59419694508E+03 -0.18257389120E+03 -0.92714441905E+02  0.62849090361E+03  0.12699999809E+01 0.  1.
</event>
<event>
 5   0  0.2224454E-04  0.1670072E+04  0.7818609E-02  0.8778620E-01
       -2   -1    0    0    0  501  0.00000000000E+00  0.00000000000E+00  0.25524773964E+03  0.25524773965E+03  0.25500000920E-02 0. -1.
        2   -1    0    0  501    0  0.00000000000E+00  0.00000000000E+00 -0.27317989114E+04  0.27317989114E+04  0.25500000920E-02 0.  1.
    10030    2    1    2    0    0  0.00000000000E+00  0.00000000000E+00 -0.24765511718E+04  0.29870466511E+04  0.16700724503E+04 0.  0.
        2    1    3    3  502    0 -0.51473994863E+03 -0.65723127978E+03 -0.12729262743E+04  0.15222521045E+04  0.25500000920E-02 0. -1.
       -2    1    3    3    0  502  0.51473994863E+03  0.65723127978E+03 -0.12036248975E+04  0.14647945466E+04  0.25500000920E-02 0.  1.
</event>
<event>
 5   0  0.1186302E-04  0.1710078E+04  0.7818609E-02  0.8755637E-01
       -1   -1    0    0    0  501  0.00000000000E+00  0.00000000000E+00  0.86569947842E+03  0.86569947843E+03  0.50400001928E-02 0. -1.
        1   -1    0    0  501    0  0.00000000000E+00  0.00000000000E+00 -0.84451020435E+03  0.84451020437E+03  0.50400001928E-02 0.  1.
    10030    2    1    2    0    0  0.00000000000E+00  0.00000000000E+00  0.21189274062E+02  0.17102096828E+04  0.17100784116E+04 0.  0.
        3    1    3    3  502    0 -0.12757717849E+03 -0.26203314628E+03  0.81449384261E+03  0.86506504731E+03  0.10100000352E+00 0. -1.
       -3    1    3    3    0  502  0.12757717849E+03  0.26203314628E+03 -0.79330456855E+03  0.84514463549E+03  0.10100000352E+00 0.  1.
</event>
<event>
 5   0  0.2288806E-04  0.1710924E+04  0.7818609E-02  0.8755158E-01
       -2   -1    0    0    0  501  0.00000000000E+00  0.00000000000E+00  0.52008063698E+03  0.52008063699E+03  0.25500000920E-02 0. -1.
        2   -1    0    0  501    0  0.00000000000E+00  0.00000000000E+00 -0.14071187499E+04  0.14071187499E+04  0.25500000920E-02 0.  1.
    10030    2    1    2    0    0  0.00000000000E+00  0.00000000000E+00 -0.88703811288E+03  0.19271993869E+04  0.17109239793E+04 0.  0.
        3    1    3    3  502    0 -0.13439626388E+03 -0.55508388052E+02 -0.13930966030E+04  0.14006647323E+04  0.10100000352E+00 0.  1.
       -3    1    3    3    0  502  0.13439626388E+03  0.55508388052E+02  0.50605849007E+03  0.52653465457E+03  0.10100000352E+00 0. -1.
</event>
<event>
 5   0  0.1204741E-04  0.1726408E+04  0.7818609E-02  0.8746444E-01
        1   -1    0    0  501    0  0.00000000000E+00  0.00000000000E+00  0.61136233143E+03  0.61136233145E+03  0.50400001928E-02 0. -1.
       -1   -1    0    0    0  501  0.00000000000E+00  0.00000000000E+00 -0.12187886817E+04  0.12187886817E+04  0.50400001928E-02 0.  1.
    10030    2    1    2    0    0  0.00000000000E+00  0.00000000000E+00 -0.60742635029E+03  0.18301510132E+04  0.17264083990E+04 0.  0.
        1    1    3    3  502    0  0.53032978896E+03  0.45138454910E+03 -0.84438461107E+03  0.10945241284E+04  0.50400001928E-02 0.  1.
       -1    1    3    3    0  502 -0.53032978896E+03 -0.45138454910E+03  0.23695826078E+03  0.73562688477E+03  0.50400001928E-02 0. -1.
</event>
<event>
 5   0  0.1126958E-04  0.1704080E+04  0.7818609E-02  0.8759041E-01
       -1   -1    0    0    0  501  0.00000000000E+00  0.00000000000E+00  0.38783208055E+03  0.38783208059E+03  0.50400001928E-02 0. -1.
        1   -1    0    0  501    0  0.00000000000E+00  0.00000000000E+00 -0.18718719975E+04  0.18718719975E+04  0.50400001928E-02 0.  1.
    10030    2    1    2    0    0  0.00000000000E+00  0.00000000000E+00 -0.14840399170E+04  0.22597040781E+04  0.17040798237E+04 0.  0.
        4    1    3    3  502    0  0.45253698434E+03  0.35709312910E+03 -0.15740234192E+04  0.16762626769E+04  0.12699999809E+01 0.  1.
       -4    1    3    3    0  502 -0.45253698434E+03 -0.35709312910E+03  0.89983502203E+02  0.58344140119E+03  0.12699999809E+01 0. -1.
</event>
<event>
 5   0  0.1234158E-04  0.1706542E+04  0.7818609E-02  0.8757642E-01
       -1   -1    0    0    0  501  0.00000000000E+00  0.00000000000E+00  0.14128128948E+04  0.14128128948E+04  0.50400001928E-02 0.  1.
        1   -1    0    0  501    0  0.00000000000E+00  0.00000000000E+00 -0.51533486326E+03  0.51533486329E+03  0.50400001928E-02 0. -1.
    10030    2    1    2    0    0  0.00000000000E+00  0.00000000000E+00  0.89747803153E+03  0.19281477581E+04  0.17065423991E+04 0.  0.
        5    1    3    3  502    0  0.29705210809E+03  0.79329594710E+03  0.56446650856E+03  0.10179405404E+04  0.46999998093E+01 0. -1.
       -5    1    3    3    0  502 -0.29705210809E+03 -0.79329594710E+03  0.33301152297E+03  0.91020721764E+03  0.46999998093E+01 0.  1.
</event>
<event>
 5   0  0.2288806E-04  0.1695229E+04  0.7818609E-02  0.8764090E-01
       -2   -1    0    0    0  501  0.00000000000E+00  0.00000000000E+00  0.37072281383E+03  0.37072281384E+03  0.25500000920E-02 0.  1.
        2   -1    0    0  501    0  0.00000000000E+00  0.00000000000E+00 -0.19379726049E+04  0.19379726049E+04  0.25500000920E-02 0. -1.
    10030    2    1    2    0    0  0.00000000000E+00  0.00000000000E+00 -0.15672497910E+04  0.23086954187E+04  0.16952293735E+04 0.  0.
        3    1    3    3  502    0 -0.15456478543E+03 -0.52620975819E+03  0.96514619352E+02  0.55686808533E+03  0.10100000352E+00 0.  1.
       -3    1    3    3    0  502  0.15456478543E+03  0.52620975819E+03 -0.16637644104E+04  0.17518273334E+04  0.10100000352E+00 0. -1.
</event>
<event>
 5   0  0.1204741E-04  0.1694866E+04  0.7818609E-02  0.8764298E-01
       -1   -1    0    0    0  501  0.00000000000E+00  0.00000000000E+00  0.63150975830E+03  0.63150975832E+03  0.50400001928E-02 0. -1.
        1   -1    0    0  501    0  0.00000000000E+00  0.00000000000E+00 -0.11371842612E+04  0.11371842612E+04  0.50400001928E-02 0.  1.
    10030    2    1    2    0    0  0.00000000000E+00  0.00000000000E+00 -0.50567450286E+03  0.17686940195E+04  0.16948663168E+04 0.  0.
        1    1    3    3  502    0 -0.21157803497E+03  0.76149743360E+03 -0.57193339697E+03  0.97557747866E+03  0.50400001928E-02 0.  1.
       -1    1    3    3    0  502  0.21157803497E+03 -0.76149743360E+03  0.66258894106E+02  0.79311654083E+03  0.50400001928E-02 0. -1.
</event>
<event>
 5   0  0.2234723E-04  0.1697018E+04  0.7818609E-02  0.8763067E-01
       -2   -1    0    0    0  501  0.00000000000E+00  0.00000000000E+00  0.44811392183E+03  0.44811392183E+03  0.25500000920E-02 0. -1.
        2   -1    0    0  501    0  0.00000000000E+00  0.00000000000E+00 -0.16066618590E+04  0.16066618590E+04  0.25500000920E-02 0.  1.
    10030    2    1    2    0    0  0.00000000000E+00  0.00000000000E+00 -0.11585479372E+04  0.20547757808E+04  0.16970180278E+04 0.  0.
        1    1    3    3  502    0 -0.39433859679E+03 -0.13138041166E+03  0.31640532977E+03  0.52237541502E+03  0.50400001928E-02 0. -1.
       -1    1    3    3    0  502  0.39433859679E+03  0.13138041166E+03 -0.14749532669E+04  0.15324003658E+04  0.50400001928E-02 0.  1.
</event>
<event>
 5   0  0.1126958E-04  0.1704229E+04  0.7818609E-02  0.8758956E-01
       -1   -1    0    0    0  501  0.00000000000E+00  0.00000000000E+00  0.72665828097E+03  0.72665828099E+03  0.50400001928E-02 0.  1.
        1   -1    0    0  501    0  0.00000000000E+00  0.00000000000E+00 -0.99923057942E+03  0.99923057943E+03  0.50400001928E-02 0. -1.
    10030    2    1    2    0    0  0.00000000000E+00  0.00000000000E+00 -0.27257229845E+03  0.17258888604E+04  0.17042290634E+04 0.  0.
        4    1    3    3  502    0  0.37068403962E+03  0.18629734683E+03  0.61747465273E+03  0.74390182036E+03  0.12699999809E+01 0.  1.
       -4    1    3    3    0  502 -0.37068403962E+03 -0.18629734683E+03 -0.89004695118E+03  0.98198704007E+03  0.12699999809E+01 0. -1.
</event>
<event>
 5   0  0.1234158E-04  0.1695278E+04  0.7818609E-02  0.8764062E-01
       -1   -1    0    0    0  501  0.00000000000E+00  0.00000000000E+00  0.53446491859E+03  0.53446491862E+03  0.50400001928E-02 0. -1.
        1   -1    0    0  501    0  0.00000000000E+00  0.00000000000E+00 -0.13443192491E+04  0.13443192491E+04  0.50400001928E-02 0.  1.
    10030    2    1    2    0    0  0.00000000000E+00  0.00000000000E+00 -0.80985433052E+03  0.18787841677E+04  0.16952775325E+04 0.  0.
        5    1    3    3  502    0 -0.68501058977E+03 -0.47412749564E+03 -0.57815770717E+03  0.10140635160E+04  0.46999998093E+01 0.  1.
       -5    1    3    3    0  502  0.68501058977E+03  0.47412749564E+03 -0.23169662336E+03  0.86472065170E+03  0.46999998093E+01 0. -1.
</event>
<event>
 5   0  0.1215233E-04  0.1912266E+04  0.7818609E-02  0.8648775E-01
        1   -1    0    0  501    0  0.00000000000E+00  0.00000000000E+00  0.81348992543E+03  0.81348992545E+03  0.50400001928E-02 0. -1.
       -1   -1    0    0    0  501  0.00000000000E+00  0.00000000000E+00 -0.11237883285E+04  0.11237883285E+04  0.50400001928E-02 0.  1.
    10030    2    1    2    0    0  0.00000000000E+00  0.00000000000E+00 -0.31029840309E+03  0.19372782540E+04  0.19122661777E+04 0.  0.
        2    1    3    3  502    0 -0.36825596451E+03 -0.73827216839E+02 -0.10459267045E+04  0.11113170495E+04  0.25500000920E-02 0.  1.
       -2    1    3    3    0  502  0.36825596451E+03  0.73827216839E+02  0.73562830144E+03  0.82596120444E+03  0.25500000920E-02 0. -1.
</event>
<event>
 5   0  0.1215233E-04  0.1701268E+04  0.7818609E-02  0.8760641E-01
       -1   -1    0    0    0  501  0.00000000000E+00  0.00000000000E+00  0.66700359357E+03  0.66700359358E+03  0.50400001928E-02 0.  1.
        1   -1    0    0  501    0  0.00000000000E+00  0.00000000000E+00 -0.10848192965E+04  0.10848192965E+04  0.50400001928E-02 0. -1.
    10030    2    1    2    0    0  0.00000000000E+00  0.00000000000E+00 -0.41781570295E+03  0.17518228901E+04  0.17012681966E+04 0.  0.
        2    1    3    3  502    0  0.24596642828E+03  0.63411449217E+03 -0.73494826415E+03  0.10013738683E+04  0.25500000920E-02 0. -1.
       -2    1    3    3    0  502 -0.24596642828E+03 -0.63411449217E+03  0.31713256121E+03  0.75044902186E+03  0.25500000920E-02 0.  1.
</event>
<event>
 5   0  0.1234158E-04  0.1696168E+04  0.7818609E-02  0.8763553E-01
        1   -1    0    0  501    0  0.00000000000E+00  0.00000000000E+00  0.92712199470E+03  0.92712199471E+03  0.50400001928E-02 0.  1.
       -1   -1    0    0    0  501  0.00000000000E+00  0.00000000000E+00 -0.77578404921E+03  0.77578404922E+03  0.50400001928E-02 0. -1.
    10030    2    1    2    0    0  0.00000000000E+00  0.00000000000E+00  0.15133794549E+03  0.17029060439E+04  0.16961679813E+04 0.  0.
        5    1    3    3  502    0 -0.53306007765E+03  0.99523638147E+02 -0.57896912442E+03  0.79327507080E+03  0.46999998093E+01 0. -1.
       -5    1    3    3    0  502  0.53306007765E+03 -0.99523638147E+02  0.73030706991E+03  0.90963097314E+03  0.46999998093E+01 0.  1.
</event>
<event>
 5   0  0.2224454E-04  0.1706988E+04  0.7818609E-02  0.8757389E-01
        2   -1    0    0  501    0  0.00000000000E+00  0.00000000000E+00  0.57491880649E+03  0.57491880649E+03  0.25500000920E-02 0.  1.
       -2   -1    0    0    0  501  0.00000000000E+00  0.00000000000E+00 -0.12670514605E+04  0.12670514605E+04  0.25500000920E-02 0. -1.
    10030    2    1    2    0    0  0.00000000000E+00  0.00000000000E+00 -0.69213265404E+03  0.18419702670E+04  0.17069876549E+04 0.  0.
        2    1    3    3  502    0  0.13017937531E+03 -0.66161051328E+03  0.21854602671E+03  0.70882826329E+03  0.25500000920E-02 0.  1.
       -2    1    3    3    0  502 -0.13017937531E+03  0.66161051328E+03 -0.91067868076E+03  0.11331420037E+04  0.25500000920E-02 0. -1.
</event>
<event>
 5   0  0.1126958E-04  0.1668685E+04  0.7818609E-02  0.8779429E-01
        1   -1    0    0  501    0  0.00000000000E+00  0.00000000000E+00  0.15713018872E+04  0.15713018872E+04  0.50400001928E-02 0.  1.
       -1   -1    0    0    0  501  0.00000000000E+00  0.00000000000E+00 -0.44302590689E+03  0.44302590691E+03  0.50400001928E-02 0. -1.
    10030    2    1    2    0    0  0.00000000000E+00  0.00000000000E+00  0.11282759803E+04  0.20143277941E+04  0.16686850435E+04 0.  0.
        4    1    3    3  502    0 -0.24248395754E+03 -0.75435115137E+03  0.24870439987E+03  0.83048155949E+03  0.12699999809E+01 0. -1.
       -4    1    3    3    0  502  0.24248395754E+03  0.75435115137E+03  0.87957158043E+03  0.11838462346E+04  0.12699999809E+01 0.  1.
</event>
<event>
 5   0  0.1204741E-04  0.1691981E+04  0.7818609E-02  0.8765951E-01
        1   -1    0    0  501    0  0.00000000000E+00  0.00000000000E+00  0.25683031997E+04  0.25683031997E+04  0.50400001928E-02 0. -1.
       -1   -1    0    0    0  501  0.00000000000E+00  0.00000000000E+00 -0.27866631383E+03  0.27866631388E+03  0.50400001928E-02 0.  1.
    10030    2    1    2    0    0  0.00000000000E+00  0.00000000000E+00  0.22896368859E+04  0.28469695136E+04  0.16919805975E+04 0.  0.
        1    1    3    3  502    0 -0.75426732023E+03 -0.12375312141E+03  0.17549077820E+04  0.19141408906E+04  0.50400001928E-02 0. -1.
       -1    1    3    3    0  502  0.75426732023E+03  0.12375312141E+03  0.53472910384E+03  0.93282862303E+03  0.50400001928E-02 0.  1.
</event>
<event>
 5   0  0.1204741E-04  0.1697806E+04  0.7818609E-02  0.8762617E-01
        1   -1    0    0  501    0  0.00000000000E+00  0.00000000000E+00  0.12820818552E+04  0.12820818552E+04  0.50400001928E-02 0.  1.
       -1   -1    0    0    0  501  0.00000000000E+00  0.00000000000E+00 -0.56208274374E+03  0.56208274376E+03  0.50400001928E-02 0. -1.
    10030    2    1    2    0    0  0.00000000000E+00  0.00000000000E+00  0.71999911147E+03  0.18441645990E+04  0.16978057450E+04 0.  0.
        1    1    3    3  502    0  0.26418285133E+03 -0.12857339159E+03  0.12250935156E+04  0.12598324563E+04  0.50400001928E-02 0.  1.
       -1    1    3    3    0  502 -0.26418285133E+03  0.12857339159E+03 -0.50509440408E+03  0.58433214272E+03  0.50400001928E-02 0. -1.
</event>
<event>
 5   0  0.2242967E-04  0.1712637E+04  0.7818609E-02  0.8754189E-01
        2   -1    0    0  501    0  0.00000000000E+00  0.00000000000E+00  0.10152910065E+04  0.10152910065E+04  0.25500000920E-02 0.  1.
       -2   -1    0    0    0  501  0.00000000000E+00  0.00000000000E+00 -0.72223802963E+03  0.72223802963E+03  0.25500000920E-02 0. -1.
    10030    2    1    2    0    0  0.00000000000E+00  0.00000000000E+00  0.29305297688E+03  0.17375290361E+04  0.17126374702E+04 0.  0.
        4    1    3    3  502    0 -0.13588700969E+03  0.82553027612E+03 -0.38649314680E+02  0.83753262541E+03  0.12699999809E+01 0.  1.
       -4    1    3    3    0  502  0.13588700969E+03 -0.82553027612E+03  0.33170229156E+03  0.89999641073E+03  0.12699999809E+01 0. -1.
</event>
<event>
 5   0  0.1186302E-04  0.1739311E+04  0.7818609E-02  0.8739256E-01
       -1   -1    0    0    0  501  0.00000000000E+00  0.00000000000E+00  0.62936394250E+03  0.62936394252E+03  0.50400001928E-02 0.  1.
        1   -1    0    0  501    0  0.00000000000E+00  0.00000000000E+00 -0.12016909469E+04  0.12016909469E+04  0.50400001928E-02 0. -1.
    10030    2    1    2    0    0  0.00000000000E+00  0.00000000000E+00 -0.57232700435E+03  0.18310548894E+04  0.17393113028E+04 0.  0.
        3    1    3    3  502    0  0.76147253208E+03 -0.23098288774E+03  0.83210374183E+02  0.80007342670E+03  0.10100000352E+00 0.  1.
       -3    1    3    3    0  502 -0.76147253208E+03  0.23098288774E+03 -0.65553737853E+03  0.10309814627E+04  0.10100000352E+00 0. -1.
</event>
<event>
 5   0  0.2242967E-04  0.1767925E+04  0.7818609E-02  0.8723545E-01
       -2   -1    0    0    0  501  0.00000000000E+00  0.00000000000E+00  0.52753742042E+03  0.52753742042E+03  0.25500000920E-02 0. -1.
        2   -1    0    0  501    0  0.00000000000E+00  0.00000000000E+00 -0.14812016953E+04  0.14812016953E+04  0.25500000920E-02 0.  1.
    10030    2    1    2    0    0  0.00000000000E+00  0.00000000000E+00 -0.95366427486E+03  0.20087391157E+04  0.17679245702E+04 0.  0.
        4    1    3    3  502    0  0.12516962895E+03 -0.42358788445E+03  0.39316409739E+03  0.59133218435E+03  0.12699999809E+01 0. -1.
       -4    1    3    3    0  502 -0.12516962895E+03  0.42358788445E+03 -0.13468283723E+04  0.14174069314E+04  0.12699999809E+01 0.  1.
</event>
<event>
 5   0  0.2288806E-04  0.1698136E+04  0.7818609E-02  0.8762428E-01
       -2   -1    0    0    0  501  0.00000000000E+00  0.00000000000E+00  0.39882703524E+03  0.39882703525E+03  0.25500000920E-02 0. -1.
        2   -1    0    0  501    0  0.00000000000E+00  0.00000000000E+00 -0.18075923104E+04  0.18075923104E+04  0.25500000920E-02 0.  1.
    10030    2    1    2    0    0  0.00000000000E+00  0.00000000000E+00 -0.14087652752E+04  0.22064193456E+04  0.16981362514E+04 0.  0.
        3    1    3    3  502    0 -0.69040282406E+03  0.12957491886E+03 -0.13240783578E+04  0.14988759878E+04  0.10100000352E+00 0.  1.
       -3    1    3    3    0  502  0.69040282406E+03 -0.12957491886E+03 -0.84686917405E+02  0.70754335786E+03  0.10100000352E+00 0. -1.
</event>
<event>
 5   0  0.2234723E-04  0.1687879E+04  0.7818609E-02  0.8768308E-01
        2   -1    0    0  501    0  0.00000000000E+00  0.00000000000E+00  0.12160657340E+04  0.12160657340E+04  0.25500000920E-02 0. -1.
       -2   -1    0    0    0  501  0.00000000000E+00  0.00000000000E+00 -0.58568693811E+03  0.58568693812E+03  0.25500000920E-02 0.  1.
    10030    2    1    2    0    0  0.00000000000E+00  0.00000000000E+00  0.63037879585E+03  0.18017526721E+04  0.16878789249E+04 0.  0.
        1    1    3    3  502    0  0.60335961721E+03 -0.45633819493E+03  0.71452204088E+03  0.10405907566E+04  0.50400001928E-02 0. -1.
       -1    1    3    3    0  502 -0.60335961721E+03  0.45633819493E+03 -0.84143245027E+02  0.76116191546E+03  0.50400001928E-02 0.  1.
</event>
<event>
 5   0  0.2242967E-04  0.1703142E+04  0.7818609E-02  0.8759574E-01
        2   -1    0    0  501    0  0.00000000000E+00  0.00000000000E+00  0.23851182801E+04  0.23851182801E+04  0.25500000920E-02 0.  1.
       -2   -1    0    0    0  501  0.00000000000E+00  0.00000000000E+00 -0.30404073317E+03  0.30404073318E+03  0.25500000920E-02 0. -1.
    10030    2    1    2    0    0  0.00000000000E+00  0.00000000000E+00  0.20810775469E+04  0.26891590133E+04  0.17031419325E+04 0.  0.
        4    1    3    3  502    0 -0.15498971954E+03  0.83653846675E+03  0.98245870971E+03  0.12996326976E+04  0.12699999809E+01 0.  1.
       -4    1    3    3    0  502  0.15498971954E+03 -0.83653846675E+03  0.10986188372E+04  0.13895263156E+04  0.12699999809E+01 0. -1.
</event>
<event>
 5   0  0.1186302E-04  0.1716946E+04  0.7818609E-02  0.8751758E-01
       -1   -1    0    0    0  501  0.00000000000E+00  0.00000000000E+00  0.80934773139E+03  0.80934773140E+03  0.50400001928E-02 0. -1.
        1   -1    0    0  501    0  0.00000000000E+00  0.00000000000E+00 -0.91058007128E+03  0.91058007130E+03  0.50400001928E-02 0.  1.
    10030    2    1    2    0    0  0.00000000000E+00  0.00000000000E+00 -0.10123233989E+03  0.17199278027E+04  0.17169460271E+04 0.  0.
        3    1    3    3  502    0  0.55364599594E+03  0.24363999490E+03 -0.66084696093E+03  0.89588115947E+03  0.10100000352E+00 0. -1.
       -3    1    3    3    0  502 -0.55364599594E+03 -0.24363999490E+03  0.55961462104E+03  0.82404664322E+03  0.10100000352E+00 0.  1.
</event>
<event>
 5   0  0.2288806E-04  0.1699392E+04  0.7818609E-02  0.8761711E-01
       -2   -1    0    0    0  501  0.00000000000E+00  0.00000000000E+00  0.33181502395E+03  0.33181502396E+03  0.25500000920E-02 0.  1.
        2   -1    0    0  501    0  0.00000000000E+00  0.00000000000E+00 -0.21758602264E+04  0.21758602264E+04  0.25500000920E-02 0. -1.
    10030    2    1    2    0    0  0.00000000000E+00  0.00000000000E+00 -0.18440452025E+04  0.25076752504E+04  0.16993917890E+04 0.  0.
        3    1    3    3  502    0  0.24078438150E+03 -0.56281788153E+03 -0.17915713072E+04  0.18932693536E+04  0.10100000352E+00 0. -1.
       -3    1    3    3    0  502 -0.24078438150E+03  0.56281788153E+03 -0.52473895242E+02  0.61440589680E+03  0.10100000352E+00 0.  1.
</event>
<event>
 5   0  0.1186302E-04  0.1709432E+04  0.7818609E-02  0.8756003E-01
       -1   -1    0    0    0  501  0.00000000000E+00  0.00000000000E+00  0.12883652222E+04  0.12883652222E+04  0.50400001928E-02 0.  1.
        1   -1    0    0  501    0  0.00000000000E+00  0.00000000000E+00 -0.56702819828E+03  0.56702819831E+03  0.50400001928E-02 0. -1.
    10030    2    1    2    0    0  0.00000000000E+00  0.00000000000E+00  0.72133702392E+03  0.18553934205E+04  0.17094319650E+04 0.  0.
        3    1    3    3  502    0 -0.60530682909E+03  0.38801377882E+03  0.86228635058E+03  0.11227149284E+04  0.10100000352E+00 0.  1.
       -3    1    3    3    0  502  0.60530682909E+03 -0.38801377882E+03 -0.14094932666E+03  0.73267849210E+03  0.10100000352E+00 0. -1.
</event>
<event>
 5   0  0.2242967E-04  0.1659502E+04  0.7818609E-02  0.8784805E-01
        2   -1    0    0  501    0  0.00000000000E+00  0.00000000000E+00  0.87869240488E+03  0.87869240488E+03  0.25500000920E-02 0. -1.
       -2   -1    0    0    0  501  0.00000000000E+00  0.00000000000E+00 -0.78353526642E+03  0.78353526643E+03  0.25500000920E-02 0.  1.
    10030    2    1    2    0    0  0.00000000000E+00  0.00000000000E+00  0.95157138454E+02  0.16622276713E+04  0.16595017175E+04 0.  0.
        4    1    3    3  502    0 -0.38044337009E+02  0.74191928498E+03  0.41777094047E+03  0.85230614723E+03  0.12699999809E+01 0. -1.
       -4    1    3    3    0  502  0.38044337009E+02 -0.74191928498E+03 -0.32261380202E+03  0.80992152407E+03  0.12699999809E+01 0.  1.
</event>
<event>
 5   0  0.2224454E-04  0.1727342E+04  0.7818609E-02  0.8745922E-01
       -2   -1    0    0    0  501  0.00000000000E+00  0.00000000000E+00  0.13583162327E+04  0.13583162327E+04  0.25500000920E-02 0. -1.
        2   -1    0    0  501    0  0.00000000000E+00  0.00000000000E+00 -0.54915611454E+03  0.54915611454E+03  0.25500000920E-02 0.  1.
    10030    2    1    2    0    0  0.00000000000E+00  0.00000000000E+00  0.80916011816E+03  0.19074723472E+04  0.17273420792E+04 0.  0.
        2    1    3    3  502    0 -0.32121941222E+03  0.66113527828E+03 -0.96191808487E+02  0.74130603060E+03  0.25500000920E-02 0.  1.
       -2    1    3    3    0  502  0.32121941222E+03 -0.66113527828E+03  0.90535192664E+03  0.11661663166E+04  0.25500000920E-02 0. -1.
</event>
<event>
 5   0  0.2234723E-04  0.1701655E+04  0.7818609E-02  0.8760421E-01
       -2   -1    0    0    0  501  0.00000000000E+00  0.00000000000E+00  0.42929566940E+03  0.42929566941E+03  0.25500000920E-02 0.  1.
        2   -1    0    0  501    0  0.00000000000E+00  0.00000000000E+00 -0.16862667920E+04  0.16862667920E+04  0.25500000920E-02 0. -1.
    10030    2    1    2    0    0  0.00000000000E+00  0.00000000000E+00 -0.12569711226E+04  0.21155624614E+04  0.17016545258E+04 0.  0.
        1    1    3    3  502    0 -0.23122113998E+03 -0.54107537813E+02  0.38726100049E+03  0.45427076040E+03  0.50400001928E-02 0.  1.
       -1    1    3    3    0  502  0.23122113998E+03  0.54107537813E+02 -0.16442321231E+04  0.16612917010E+04  0.50400001928E-02 0. -1.
</event>
<event>
 5   0  0.2288806E-04  0.1714264E+04  0.7818609E-02  0.8753271E-01
        2   -1    0    0  501    0  0.00000000000E+00  0.00000000000E+00  0.14532540979E+04  0.14532540979E+04  0.25500000920E-02 0. -1.
       -2   -1    0    0    0  501  0.00000000000E+00  0.00000000000E+00 -0.50553802496E+03  0.50553802497E+03  0.25500000920E-02 0.  1.
    10030    2    1    2    0    0  0.00000000000E+00  0.00000000000E+00  0.94771607292E+03  0.19587921229E+04  0.17142639312E+04 0.  0.
        3    1    3    3  502    0  0.67279251732E+03  0.24979914964E+03  0.10093492499E+04  0.12384810475E+04  0.10100000352E+00 0. -1.
       -3    1    3    3    0  502 -0.67279251732E+03 -0.24979914964E+03 -0.61633177028E+02  0.72031107532E+03  0.10100000352E+00 0.  1.
</event>
<event>
 5   0  0.2224454E-04  0.1697143E+04  0.7818609E-02  0.8762995E-01
        2   -1    0    0  501    0  0.00000000000E+00  0.00000000000E+00  0.22000745358E+04  0.22000745358E+04  0.25500000920E-02 0.  1.
       -2   -1    0    0    0  501  0.00000000000E+00  0.00000000000E+00 -0.32729524115E+03  0.32729524116E+03  0.25500000920E-02 0. -1.
    10030    2    1    2    0    0  0.00000000000E+00  0.00000000000E+00  0.18727792946E+04  0.25273697769E+04  0.16971433949E+04 0.  0.
        2    1    3    3  502    0 -0.41714576613E+03  0.47456166930E+03  0.92852221875E+02  0.63862422698E+03  0.25500000920E-02 0. -1.
       -2    1    3    3    0  502  0.41714576613E+03 -0.47456166930E+03  0.17799270728E+04  0.18887455500E+04  0.25500000920E-02 0.  1.
</event>
<event>
 5   0  0.1215233E-04  0.1704522E+04  0.7818609E-02  0.8758789E-01
       -1   -1    0    0    0  501  0.00000000000E+00  0.00000000000E+00  0.15533661898E+04  0.15533661898E+04  0.50400001928E-02 0.  1.
        1   -1    0    0  501    0  0.00000000000E+00  0.00000000000E+00 -0.46759665407E+03  0.46759665410E+03  0.50400001928E-02 0. -1.
    10030    2    1    2    0    0  0.00000000000E+00  0.00000000000E+00  0.10857695358E+04  0.20209628439E+04  0.17045220244E+04 0.  0.
        2    1    3    3  502    0 -0.76089001642E+03 -0.79724233998E+02  0.97612419864E+02  0.77125725610E+03  0.25500000920E-02 0. -1.
       -2    1    3    3    0  502  0.76089001642E+03  0.79724233998E+02  0.98815711590E+03  0.12497055878E+04  0.25500000920E-02 0.  1.
</event>
<event>
 5   0  0.1215233E-04  0.1704619E+04  0.7818609E-02  0.8758735E-01
       -1   -1    0    0    0  501  0.00000000000E+00  0.00000000000E+00  0.44064981132E+03  0.44064981134E+03  0.50400001928E-02 0. -1.
        1   -1    0    0  501    0  0.00000000000E+00  0.00000000000E+00 -0.16485451682E+04  0.16485451682E+04  0.50400001928E-02 0.  1.
    10030    2    1    2    0    0  0.00000000000E+00  0.00000000000E+00 -0.12078953569E+04  0.20891949796E+04  0.17046185701E+04 0.  0.
        2    1    3    3  502    0 -0.45537485670E+03  0.53761172642E+03 -0.16117320273E+02  0.70473569267E+03  0.25500000920E-02 0. -1.
       -2    1    3    3    0  502  0.45537485670E+03 -0.53761172642E+03 -0.11917780366E+04  0.13844592869E+04  0.25500000920E-02 0.  1.
</event>
<event>
 5   0  0.1126958E-04  0.1702673E+04  0.7818609E-02  0.8759841E-01
        1   -1    0    0  501    0  0.00000000000E+00  0.00000000000E+00  0.14260032173E+04  0.14260032173E+04  0.50400001928E-02 0.  1.
       -1   -1    0    0    0  501  0.00000000000E+00  0.00000000000E+00 -0.50825551982E+03  0.50825551985E+03  0.50400001928E-02 0. -1.
    10030    2    1    2    0    0  0.00000000000E+00  0.00000000000E+00  0.91774769749E+03  0.19342587372E+04  0.17026732000E+04 0.  0.
        4    1    3    3  502    0 -0.51969847765E+03  0.22682369596E+03 -0.26250499094E+03  0.62485676750E+03  0.12699999809E+01 0. -1.
       -4    1    3    3    0  502  0.51969847765E+03 -0.22682369596E+03  0.11802526884E+04  0.13094019697E+04  0.12699999809E+01 0.  1.
</event>
<event>
 5   0  0.1234158E-04  0.1693298E+04  0.7818609E-02  0.8765196E-01
       -1   -1    0    0    0  501  0.00000000000E+00  0.00000000000E+00  0.28733327939E+03  0.28733327944E+03  0.50400001928E-02 0.  1.
        1   -1    0    0  501    0  0.00000000000E+00  0.00000000000E+00 -0.24947133053E+04  0.24947133053E+04  0.50400001928E-02 0. -1.
    10030    2    1    2    0    0  0.00000000000E+00  0.00000000000E+00 -0.22073800259E+04  0.27820465847E+04  0.16932975583E+04 0.  0.
        5    1    3    3  502    0  0.84385716515E+03  0.65894433861E+02 -0.11346492555E+04  0.14155875157E+04  0.46999998093E+01 0. -1.
       -5    1    3    3    0  502 -0.84385716515E+03 -0.65894433861E+02 -0.10727307704E+04  0.13664590690E+04  0.46999998093E+01 0.  1.
</event>
<event>
 5   0  0.1234158E-04  0.1738848E+04  0.7818609E-02  0.8739513E-01
        1   -1    0    0  501    0  0.00000000000E+00  0.00000000000E+00  0.87699162022E+03  0.87699162023E+03  0.50400001928E-02 0. -1.
       -1   -1    0    0    0  501  0.00000000000E+00  0.00000000000E+00 -0.86192161304E+03  0.86192161306E+03  0.50400001928E-02 0.  1.
    10030    2    1    2    0    0  0.00000000000E+00  0.00000000000E+00  0.15070007174E+02  0.17389132333E+04  0.17388479312E+04 0.  0.
        5    1    3    3  502    0  0.49876421423E+03 -0.47856520708E+03  0.53489297539E+03  0.87402687827E+03  0.46999998093E+01 0.  1.
       -5    1    3    3    0  502 -0.49876421423E+03  0.47856520708E+03 -0.51982296822E+03  0.86488635502E+03  0.46999998093E+01 0. -1.
</event>
<event>
 5   0  0.2288806E-04  0.1667822E+04  0.7818609E-02  0.8779932E-01
        2   -1    0    0  501    0  0.00000000000E+00  0.00000000000E+00  0.17399262088E+04  0.17399262089E+04  0.25500000920E-02 0.  1.
       -2   -1    0    0    0  501  0.00000000000E+00  0.00000000000E+00 -0.39967661948E+03  0.39967661949E+03  0.25500000920E-02 0. -1.
    10030    2    1    2    0    0  0.00000000000E+00  0.00000000000E+00  0.13402495894E+04  0.21396028283E+04  0.16678223230E+04 0.  0.
        3    1    3    3  502    0  0.81375008195E+02 -0.82781658665E+03  0.59416812330E+03  0.10222220708E+04  0.10100000352E+00 0. -1.
       -3    1    3    3    0  502 -0.81375008195E+02  0.82781658665E+03  0.74608146607E+03  0.11173807575E+04  0.10100000352E+00 0.  1.
</event>
<event>
 5   0  0.2288806E-04  0.1710935E+04  0.7818609E-02  0.8755152E-01
       -2   -1    0    0    0  501  0.00000000000E+00  0.00000000000E+00  0.16566201066E+04  0.16566201066E+04  0.25500000920E-02 0. -1.
        2   -1    0    0  501    0  0.00000000000E+00  0.00000000000E+00 -0.44175748690E+03  0.44175748691E+03  0.25500000920E-02 0.  1.
    10030    2    1    2    0    0  0.00000000000E+00  0.00000000000E+00  0.12148626197E+04  0.20983775935E+04  0.17109346394E+04 0.  0.
        3    1    3    3  502    0 -0.47393576484E+03 -0.64163799418E+03  0.98646203511E+03  0.12686298836E+04  0.10100000352E+00 0. -1.
       -3    1    3    3    0  502  0.47393576484E+03  0.64163799418E+03  0.22840058458E+03  0.82974770985E+03  0.10100000352E+00 0.  1.
</event>
<event>
 5   0  0.1234158E-04  0.1699407E+04  0.7818609E-02  0.8761703E-01
       -1   -1    0    0    0  501  0.00000000000E+00  0.00000000000E+00  0.80587866548E+03  0.80587866549E+03  0.50400001928E-02 0.  1.
        1   -1    0    0  501    0  0.00000000000E+00  0.00000000000E+00 -0.89591138065E+03  0.89591138066E+03  0.50400001928E-02 0. -1.
    10030    2    1    2    0    0  0.00000000000E+00  0.00000000000E+00 -0.90032715168E+02  0.17017900462E+04  0.16994067999E+04 0.  0.
        5    1    3    3  502    0 -0.40639668846E+03 -0.66430808987E+03 -0.38536100838E+03  0.86890085939E+03  0.46999998093E+01 0. -1.
       -5    1    3    3    0  502  0.40639668846E+03  0.66430808987E+03  0.29532829321E+03  0.83288918677E+03  0.46999998093E+01 0.  1.
</event>
<event>
 5   0  0.2234723E-04  0.1721096E+04  0.7818609E-02  0.8749423E-01
       -2   -1    0    0    0  501  0.00000000000E+00  0.00000000000E+00  0.67678076148E+03  0.67678076148E+03  0.25500000920E-02 0.  1.
        2   -1    0    0  501    0  0.00000000000E+00  0.00000000000E+00 -0.10942135844E+04  0.10942135844E+04  0.25500000920E-02 0. -1.
    10030    2    1    2    0    0  0.00000000000E+00  0.00000000000E+00 -0.41743282292E+03  0.17709943459E+04  0.17210958171E+04 0.  0.
        1    1    3    3  502    0 -0.77403703037E+03  0.16908880137E+02  0.17783898994E+03  0.79438400096E+03  0.50400001928E-02 0. -1.
       -1    1    3    3    0  502  0.77403703037E+03 -0.16908880137E+02 -0.59527181286E+03  0.97661034493E+03  0.50400001928E-02 0.  1.
</event>
<event>
 5   0  0.1215233E-04  0.1702795E+04  0.7818609E-02  0.8759772E-01
        1   -1    0    0  501    0  0.00000000000E+00  0.00000000000E+00  0.70962748151E+03  0.70962748152E+03  0.50400001928E-02 0.  1.
       -1   -1    0    0    0  501  0.00000000000E+00  0.00000000000E+00 -0.10214903633E+04  0.10214903633E+04  0.50400001928E-02 0. -1.
    10030    2    1    2    0    0  0.00000000000E+00  0.00000000000E+00 -0.31186288178E+03  0.17311178448E+04  0.17027949188E+04 0.  0.
        2    1    3    3  502    0  0.69572987714E+03  0.23938301814E+03  0.27960226915E+03  0.78709702085E+03  0.25500000920E-02 0.  1.
       -2    1    3    3    0  502 -0.69572987714E+03 -0.23938301814E+03 -0.59146515092E+03  0.94402082397E+03  0.25500000920E-02 0. -1.
</event>
<event>
 5   0  0.2288806E-04  0.1689036E+04  0.7818609E-02  0.8767643E-01
        2   -1    0    0  501    0  0.00000000000E+00  0.00000000000E+00  0.18980110195E+04  0.18980110195E+04  0.25500000920E-02 0. -1.
       -2   -1    0    0    0  501  0.00000000000E+00  0.00000000000E+00 -0.37576717490E+03  0.37576717491E+03  0.25500000920E-02 0.  1.
    10030    2    1    2    0    0  0.00000000000E+00  0.00000000000E+00  0.15222438446E+04  0.22737781944E+04  0.16890355103E+04 0.  0.
        3    1    3    3  502    0 -0.77467301617E+03 -0.16458774961E+03  0.11559114837E+04  0.14011919132E+04  0.10100000352E+00 0. -1.
       -3    1    3    3    0  502  0.77467301617E+03  0.16458774961E+03  0.36633236091E+03  0.87258628121E+03  0.10100000352E+00 0.  1.
</event>
<event>
 5   0  0.2242967E-04  0.1699435E+04  0.7818609E-02  0.8761687E-01
        2   -1    0    0  501    0  0.00000000000E+00  0.00000000000E+00  0.15642011788E+04  0.15642011788E+04  0.25500000920E-02 0.  1.
       -2   -1    0    0    0  501  0.00000000000E+00  0.00000000000E+00 -0.46158988684E+03  0.46158988685E+03  0.25500000920E-02 0. -1.
    10030    2    1    2    0    0  0.00000000000E+00  0.00000000000E+00  0.11026112920E+04  0.20257910657E+04  0.16994345473E+04 0.  0.
        4    1    3    3  502    0  0.86817036232E+01 -0.81668425283E+03  0.83078535238E+03  0.11650126417E+04  0.12699999809E+01 0.  1.
       -4    1    3    3    0  502 -0.86817036232E+01  0.81668425283E+03  0.27182593962E+03  0.86077842395E+03  0.12699999809E+01 0. -1.
</event>
<event>
 5   0  0.2356829E-04  0.1693906E+04  0.7818609E-02  0.8764848E-01
       -2   -1    0    0    0  501  0.00000000000E+00  0.00000000000E+00  0.30187603272E+03  0.30187603273E+03  0.25500000920E-02 0.  1.
        2   -1    0    0  501    0  0.00000000000E+00  0.00000000000E+00 -0.23762383109E+04  0.23762383109E+04  0.25500000920E-02 0. -1.
    10030    2    1    2    0    0  0.00000000000E+00  0.00000000000E+00 -0.20743622782E+04  0.26781143437E+04  0.16939060117E+04 0.  0.
        5    1    3    3  502    0  0.50746448591E+02  0.53274334761E+03  0.67326454563E+00  0.53517587740E+03  0.46999998093E+01 0.  1.
       -5    1    3    3    0  502 -0.50746448591E+02 -0.53274334761E+03 -0.20750355427E+04  0.21429384662E+04  0.46999998093E+01 0. -1.
</event>
<event>
 5   0  0.1204741E-04  0.1748673E+04  0.7818609E-02  0.8734081E-01
       -1   -1    0    0    0  501  0.00000000000E+00  0.00000000000E+00  0.46045956242E+03  0.46045956245E+03  0.50400001928E-02 0.  1.
        1   -1    0    0  501    0  0.00000000000E+00  0.00000000000E+00 -0.16602201678E+04  0.16602201678E+04  0.50400001928E-02 0. -1.
    10030    2    1    2    0    0  0.00000000000E+00  0.00000000000E+00 -0.11997606054E+04  0.21206797303E+04  0.17486729277E+04 0.  0.
        1    1    3    3  502    0 -0.15609934244E+03  0.45047957779E+03 -0.14887140044E+04  0.15631916842E+04  0.50400001928E-02 0. -1.
       -1    1    3    3    0  502  0.15609934244E+03 -0.45047957779E+03  0.28895339898E+03  0.55748804608E+03  0.50400001928E-02 0.  1.
</event>
<event>
 5   0  0.1186302E-04  0.1701580E+04  0.7818609E-02  0.8760464E-01
       -1   -1    0    0    0  501  0.00000000000E+00  0.00000000000E+00  0.52444074346E+03  0.52444074348E+03  0.50400001928E-02 0. -1.
        1   -1    0    0  501    0  0.00000000000E+00  0.00000000000E+00 -0.13802195815E+04  0.13802195816E+04  0.50400001928E-02 0.  1.
    10030    2    1    2    0    0  0.00000000000E+00  0.00000000000E+00 -0.85577883809E+03  0.19046603250E+04  0.17015797172E+04 0.  0.
        3    1    3    3  502    0  0.14435593219E+03  0.82569451325E+03 -0.26478186525E+03  0.87904465799E+03  0.10100000352E+00 0. -1.
       -3    1    3    3    0  502 -0.14435593219E+03 -0.82569451325E+03 -0.59099697284E+03  0.10256156670E+04  0.10100000352E+00 0.  1.
</event>
<event>
 5   0  0.1126958E-04  0.1685235E+04  0.7818609E-02  0.8769830E-01
        1   -1    0    0  501    0  0.00000000000E+00  0.00000000000E+00  0.93160075292E+03  0.93160075294E+03  0.50400001928E-02 0.  1.
       -1   -1    0    0    0  501  0.00000000000E+00  0.00000000000E+00 -0.76213354572E+03  0.76213354573E+03  0.50400001928E-02 0. -1.
    10030    2    1    2    0    0  0.00000000000E+00  0.00000000000E+00  0.16946720720E+03  0.16937342987E+04  0.16852349214E+04 0.  0.
        4    1    3    3  502    0 -0.70026472127E+03  0.45654124603E+03  0.19110681877E+03  0.85751036044E+03  0.12699999809E+01 0. -1.
       -4    1    3    3    0  502  0.70026472127E+03 -0.45654124603E+03 -0.21639611566E+02  0.83622393823E+03  0.12699999809E+01 0.  1.
</event>
<event>
 5   0  0.1234158E-04  0.1694456E+04  0.7818609E-02  0.8764532E-01
       -1   -1    0    0    0  501  0.00000000000E+00  0.00000000000E+00  0.37059206898E+03  0.37059206901E+03  0.50400001928E-02 0.  1.
        1   -1    0    0  501    0  0.00000000000E+00  0.00000000000E+00 -0.19368890125E+04  0.19368890125E+04  0.50400001928E-02 0. -1.
    10030    2    1    2    0    0  0.00000000000E+00  0.00000000000E+00 -0.15662969435E+04  0.23074810815E+04  0.16944564988E+04 0.  0.
        5    1    3    3  502    0 -0.21490354318E+03 -0.78311395897E+03 -0.45427699819E+03  0.93050560809E+03  0.46999998093E+01 0. -1.
       -5    1    3    3    0  502  0.21490354318E+03  0.78311395897E+03 -0.11120199453E+04  0.13769754734E+04  0.46999998093E+01 0.  1.
</event>
<event>
 5   0  0.2288806E-04  0.1627207E+04  0.7818609E-02  0.8804006E-01
        2   -1    0    0  501    0  0.00000000000E+00  0.00000000000E+00  0.10215207926E+04  0.10215207926E+04  0.25500000920E-02 0. -1.
       -2   -1    0    0    0  501  0.00000000000E+00  0.00000000000E+00 -0.64800527325E+03  0.64800527326E+03  0.25500000920E-02 0.  1.
    10030    2    1    2    0    0  0.00000000000E+00  0.00000000000E+00  0.37351551935E+03  0.16695260659E+04  0.16272072521E+04 0.  0.
        3    1    3    3  502    0 -0.40003080471E+03 -0.50844544108E+03  0.69295414596E+03  0.94801206209E+03  0.10100000352E+00 0. -1.
       -3    1    3    3    0  502  0.40003080471E+03  0.50844544108E+03 -0.31943862661E+03  0.72151400377E+03  0.10100000352E+00 0.  1.
</event>
<event>
 5   0  0.1215233E-04  0.1696969E+04  0.7818609E-02  0.8763095E-01
       -1   -1    0    0    0  501  0.00000000000E+00  0.00000000000E+00  0.65645755047E+03  0.65645755049E+03  0.50400001928E-02 0.  1.
        1   -1    0    0  501    0  0.00000000000E+00  0.00000000000E+00 -0.10966832337E+04  0.10966832337E+04  0.50400001928E-02 0. -1.
    10030    2    1    2    0    0  0.00000000000E+00  0.00000000000E+00 -0.44022568321E+03  0.17531407842E+04  0.16969690501E+04 0.  0.
        2    1    3    3  502    0  0.69043715501E+03  0.48590055168E+03 -0.30730547073E+03  0.89846505969E+03  0.25500000920E-02 0.  1.
       -2    1    3    3    0  502 -0.69043715501E+03 -0.48590055168E+03 -0.13292021248E+03  0.85467572449E+03  0.25500000920E-02 0. -1.
</event>
<event>
 5   0  0.1126958E-04  0.1702550E+04  0.7818609E-02  0.8759911E-01
        1   -1    0    0  501    0  0.00000000000E+00  0.00000000000E+00  0.13417309070E+04  0.13417309070E+04  0.50400001928E-02 0.  1.
       -1   -1    0    0    0  501  0.00000000000E+00  0.00000000000E+00 -0.54010014202E+03  0.54010014205E+03  0.50400001928E-02 0. -1.
    10030    2    1    2    0    0  0.00000000000E+00  0.00000000000E+00  0.80163076501E+03  0.18818310491E+04  0.17025499153E+04 0.  0.
        4    1    3    3  502    0 -0.39540322952E+03  0.73605481206E+03  0.22072570053E+03  0.86420012037E+03  0.12699999809E+01 0. -1.
       -4    1    3    3    0  502  0.39540322952E+03 -0.73605481206E+03  0.58090506448E+03  0.10176309287E+04  0.12699999809E+01 0.  1.
</event>
<event>
 5   0  0.1186302E-04  0.1697919E+04  0.7818609E-02  0.8762552E-01
       -1   -1    0    0    0  501  0.00000000000E+00  0.00000000000E+00  0.42249942606E+03  0.42249942609E+03  0.50400001928E-02 0.  1.
        1   -1    0    0  501    0  0.00000000000E+00  0.00000000000E+00 -0.17058764815E+04  0.17058764815E+04  0.50400001928E-02 0. -1.
    10030    2    1    2    0    0  0.00000000000E+00  0.00000000000E+00 -0.12833770554E+04  0.21283759076E+04  0.16979185309E+04 0.  0.
        3    1    3    3  502    0  0.83943632553E+03 -0.67157141374E+02 -0.50686425206E+03  0.98289104507E+03  0.10100000352E+00 0.  1.
       -3    1    3    3    0  502 -0.83943632553E+03  0.67157141374E+02 -0.77651280333E+03  0.11454848625E+04  0.10100000352E+00 0. -1.
</event>
<event>
 5   0  0.1126958E-04  0.1716042E+04  0.7818609E-02  0.8752267E-01
        1   -1    0    0  501    0  0.00000000000E+00  0.00000000000E+00  0.56402822963E+03  0.56402822965E+03  0.50400001928E-02 0. -1.
       -1   -1    0    0    0  501  0.00000000000E+00  0.00000000000E+00 -0.13052545503E+04  0.13052545503E+04  0.50400001928E-02 0.  1.
    10030    2    1    2    0    0  0.00000000000E+00  0.00000000000E+00 -0.74122632064E+03  0.18692827799E+04  0.17160424391E+04 0.  0.
        4    1    3    3  502    0 -0.80328816786E+03  0.29182120707E+03 -0.28788881121E+03  0.90183872063E+03  0.12699999809E+01 0. -1.
       -4    1    3    3    0  502  0.80328816786E+03 -0.29182120707E+03 -0.45333750944E+03  0.96744405930E+03  0.12699999809E+01 0.  1.
</event>
<event>
 5   0  0.2224454E-04  0.1670118E+04  0.7818609E-02  0.8778593E-01
       -2   -1    0    0    0  501  0.00000000000E+00  0.00000000000E+00  0.55990959103E+03  0.55990959103E+03  0.25500000920E-02 0. -1.
        2   -1    0    0  501    0  0.00000000000E+00  0.00000000000E+00 -0.12454223716E+04  0.12454223716E+04  0.25500000920E-02 0.  1.
    10030    2    1    2    0    0  0.00000000000E+00  0.00000000000E+00 -0.68551278052E+03  0.18053319626E+04  0.16701184757E+04 0.  0.
        2    1    3    3  502    0  0.10608584816E+03 -0.54813649918E+02  0.55063315668E+03  0.56343199824E+03  0.25500000920E-02 0. -1.
       -2    1    3    3    0  502 -0.10608584816E+03  0.54813649918E+02 -0.12361459372E+04  0.12418999644E+04  0.25500000920E-02 0.  1.
</event>
<event>
 5   0  0.2356829E-04  0.1702831E+04  0.7818609E-02  0.8759751E-01
       -2   -1    0    0    0  501  0.00000000000E+00  0.00000000000E+00  0.44405931216E+03  0.44405931216E+03  0.25500000920E-02 0.  1.
        2   -1    0    0  501    0  0.00000000000E+00  0.00000000000E+00 -0.16324580247E+04  0.16324580247E+04  0.25500000920E-02 0. -1.
    10030    2    1    2    0    0  0.00000000000E+00  0.00000000000E+00 -0.11883987126E+04  0.20765173369E+04  0.17028308050E+04 0.  0.
        5    1    3    3  502    0 -0.18173995414E+03 -0.71479760311E+02 -0.16047604015E+04  0.16166065704E+04  0.46999998093E+01 0. -1.
       -5    1    3    3    0  502  0.18173995414E+03  0.71479760311E+02  0.41636168899E+03  0.45991076648E+03  0.46999998093E+01 0.  1.
</event>
<event>
 5   0  0.2288806E-04  0.1696430E+04  0.7818609E-02  0.8763403E-01
        2   -1    0    0  501    0  0.00000000000E+00  0.00000000000E+00  0.26786434708E+04  0.26786434708E+04  0.25500000920E-02 0. -1.
       -2   -1    0    0    0  501  0.00000000000E+00  0.00000000000E+00 -0.26859436023E+03  0.26859436024E+03  0.25500000920E-02 0.  1.
    10030    2    1    2    0    0  0.00000000000E+00  0.00000000000E+00  0.24100491106E+04  0.29472378311E+04  0.16964298151E+04 0.  0.
        3    1    3    3  502    0  0.51604360917E+01  0.20724135132E+03 -0.22390530460E+03  0.30513800718E+03  0.10100000352E+00 0.  1.
       -3    1    3    3    0  502 -0.51604360917E+01 -0.20724135132E+03  0.26339544152E+04  0.26420998239E+04  0.10100000352E+00 0. -1.
</event>
<event>
 5   0  0.2356829E-04  0.1696338E+04  0.7818609E-02  0.8763456E-01
       -2   -1    0    0    0  501  0.00000000000E+00  0.00000000000E+00  0.76343142728E+03  0.76343142729E+03  0.25500000920E-02 0.  1.
        2   -1    0    0  501    0  0.00000000000E+00  0.00000000000E+00 -0.94231242976E+03  0.94231242977E+03  0.25500000920E-02 0. -1.
    10030    2    1    2    0    0  0.00000000000E+00  0.00000000000E+00 -0.17888100248E+03  0.17057438571E+04  0.16963383191E+04 0.  0.
        5    1    3    3  502    0  0.15112902409E+03 -0.22461377271E+03  0.71880566477E+03  0.76811132169E+03  0.46999998093E+01 0.  1.
       -5    1    3    3    0  502 -0.15112902409E+03  0.22461377271E+03 -0.89768666725E+03  0.93763253536E+03  0.46999998093E+01 0. -1.
</event>
<event>
 5   0  0.1126958E-04  0.1696795E+04  0.7818609E-02  0.8763194E-01
       -1   -1    0    0    0  501  0.00000000000E+00  0.00000000000E+00  0.86206645821E+03  0.86206645822E+03  0.50400001928E-02 0. -1.
        1   -1    0    0  501    0  0.00000000000E+00  0.00000000000E+00 -0.83494542903E+03  0.83494542904E+03  0.50400001928E-02 0.  1.
    10030    2    1    2    0    0  0.00000000000E+00  0.00000000000E+00  0.27121029181E+02  0.16970118873E+04  0.16967951542E+04 0.  0.
        4    1    3    3  502    0 -0.29076407137E+03  0.49040071890E+03  0.64192432089E+03  0.85854822634E+03  0.12699999809E+01 0. -1.
       -4    1    3    3    0  502  0.29076407137E+03 -0.49040071890E+03 -0.61480329171E+03  0.83846366093E+03  0.12699999809E+01 0.  1.
</event>
<event>
 5   0  0.1186302E-04  0.1703503E+04  0.7818609E-02  0.8759369E-01
       -1   -1    0    0    0  501  0.00000000000E+00  0.00000000000E+00  0.91238460839E+03  0.91238460841E+03  0.50400001928E-02 0.  1.
        1   -1    0    0  501    0  0.00000000000E+00  0.00000000000E+00 -0.79514761614E+03  0.79514761616E+03  0.50400001928E-02 0. -1.
    10030    2    1    2    0    0  0.00000000000E+00  0.00000000000E+00  0.11723699225E+03  0.17075322246E+04  0.17035027988E+04 0.  0.
        3    1    3    3  502    0  0.40009004634E+03  0.64136499950E+03  0.45205083728E+03  0.88077867677E+03  0.10100000352E+00 0.  1.
       -3    1    3    3    0  502 -0.40009004634E+03 -0.64136499950E+03 -0.33481384503E+03  0.82675354780E+03  0.10100000352E+00 0. -1.
</event>
<event>
 5   0  0.1186302E-04  0.1694419E+04  0.7818609E-02  0.8764554E-01
       -1   -1    0    0    0  501  0.00000000000E+00  0.00000000000E+00  0.90053220863E+03  0.90053220864E+03  0.50400001928E-02 0. -1.
        1   -1    0    0  501    0  0.00000000000E+00  0.00000000000E+00 -0.79704400279E+03  0.79704400280E+03  0.50400001928E-02 0.  1.
    10030    2    1    2    0    0  0.00000000000E+00  0.00000000000E+00  0.10348820584E+03  0.16975762114E+04  0.16944188340E+04 0.  0.
        3    1    3    3  502    0 -0.70574935345E+03 -0.44690670607E+03 -0.89784952681E+02  0.84016016434E+03  0.10100000352E+00 0. -1.
       -3    1    3    3    0  502  0.70574935345E+03  0.44690670607E+03  0.19327315852E+03  0.85741604710E+03  0.10100000352E+00 0.  1.
</event>
<event>
 5   0  0.1234158E-04  0.1628039E+04  0.7818609E-02  0.8803506E-01
       -1   -1    0    0    0  501  0.00000000000E+00  0.00000000000E+00  0.84172072884E+03  0.84172072886E+03  0.50400001928E-02 0.  1.
        1   -1    0    0  501    0  0.00000000000E+00  0.00000000000E+00 -0.78722953344E+03  0.78722953346E+03  0.50400001928E-02 0. -1.
    10030    2    1    2    0    0  0.00000000000E+00  0.00000000000E+00  0.54491195401E+02  0.16289502623E+04  0.16280385950E+04 0.  0.
        5    1    3    3  502    0  0.78532931900E+03  0.11436440060E+03  0.20841043489E+03  0.82053540738E+03  0.46999998093E+01 0. -1.
       -5    1    3    3    0  502 -0.78532931900E+03 -0.11436440060E+03 -0.15391923948E+03  0.80841485494E+03  0.46999998093E+01 0.  1.
</event>
<event>
 5   0  0.2224454E-04  0.1695238E+04  0.7818609E-02  0.8764085E-01
       -2   -1    0    0    0  501  0.00000000000E+00  0.00000000000E+00  0.73783624351E+03  0.73783624351E+03  0.25500000920E-02 0.  1.
        2   -1    0    0  501    0  0.00000000000E+00  0.00000000000E+00 -0.97373627935E+03  0.97373627935E+03  0.25500000920E-02 0. -1.
    10030    2    1    2    0    0  0.00000000000E+00  0.00000000000E+00 -0.23590003584E+03  0.17115725229E+04  0.16952379403E+04 0.  0.
        2    1    3    3  502    0  0.38433998947E+03 -0.34721515584E+03 -0.79537134130E+03  0.94915286573E+03  0.25500000920E-02 0.  1.
       -2    1    3    3    0  502 -0.38433998947E+03  0.34721515584E+03  0.55947130546E+03  0.76241965714E+03  0.25500000920E-02 0. -1.
</event>
<event>
 5   0  0.2288806E-04  0.1697679E+04  0.7818609E-02  0.8762689E-01
       -2   -1    0    0    0  501  0.00000000000E+00  0.00000000000E+00  0.91228872888E+03  0.91228872888E+03  0.25500000920E-02 0.  1.
        2   -1    0    0  501    0  0.00000000000E+00  0.00000000000E+00 -0.78980352962E+03  0.78980352962E+03  0.25500000920E-02 0. -1.
    10030    2    1    2    0    0  0.00000000000E+00  0.00000000000E+00  0.12248519926E+03  0.17020922585E+04  0.16976794257E+04 0.  0.
        3    1    3    3  502    0  0.69506141807E+03  0.29936150517E+03  0.44669107803E+03  0.87878359968E+03  0.10100000352E+00 0.  1.
       -3    1    3    3    0  502 -0.69506141807E+03 -0.29936150517E+03 -0.32420587877E+03  0.82330865883E+03  0.10100000352E+00 0. -1.
</event>
<event>
 5   0  0.2288806E-04  0.1705299E+04  0.7818609E-02  0.8758348E-01
        2   -1    0    0  501    0  0.00000000000E+00  0.00000000000E+00  0.11985427766E+04  0.11985427766E+04  0.25500000920E-02 0. -1.
       -2   -1    0    0    0  501  0.00000000000E+00  0.00000000000E+00 -0.60657935050E+03  0.60657935050E+03  0.25500000920E-02 0.  1.
    10030    2    1    2    0    0  0.00000000000E+00  0.00000000000E+00  0.59196342610E+03  0.18051221271E+04  0.17052991514E+04 0.  0.
        3    1    3    3  502    0  0.13050225916E+03  0.34012337394E+03 -0.52005108560E+03  0.63495503067E+03  0.10100000352E+00 0.  1.
       -3    1    3    3    0  502 -0.13050225916E+03 -0.34012337394E+03  0.11120145117E+04  0.11701670964E+04  0.10100000352E+00 0. -1.
</event>
<event>
 5   0  0.1215233E-04  0.1637775E+04  0.7818609E-02  0.8797672E-01
        1   -1    0    0  501    0  0.00000000000E+00  0.00000000000E+00  0.63361077157E+03  0.63361077159E+03  0.50400001928E-02 0. -1.
       -1   -1    0    0    0  501  0.00000000000E+00  0.00000000000E+00 -0.10583418696E+04  0.10583418696E+04  0.50400001928E-02 0.  1.
    10030    2    1    2    0    0  0.00000000000E+00  0.00000000000E+00 -0.42473109800E+03  0.16919526412E+04  0.16377750866E+04 0.  0.
        2    1    3    3  502    0 -0.69756597041E+01  0.74414386068E+03 -0.56539795830E+03  0.93459809355E+03  0.25500000920E-02 0. -1.
       -2    1    3    3    0  502  0.69756597041E+01 -0.74414386068E+03  0.14066686030E+03  0.75735454763E+03  0.25500000920E-02 0.  1.
</event>
<event>
 5   0  0.2242967E-04  0.1707418E+04  0.7818609E-02  0.8757145E-01
        2   -1    0    0  501    0  0.00000000000E+00  0.00000000000E+00  0.21131581985E+04  0.21131581985E+04  0.25500000920E-02 0. -1.
       -2   -1    0    0    0  501  0.00000000000E+00  0.00000000000E+00 -0.34489549456E+03  0.34489549457E+03  0.25500000920E-02 0.  1.
    10030    2    1    2    0    0  0.00000000000E+00  0.00000000000E+00  0.17682627040E+04  0.24580536931E+04  0.17074176314E+04 0.  0.
        4    1    3    3  502    0 -0.99165292554E+02 -0.45177625047E+03  0.19171431620E+04  0.19721498554E+04  0.12699999809E+01 0. -1.
       -4    1    3    3    0  502  0.99165292554E+02  0.45177625047E+03 -0.14888045807E+03  0.48590383763E+03  0.12699999809E+01 0.  1.
</event>
<event>
 5   0  0.2288806E-04  0.1722245E+04  0.7818609E-02  0.8748778E-01
       -2   -1    0    0    0  501  0.00000000000E+00  0.00000000000E+00  0.10689264792E+04  0.10689264792E+04  0.25500000920E-02 0.  1.
        2   -1    0    0  501    0  0.00000000000E+00  0.00000000000E+00 -0.69371647013E+03  0.69371647014E+03  0.25500000920E-02 0. -1.
    10030    2    1    2    0    0  0.00000000000E+00  0.00000000000E+00  0.37521000908E+03  0.17626429493E+04  0.17222449350E+04 0.  0.
        3    1    3    3  502    0  0.52472022167E+02 -0.73998082964E+03 -0.25992408691E+03  0.78605692065E+03  0.10100000352E+00 0. -1.
       -3    1    3    3    0  502 -0.52472022167E+02  0.73998082964E+03  0.63513409599E+03  0.97658602869E+03  0.10100000352E+00 0.  1.
</event>
<event>
 5   0  0.2288806E-04  0.1691908E+04  0.7818609E-02  0.8765993E-01
       -2   -1    0    0    0  501  0.00000000000E+00  0.00000000000E+00  0.51250899729E+03  0.51250899730E+03  0.25500000920E-02 0.  1.
        2   -1    0    0  501    0  0.00000000000E+00  0.00000000000E+00 -0.13963431687E+04  0.13963431687E+04  0.25500000920E-02 0. -1.
    10030    2    1    2    0    0  0.00000000000E+00  0.00000000000E+00 -0.88383417136E+03  0.19088521660E+04  0.16919083158E+04 0.  0.
        3    1    3    3  502    0  0.22130862901E+03 -0.78168197944E+03 -0.17580389824E+03  0.83121071161E+03  0.10100000352E+00 0.  1.
       -3    1    3    3    0  502 -0.22130862901E+03  0.78168197944E+03 -0.70803027312E+03  0.10776414543E+04  0.10100000352E+00 0. -1.
</event>
<event>
 5   0  0.2288806E-04  0.1698586E+04  0.7818609E-02  0.8762171E-01
       -2   -1    0    0    0  501  0.00000000000E+00  0.00000000000E+00  0.67631164650E+03  0.67631164651E+03  0.25500000920E-02 0. -1.
        2   -1    0    0  501    0  0.00000000000E+00  0.00000000000E+00 -0.10665184790E+04  0.10665184790E+04  0.25500000920E-02 0.  1.
    10030    2    1    2    0    0  0.00000000000E+00  0.00000000000E+00 -0.39020683245E+03  0.17428301255E+04  0.16985863164E+04 0.  0.
        3    1    3    3  502    0 -0.82676477881E+03 -0.13128755266E+03 -0.48115407489E+02  0.83850552986E+03  0.10100000352E+00 0. -1.
       -3    1    3    3    0  502  0.82676477881E+03  0.13128755266E+03 -0.34209142496E+03  0.90432459560E+03  0.10100000352E+00 0.  1.
</event>
<event>
 5   0  0.2356829E-04  0.1660192E+04  0.7818609E-02  0.8784400E-01
        2   -1    0    0  501    0  0.00000000000E+00  0.00000000000E+00  0.10781299429E+04  0.10781299429E+04  0.25500000920E-02 0.  1.
       -2   -1    0    0    0  501  0.00000000000E+00  0.00000000000E+00 -0.63912427473E+03  0.63912427474E+03  0.25500000920E-02 0. -1.
    10030    2    1    2    0    0  0.00000000000E+00  0.00000000000E+00  0.43900566821E+03  0.17172542177E+04  0.16601915767E+04 0.  0.
        5    1    3    3  502    0  0.19850962766E+03 -0.38758832761E+03  0.95047918422E+03  0.10454967975E+04  0.46999998093E+01 0.  1.
       -5    1    3    3    0  502 -0.19850962766E+03  0.38758832761E+03 -0.51147351601E+03  0.67175742017E+03  0.46999998093E+01 0. -1.
</event>
<event>
 5   0  0.1186302E-04  0.1702579E+04  0.7818609E-02  0.8759895E-01
       -1   -1    0    0    0  501  0.00000000000E+00  0.00000000000E+00  0.12310079795E+04  0.12310079795E+04  0.50400001928E-02 0. -1.
        1   -1    0    0  501    0  0.00000000000E+00  0.00000000000E+00 -0.58869960809E+03  0.58869960811E+03  0.50400001928E-02 0.  1.
    10030    2    1    2    0    0  0.00000000000E+00  0.00000000000E+00  0.64230837137E+03  0.18197075876E+04  0.17025791201E+04 0.  0.
        3    1    3    3  502    0  0.84965321428E+03  0.57213148141E+01  0.37720823458E+03  0.92963938192E+03  0.10100000352E+00 0. -1.
       -3    1    3    3    0  502 -0.84965321428E+03 -0.57213148141E+01  0.26510013679E+03  0.89006820565E+03  0.10100000352E+00 0.  1.
</event>
<event>
 5   0  0.1215233E-04  0.1703623E+04  0.7818609E-02  0.8759301E-01
        1   -1    0    0  501    0  0.00000000000E+00  0.00000000000E+00  0.96837285216E+03  0.96837285217E+03  0.50400001928E-02 0.  1.
       -1   -1    0    0    0  501  0.00000000000E+00  0.00000000000E+00 -0.74928035839E+03  0.74928035841E+03  0.50400001928E-02 0. -1.
    10030    2    1    2    0    0  0.00000000000E+00  0.00000000000E+00  0.21909249376E+03  0.17176532106E+04  0.17036229134E+04 0.  0.
        2    1    3    3  502    0 -0.22326468885E+02  0.40578382214E+03  0.86432608203E+03  0.95510133369E+03  0.25500000920E-02 0.  1.
       -2    1    3    3    0  502  0.22326468885E+02 -0.40578382214E+03 -0.64523358827E+03  0.76255187690E+03  0.25500000920E-02 0. -1.
</event>
<event>
 5   0  0.1126958E-04  0.1691031E+04  0.7818609E-02  0.8766496E-01
       -1   -1    0    0    0  501  0.00000000000E+00  0.00000000000E+00  0.89840001950E+03  0.89840001951E+03  0.50400001928E-02 0.  1.
        1   -1    0    0  501    0  0.00000000000E+00  0.00000000000E+00 -0.79574387038E+03  0.79574387039E+03  0.50400001928E-02 0. -1.
    10030    2    1    2    0    0  0.00000000000E+00  0.00000000000E+00  0.10265614912E+03  0.16941438899E+04  0.16910308202E+04 0.  0.
        4    1    3    3  502    0  0.15032111805E+03 -0.68912564536E+02 -0.77938433443E+03  0.79673517165E+03  0.12699999809E+01 0. -1.
       -4    1    3    3    0  502 -0.15032111805E+03  0.68912564536E+02  0.88204048355E+03  0.89740871826E+03  0.12699999809E+01 0.  1.
</event>
<event>
 5   0  0.2288806E-04  0.1707330E+04  0.7818609E-02  0.8757195E-01
       -2   -1    0    0    0  501  0.00000000000E+00  0.00000000000E+00  0.48560764457E+03  0.48560764457E+03  0.25500000920E-02 0. -1.
        2   -1    0    0  501    0  0.00000000000E+00  0.00000000000E+00 -0.15006845230E+04  0.15006845230E+04  0.25500000920E-02 0.  1.
    10030    2    1    2    0    0  0.00000000000E+00  0.00000000000E+00 -0.10150768784E+04  0.19862921676E+04  0.17073299347E+04 0.  0.
        3    1    3    3  502    0 -0.13868111541E+03  0.32702603400E+03  0.39554476637E+03  0.53163347439E+03  0.10100000352E+00 0. -1.
       -3    1    3    3    0  502  0.13868111541E+03 -0.32702603400E+03 -0.14106216448E+04  0.14546586932E+04  0.10100000352E+00 0.  1.
</event>
<event>
 5   0  0.2288806E-04  0.1633882E+04  0.7818609E-02  0.8799999E-01
        2   -1    0    0  501    0  0.00000000000E+00  0.00000000000E+00  0.20738120826E+04  0.20738120826E+04  0.25500000920E-02 0. -1.
       -2   -1    0    0    0  501  0.00000000000E+00  0.00000000000E+00 -0.32181937741E+03  0.32181937742E+03  0.25500000920E-02 0.  1.
    10030    2    1    2    0    0  0.00000000000E+00  0.00000000000E+00  0.17519927052E+04  0.23956314601E+04  0.16338823866E+04 0.  0.
        3    1    3    3  502    0 -0.71056131367E+03  0.40282650321E+03  0.85393809563E+03  0.11816839059E+04  0.10100000352E+00 0.  1.
       -3    1    3    3    0  502  0.71056131367E+03 -0.40282650321E+03  0.89805460959E+03  0.12139475541E+04  0.10100000352E+00 0. -1.
</event>
<event>
 5   0  0.2234723E-04  0.1698485E+04  0.7818609E-02  0.8762229E-01
        2   -1    0    0  501    0  0.00000000000E+00  0.00000000000E+00  0.89031568040E+03  0.89031568041E+03  0.25500000920E-02 0.  1.
       -2   -1    0    0    0  501  0.00000000000E+00  0.00000000000E+00 -0.81006448383E+03  0.81006448384E+03  0.25500000920E-02 0. -1.
    10030    2    1    2    0    0  0.00000000000E+00  0.00000000000E+00  0.80251196570E+02  0.17003801642E+04  0.16984853395E+04 0.  0.
        1    1    3    3  502    0  0.14145431268E+03  0.75081250818E+03 -0.33107689685E+03  0.83267079730E+03  0.50400001928E-02 0. -1.
       -1    1    3    3    0  502 -0.14145431268E+03 -0.75081250818E+03  0.41132809342E+03  0.86770936695E+03  0.50400001928E-02 0.  1.
</event>
<event>
 5   0  0.1204741E-04  0.1688407E+04  0.7818609E-02  0.8768004E-01
        1   -1    0    0  501    0  0.00000000000E+00  0.00000000000E+00  0.11475682327E+04  0.11475682327E+04  0.50400001928E-02 0. -1.
       -1   -1    0    0    0  501  0.00000000000E+00  0.00000000000E+00 -0.62103428804E+03  0.62103428806E+03  0.50400001928E-02 0.  1.
    10030    2    1    2    0    0  0.00000000000E+00  0.00000000000E+00  0.52653394468E+03  0.17686025208E+04  0.16884066103E+04 0.  0.
        1    1    3    3  502    0  0.54358315238E+03 -0.30505678525E+03 -0.33310531785E+03  0.70675415710E+03  0.50400001928E-02 0.  1.
       -1    1    3    3    0  502 -0.54358315238E+03  0.30505678525E+03  0.85963926252E+03  0.10618483637E+04  0.50400001928E-02 0. -1.
</event>
<event>
 5   0  0.2224454E-04  0.1694084E+04  0.7818609E-02  0.8764746E-01
        2   -1    0    0  501    0  0.00000000000E+00  0.00000000000E+00  0.17907389478E+04  0.17907389478E+04  0.25500000920E-02 0.  1.
       -2   -1    0    0    0  501  0.00000000000E+00  0.00000000000E+00 -0.40066131255E+03  0.40066131255E+03  0.25500000920E-02 0. -1.
    10030    2    1    2    0    0  0.00000000000E+00  0.00000000000E+00  0.13900776352E+04  0.21914002603E+04  0.16940836074E+04 0.  0.
        2    1    3    3  502    0 -0.51054809531E+03  0.26907173976E+03 -0.10699067919E+03  0.58694630436E+03  0.25500000920E-02 0. -1.
       -2    1    3    3    0  502  0.51054809531E+03 -0.26907173976E+03  0.14970683144E+04  0.16044539560E+04  0.25500000920E-02 0.  1.
</event>
<event>
 5   0  0.2288806E-04  0.1715033E+04  0.7818609E-02  0.8752837E-01
        2   -1    0    0  501    0  0.00000000000E+00  0.00000000000E+00  0.10814060437E+04  0.10814060437E+04  0.25500000920E-02 0. -1.
       -2   -1    0    0    0  501  0.00000000000E+00  0.00000000000E+00 -0.67997996082E+03  0.67997996082E+03  0.25500000920E-02 0.  1.
    10030    2    1    2    0    0  0.00000000000E+00  0.00000000000E+00  0.40142608287E+03  0.17613860045E+04  0.17150328734E+04 0.  0.
        3    1    3    3  502    0  0.13840104107E+03 -0.75050204466E+03 -0.20091416883E+03  0.78916074449E+03  0.10100000352E+00 0.  1.
       -3    1    3    3    0  502 -0.13840104107E+03  0.75050204466E+03  0.60234025170E+03  0.97222526002E+03  0.10100000352E+00 0. -1.
</event>
<event>
 5   0  0.1204741E-04  0.1726815E+04  0.7818609E-02  0.8746217E-01
       -1   -1    0    0    0  501  0.00000000000E+00  0.00000000000E+00  0.46882830663E+03  0.46882830665E+03  0.50400001928E-02 0.  1.
        1   -1    0    0  501    0  0.00000000000E+00  0.00000000000E+00 -0.15900757866E+04  0.15900757866E+04  0.50400001928E-02 0. -1.
    10030    2    1    2    0    0  0.00000000000E+00  0.00000000000E+00 -0.11212474800E+04  0.20589040933E+04  0.17268150318E+04 0.  0.
        1    1    3    3  502    0 -0.14978018254E+03 -0.60060376500E+03  0.15705913990E+03  0.63861299632E+03  0.50400001928E-02 0. -1.
       -1    1    3    3    0  502  0.14978018254E+03  0.60060376500E+03 -0.12783066199E+04  0.14202910970E+04  0.50400001928E-02 0.  1.
</event>
<event>
 5   0  0.2242967E-04  0.1658398E+04  0.7818609E-02  0.8785454E-01
       -2   -1    0    0    0  501  0.00000000000E+00  0.00000000000E+00  0.89353839280E+03  0.89353839280E+03  0.25500000920E-02 0.  1.
        2   -1    0    0  501    0  0.00000000000E+00  0.00000000000E+00 -0.76949194949E+03  0.76949194949E+03  0.25500000920E-02 0. -1.
    10030    2    1    2    0    0  0.00000000000E+00  0.00000000000E+00  0.12404644331E+03  0.16630303423E+04  0.16583975396E+04 0.  0.
        4    1    3    3  502    0 -0.19487228727E+03  0.11336648635E+02  0.87016859466E+03  0.89179522536E+03  0.12699999809E+01 0.  1.
       -4    1    3    3    0  502  0.19487228727E+03 -0.11336648635E+02 -0.74612215135E+03  0.77123511693E+03  0.12699999809E+01 0. -1.
</event>
<event>
 5   0  0.8372750E-05  0.1696343E+04  0.7818609E-02  0.8763453E-01
       -3   -1    0    0    0  501  0.00000000000E+00  0.00000000000E+00  0.17586474316E+04  0.17586474345E+04  0.10100000352E+00 0. -1.
        3   -1    0    0  501    0  0.00000000000E+00  0.00000000000E+00 -0.40906161326E+03  0.40906162573E+03  0.10100000352E+00 0.  1.
    10030    2    1    2    0    0  0.00000000000E+00  0.00000000000E+00  0.13495858184E+04  0.21677090603E+04  0.16963433287E+04 0.  0.
        2    1    3    3  502    0  0.59782864002E+03  0.19756991494E+03  0.14010043678E+04  0.15359837866E+04  0.25500000920E-02 0. -1.
       -2    1    3    3    0  502 -0.59782864002E+03 -0.19756991494E+03 -0.51418549455E+02  0.63172527364E+03  0.25500000920E-02 0.  1.
</event>
<event>
 5   0  0.2356829E-04  0.1697579E+04  0.7818609E-02  0.8762746E-01
       -2   -1    0    0    0  501  0.00000000000E+00  0.00000000000E+00  0.62367133453E+03  0.62367133453E+03  0.25500000920E-02 0.  1.
        2   -1    0    0  501    0  0.00000000000E+00  0.00000000000E+00 -0.11551652935E+04  0.11551652935E+04  0.25500000920E-02 0. -1.
    10030    2    1    2    0    0  0.00000000000E+00  0.00000000000E+00 -0.53149395896E+03  0.17788366280E+04  0.16975788408E+04 0.  0.
        5    1    3    3  502    0  0.35731646229E+03 -0.49300317333E+03  0.35390854935E+03  0.70427305389E+03  0.46999998093E+01 0.  1.
       -5    1    3    3    0  502 -0.35731646229E+03  0.49300317333E+03 -0.88540250831E+03  0.10745635741E+04  0.46999998093E+01 0. -1.
</event>
<event>
 5   0  0.2242967E-04  0.1704439E+04  0.7818609E-02  0.8758837E-01
        2   -1    0    0  501    0  0.00000000000E+00  0.00000000000E+00  0.84549875061E+03  0.84549875061E+03  0.25500000920E-02 0.  1.
       -2   -1    0    0    0  501  0.00000000000E+00  0.00000000000E+00 -0.85899397452E+03  0.85899397453E+03  0.25500000920E-02 0. -1.
    10030    2    1    2    0    0  0.00000000000E+00  0.00000000000E+00 -0.13495223916E+02  0.17044927251E+04  0.17044393005E+04 0.  0.
        4    1    3    3  502    0  0.76364411330E+03  0.21272236635E+02  0.37098354058E+03  0.84925569772E+03  0.12699999809E+01 0. -1.
       -4    1    3    3    0  502 -0.76364411330E+03 -0.21272236635E+02 -0.38447876450E+03  0.85523702742E+03  0.12699999809E+01 0.  1.
</event>
<event>
 5   0  0.2288806E-04  0.1694779E+04  0.7818609E-02  0.8764348E-01
       -2   -1    0    0    0  501  0.00000000000E+00  0.00000000000E+00  0.44687776799E+03  0.44687776800E+03  0.25500000920E-02 0. -1.
        2   -1    0    0  501    0  0.00000000000E+00  0.00000000000E+00 -0.16068567893E+04  0.16068567893E+04  0.25500000920E-02 0.  1.
    10030    2    1    2    0    0  0.00000000000E+00  0.00000000000E+00 -0.11599790213E+04  0.20537345573E+04  0.16947785407E+04 0.  0.
        3    1    3    3  502    0 -0.80949044913E+03 -0.15927364549E+03 -0.81442115136E+03  0.11592776645E+04  0.10100000352E+00 0.  1.
       -3    1    3    3    0  502  0.80949044913E+03  0.15927364549E+03 -0.34555786991E+03  0.89445689278E+03  0.10100000352E+00 0. -1.
</event>
<event>
 5   0  0.2288806E-04  0.1696066E+04  0.7818609E-02  0.8763611E-01
       -2   -1    0    0    0  501  0.00000000000E+00  0.00000000000E+00  0.39598282495E+03  0.39598282495E+03  0.25500000920E-02 0. -1.
        2   -1    0    0  501    0  0.00000000000E+00  0.00000000000E+00 -0.18161394362E+04  0.18161394362E+04  0.25500000920E-02 0.  1.
    10030    2    1    2    0    0  0.00000000000E+00  0.00000000000E+00 -0.14201566112E+04  0.22121222611E+04  0.16960660653E+04 0.  0.
        3    1    3    3  502    0  0.66003385720E+03 -0.65968517914E+02 -0.20957027179E+02  0.66365333209E+03  0.10100000352E+00 0. -1.
       -3    1    3    3    0  502 -0.66003385720E+03  0.65968517914E+02 -0.13991995840E+04  0.15484689290E+04  0.10100000352E+00 0.  1.
</event>
<event>
 5   0  0.2224454E-04  0.1702688E+04  0.7818609E-02  0.8759833E-01
       -2   -1    0    0    0  501  0.00000000000E+00  0.00000000000E+00  0.40717739579E+03  0.40717739580E+03  0.25500000920E-02 0.  1.
        2   -1    0    0  501    0  0.00000000000E+00  0.00000000000E+00 -0.17800271636E+04  0.17800271636E+04  0.25500000920E-02 0. -1.
    10030    2    1    2    0    0  0.00000000000E+00  0.00000000000E+00 -0.13728497678E+04  0.21872045594E+04  0.17026882567E+04 0.  0.
        2    1    3    3  502    0 -0.53434499918E+03  0.66197037090E+03 -0.64465249851E+03  0.10673828713E+04  0.25500000920E-02 0.  1.
       -2    1    3    3    0  502  0.53434499918E+03 -0.66197037090E+03 -0.72819726926E+03  0.11198216881E+04  0.25500000920E-02 0. -1.
</event>
<event>
 5   0  0.2288806E-04  0.1699729E+04  0.7818609E-02  0.8761519E-01
       -2   -1    0    0    0  501  0.00000000000E+00  0.00000000000E+00  0.67968335695E+03  0.67968335696E+03  0.25500000920E-02 0.  1.
        2   -1    0    0  501    0  0.00000000000E+00  0.00000000000E+00 -0.10626565286E+04  0.10626565286E+04  0.25500000920E-02 0. -1.
    10030    2    1    2    0    0  0.00000000000E+00  0.00000000000E+00 -0.38297317162E+03  0.17423398855E+04  0.16997293392E+04 0.  0.
        3    1    3    3  502    0 -0.41733553189E+03  0.68002068899E+03  0.10855036788E+03  0.80522063821E+03  0.10100000352E+00 0.  1.
       -3    1    3    3    0  502  0.41733553189E+03 -0.68002068899E+03 -0.49152353950E+03  0.93711924733E+03  0.10100000352E+00 0. -1.
</event>
<event>
 5   0  0.1234158E-04  0.1694718E+04  0.7818609E-02  0.8764382E-01
       -1   -1    0    0    0  501  0.00000000000E+00  0.00000000000E+00  0.61675724060E+03  0.61675724062E+03  0.50400001928E-02 0. -1.
        1   -1    0    0  501    0  0.00000000000E+00  0.00000000000E+00 -0.11641817708E+04  0.11641817708E+04  0.50400001928E-02 0.  1.
    10030    2    1    2    0    0  0.00000000000E+00  0.00000000000E+00 -0.54742453019E+03  0.17809390114E+04  0.16947183088E+04 0.  0.
        5    1    3    3  502    0 -0.19550201724E+03  0.28586113564E+03 -0.10863988899E+04  0.11402728909E+04  0.46999998093E+01 0.  1.
       -5    1    3    3    0  502  0.19550201724E+03 -0.28586113564E+03  0.53897435971E+03  0.64066612057E+03  0.46999998093E+01 0. -1.
</event>
<event>
 5   0  0.2234723E-04  0.1687748E+04  0.7818609E-02  0.8768383E-01
       -2   -1    0    0    0  501  0.00000000000E+00  0.00000000000E+00  0.34934739432E+03  0.34934739433E+03  0.25500000920E-02 0.  1.
        2   -1    0    0  501    0  0.00000000000E+00  0.00000000000E+00 -0.20384401113E+04  0.20384401113E+04  0.25500000920E-02 0. -1.
    10030    2    1    2    0    0  0.00000000000E+00  0.00000000000E+00 -0.16890927170E+04  0.23877875057E+04  0.16877484900E+04 0.  0.
        1    1    3    3  502    0 -0.32133838601E+03 -0.57999351978E+03 -0.15830448361E+04  0.17162988651E+04  0.50400001928E-02 0. -1.
       -1    1    3    3    0  502  0.32133838601E+03  0.57999351978E+03 -0.10604788092E+03  0.67148864054E+03  0.50400001928E-02 0.  1.
</event>
<event>
 5   0  0.1186302E-04  0.1695077E+04  0.7818609E-02  0.8764177E-01
        1   -1    0    0  501    0  0.00000000000E+00  0.00000000000E+00  0.24144353595E+04  0.24144353595E+04  0.50400001928E-02 0. -1.
       -1   -1    0    0    0  501  0.00000000000E+00  0.00000000000E+00 -0.29751132513E+03  0.29751132518E+03  0.50400001928E-02 0.  1.
    10030    2    1    2    0    0  0.00000000000E+00  0.00000000000E+00  0.21169240344E+04  0.27119466847E+04  0.16950774181E+04 0.  0.
        3    1    3    3  502    0 -0.19017804071E+03 -0.82519412906E+03  0.10028368173E+04  0.13125527533E+04  0.10100000352E+00 0.  1.
       -3    1    3    3    0  502  0.19017804071E+03  0.82519412906E+03  0.11140872171E+04  0.13993939314E+04  0.10100000352E+00 0. -1.
</event>
<event>
 5   0  0.2242967E-04  0.1707752E+04  0.7818609E-02  0.8756955E-01
        2   -1    0    0  501    0  0.00000000000E+00  0.00000000000E+00  0.21335074713E+04  0.21335074713E+04  0.25500000920E-02 0.  1.
       -2   -1    0    0    0  501  0.00000000000E+00  0.00000000000E+00 -0.34173974533E+03  0.34173974534E+03  0.25500000920E-02 0. -1.
    10030    2    1    2    0    0  0.00000000000E+00  0.00000000000E+00  0.17917677260E+04  0.24752472166E+04  0.17077520896E+04 0.  0.
        4    1    3    3  502    0  0.33740071292E+03  0.43462136298E+03 -0.50540501973E+02  0.55253137963E+03  0.12699999809E+01 0. -1.
       -4    1    3    3    0  502 -0.33740071292E+03 -0.43462136298E+03  0.18423082279E+04  0.19227158370E+04  0.12699999809E+01 0.  1.
</event>
<event>
 5   0  0.2242967E-04  0.1687048E+04  0.7818609E-02  0.8768786E-01
        2   -1    0    0  501    0  0.00000000000E+00  0.00000000000E+00  0.13962333452E+04  0.13962333452E+04  0.25500000920E-02 0.  1.
       -2   -1    0    0    0  501  0.00000000000E+00  0.00000000000E+00 -0.50960902937E+03  0.50960902937E+03  0.25500000920E-02 0. -1.
    10030    2    1    2    0    0  0.00000000000E+00  0.00000000000E+00  0.88662431585E+03  0.19058423746E+04  0.16870484520E+04 0.  0.
        4    1    3    3  502    0 -0.51991194758E+03 -0.40085013754E+03  0.10416666476E+04  0.12312839979E+04  0.12699999809E+01 0.  1.
       -4    1    3    3    0  502  0.51991194758E+03  0.40085013754E+03 -0.15504233171E+03  0.67455837666E+03  0.12699999809E+01 0. -1.
</event>
<event>
 5   0  0.8372750E-05  0.1701117E+04  0.7818609E-02  0.8760728E-01
        3   -1    0    0  501    0  0.00000000000E+00  0.00000000000E+00  0.50393314795E+03  0.50393315807E+03  0.10100000352E+00 0. -1.
       -3   -1    0    0    0  501  0.00000000000E+00  0.00000000000E+00 -0.14356059504E+04  0.14356059539E+04  0.10100000352E+00 0.  1.
    10030    2    1    2    0    0  0.00000000000E+00  0.00000000000E+00 -0.93167280242E+03  0.19395391120E+04  0.17011166204E+04 0.  0.
        3    1    3    3  502    0  0.73689207426E+03 -0.41783437069E+03 -0.37860185065E+03  0.92786575643E+03  0.10100000352E+00 0. -1.
       -3    1    3    3    0  502 -0.73689207426E+03  0.41783437069E+03 -0.55307095177E+03  0.10116733556E+04  0.10100000352E+00 0.  1.
</event>
<event>
 5   0  0.2242967E-04  0.1699861E+04  0.7818609E-02  0.8761444E-01
        2   -1    0    0  501    0  0.00000000000E+00  0.00000000000E+00  0.65491811220E+03  0.65491811221E+03  0.25500000920E-02 0.  1.
       -2   -1    0    0    0  501  0.00000000000E+00  0.00000000000E+00 -0.11030104395E+04  0.11030104395E+04  0.25500000920E-02 0. -1.
    10030    2    1    2    0    0  0.00000000000E+00  0.00000000000E+00 -0.44809232729E+03  0.17579285517E+04  0.16998605999E+04 0.  0.
        4    1    3    3  502    0 -0.14117188679E+03  0.67399090066E+03 -0.73924768252E+03  0.10102880702E+04  0.12699999809E+01 0. -1.
       -4    1    3    3    0  502  0.14117188679E+03 -0.67399090066E+03  0.29115535523E+03  0.74764048149E+03  0.12699999809E+01 0.  1.
</event>
<event>
 5   0  0.2234723E-04  0.1645987E+04  0.7818609E-02  0.8792784E-01
       -2   -1    0    0    0  501  0.00000000000E+00  0.00000000000E+00  0.46271717192E+03  0.46271717193E+03  0.25500000920E-02 0.  1.
        2   -1    0    0  501    0  0.00000000000E+00  0.00000000000E+00 -0.14637843687E+04  0.14637843687E+04  0.25500000920E-02 0. -1.
    10030    2    1    2    0    0  0.00000000000E+00  0.00000000000E+00 -0.10010671968E+04  0.19265015406E+04  0.16459868328E+04 0.  0.
        1    1    3    3  502    0  0.51890023984E+03 -0.51644922933E+03 -0.60509028538E+02  0.73460098553E+03  0.50400001928E-02 0.  1.
       -1    1    3    3    0  502 -0.51890023984E+03  0.51644922933E+03 -0.94055816824E+03  0.11919005551E+04  0.50400001928E-02 0. -1.
</event>
<event>
 5   0  0.1126958E-04  0.1706543E+04  0.7818609E-02  0.8757642E-01
       -1   -1    0    0    0  501  0.00000000000E+00  0.00000000000E+00  0.79648194076E+03  0.79648194078E+03  0.50400001928E-02 0. -1.
        1   -1    0    0  501    0  0.00000000000E+00  0.00000000000E+00 -0.91410978927E+03  0.91410978928E+03  0.50400001928E-02 0.  1.
    10030    2    1    2    0    0  0.00000000000E+00  0.00000000000E+00 -0.11762784851E+03  0.17105917301E+04  0.17065426324E+04 0.  0.
        4    1    3    3  502    0  0.47040874902E+02  0.28953697476E+03 -0.86198021721E+03  0.91052512949E+03  0.12699999809E+01 0.  1.
       -4    1    3    3    0  502 -0.47040874902E+02 -0.28953697476E+03  0.74435236870E+03  0.80006660057E+03  0.12699999809E+01 0. -1.
</event>
<event>
 5   0  0.8372750E-05  0.1699607E+04  0.7818609E-02  0.8761589E-01
       -3   -1    0    0    0  501  0.00000000000E+00  0.00000000000E+00  0.68745592639E+03  0.68745593381E+03  0.10100000352E+00 0. -1.
        3   -1    0    0  501    0  0.00000000000E+00  0.00000000000E+00 -0.10504903996E+04  0.10504904045E+04  0.10100000352E+00 0.  1.
    10030    2    1    2    0    0  0.00000000000E+00  0.00000000000E+00 -0.36303447321E+03  0.17379463383E+04  0.16996068504E+04 0.  0.
        5    1    3    3  502    0  0.45499321895E+03  0.57254522790E+03  0.26104706097E+03  0.77652722124E+03  0.46999998093E+01 0. -1.
       -5    1    3    3    0  502 -0.45499321895E+03 -0.57254522790E+03 -0.62408153418E+03  0.96141911703E+03  0.46999998093E+01 0.  1.
</event>
<event>
 5   0  0.1234158E-04  0.1698409E+04  0.7818609E-02  0.8762272E-01
       -1   -1    0    0    0  501  0.00000000000E+00  0.00000000000E+00  0.80686564051E+03  0.80686564053E+03  0.50400001928E-02 0.  1.
        1   -1    0    0  501    0  0.00000000000E+00  0.00000000000E+00 -0.89376462042E+03  0.89376462044E+03  0.50400001928E-02 0. -1.
    10030    2    1    2    0    0  0.00000000000E+00  0.00000000000E+00 -0.86898979911E+02  0.17006302610E+04  0.16984086233E+04 0.  0.
        5    1    3    3  502    0  0.38668635352E+03 -0.27470151636E+02 -0.79998059632E+03  0.88897243473E+03  0.46999998093E+01 0. -1.
       -5    1    3    3    0  502 -0.38668635352E+03  0.27470151636E+02  0.71308161641E+03  0.81165782623E+03  0.46999998093E+01 0.  1.
</event>
<event>
 5   0  0.2242967E-04  0.1697878E+04  0.7818609E-02  0.8762575E-01
        2   -1    0    0  501    0  0.00000000000E+00  0.00000000000E+00  0.61219292350E+03  0.61219292350E+03  0.25500000920E-02 0.  1.
       -2   -1    0    0    0  501  0.00000000000E+00  0.00000000000E+00 -0.11772395294E+04  0.11772395294E+04  0.25500000920E-02 0. -1.
    10030    2    1    2    0    0  0.00000000000E+00  0.00000000000E+00 -0.56504660592E+03  0.17894324529E+04  0.16978783339E+04 0.  0.
        4    1    3    3  502    0  0.18771978132E+03  0.81592248503E+03 -0.43055302859E+03  0.94145936779E+03  0.12699999809E+01 0. -1.
       -4    1    3    3    0  502 -0.18771978132E+03 -0.81592248503E+03 -0.13449357733E+03  0.84797308513E+03  0.12699999809E+01 0.  1.
</event>
<event>
 5   0  0.2234723E-04  0.1659204E+04  0.7818609E-02  0.8784980E-01
        2   -1    0    0  501    0  0.00000000000E+00  0.00000000000E+00  0.13047815192E+04  0.13047815192E+04  0.25500000920E-02 0.  1.
       -2   -1    0    0    0  501  0.00000000000E+00  0.00000000000E+00 -0.52747510629E+03  0.52747510630E+03  0.25500000920E-02 0. -1.
    10030    2    1    2    0    0  0.00000000000E+00  0.00000000000E+00  0.77730641293E+03  0.18322566255E+04  0.16592043522E+04 0.  0.
        1    1    3    3  502    0 -0.45023955897E+03  0.38300213040E+03 -0.25415228687E+03  0.64342806692E+03  0.50400001928E-02 0. -1.
       -1    1    3    3    0  502  0.45023955897E+03 -0.38300213040E+03  0.10314586998E+04  0.11888285586E+04  0.50400001928E-02 0.  1.
</event>
<event>
 5   0  0.2224454E-04  0.1715780E+04  0.7818609E-02  0.8752415E-01
        2   -1    0    0  501    0  0.00000000000E+00  0.00000000000E+00  0.97147639141E+03  0.97147639141E+03  0.25500000920E-02 0.  1.
       -2   -1    0    0    0  501  0.00000000000E+00  0.00000000000E+00 -0.75758469102E+03  0.75758469102E+03  0.25500000920E-02 0. -1.
    10030    2    1    2    0    0  0.00000000000E+00  0.00000000000E+00  0.21389170039E+03  0.17290610824E+04  0.17157804543E+04 0.  0.
        2    1    3    3  502    0  0.85224643868E+03 -0.51150532076E+02  0.22420089920E+02  0.85407437008E+03  0.25500000920E-02 0.  1.
       -2    1    3    3    0  502 -0.85224643868E+03  0.51150532076E+02  0.19147161047E+03  0.87498671236E+03  0.25500000920E-02 0. -1.
</event>
<event>
 5   0  0.2356829E-04  0.1701464E+04  0.7818609E-02  0.8760530E-01
       -2   -1    0    0    0  501  0.00000000000E+00  0.00000000000E+00  0.42597599442E+03  0.42597599443E+03  0.25500000920E-02 0. -1.
        2   -1    0    0  501    0  0.00000000000E+00  0.00000000000E+00 -0.16990275067E+04  0.16990275067E+04  0.25500000920E-02 0.  1.
    10030    2    1    2    0    0  0.00000000000E+00  0.00000000000E+00 -0.12730515123E+04  0.21250035011E+04  0.17014639952E+04 0.  0.
        5    1    3    3  502    0 -0.84880593896E+03  0.43393216522E+02 -0.68272504004E+03  0.10901789135E+04  0.46999998093E+01 0.  1.
       -5    1    3    3    0  502  0.84880593896E+03 -0.43393216522E+02 -0.59032647225E+03  0.10348245876E+04  0.46999998093E+01 0. -1.
</event>
<event>
 5   0  0.2224454E-04  0.1701856E+04  0.7818609E-02  0.8760306E-01
        2   -1    0    0  501    0  0.00000000000E+00  0.00000000000E+00  0.17138917023E+04  0.17138917023E+04  0.25500000920E-02 0. -1.
       -2   -1    0    0    0  501  0.00000000000E+00  0.00000000000E+00 -0.42247642253E+03  0.42247642254E+03  0.25500000920E-02 0.  1.
    10030    2    1    2    0    0  0.00000000000E+00  0.00000000000E+00  0.12914152797E+04  0.21363681248E+04  0.17018564393E+04 0.  0.
        2    1    3    3  502    0 -0.80779943566E+03  0.25676634517E+03  0.55168494597E+03  0.10113481912E+04  0.25500000920E-02 0.  1.
       -2    1    3    3    0  502  0.80779943566E+03 -0.25676634517E+03  0.73973033377E+03  0.11250199336E+04  0.25500000920E-02 0. -1.
</event>
<event>
 5   0  0.1186302E-04  0.1705966E+04  0.7818609E-02  0.8757969E-01
        1   -1    0    0  501    0  0.00000000000E+00  0.00000000000E+00  0.64791219580E+03  0.64791219581E+03  0.50400001928E-02 0. -1.
       -1   -1    0    0    0  501  0.00000000000E+00  0.00000000000E+00 -0.11229605965E+04  0.11229605965E+04  0.50400001928E-02 0.  1.
    10030    2    1    2    0    0  0.00000000000E+00  0.00000000000E+00 -0.47504840070E+03  0.17708727923E+04  0.17059658448E+04 0.  0.
        3    1    3    3  502    0  0.61730254288E+03 -0.10246091163E+03 -0.83925060929E+03  0.10468535061E+04  0.10100000352E+00 0.  1.
       -3    1    3    3    0  502 -0.61730254288E+03  0.10246091163E+03  0.36420220859E+03  0.72401928621E+03  0.10100000352E+00 0. -1.
</event>
<event>
 5   0  0.2234723E-04  0.1698360E+04  0.7818609E-02  0.8762300E-01
        2   -1    0    0  501    0  0.00000000000E+00  0.00000000000E+00  0.22776546130E+04  0.22776546130E+04  0.25500000920E-02 0. -1.
       -2   -1    0    0    0  501  0.00000000000E+00  0.00000000000E+00 -0.31660052687E+03  0.31660052688E+03  0.25500000920E-02 0.  1.
    10030    2    1    2    0    0  0.00000000000E+00  0.00000000000E+00  0.19610540861E+04  0.25942551399E+04  0.16983599742E+04 0.  0.
        1    1    3    3  502    0  0.13971827847E+03 -0.62022038504E+03  0.18404357947E+04  0.19471513649E+04  0.50400001928E-02 0. -1.
       -1    1    3    3    0  502 -0.13971827847E+03  0.62022038504E+03  0.12061829143E+03  0.64710377500E+03  0.50400001928E-02 0.  1.
</event>
<event>
 5   0  0.1215233E-04  0.1691828E+04  0.7818609E-02  0.8766039E-01
        1   -1    0    0  501    0  0.00000000000E+00  0.00000000000E+00  0.47222813099E+03  0.47222813102E+03  0.50400001928E-02 0. -1.
       -1   -1    0    0    0  501  0.00000000000E+00  0.00000000000E+00 -0.15153075695E+04  0.15153075695E+04  0.50400001928E-02 0.  1.
    10030    2    1    2    0    0  0.00000000000E+00  0.00000000000E+00 -0.10430794385E+04  0.19875357005E+04  0.16918284327E+04 0.  0.
        2    1    3    3  502    0 -0.23700860342E+03 -0.47083319642E+03  0.25569784182E+03  0.58586548223E+03  0.25500000920E-02 0. -1.
       -2    1    3    3    0  502  0.23700860342E+03  0.47083319642E+03 -0.12987772804E+04  0.14016702183E+04  0.25500000920E-02 0.  1.
</event>
<event>
 5   0  0.1126958E-04  0.1687109E+04  0.7818609E-02  0.8768751E-01
        1   -1    0    0  501    0  0.00000000000E+00  0.00000000000E+00  0.10835372993E+04  0.10835372993E+04  0.50400001928E-02 0.  1.
       -1   -1    0    0    0  501  0.00000000000E+00  0.00000000000E+00 -0.65672334967E+03  0.65672334969E+03  0.50400001928E-02 0. -1.
    10030    2    1    2    0    0  0.00000000000E+00  0.00000000000E+00  0.42681394964E+03  0.17402606490E+04  0.16871090596E+04 0.  0.
        4    1    3    3  502    0 -0.65208755604E+03  0.27794355407E+03  0.68510107656E+03  0.98581737558E+03  0.12699999809E+01 0.  1.
       -4    1    3    3    0  502  0.65208755604E+03 -0.27794355407E+03 -0.25828712692E+03  0.75444327343E+03  0.12699999809E+01 0. -1.
</event>
<event>
 5   0  0.2288806E-04  0.1626582E+04  0.7818609E-02  0.8804382E-01
       -2   -1    0    0    0  501  0.00000000000E+00  0.00000000000E+00  0.24732260221E+03  0.24732260223E+03  0.25500000920E-02 0.  1.
        2   -1    0    0  501    0  0.00000000000E+00  0.00000000000E+00 -0.26744100192E+04  0.26744100192E+04  0.25500000920E-02 0. -1.
    10030    2    1    2    0    0  0.00000000000E+00  0.00000000000E+00 -0.24270874169E+04  0.29217326214E+04  0.16265817475E+04 0.  0.
        3    1    3    3  502    0  0.82034983671E+02  0.52217836925E+03 -0.10329530650E+03  0.53858139441E+03  0.10100000352E+00 0.  1.
       -3    1    3    3    0  502 -0.82034983671E+02 -0.52217836925E+03 -0.23237921104E+04  0.23831512270E+04  0.10100000352E+00 0. -1.
</event>
<event>
 5   0  0.2356829E-04  0.1633991E+04  0.7818609E-02  0.8799934E-01
        2   -1    0    0  501    0  0.00000000000E+00  0.00000000000E+00  0.12328295085E+04  0.12328295085E+04  0.25500000920E-02 0.  1.
       -2   -1    0    0    0  501  0.00000000000E+00  0.00000000000E+00 -0.54142234735E+03  0.54142234736E+03  0.25500000920E-02 0. -1.
    10030    2    1    2    0    0  0.00000000000E+00  0.00000000000E+00  0.69140716119E+03  0.17742518559E+04  0.16339907545E+04 0.  0.
        5    1    3    3  502    0  0.51174616777E+03  0.60318488084E+03  0.56755316749E+03  0.97357836287E+03  0.46999998093E+01 0.  1.
       -5    1    3    3    0  502 -0.51174616777E+03 -0.60318488084E+03  0.12385399370E+03  0.80067349304E+03  0.46999998093E+01 0. -1.
</event>
<event>
 5   0  0.8372750E-05  0.1687646E+04  0.7818609E-02  0.8768442E-01
       -3   -1    0    0    0  501  0.00000000000E+00  0.00000000000E+00  0.54588519905E+03  0.54588520839E+03  0.10100000352E+00 0.  1.
        3   -1    0    0  501    0  0.00000000000E+00  0.00000000000E+00 -0.13043713779E+04  0.13043713818E+04  0.10100000352E+00 0. -1.
    10030    2    1    2    0    0  0.00000000000E+00  0.00000000000E+00 -0.75848617882E+03  0.18502565902E+04  0.16876457466E+04 0.  0.
        5    1    3    3  502    0 -0.48060340806E+03  0.18562315307E+03 -0.11118988934E+04  0.12254700445E+04  0.46999998093E+01 0. -1.
       -5    1    3    3    0  502  0.48060340806E+03 -0.18562315307E+03  0.35341271461E+03  0.62478654566E+03  0.46999998093E+01 0.  1.
</event>
<event>
 5   0  0.2356829E-04  0.1695396E+04  0.7818609E-02  0.8763995E-01
       -2   -1    0    0    0  501  0.00000000000E+00  0.00000000000E+00  0.46848170585E+03  0.46848170585E+03  0.25500000920E-02 0.  1.
        2   -1    0    0  501    0  0.00000000000E+00  0.00000000000E+00 -0.15338740970E+04  0.15338740970E+04  0.25500000920E-02 0. -1.
    10030    2    1    2    0    0  0.00000000000E+00  0.00000000000E+00 -0.10653923912E+04  0.20023558029E+04  0.16953960641E+04 0.  0.
        5    1    3    3  502    0 -0.20337386303E+03 -0.40967563519E+03 -0.13756209573E+04  0.14496724328E+04  0.46999998093E+01 0. -1.
       -5    1    3    3    0  502  0.20337386303E+03  0.40967563519E+03  0.31022856618E+03  0.55268337003E+03  0.46999998093E+01 0.  1.
</event>
<event>
 5   0  0.2234723E-04  0.1715601E+04  0.7818609E-02  0.8752516E-01
       -2   -1    0    0    0  501  0.00000000000E+00  0.00000000000E+00  0.39003803061E+03  0.39003803062E+03  0.25500000920E-02 0. -1.
        2   -1    0    0  501    0  0.00000000000E+00  0.00000000000E+00 -0.18865388573E+04  0.18865388573E+04  0.25500000920E-02 0.  1.
    10030    2    1    2    0    0  0.00000000000E+00  0.00000000000E+00 -0.14965008267E+04  0.22765768879E+04  0.17156012364E+04 0.  0.
        1    1    3    3  502    0  0.11662577249E+03 -0.19550331368E+03 -0.18457228884E+04  0.18597086055E+04  0.50400001928E-02 0.  1.
       -1    1    3    3    0  502 -0.11662577249E+03  0.19550331368E+03  0.34922206173E+03  0.41686828243E+03  0.50400001928E-02 0. -1.
</event>
<event>
 5   0  0.1126958E-04  0.1689398E+04  0.7818609E-02  0.8767434E-01
       -1   -1    0    0    0  501  0.00000000000E+00  0.00000000000E+00  0.43378456273E+03  0.43378456276E+03  0.50400001928E-02 0. -1.
        1   -1    0    0  501    0  0.00000000000E+00  0.00000000000E+00 -0.16448639287E+04  0.16448639287E+04  0.50400001928E-02 0.  1.
    10030    2    1    2    0    0  0.00000000000E+00  0.00000000000E+00 -0.12110793660E+04  0.20786484915E+04  0.16893982125E+04 0.  0.
        4    1    3    3  502    0 -0.68524882367E+03 -0.48714589262E+03 -0.50529432958E+03  0.98091846932E+03  0.12699999809E+01 0. -1.
       -4    1    3    3    0  502  0.68524882367E+03  0.48714589262E+03 -0.70578503639E+03  0.10977300222E+04  0.12699999809E+01 0.  1.
</event>
<event>
 5   0  0.8372750E-05  0.1678332E+04  0.7818609E-02  0.8773820E-01
       -3   -1    0    0    0  501  0.00000000000E+00  0.00000000000E+00  0.71125806326E+03  0.71125807043E+03  0.10100000352E+00 0.  1.
        3   -1    0    0  501    0  0.00000000000E+00  0.00000000000E+00 -0.99007646562E+03  0.99007647077E+03  0.10100000352E+00 0. -1.
    10030    2    1    2    0    0  0.00000000000E+00  0.00000000000E+00 -0.27881840236E+03  0.17013345412E+04  0.16783323627E+04 0.  0.
        2    1    3    3  502    0 -0.65259020396E+03 -0.47270252484E+03  0.98062461252E+02  0.81174989843E+03  0.25500000920E-02 0.  1.
       -2    1    3    3    0  502  0.65259020396E+03  0.47270252484E+03 -0.37688086361E+03  0.88958464277E+03  0.25500000920E-02 0. -1.
</event>
<event>
 5   0  0.2356829E-04  0.1776298E+04  0.7818609E-02  0.8719006E-01
        2   -1    0    0  501    0  0.00000000000E+00  0.00000000000E+00  0.51117405767E+03  0.51117405768E+03  0.25500000920E-02 0.  1.
       -2   -1    0    0    0  501  0.00000000000E+00  0.00000000000E+00 -0.15431314319E+04  0.15431314319E+04  0.25500000920E-02 0. -1.
    10030    2    1    2    0    0  0.00000000000E+00  0.00000000000E+00 -0.10319573742E+04  0.20543054896E+04  0.17762981231E+04 0.  0.
        5    1    3    3  502    0  0.68215817051E+03 -0.17503881802E+03  0.10982896239E+03  0.71278527509E+03  0.46999998093E+01 0.  1.
       -5    1    3    3    0  502 -0.68215817051E+03  0.17503881802E+03 -0.11417863366E+04  0.13415202145E+04  0.46999998093E+01 0. -1.
</event>
<event>
 5   0  0.2224454E-04  0.1704734E+04  0.7818609E-02  0.8758669E-01
        2   -1    0    0  501    0  0.00000000000E+00  0.00000000000E+00  0.15095779638E+04  0.15095779638E+04  0.25500000920E-02 0. -1.
       -2   -1    0    0    0  501  0.00000000000E+00  0.00000000000E+00 -0.48127977051E+03  0.48127977051E+03  0.25500000920E-02 0.  1.
    10030    2    1    2    0    0  0.00000000000E+00  0.00000000000E+00  0.10282981933E+04  0.19908577343E+04  0.17047338044E+04 0.  0.
        2    1    3    3  502    0 -0.16253749869E+02 -0.62409999797E+03  0.11918634834E+04  0.13454752152E+04  0.25500000920E-02 0. -1.
       -2    1    3    3    0  502  0.16253749869E+02  0.62409999797E+03 -0.16356529004E+03  0.64538251910E+03  0.25500000920E-02 0.  1.
</event>
<event>
 5   0  0.2288806E-04  0.1694246E+04  0.7818609E-02  0.8764653E-01
       -2   -1    0    0    0  501  0.00000000000E+00  0.00000000000E+00  0.95834793559E+03  0.95834793559E+03  0.25500000920E-02 0.  1.
        2   -1    0    0  501    0  0.00000000000E+00  0.00000000000E+00 -0.74880708521E+03  0.74880708522E+03  0.25500000920E-02 0. -1.
    10030    2    1    2    0    0  0.00000000000E+00  0.00000000000E+00  0.20954085037E+03  0.17071550208E+04  0.16942464098E+04 0.  0.
        3    1    3    3  502    0  0.38215990385E+03  0.16599800493E+03 -0.63842374738E+03  0.76235583632E+03  0.10100000352E+00 0. -1.
       -3    1    3    3    0  502 -0.38215990385E+03 -0.16599800493E+03  0.84796459776E+03  0.94479918448E+03  0.10100000352E+00 0.  1.
</event>
<event>
 5   0  0.1204741E-04  0.1704428E+04  0.7818609E-02  0.8758843E-01
        1   -1    0    0  501    0  0.00000000000E+00  0.00000000000E+00  0.21092541080E+04  0.21092541080E+04  0.50400001928E-02 0. -1.
       -1   -1    0    0    0  501  0.00000000000E+00  0.00000000000E+00 -0.34432493470E+03  0.34432493473E+03  0.50400001928E-02 0.  1.
    10030    2    1    2    0    0  0.00000000000E+00  0.00000000000E+00  0.17649291733E+04  0.24535790428E+04  0.17044280953E+04 0.  0.
        1    1    3    3  502    0  0.34153522895E+03 -0.38165741221E+03  0.18629963825E+04  0.19321139236E+04  0.50400001928E-02 0. -1.
       -1    1    3    3    0  502 -0.34153522895E+03  0.38165741221E+03 -0.98067209134E+02  0.52146511910E+03  0.50400001928E-02 0.  1.
</event>
<event>
 5   0  0.2288806E-04  0.1691249E+04  0.7818609E-02  0.8766371E-01
        2   -1    0    0  501    0  0.00000000000E+00  0.00000000000E+00  0.12196723619E+04  0.12196723619E+04  0.25500000920E-02 0.  1.
       -2   -1    0    0    0  501  0.00000000000E+00  0.00000000000E+00 -0.58628903035E+03  0.58628903036E+03  0.25500000920E-02 0. -1.
    10030    2    1    2    0    0  0.00000000000E+00  0.00000000000E+00  0.63338333156E+03  0.18059613923E+04  0.16912486824E+04 0.  0.
        3    1    3    3  502    0  0.78541302931E+03 -0.19907047653E+02  0.65065127941E+03  0.10201063742E+04  0.10100000352E+00 0.  1.
       -3    1    3    3    0  502 -0.78541302931E+03  0.19907047653E+02 -0.17267947851E+02  0.78585501804E+03  0.10100000352E+00 0. -1.
</event>
<event>
 5   0  0.2356829E-04  0.1698787E+04  0.7818609E-02  0.8762056E-01
       -2   -1    0    0    0  501  0.00000000000E+00  0.00000000000E+00  0.54745814474E+03  0.54745814475E+03  0.25500000920E-02 0. -1.
        2   -1    0    0  501    0  0.00000000000E+00  0.00000000000E+00 -0.13178535676E+04  0.13178535676E+04  0.25500000920E-02 0.  1.
    10030    2    1    2    0    0  0.00000000000E+00  0.00000000000E+00 -0.77039542284E+03  0.18653117123E+04  0.16987874136E+04 0.  0.
        5    1    3    3  502    0 -0.53572868488E+02 -0.80556032392E+03 -0.95414495296E+02  0.81297201896E+03  0.46999998093E+01 0.  1.
       -5    1    3    3    0  502  0.53572868488E+02  0.80556032392E+03 -0.67498092755E+03  0.10523396934E+04  0.46999998093E+01 0. -1.
</event>
<event>
 5   0  0.1204741E-04  0.1696946E+04  0.7818609E-02  0.8763108E-01
       -1   -1    0    0    0  501  0.00000000000E+00  0.00000000000E+00  0.10804729908E+04  0.10804729908E+04  0.50400001928E-02 0. -1.
        1   -1    0    0  501    0  0.00000000000E+00  0.00000000000E+00 -0.66628830744E+03  0.66628830746E+03  0.50400001928E-02 0.  1.
    10030    2    1    2    0    0  0.00000000000E+00  0.00000000000E+00  0.41418468332E+03  0.17467612982E+04  0.16969461044E+04 0.  0.
        1    1    3    3  502    0 -0.45352560752E+03  0.23567635442E+03 -0.49004657091E+03  0.70807800587E+03  0.50400001928E-02 0.  1.
       -1    1    3    3    0  502  0.45352560752E+03 -0.23567635442E+03  0.90423125423E+03  0.10386832924E+04  0.50400001928E-02 0. -1.
</event>
<event>
 5   0  0.1215233E-04  0.1681671E+04  0.7818609E-02  0.8771888E-01
       -1   -1    0    0    0  501  0.00000000000E+00  0.00000000000E+00  0.51156769852E+03  0.51156769855E+03  0.50400001928E-02 0. -1.
        1   -1    0    0  501    0  0.00000000000E+00  0.00000000000E+00 -0.13820347697E+04  0.13820347697E+04  0.50400001928E-02 0.  1.
    10030    2    1    2    0    0  0.00000000000E+00  0.00000000000E+00 -0.87046707121E+03  0.18936024683E+04  0.16816710100E+04 0.  0.
        2    1    3    3  502    0  0.60298835507E+03  0.47650607089E+03 -0.51143097799E+02  0.77023931892E+03  0.25500000920E-02 0. -1.
       -2    1    3    3    0  502 -0.60298835507E+03 -0.47650607089E+03 -0.81932397341E+03  0.11233631494E+04  0.25500000920E-02 0.  1.
</event>
<event>
 5   0  0.2242967E-04  0.1706071E+04  0.7818609E-02  0.8757910E-01
       -2   -1    0    0    0  501  0.00000000000E+00  0.00000000000E+00  0.56840166111E+03  0.56840166111E+03  0.25500000920E-02 0.  1.
        2   -1    0    0  501    0  0.00000000000E+00  0.00000000000E+00 -0.12802026599E+04  0.12802026599E+04  0.25500000920E-02 0. -1.
    10030    2    1    2    0    0  0.00000000000E+00  0.00000000000E+00 -0.71180099877E+03  0.18486043210E+04  0.17060707118E+04 0.  0.
        4    1    3    3  502    0 -0.47760548575E+03  0.70662745842E+03 -0.37262857084E+03  0.93074326735E+03  0.12699999809E+01 0.  1.
       -4    1    3    3    0  502  0.47760548575E+03 -0.70662745842E+03 -0.33917242793E+03  0.91786105364E+03  0.12699999809E+01 0. -1.
</event>
<event>
 5   0  0.2242967E-04  0.1701904E+04  0.7818609E-02  0.8760279E-01
       -2   -1    0    0    0  501  0.00000000000E+00  0.00000000000E+00  0.47187388760E+03  0.47187388760E+03  0.25500000920E-02 0.  1.
        2   -1    0    0  501    0  0.00000000000E+00  0.00000000000E+00 -0.15345614315E+04  0.15345614315E+04  0.25500000920E-02 0. -1.
    10030    2    1    2    0    0  0.00000000000E+00  0.00000000000E+00 -0.10626875439E+04  0.20064353191E+04  0.17019041905E+04 0.  0.
        4    1    3    3  502    0 -0.18128713806E+02  0.47074308570E+03 -0.13668008690E+04  0.14457087989E+04  0.12699999809E+01 0. -1.
       -4    1    3    3    0  502  0.18128713806E+02 -0.47074308570E+03  0.30411332509E+03  0.56072652015E+03  0.12699999809E+01 0.  1.
</event>
<event>
 5   0  0.2224454E-04  0.1689088E+04  0.7818609E-02  0.8767612E-01
        2   -1    0    0  501    0  0.00000000000E+00  0.00000000000E+00  0.18730681977E+04  0.18730681977E+04  0.25500000920E-02 0. -1.
       -2   -1    0    0    0  501  0.00000000000E+00  0.00000000000E+00 -0.38079482189E+03  0.38079482189E+03  0.25500000920E-02 0.  1.
    10030    2    1    2    0    0  0.00000000000E+00  0.00000000000E+00  0.14922733758E+04  0.22538630196E+04  0.16890881217E+04 0.  0.
        2    1    3    3  502    0 -0.49103535008E+03  0.41988529392E+03  0.20364696795E+02  0.64640087868E+03  0.25500000920E-02 0.  1.
       -2    1    3    3    0  502  0.49103535008E+03 -0.41988529392E+03  0.14719086790E+04  0.16074621409E+04  0.25500000920E-02 0. -1.
</event>
<event>
 5   0  0.2234723E-04  0.1694537E+04  0.7818609E-02  0.8764486E-01
        2   -1    0    0  501    0  0.00000000000E+00  0.00000000000E+00  0.13817605805E+04  0.13817605805E+04  0.25500000920E-02 0.  1.
       -2   -1    0    0    0  501  0.00000000000E+00  0.00000000000E+00 -0.51952836305E+03  0.51952836306E+03  0.25500000920E-02 0. -1.
    10030    2    1    2    0    0  0.00000000000E+00  0.00000000000E+00  0.86223221746E+03  0.19012889436E+04  0.16945368837E+04 0.  0.
        1    1    3    3  502    0  0.60207726691E+03 -0.49162871777E+02  0.10976980747E+04  0.12529385805E+04  0.50400001928E-02 0.  1.
       -1    1    3    3    0  502 -0.60207726691E+03  0.49162871777E+02 -0.23546585727E+03  0.64835036304E+03  0.50400001928E-02 0. -1.
</event>
<event>
 5   0  0.2242967E-04  0.1695176E+04  0.7818609E-02  0.8764121E-01
        2   -1    0    0  501    0  0.00000000000E+00  0.00000000000E+00  0.11705459074E+04  0.11705459074E+04  0.25500000920E-02 0.  1.
       -2   -1    0    0    0  501  0.00000000000E+00  0.00000000000E+00 -0.61373500682E+03  0.61373500682E+03  0.25500000920E-02 0. -1.
    10030    2    1    2    0    0  0.00000000000E+00  0.00000000000E+00  0.55681090061E+03  0.17842809143E+04  0.16951755077E+04 0.  0.
        4    1    3    3  502    0  0.50840154441E+03  0.55606493131E+03  0.68704311824E+03  0.10196618054E+04  0.12699999809E+01 0.  1.
       -4    1    3    3    0  502 -0.50840154441E+03 -0.55606493131E+03 -0.13023221763E+03  0.76461910884E+03  0.12699999809E+01 0. -1.
</event>
<event>
 5   0  0.2288806E-04  0.1696037E+04  0.7818609E-02  0.8763628E-01
       -2   -1    0    0    0  501  0.00000000000E+00  0.00000000000E+00  0.36855679724E+03  0.36855679725E+03  0.25500000920E-02 0.  1.
        2   -1    0    0  501    0  0.00000000000E+00  0.00000000000E+00 -0.19512199737E+04  0.19512199737E+04  0.25500000920E-02 0. -1.
    10030    2    1    2    0    0  0.00000000000E+00  0.00000000000E+00 -0.15826631765E+04  0.23197767710E+04  0.16960370093E+04 0.  0.
        3    1    3    3  502    0 -0.27793307917E+02 -0.95534244860E+02  0.36054590175E+03  0.37402221508E+03  0.10100000352E+00 0.  1.
       -3    1    3    3    0  502  0.27793307917E+02  0.95534244860E+02 -0.19432090782E+04  0.19457545559E+04  0.10100000352E+00 0. -1.
</event>
<event>
 5   0  0.1186302E-04  0.1715244E+04  0.7818609E-02  0.8752718E-01
        1   -1    0    0  501    0  0.00000000000E+00  0.00000000000E+00  0.94536689215E+03  0.94536689216E+03  0.50400001928E-02 0.  1.
       -1   -1    0    0    0  501  0.00000000000E+00  0.00000000000E+00 -0.77802097690E+03  0.77802097692E+03  0.50400001928E-02 0. -1.
    10030    2    1    2    0    0  0.00000000000E+00  0.00000000000E+00  0.16734591525E+03  0.17233878691E+04  0.17152437413E+04 0.  0.
        3    1    3    3  502    0  0.35473975895E+03  0.24011990946E+03 -0.66283350198E+03  0.78920601179E+03  0.10100000352E+00 0. -1.
       -3    1    3    3    0  502 -0.35473975895E+03 -0.24011990946E+03  0.83017941723E+03  0.93418185729E+03  0.10100000352E+00 0.  1.
</event>
<event>
 5   0  0.1186302E-04  0.1707991E+04  0.7818609E-02  0.8756820E-01
       -1   -1    0    0    0  501  0.00000000000E+00  0.00000000000E+00  0.43718041199E+03  0.43718041202E+03  0.50400001928E-02 0.  1.
        1   -1    0    0  501    0  0.00000000000E+00  0.00000000000E+00 -0.16682081564E+04  0.16682081564E+04  0.50400001928E-02 0. -1.
    10030    2    1    2    0    0  0.00000000000E+00  0.00000000000E+00 -0.12310277444E+04  0.21053885684E+04  0.17079905493E+04 0.  0.
        3    1    3    3  502    0  0.28512951227E+03 -0.73450738677E+03 -0.20946563028E+03  0.81527651779E+03  0.10100000352E+00 0.  1.
       -3    1    3    3    0  502 -0.28512951227E+03  0.73450738677E+03 -0.10215621141E+04  0.12901120506E+04  0.10100000352E+00 0. -1.
</event>
<event>
 5   0  0.1126958E-04  0.1700556E+04  0.7818609E-02  0.8761047E-01
       -1   -1    0    0    0  501  0.00000000000E+00  0.00000000000E+00  0.67244704672E+03  0.67244704673E+03  0.50400001928E-02 0. -1.
        1   -1    0    0  501    0  0.00000000000E+00  0.00000000000E+00 -0.10751370989E+04  0.10751370990E+04  0.50400001928E-02 0.  1.
    10030    2    1    2    0    0  0.00000000000E+00  0.00000000000E+00 -0.40269005223E+03  0.17475841457E+04  0.17005561055E+04 0.  0.
        4    1    3    3  502    0  0.60985283633E+03 -0.51717081946E+03 -0.49845097329E+03  0.94225321658E+03  0.12699999809E+01 0.  1.
       -4    1    3    3    0  502 -0.60985283633E+03  0.51717081946E+03  0.95760921056E+02  0.80533092911E+03  0.12699999809E+01 0. -1.
</event>
<event>
 5   0  0.1204741E-04  0.1691591E+04  0.7818609E-02  0.8766175E-01
        1   -1    0    0  501    0  0.00000000000E+00  0.00000000000E+00  0.68529492178E+03  0.68529492180E+03  0.50400001928E-02 0. -1.
       -1   -1    0    0    0  501  0.00000000000E+00  0.00000000000E+00 -0.10438863796E+04  0.10438863796E+04  0.50400001928E-02 0.  1.
    10030    2    1    2    0    0  0.00000000000E+00  0.00000000000E+00 -0.35859145780E+03  0.17291813014E+04  0.16915910083E+04 0.  0.
        1    1    3    3  502    0 -0.82923563428E+03  0.42172086085E+02 -0.34399661707E+03  0.89874573411E+03  0.50400001928E-02 0.  1.
       -1    1    3    3    0  502  0.82923563428E+03 -0.42172086085E+02 -0.14594840723E+02  0.83043556728E+03  0.50400001928E-02 0. -1.
</event>
<event>
 5   0  0.2234723E-04  0.1689323E+04  0.7818609E-02  0.8767477E-01
        2   -1    0    0  501    0  0.00000000000E+00  0.00000000000E+00  0.10516478624E+04  0.10516478624E+04  0.25500000920E-02 0.  1.
       -2   -1    0    0    0  501  0.00000000000E+00  0.00000000000E+00 -0.67841435590E+03  0.67841435591E+03  0.25500000920E-02 0. -1.
    10030    2    1    2    0    0  0.00000000000E+00  0.00000000000E+00  0.37323350651E+03  0.17300622183E+04  0.16893229498E+04 0.  0.
        1    1    3    3  502    0 -0.27352190446E+03 -0.18617584037E+03 -0.60928481297E+03  0.69332795927E+03  0.50400001928E-02 0. -1.
       -1    1    3    3    0  502  0.27352190446E+03  0.18617584037E+03  0.98251831948E+03  0.10367342591E+04  0.50400001928E-02 0.  1.
</event>
<event>
 5   0  0.2242967E-04  0.1695968E+04  0.7818609E-02  0.8763667E-01
        2   -1    0    0  501    0  0.00000000000E+00  0.00000000000E+00  0.67781737784E+03  0.67781737785E+03  0.25500000920E-02 0.  1.
       -2   -1    0    0    0  501  0.00000000000E+00  0.00000000000E+00 -0.10608709091E+04  0.10608709091E+04  0.25500000920E-02 0. -1.
    10030    2    1    2    0    0  0.00000000000E+00  0.00000000000E+00 -0.38305353128E+03  0.17386882870E+04  0.16959678509E+04 0.  0.
        4    1    3    3  502    0  0.21628238002E+03  0.55352233986E+03 -0.81166898267E+03  0.10059687863E+04  0.12699999809E+01 0. -1.
       -4    1    3    3    0  502 -0.21628238002E+03 -0.55352233986E+03  0.42861545139E+03  0.73271950070E+03  0.12699999809E+01 0.  1.
</event>
<event>
 5   0  0.2224454E-04  0.1695124E+04  0.7818609E-02  0.8764150E-01
        2   -1    0    0  501    0  0.00000000000E+00  0.00000000000E+00  0.10570267259E+04  0.10570267259E+04  0.25500000920E-02 0. -1.
       -2   -1    0    0    0  501  0.00000000000E+00  0.00000000000E+00 -0.67960563424E+03  0.67960563424E+03  0.25500000920E-02 0.  1.
    10030    2    1    2    0    0  0.00000000000E+00  0.00000000000E+00  0.37742109164E+03  0.17366323601E+04  0.16951239700E+04 0.  0.
        2    1    3    3  502    0  0.17118310729E+03  0.71044505286E+02  0.10360116216E+04  0.10524595280E+04  0.25500000920E-02 0. -1.
       -2    1    3    3    0  502 -0.17118310729E+03 -0.71044505286E+02 -0.65859053001E+03  0.68417283209E+03  0.25500000920E-02 0.  1.
</event>
<event>
 5   0  0.1234158E-04  0.1697109E+04  0.7818609E-02  0.8763015E-01
       -1   -1    0    0    0  501  0.00000000000E+00  0.00000000000E+00  0.42199144579E+03  0.42199144582E+03  0.50400001928E-02 0. -1.
        1   -1    0    0  501    0  0.00000000000E+00  0.00000000000E+00 -0.17063012795E+04  0.17063012795E+04  0.50400001928E-02 0.  1.
    10030    2    1    2    0    0  0.00000000000E+00  0.00000000000E+00 -0.12843098337E+04  0.21282927253E+04  0.16971087695E+04 0.  0.
        5    1    3    3  502    0 -0.60632749211E+03  0.59129179412E+03 -0.57623043312E+03  0.10243644935E+04  0.46999998093E+01 0.  1.
       -5    1    3    3    0  502  0.60632749211E+03 -0.59129179412E+03 -0.70807940057E+03  0.11039282318E+04  0.46999998093E+01 0. -1.
</event>
<event>
 5   0  0.1186302E-04  0.1711934E+04  0.7818609E-02  0.8754587E-01
       -1   -1    0    0    0  501  0.00000000000E+00  0.00000000000E+00  0.73835218654E+03  0.73835218655E+03  0.50400001928E-02 0.  1.
        1   -1    0    0  501    0  0.00000000000E+00  0.00000000000E+00 -0.99231659180E+03  0.99231659181E+03  0.50400001928E-02 0. -1.
    10030    2    1    2    0    0  0.00000000000E+00  0.00000000000E+00 -0.25396440526E+03  0.17306687784E+04  0.17119335563E+04 0.  0.
        3    1    3    3  502    0  0.25155035790E+03  0.51272897523E+03 -0.77154161447E+03  0.95991929747E+03  0.10100000352E+00 0. -1.
       -3    1    3    3    0  502 -0.25155035790E+03 -0.51272897523E+03  0.51757720921E+03  0.77074948089E+03  0.10100000352E+00 0.  1.
</event>
<event>
 5   0  0.2234723E-04  0.1708766E+04  0.7818609E-02  0.8756381E-01
       -2   -1    0    0    0  501  0.00000000000E+00  0.00000000000E+00  0.72097546824E+03  0.72097546824E+03  0.25500000920E-02 0.  1.
        2   -1    0    0  501    0  0.00000000000E+00  0.00000000000E+00 -0.10124753472E+04  0.10124753472E+04  0.25500000920E-02 0. -1.
    10030    2    1    2    0    0  0.00000000000E+00  0.00000000000E+00 -0.29149987895E+03  0.17334508154E+04  0.17087655047E+04 0.  0.
        1    1    3    3  502    0 -0.75661208203E+03  0.25142966859E+03  0.16575472905E+03  0.81434228132E+03  0.50400001928E-02 0.  1.
       -1    1    3    3    0  502  0.75661208203E+03 -0.25142966859E+03 -0.45725460800E+03  0.91910853412E+03  0.50400001928E-02 0. -1.
</event>
<event>
 5   0  0.1126958E-04  0.1709400E+04  0.7818609E-02  0.8756021E-01
        1   -1    0    0  501    0  0.00000000000E+00  0.00000000000E+00  0.19806391175E+04  0.19806391175E+04  0.50400001928E-02 0.  1.
       -1   -1    0    0    0  501  0.00000000000E+00  0.00000000000E+00 -0.36882654112E+03  0.36882654116E+03  0.50400001928E-02 0. -1.
    10030    2    1    2    0    0  0.00000000000E+00  0.00000000000E+00  0.16118125764E+04  0.23494656586E+04  0.17094002164E+04 0.  0.
        4    1    3    3  502    0 -0.35687600415E+02  0.84753584925E+03  0.66227882472E+03  0.10761995517E+04  0.12699999809E+01 0. -1.
       -4    1    3    3    0  502  0.35687600415E+02 -0.84753584925E+03  0.94953375164E+03  0.12732661069E+04  0.12699999809E+01 0.  1.
</event>
<event>
 5   0  0.1186302E-04  0.1709115E+04  0.7818609E-02  0.8756183E-01
        1   -1    0    0  501    0  0.00000000000E+00  0.00000000000E+00  0.97665145475E+03  0.97665145476E+03  0.50400001928E-02 0.  1.
       -1   -1    0    0    0  501  0.00000000000E+00  0.00000000000E+00 -0.74772681435E+03  0.74772681436E+03  0.50400001928E-02 0. -1.
    10030    2    1    2    0    0  0.00000000000E+00  0.00000000000E+00  0.22892464040E+03  0.17243782691E+04  0.17091149534E+04 0.  0.
        3    1    3    3  502    0  0.77940350842E+03  0.32805036763E+03 -0.98516719198E+01  0.84568548426E+03  0.10100000352E+00 0. -1.
       -3    1    3    3    0  502 -0.77940350842E+03 -0.32805036763E+03  0.23877631232E+03  0.87869278486E+03  0.10100000352E+00 0.  1.
</event>
<event>
 5   0  0.1204741E-04  0.1704419E+04  0.7818609E-02  0.8758848E-01
       -1   -1    0    0    0  501  0.00000000000E+00  0.00000000000E+00  0.28924427770E+03  0.28924427774E+03  0.50400001928E-02 0. -1.
        1   -1    0    0  501    0  0.00000000000E+00  0.00000000000E+00 -0.25108903035E+04  0.25108903035E+04  0.50400001928E-02 0.  1.
    10030    2    1    2    0    0  0.00000000000E+00  0.00000000000E+00 -0.22216460258E+04  0.28001345813E+04  0.17044185546E+04 0.  0.
        1    1    3    3  502    0  0.56083652380E+03 -0.81271534762E+02 -0.21564900381E+04  0.22297066966E+04  0.50400001928E-02 0. -1.
       -1    1    3    3    0  502 -0.56083652380E+03  0.81271534762E+02 -0.65155987767E+02  0.57042788462E+03  0.50400001928E-02 0.  1.
</event>
<event>
 5   0  0.1234158E-04  0.1730953E+04  0.7818609E-02  0.8743905E-01
       -1   -1    0    0    0  501  0.00000000000E+00  0.00000000000E+00  0.29141144799E+03  0.29141144803E+03  0.50400001928E-02 0.  1.
        1   -1    0    0  501    0  0.00000000000E+00  0.00000000000E+00 -0.25704198806E+04  0.25704198806E+04  0.50400001928E-02 0. -1.
    10030    2    1    2    0    0  0.00000000000E+00  0.00000000000E+00 -0.22790084326E+04  0.28618313286E+04  0.17309532396E+04 0.  0.
        5    1    3    3  502    0 -0.21027047128E+03 -0.10293298433E+03 -0.25170526869E+04  0.25279211200E+04  0.46999998093E+01 0. -1.
       -5    1    3    3    0  502  0.21027047128E+03  0.10293298433E+03  0.23804425435E+03  0.33391020856E+03  0.46999998093E+01 0.  1.
</event>
<event>
 5   0  0.1186302E-04  0.1699079E+04  0.7818609E-02  0.8761890E-01
        1   -1    0    0  501    0  0.00000000000E+00  0.00000000000E+00  0.20122767562E+04  0.20122767562E+04  0.50400001928E-02 0. -1.
       -1   -1    0    0    0  501  0.00000000000E+00  0.00000000000E+00 -0.35865701349E+03  0.35865701352E+03  0.50400001928E-02 0.  1.
    10030    2    1    2    0    0  0.00000000000E+00  0.00000000000E+00  0.16536197427E+04  0.23709337698E+04  0.16990787760E+04 0.  0.
        3    1    3    3  502    0 -0.55762919623E+03  0.58201427848E+03  0.45231038944E+03  0.92427032812E+03  0.10100000352E+00 0.  1.
       -3    1    3    3    0  502  0.55762919623E+03 -0.58201427848E+03  0.12013093533E+04  0.14466634416E+04  0.10100000352E+00 0. -1.
</event>
<event>
 5   0  0.2242967E-04  0.1692264E+04  0.7818609E-02  0.8765789E-01
        2   -1    0    0  501    0  0.00000000000E+00  0.00000000000E+00  0.29128228711E+04  0.29128228711E+04  0.25500000920E-02 0. -1.
       -2   -1    0    0    0  501  0.00000000000E+00  0.00000000000E+00 -0.24578871737E+03  0.24578871738E+03  0.25500000920E-02 0.  1.
    10030    2    1    2    0    0  0.00000000000E+00  0.00000000000E+00  0.26670341537E+04  0.31586115884E+04  0.16922635698E+04 0.  0.
        4    1    3    3  502    0  0.37586572454E+03  0.31986040228E+02  0.27471857790E+04  0.27729640219E+04  0.12699999809E+01 0. -1.
       -4    1    3    3    0  502 -0.37586572454E+03 -0.31986040228E+02 -0.80151625272E+02  0.38564756656E+03  0.12699999809E+01 0.  1.
</event>
<event>
 5   0  0.2234723E-04  0.1702132E+04  0.7818609E-02  0.8760149E-01
       -2   -1    0    0    0  501  0.00000000000E+00  0.00000000000E+00  0.64430563688E+03  0.64430563689E+03  0.25500000920E-02 0. -1.
        2   -1    0    0  501    0  0.00000000000E+00  0.00000000000E+00 -0.11241767180E+04  0.11241767180E+04  0.25500000920E-02 0.  1.
    10030    2    1    2    0    0  0.00000000000E+00  0.00000000000E+00 -0.47987108114E+03  0.17684823549E+04  0.17021320704E+04 0.  0.
        1    1    3    3  502    0  0.82488365610E+03 -0.62182860042E+02 -0.44776711042E+03  0.94063549762E+03  0.50400001928E-02 0.  1.
       -1    1    3    3    0  502 -0.82488365610E+03  0.62182860042E+02 -0.32103970721E+02  0.82784685730E+03  0.50400001928E-02 0. -1.
</event>
<event>
 5   0  0.1126958E-04  0.1699578E+04  0.7818609E-02  0.8761605E-01
       -1   -1    0    0    0  501  0.00000000000E+00  0.00000000000E+00  0.10712059455E+04  0.10712059455E+04  0.50400001928E-02 0. -1.
        1   -1    0    0  501    0  0.00000000000E+00  0.00000000000E+00 -0.67413871038E+03  0.67413871040E+03  0.50400001928E-02 0.  1.
    10030    2    1    2    0    0  0.00000000000E+00  0.00000000000E+00  0.39706723511E+03  0.17453446559E+04  0.16995780590E+04 0.  0.
        4    1    3    3  502    0 -0.79847779463E+03  0.29061497242E+03  0.18747654949E+03  0.87015683657E+03  0.12699999809E+01 0.  1.
       -4    1    3    3    0  502  0.79847779463E+03 -0.29061497242E+03  0.20959068562E+03  0.87518781934E+03  0.12699999809E+01 0. -1.
</event>
<event>
 5   0  0.2356829E-04  0.1695701E+04  0.7818609E-02  0.8763820E-01
       -2   -1    0    0    0  501  0.00000000000E+00  0.00000000000E+00  0.53222208679E+03  0.53222208679E+03  0.25500000920E-02 0. -1.
        2   -1    0    0  501    0  0.00000000000E+00  0.00000000000E+00 -0.13506586205E+04  0.13506586205E+04  0.25500000920E-02 0.  1.
    10030    2    1    2    0    0  0.00000000000E+00  0.00000000000E+00 -0.81843653372E+03  0.18828807073E+04  0.16957008575E+04 0.  0.
        5    1    3    3  502    0  0.41184418980E+03 -0.54132656355E+03  0.15279249126E+03  0.69714971165E+03  0.46999998093E+01 0. -1.
       -5    1    3    3    0  502 -0.41184418980E+03  0.54132656355E+03 -0.97122902498E+03  0.11857309956E+04  0.46999998093E+01 0.  1.
</event>
<event>
 5   0  0.1126958E-04  0.1697093E+04  0.7818609E-02  0.8763024E-01
        1   -1    0    0  501    0  0.00000000000E+00  0.00000000000E+00  0.69556204676E+03  0.69556204678E+03  0.50400001928E-02 0.  1.
       -1   -1    0    0    0  501  0.00000000000E+00  0.00000000000E+00 -0.10351784620E+04  0.10351784621E+04  0.50400001928E-02 0. -1.
    10030    2    1    2    0    0  0.00000000000E+00  0.00000000000E+00 -0.33961641528E+03  0.17307405088E+04  0.16970926314E+04 0.  0.
        4    1    3    3  502    0  0.23672228598E+03  0.44192566842E+03  0.52837737441E+03  0.72836803868E+03  0.12699999809E+01 0.  1.
       -4    1    3    3    0  502 -0.23672228598E+03 -0.44192566842E+03 -0.86799378969E+03  0.10023724702E+04  0.12699999809E+01 0. -1.
</event>
<event>
 5   0  0.1204741E-04  0.1689875E+04  0.7818609E-02  0.8767160E-01
       -1   -1    0    0    0  501  0.00000000000E+00  0.00000000000E+00  0.65073973581E+03  0.65073973583E+03  0.50400001928E-02 0.  1.
        1   -1    0    0  501    0  0.00000000000E+00  0.00000000000E+00 -0.10970886563E+04  0.10970886564E+04  0.50400001928E-02 0. -1.
    10030    2    1    2    0    0  0.00000000000E+00  0.00000000000E+00 -0.44634892053E+03  0.17478283922E+04  0.16898747675E+04 0.  0.
        1    1    3    3  502    0  0.35672316701E+03  0.40924091615E+03  0.44647810594E+03  0.70290272758E+03  0.50400001928E-02 0.  1.
       -1    1    3    3    0  502 -0.35672316701E+03 -0.40924091615E+03 -0.89282702647E+03  0.10449256646E+04  0.50400001928E-02 0. -1.
</event>
<event>
 5   0  0.1204741E-04  0.1705412E+04  0.7818609E-02  0.8758284E-01
       -1   -1    0    0    0  501  0.00000000000E+00  0.00000000000E+00  0.56106619917E+03  0.56106619919E+03  0.50400001928E-02 0.  1.
        1   -1    0    0  501    0  0.00000000000E+00  0.00000000000E+00 -0.12959386107E+04  0.12959386107E+04  0.50400001928E-02 0. -1.
    10030    2    1    2    0    0  0.00000000000E+00  0.00000000000E+00 -0.73487241150E+03  0.18570048099E+04  0.17054117986E+04 0.  0.
        1    1    3    3  502    0  0.66973861569E+02  0.35331490274E+02 -0.12922703794E+04  0.12944869817E+04  0.50400001928E-02 0. -1.
       -1    1    3    3    0  502 -0.66973861569E+02 -0.35331490274E+02  0.55739796790E+03  0.56251782815E+03  0.50400001928E-02 0.  1.
</event>
<event>
 5   0  0.1186302E-04  0.1694979E+04  0.7818609E-02  0.8764233E-01
       -1   -1    0    0    0  501  0.00000000000E+00  0.00000000000E+00  0.10830463952E+04  0.10830463952E+04  0.50400001928E-02 0.  1.
        1   -1    0    0  501    0  0.00000000000E+00  0.00000000000E+00 -0.66316531706E+03  0.66316531708E+03  0.50400001928E-02 0. -1.
    10030    2    1    2    0    0  0.00000000000E+00  0.00000000000E+00  0.41988107816E+03  0.17462117123E+04  0.16949794171E+04 0.  0.
        3    1    3    3  502    0  0.37340397428E+03 -0.57036205791E+03  0.72864203638E+03  0.99782895954E+03  0.10100000352E+00 0.  1.
       -3    1    3    3    0  502 -0.37340397428E+03  0.57036205791E+03 -0.30876095823E+03  0.74838275277E+03  0.10100000352E+00 0. -1.
</event>
<event>
 5   0  0.2356829E-04  0.1703287E+04  0.7818609E-02  0.8759492E-01
        2   -1    0    0  501    0  0.00000000000E+00  0.00000000000E+00  0.10077358695E+04  0.10077358695E+04  0.25500000920E-02 0. -1.
       -2   -1    0    0    0  501  0.00000000000E+00  0.00000000000E+00 -0.71972927440E+03  0.71972927441E+03  0.25500000920E-02 0.  1.
    10030    2    1    2    0    0  0.00000000000E+00  0.00000000000E+00  0.28800659508E+03  0.17274651439E+04  0.17032874169E+04 0.  0.
        5    1    3    3  502    0 -0.20485170245E+03 -0.75547717167E+03  0.48427272133E+03  0.92046300063E+03  0.46999998093E+01 0. -1.
       -5    1    3    3    0  502  0.20485170245E+03  0.75547717167E+03 -0.19626612626E+03  0.80700214326E+03  0.46999998093E+01 0.  1.
</event>
<event>
 5   0  0.2234723E-04  0.1704830E+04  0.7818609E-02  0.8758614E-01
        2   -1    0    0  501    0  0.00000000000E+00  0.00000000000E+00  0.18174634435E+04  0.18174634435E+04  0.25500000920E-02 0. -1.
       -2   -1    0    0    0  501  0.00000000000E+00  0.00000000000E+00 -0.39979426832E+03  0.39979426833E+03  0.25500000920E-02 0.  1.
    10030    2    1    2    0    0  0.00000000000E+00  0.00000000000E+00  0.14176691752E+04  0.22172577119E+04  0.17048301588E+04 0.  0.
        1    1    3    3  502    0  0.44173346525E+03 -0.70445342567E+03  0.46472692211E+03  0.95255141353E+03  0.50400001928E-02 0.  1.
       -1    1    3    3    0  502 -0.44173346525E+03  0.70445342567E+03  0.95294225311E+03  0.12647062983E+04  0.50400001928E-02 0. -1.
</event>
<event>
 5   0  0.1126958E-04  0.1712958E+04  0.7818609E-02  0.8754008E-01
        1   -1    0    0  501    0  0.00000000000E+00  0.00000000000E+00  0.13688421184E+04  0.13688421184E+04  0.50400001928E-02 0. -1.
       -1   -1    0    0    0  501  0.00000000000E+00  0.00000000000E+00 -0.53589521985E+03  0.53589521988E+03  0.50400001928E-02 0.  1.
    10030    2    1    2    0    0  0.00000000000E+00  0.00000000000E+00  0.83294689853E+03  0.19047373383E+04  0.17129576154E+04 0.  0.
        4    1    3    3  502    0 -0.45806745653E+03 -0.39353081262E+03  0.10918103182E+04  0.12476953471E+04  0.12699999809E+01 0. -1.
       -4    1    3    3    0  502  0.45806745653E+03  0.39353081262E+03 -0.25886341971E+03  0.65704199119E+03  0.12699999809E+01 0.  1.
</event>
<event>
 5   0  0.1186302E-04  0.1715754E+04  0.7818609E-02  0.8752430E-01
        1   -1    0    0  501    0  0.00000000000E+00  0.00000000000E+00  0.50983767284E+03  0.50983767286E+03  0.50400001928E-02 0.  1.
       -1   -1    0    0    0  501  0.00000000000E+00  0.00000000000E+00 -0.14435040278E+04  0.14435040279E+04  0.50400001928E-02 0. -1.
    10030    2    1    2    0    0  0.00000000000E+00  0.00000000000E+00 -0.93366635501E+03  0.19533417007E+04  0.17157537519E+04 0.  0.
        3    1    3    3  502    0  0.37544724701E+03 -0.59488271754E+03  0.92187472583E+02  0.70946784509E+03  0.10100000352E+00 0.  1.
       -3    1    3    3    0  502 -0.37544724701E+03  0.59488271754E+03 -0.10258538276E+04  0.12438738556E+04  0.10100000352E+00 0. -1.
</event>
<event>
 5   0  0.2356829E-04  0.1699249E+04  0.7818609E-02  0.8761793E-01
        2   -1    0    0  501    0  0.00000000000E+00  0.00000000000E+00  0.87299172348E+03  0.87299172349E+03  0.25500000920E-02 0.  1.
       -2   -1    0    0    0  501  0.00000000000E+00  0.00000000000E+00 -0.82688309808E+03  0.82688309809E+03  0.25500000920E-02 0. -1.
    10030    2    1    2    0    0  0.00000000000E+00  0.00000000000E+00  0.46108625400E+02  0.16998748216E+04  0.16992493648E+04 0.  0.
        5    1    3    3  502    0  0.75784813951E+03 -0.17646951653E+02  0.40685526609E+03  0.86034790347E+03  0.46999998093E+01 0.  1.
       -5    1    3    3    0  502 -0.75784813951E+03  0.17646951653E+02 -0.36074664069E+03  0.83952691811E+03  0.46999998093E+01 0. -1.
</event>
<event>
 5   0  0.1186302E-04  0.1703557E+04  0.7818609E-02  0.8759338E-01
        1   -1    0    0  501    0  0.00000000000E+00  0.00000000000E+00  0.17540206467E+04  0.17540206467E+04  0.50400001928E-02 0.  1.
       -1   -1    0    0    0  501  0.00000000000E+00  0.00000000000E+00 -0.41363629073E+03  0.41363629076E+03  0.50400001928E-02 0. -1.
    10030    2    1    2    0    0  0.00000000000E+00  0.00000000000E+00  0.13403843559E+04  0.21676569374E+04  0.17035569779E+04 0.  0.
        3    1    3    3  502    0 -0.36753295589E+03 -0.62232824040E+03  0.96675272458E+02  0.72919066846E+03  0.10100000352E+00 0. -1.
       -3    1    3    3    0  502  0.36753295589E+03  0.62232824040E+03  0.12437090835E+04  0.14384662690E+04  0.10100000352E+00 0.  1.
</event>
<event>
 5   0  0.1186302E-04  0.1692234E+04  0.7818609E-02  0.8765806E-01
        1   -1    0    0  501    0  0.00000000000E+00  0.00000000000E+00  0.17000726037E+04  0.17000726037E+04  0.50400001928E-02 0. -1.
       -1   -1    0    0    0  501  0.00000000000E+00  0.00000000000E+00 -0.42110779967E+03  0.42110779970E+03  0.50400001928E-02 0.  1.
    10030    2    1    2    0    0  0.00000000000E+00  0.00000000000E+00  0.12789648041E+04  0.21211804034E+04  0.16922338296E+04 0.  0.
        3    1    3    3  502    0  0.29941199389E+02 -0.82800904072E+03  0.42448828163E+03  0.93095959009E+03  0.10100000352E+00 0. -1.
       -3    1    3    3    0  502 -0.29941199389E+02  0.82800904072E+03  0.85447652242E+03  0.11902208133E+04  0.10100000352E+00 0.  1.
</event>
<event>
 5   0  0.2242967E-04  0.1703904E+04  0.7818609E-02  0.8759141E-01
       -2   -1    0    0    0  501  0.00000000000E+00  0.00000000000E+00  0.36063983338E+03  0.36063983339E+03  0.25500000920E-02 0. -1.
        2   -1    0    0  501    0  0.00000000000E+00  0.00000000000E+00 -0.20125962019E+04  0.20125962019E+04  0.25500000920E-02 0.  1.
    10030    2    1    2    0    0  0.00000000000E+00  0.00000000000E+00 -0.16519563685E+04  0.23732360353E+04  0.17039041744E+04 0.  0.
        4    1    3    3  502    0  0.88200625792E+02 -0.40794764453E+03 -0.18604432152E+04  0.19066859209E+04  0.12699999809E+01 0.  1.
       -4    1    3    3    0  502 -0.88200625792E+02  0.40794764453E+03  0.20848684670E+03  0.46655011437E+03  0.12699999809E+01 0. -1.
</event>
<event>
 5   0  0.2224454E-04  0.1698084E+04  0.7818609E-02  0.8762458E-01
        2   -1    0    0  501    0  0.00000000000E+00  0.00000000000E+00  0.16167475459E+04  0.16167475459E+04  0.25500000920E-02 0.  1.
       -2   -1    0    0    0  501  0.00000000000E+00  0.00000000000E+00 -0.44587817158E+03  0.44587817159E+03  0.25500000920E-02 0. -1.
    10030    2    1    2    0    0  0.00000000000E+00  0.00000000000E+00  0.11708693743E+04  0.20626257175E+04  0.16980841436E+04 0.  0.
        2    1    3    3  502    0 -0.40225428593E+03  0.34345268455E+03 -0.22130200424E+03  0.57336099811E+03  0.25500000920E-02 0. -1.
       -2    1    3    3    0  502  0.40225428593E+03 -0.34345268455E+03  0.13921713785E+04  0.14892647193E+04  0.25500000920E-02 0.  1.
</event>
<event>
 5   0  0.1215233E-04  0.1710129E+04  0.7818609E-02  0.8755609E-01
        1   -1    0    0  501    0  0.00000000000E+00  0.00000000000E+00  0.11931251755E+04  0.11931251755E+04  0.50400001928E-02 0. -1.
       -1   -1    0    0    0  501  0.00000000000E+00  0.00000000000E+00 -0.61278983646E+03  0.61278983648E+03  0.50400001928E-02 0.  1.
    10030    2    1    2    0    0  0.00000000000E+00  0.00000000000E+00  0.58033533901E+03  0.18059150120E+04  0.17101286281E+04 0.  0.
        2    1    3    3  502    0  0.56102701300E+03  0.38530424866E+03 -0.25643857593E+03  0.72730421186E+03  0.25500000920E-02 0. -1.
       -2    1    3    3    0  502 -0.56102701300E+03 -0.38530424866E+03  0.83677391494E+03  0.10786108001E+04  0.25500000920E-02 0.  1.
</event>
<event>
 5   0  0.2224454E-04  0.1676365E+04  0.7818609E-02  0.8774960E-01
        2   -1    0    0  501    0  0.00000000000E+00  0.00000000000E+00  0.12513184140E+04  0.12513184140E+04  0.25500000920E-02 0. -1.
       -2   -1    0    0    0  501  0.00000000000E+00  0.00000000000E+00 -0.56144766305E+03  0.56144766306E+03  0.25500000920E-02 0.  1.
    10030    2    1    2    0    0  0.00000000000E+00  0.00000000000E+00  0.68987075098E+03  0.18127660771E+04  0.16763648759E+04 0.  0.
        2    1    3    3  502    0  0.87050995494E+01 -0.83741760922E+03  0.38248496072E+03  0.92067300176E+03  0.25500000920E-02 0.  1.
       -2    1    3    3    0  502 -0.87050995494E+01  0.83741760922E+03  0.30738579026E+03  0.89209307533E+03  0.25500000920E-02 0. -1.
</event>
<event>
 5   0  0.1215233E-04  0.1610476E+04  0.7818609E-02  0.8814138E-01
        1   -1    0    0  501    0  0.00000000000E+00  0.00000000000E+00  0.74091221147E+03  0.74091221148E+03  0.50400001928E-02 0. -1.
       -1   -1    0    0    0  501  0.00000000000E+00  0.00000000000E+00 -0.87514867771E+03  0.87514867773E+03  0.50400001928E-02 0.  1.
    10030    2    1    2    0    0  0.00000000000E+00  0.00000000000E+00 -0.13423646625E+03  0.16160608892E+04  0.16104761311E+04 0.  0.
        2    1    3    3  502    0 -0.56341882617E+03  0.53258521987E+03  0.15116899635E+03  0.78989863626E+03  0.25500000920E-02 0. -1.
       -2    1    3    3    0  502  0.56341882617E+03 -0.53258521987E+03 -0.28540546260E+03  0.82616225295E+03  0.25500000920E-02 0.  1.
</event>
<event>
 5   0  0.8372750E-05  0.1703760E+04  0.7818609E-02  0.8759223E-01
       -3   -1    0    0    0  501  0.00000000000E+00  0.00000000000E+00  0.85647878784E+03  0.85647879379E+03  0.10100000352E+00 0. -1.
        3   -1    0    0  501    0  0.00000000000E+00  0.00000000000E+00 -0.84730573994E+03  0.84730574596E+03  0.10100000352E+00 0.  1.
    10030    2    1    2    0    0  0.00000000000E+00  0.00000000000E+00  0.91730478946E+01  0.17037845398E+04  0.17037598461E+04 0.  0.
        3    1    3    3  502    0  0.80461624845E+03  0.13626137129E+03  0.24897689971E+03  0.85320804929E+03  0.10100000352E+00 0. -1.
       -3    1    3    3    0  502 -0.80461624845E+03 -0.13626137129E+03 -0.23980385182E+03  0.85057649046E+03  0.10100000352E+00 0.  1.
</event>
<event>
 5   0  0.1204741E-04  0.1693198E+04  0.7818609E-02  0.8765253E-01
       -1   -1    0    0    0  501  0.00000000000E+00  0.00000000000E+00  0.71675099556E+03  0.71675099558E+03  0.50400001928E-02 0.  1.
        1   -1    0    0  501    0  0.00000000000E+00  0.00000000000E+00 -0.99997090625E+03  0.99997090627E+03  0.50400001928E-02 0. -1.
    10030    2    1    2    0    0  0.00000000000E+00  0.00000000000E+00 -0.28321991069E+03  0.17167219018E+04  0.16931983258E+04 0.  0.
        1    1    3    3  502    0 -0.66170785192E+03 -0.12544433147E+03 -0.66170501834E+03  0.94416475941E+03  0.50400001928E-02 0. -1.
       -1    1    3    3    0  502  0.66170785192E+03  0.12544433147E+03  0.37848510765E+03  0.77255714244E+03  0.50400001928E-02 0.  1.
</event>
<event>
 5   0  0.2224454E-04  0.1700874E+04  0.7818609E-02  0.8760866E-01
       -2   -1    0    0    0  501  0.00000000000E+00  0.00000000000E+00  0.31428117393E+03  0.31428117394E+03  0.25500000920E-02 0.  1.
        2   -1    0    0  501    0  0.00000000000E+00  0.00000000000E+00 -0.23012618809E+04  0.23012618809E+04  0.25500000920E-02 0. -1.
    10030    2    1    2    0    0  0.00000000000E+00  0.00000000000E+00 -0.19869807069E+04  0.26155430548E+04  0.17008742287E+04 0.  0.
        2    1    3    3  502    0 -0.62049880008E+03  0.12992914350E+03 -0.12177628426E+03  0.64554613054E+03  0.25500000920E-02 0.  1.
       -2    1    3    3    0  502  0.62049880008E+03 -0.12992914350E+03 -0.18652044227E+04  0.19699969243E+04  0.25500000920E-02 0. -1.
</event>
<event>
 5   0  0.2242967E-04  0.1703765E+04  0.7818609E-02  0.8759220E-01
        2   -1    0    0  501    0  0.00000000000E+00  0.00000000000E+00  0.12533048861E+04  0.12533048861E+04  0.25500000920E-02 0.  1.
       -2   -1    0    0    0  501  0.00000000000E+00  0.00000000000E+00 -0.57903217732E+03  0.57903217733E+03  0.25500000920E-02 0. -1.
    10030    2    1    2    0    0  0.00000000000E+00  0.00000000000E+00  0.67427270879E+03  0.18323370634E+04  0.17037650742E+04 0.  0.
        4    1    3    3  502    0 -0.76998511780E+03  0.31971647618E+03  0.14898699040E+03  0.84693237214E+03  0.12699999809E+01 0. -1.
       -4    1    3    3    0  502  0.76998511780E+03 -0.31971647618E+03  0.52528571839E+03  0.98540469129E+03  0.12699999809E+01 0.  1.
</event>
<event>
 5   0  0.2234723E-04  0.1693736E+04  0.7818609E-02  0.8764945E-01
       -2   -1    0    0    0  501  0.00000000000E+00  0.00000000000E+00  0.11859992945E+04  0.11859992945E+04  0.25500000920E-02 0.  1.
        2   -1    0    0  501    0  0.00000000000E+00  0.00000000000E+00 -0.60470972464E+03  0.60470972464E+03  0.25500000920E-02 0. -1.
    10030    2    1    2    0    0  0.00000000000E+00  0.00000000000E+00  0.58128956988E+03  0.17907090192E+04  0.16937358788E+04 0.  0.
        1    1    3    3  502    0  0.48211436930E+03  0.58014576435E+03  0.69762843518E+03  0.10274671803E+04  0.50400001928E-02 0. -1.
       -1    1    3    3    0  502 -0.48211436930E+03 -0.58014576435E+03 -0.11633886530E+03  0.76324183886E+03  0.50400001928E-02 0.  1.
</event>
<event>
 5   0  0.2234723E-04  0.1697777E+04  0.7818609E-02  0.8762633E-01
        2   -1    0    0  501    0  0.00000000000E+00  0.00000000000E+00  0.75233791131E+03  0.75233791132E+03  0.25500000920E-02 0. -1.
       -2   -1    0    0    0  501  0.00000000000E+00  0.00000000000E+00 -0.95782933114E+03  0.95782933114E+03  0.25500000920E-02 0.  1.
    10030    2    1    2    0    0  0.00000000000E+00  0.00000000000E+00 -0.20549141983E+03  0.17101672425E+04  0.16977765676E+04 0.  0.
        1    1    3    3  502    0  0.44187571342E+03 -0.72115411201E+03 -0.29455377104E+02  0.84627715238E+03  0.50400001928E-02 0.  1.
       -1    1    3    3    0  502 -0.44187571342E+03  0.72115411201E+03 -0.17603604273E+03  0.86389009008E+03  0.50400001928E-02 0. -1.
</event>
<event>
 5   0  0.1215233E-04  0.1701056E+04  0.7818609E-02  0.8760762E-01
       -1   -1    0    0    0  501  0.00000000000E+00  0.00000000000E+00  0.15994359846E+04  0.15994359846E+04  0.50400001928E-02 0. -1.
        1   -1    0    0  501    0  0.00000000000E+00  0.00000000000E+00 -0.45228304774E+03  0.45228304777E+03  0.50400001928E-02 0.  1.
    10030    2    1    2    0    0  0.00000000000E+00  0.00000000000E+00  0.11471529369E+04  0.20517190324E+04  0.17010558860E+04 0.  0.
        2    1    3    3  502    0 -0.28502281894E+03  0.51793283767E+03 -0.16395430309E+03  0.61349282405E+03  0.25500000920E-02 0.  1.
       -2    1    3    3    0  502  0.28502281894E+03 -0.51793283767E+03  0.13111072399E+04  0.14382262083E+04  0.25500000920E-02 0. -1.
</event>
<event>
 5   0  0.8372750E-05  0.1505046E+04  0.7818609E-02  0.8881104E-01
        4   -1    0    0  501    0  0.00000000000E+00  0.00000000000E+00  0.80706531325E+03  0.80706631249E+03  0.12699999809E+01 0. -1.
       -4   -1    0    0    0  501  0.00000000000E+00  0.00000000000E+00 -0.70166460383E+03  0.70166575317E+03  0.12699999809E+01 0.  1.
    10030    2    1    2    0    0  0.00000000000E+00  0.00000000000E+00  0.10540070942E+03  0.15087320657E+04  0.15050458918E+04 0.  0.
        4    1    3    3  502    0  0.64318572516E+02  0.40826145788E+03  0.68310851535E+03  0.79840663412E+03  0.12699999809E+01 0. -1.
       -4    1    3    3    0  502 -0.64318572516E+02 -0.40826145788E+03 -0.57770780592E+03  0.71032543154E+03  0.12699999809E+01 0.  1.
</event>
<event>
 5   0  0.2234723E-04  0.1691452E+04  0.7818609E-02  0.8766255E-01
       -2   -1    0    0    0  501  0.00000000000E+00  0.00000000000E+00  0.53790668206E+03  0.53790668206E+03  0.25500000920E-02 0. -1.
        2   -1    0    0  501    0  0.00000000000E+00  0.00000000000E+00 -0.13296958706E+04  0.13296958706E+04  0.25500000920E-02 0.  1.
    10030    2    1    2    0    0  0.00000000000E+00  0.00000000000E+00 -0.79178918854E+03  0.18676025527E+04  0.16914517952E+04 0.  0.
        1    1    3    3  502    0 -0.21046620785E+03 -0.63957800915E+03 -0.96094795822E+03  0.11733614247E+04  0.50400001928E-02 0.  1.
       -1    1    3    3    0  502  0.21046620785E+03  0.63957800915E+03  0.16915876968E+03  0.69424112801E+03  0.50400001928E-02 0. -1.
</event>
<event>
 5   0  0.2356829E-04  0.1685782E+04  0.7818609E-02  0.8769515E-01
        2   -1    0    0  501    0  0.00000000000E+00  0.00000000000E+00  0.69799784841E+03  0.69799784841E+03  0.25500000920E-02 0.  1.
       -2   -1    0    0    0  501  0.00000000000E+00  0.00000000000E+00 -0.10178615966E+04  0.10178615966E+04  0.25500000920E-02 0. -1.
    10030    2    1    2    0    0  0.00000000000E+00  0.00000000000E+00 -0.31986374821E+03  0.17158594450E+04  0.16857819603E+04 0.  0.
        5    1    3    3  502    0  0.75574692474E+03  0.34193553713E+03 -0.76980181841E+01  0.82955088770E+03  0.46999998093E+01 0.  1.
       -5    1    3    3    0  502 -0.75574692474E+03 -0.34193553713E+03 -0.31216573003E+03  0.88630855734E+03  0.46999998093E+01 0. -1.
</event>
<event>
 5   0  0.2242967E-04  0.1702644E+04  0.7818609E-02  0.8759858E-01
       -2   -1    0    0    0  501  0.00000000000E+00  0.00000000000E+00  0.55822667411E+03  0.55822667412E+03  0.25500000920E-02 0. -1.
        2   -1    0    0  501    0  0.00000000000E+00  0.00000000000E+00 -0.12983068946E+04  0.12983068946E+04  0.25500000920E-02 0.  1.
    10030    2    1    2    0    0  0.00000000000E+00  0.00000000000E+00 -0.74008022049E+03  0.18565335687E+04  0.17026444605E+04 0.  0.
        4    1    3    3  502    0 -0.74668861393E+01 -0.26244488716E+03 -0.12530579157E+04  0.12802690445E+04  0.12699999809E+01 0.  1.
       -4    1    3    3    0  502  0.74668861393E+01  0.26244488716E+03  0.51297769524E+03  0.57626452424E+03  0.12699999809E+01 0. -1.
</event>
<event>
 5   0  0.1204741E-04  0.1707614E+04  0.7818609E-02  0.8757034E-01
       -1   -1    0    0    0  501  0.00000000000E+00  0.00000000000E+00  0.83817897335E+03  0.83817897337E+03  0.50400001928E-02 0.  1.
        1   -1    0    0  501    0  0.00000000000E+00  0.00000000000E+00 -0.86972671023E+03  0.86972671024E+03  0.50400001928E-02 0. -1.
    10030    2    1    2    0    0  0.00000000000E+00  0.00000000000E+00 -0.31547736879E+02  0.17079056836E+04  0.17076142903E+04 0.  0.
        1    1    3    3  502    0  0.93261420607E+01  0.82132869707E+03 -0.24887765523E+03  0.85825863984E+03  0.50400001928E-02 0. -1.
       -1    1    3    3    0  502 -0.93261420607E+01 -0.82132869707E+03  0.21732991836E+03  0.84964704377E+03  0.50400001928E-02 0.  1.
</event>
<event>
 5   0  0.2288806E-04  0.1702233E+04  0.7818609E-02  0.8760092E-01
       -2   -1    0    0    0  501  0.00000000000E+00  0.00000000000E+00  0.81982370944E+03  0.81982370944E+03  0.25500000920E-02 0.  1.
        2   -1    0    0  501    0  0.00000000000E+00  0.00000000000E+00 -0.88360335973E+03  0.88360335973E+03  0.25500000920E-02 0. -1.
    10030    2    1    2    0    0  0.00000000000E+00  0.00000000000E+00 -0.63779650290E+02  0.17034270692E+04  0.17022326328E+04 0.  0.
        3    1    3    3  502    0 -0.31633805206E+03 -0.78914948578E+03 -0.71569883979E+02  0.85319923381E+03  0.10100000352E+00 0. -1.
       -3    1    3    3    0  502  0.31633805206E+03  0.78914948578E+03  0.77902336888E+01  0.85022783536E+03  0.10100000352E+00 0.  1.
</event>
<event>
 5   0  0.2234723E-04  0.1719185E+04  0.7818609E-02  0.8750498E-01
        2   -1    0    0  501    0  0.00000000000E+00  0.00000000000E+00  0.93393123822E+03  0.93393123822E+03  0.25500000920E-02 0. -1.
       -2   -1    0    0    0  501  0.00000000000E+00  0.00000000000E+00 -0.79117059938E+03  0.79117059938E+03  0.25500000920E-02 0.  1.
    10030    2    1    2    0    0  0.00000000000E+00  0.00000000000E+00  0.14276063884E+03  0.17251018376E+04  0.17191846178E+04 0.  0.
        1    1    3    3  502    0 -0.40730853362E+03 -0.73637169811E+03  0.24735615630E+03  0.87711378248E+03  0.50400001928E-02 0. -1.
       -1    1    3    3    0  502  0.40730853362E+03  0.73637169811E+03 -0.10459551746E+03  0.84798805512E+03  0.50400001928E-02 0.  1.
</event>
<event>
 5   0  0.1126958E-04  0.1703857E+04  0.7818609E-02  0.8759167E-01
        1   -1    0    0  501    0  0.00000000000E+00  0.00000000000E+00  0.82875119048E+03  0.82875119049E+03  0.50400001928E-02 0.  1.
       -1   -1    0    0    0  501  0.00000000000E+00  0.00000000000E+00 -0.87575425937E+03  0.87575425938E+03  0.50400001928E-02 0. -1.
    10030    2    1    2    0    0  0.00000000000E+00  0.00000000000E+00 -0.47003068891E+02  0.17045054499E+04  0.17038572535E+04 0.  0.
        4    1    3    3  502    0 -0.75415871833E+03 -0.38893746598E+03  0.52376165548E+02  0.85016033810E+03  0.12699999809E+01 0. -1.
       -4    1    3    3    0  502  0.75415871833E+03  0.38893746598E+03 -0.99379234439E+02  0.85434511177E+03  0.12699999809E+01 0.  1.
</event>
<event>
 5   0  0.2288806E-04  0.1700826E+04  0.7818609E-02  0.8760893E-01
       -2   -1    0    0    0  501  0.00000000000E+00  0.00000000000E+00  0.49091050897E+03  0.49091050898E+03  0.25500000920E-02 0.  1.
        2   -1    0    0  501    0  0.00000000000E+00  0.00000000000E+00 -0.14731863127E+04  0.14731863127E+04  0.25500000920E-02 0. -1.
    10030    2    1    2    0    0  0.00000000000E+00  0.00000000000E+00 -0.98227580370E+03  0.19640968216E+04  0.17008264374E+04 0.  0.
        3    1    3    3  502    0 -0.42027440183E+03 -0.23374414057E+03  0.31880999371E+03  0.57698069151E+03  0.10100000352E+00 0.  1.
       -3    1    3    3    0  502  0.42027440183E+03  0.23374414057E+03 -0.13010857974E+04  0.13871161301E+04  0.10100000352E+00 0. -1.
</event>
<event>
 5   0  0.2234723E-04  0.1697819E+04  0.7818609E-02  0.8762609E-01
        2   -1    0    0  501    0  0.00000000000E+00  0.00000000000E+00  0.13311002085E+04  0.13311002085E+04  0.25500000920E-02 0.  1.
       -2   -1    0    0    0  501  0.00000000000E+00  0.00000000000E+00 -0.54139252374E+03  0.54139252375E+03  0.25500000920E-02 0. -1.
    10030    2    1    2    0    0  0.00000000000E+00  0.00000000000E+00  0.78970768477E+03  0.18724927323E+04  0.16978194265E+04 0.  0.
        1    1    3    3  502    0 -0.37900951976E+03  0.44209327350E+03  0.10761031776E+04  0.12235574066E+04  0.50400001928E-02 0.  1.
       -1    1    3    3    0  502  0.37900951976E+03 -0.44209327350E+03 -0.28639549279E+03  0.64893532564E+03  0.50400001928E-02 0. -1.
</event>
<event>
 5   0  0.1215233E-04  0.1720144E+04  0.7818609E-02  0.8749958E-01
        1   -1    0    0  501    0  0.00000000000E+00  0.00000000000E+00  0.10742119281E+04  0.10742119281E+04  0.50400001928E-02 0.  1.
       -1   -1    0    0    0  501  0.00000000000E+00  0.00000000000E+00 -0.68861967603E+03  0.68861967605E+03  0.50400001928E-02 0. -1.
    10030    2    1    2    0    0  0.00000000000E+00  0.00000000000E+00  0.38559225203E+03  0.17628316041E+04  0.17201435637E+04 0.  0.
        2    1    3    3  502    0  0.32824737368E+03  0.22763511344E+03  0.97338039519E+03  0.10521565839E+04  0.25500000920E-02 0.  1.
       -2    1    3    3    0  502 -0.32824737368E+03 -0.22763511344E+03 -0.58778814315E+03  0.71067502027E+03  0.25500000920E-02 0. -1.
</event>
<event>
 5   0  0.2356829E-04  0.1651999E+04  0.7818609E-02  0.8789225E-01
        2   -1    0    0  501    0  0.00000000000E+00  0.00000000000E+00  0.18373909742E+04  0.18373909742E+04  0.25500000920E-02 0.  1.
       -2   -1    0    0    0  501  0.00000000000E+00  0.00000000000E+00 -0.37132812535E+03  0.37132812536E+03  0.25500000920E-02 0. -1.
    10030    2    1    2    0    0  0.00000000000E+00  0.00000000000E+00  0.14660628489E+04  0.22087190996E+04  0.16519987240E+04 0.  0.
        5    1    3    3  502    0 -0.12936354965E+02 -0.26731935085E+03  0.17777958577E+04  0.17978340263E+04  0.46999998093E+01 0.  1.
       -5    1    3    3    0  502  0.12936354965E+02  0.26731935085E+03 -0.31173300883E+03  0.41088507323E+03  0.46999998093E+01 0. -1.
</event>
<event>
 5   0  0.1204741E-04  0.1692707E+04  0.7818609E-02  0.8765535E-01
       -1   -1    0    0    0  501  0.00000000000E+00  0.00000000000E+00  0.43747095135E+03  0.43747095138E+03  0.50400001928E-02 0. -1.
        1   -1    0    0  501    0  0.00000000000E+00  0.00000000000E+00 -0.16373991156E+04  0.16373991156E+04  0.50400001928E-02 0.  1.
    10030    2    1    2    0    0  0.00000000000E+00  0.00000000000E+00 -0.11999281642E+04  0.20748700670E+04  0.16927073567E+04 0.  0.
        1    1    3    3  502    0  0.38495963399E+03 -0.28187353788E+03  0.25690790736E+03  0.54189324045E+03  0.50400001928E-02 0. -1.
       -1    1    3    3    0  502 -0.38495963399E+03  0.28187353788E+03 -0.14568360716E+04  0.15329768265E+04  0.50400001928E-02 0.  1.
</event>
<event>
 5   0  0.2234723E-04  0.1714409E+04  0.7818609E-02  0.8753189E-01
       -2   -1    0    0    0  501  0.00000000000E+00  0.00000000000E+00  0.10681619254E+04  0.10681619254E+04  0.25500000920E-02 0. -1.
        2   -1    0    0  501    0  0.00000000000E+00  0.00000000000E+00 -0.68791032149E+03  0.68791032150E+03  0.25500000920E-02 0.  1.
    10030    2    1    2    0    0  0.00000000000E+00  0.00000000000E+00  0.38025160388E+03  0.17560722469E+04  0.17144090684E+04 0.  0.
        1    1    3    3  502    0 -0.35084293377E+03 -0.58450664990E+03  0.72242856376E+03  0.99329845350E+03  0.50400001928E-02 0. -1.
       -1    1    3    3    0  502  0.35084293377E+03  0.58450664990E+03 -0.34217695988E+03  0.76277379337E+03  0.50400001928E-02 0.  1.
</event>
<event>
 5   0  0.2224454E-04  0.1725828E+04  0.7818609E-02  0.8746769E-01
        2   -1    0    0  501    0  0.00000000000E+00  0.00000000000E+00  0.18076380600E+04  0.18076380600E+04  0.25500000920E-02 0. -1.
       -2   -1    0    0    0  501  0.00000000000E+00  0.00000000000E+00 -0.41193010521E+03  0.41193010521E+03  0.25500000920E-02 0.  1.
    10030    2    1    2    0    0  0.00000000000E+00  0.00000000000E+00  0.13957079548E+04  0.22195681652E+04  0.17258279592E+04 0.  0.
        2    1    3    3  502    0 -0.69518743453E+02 -0.61936991632E+03 -0.69682091653E+02  0.62714236250E+03  0.25500000920E-02 0.  1.
       -2    1    3    3    0  502  0.69518743453E+02  0.61936991632E+03  0.14653900464E+04  0.15924258027E+04  0.25500000920E-02 0. -1.
</event>
<event>
 5   0  0.1234158E-04  0.1674555E+04  0.7818609E-02  0.8776011E-01
        1   -1    0    0  501    0  0.00000000000E+00  0.00000000000E+00  0.14360910583E+04  0.14360910583E+04  0.50400001928E-02 0.  1.
       -1   -1    0    0    0  501  0.00000000000E+00  0.00000000000E+00 -0.48815397225E+03  0.48815397227E+03  0.50400001928E-02 0. -1.
    10030    2    1    2    0    0  0.00000000000E+00  0.00000000000E+00  0.94793708601E+03  0.19242450305E+04  0.16745549315E+04 0.  0.
        5    1    3    3  502    0  0.77010704846E+03  0.17708493426E+03  0.15595911805E+03  0.80546215090E+03  0.46999998093E+01 0. -1.
       -5    1    3    3    0  502 -0.77010704846E+03 -0.17708493426E+03  0.79197796796E+03  0.11187828796E+04  0.46999998093E+01 0.  1.
</event>
<event>
 5   0  0.1186302E-04  0.1706769E+04  0.7818609E-02  0.8757513E-01
        1   -1    0    0  501    0  0.00000000000E+00  0.00000000000E+00  0.13440059607E+04  0.13440059607E+04  0.50400001928E-02 0. -1.
       -1   -1    0    0    0  501  0.00000000000E+00  0.00000000000E+00 -0.54186124819E+03  0.54186124821E+03  0.50400001928E-02 0.  1.
    10030    2    1    2    0    0  0.00000000000E+00  0.00000000000E+00  0.80214471252E+03  0.18858672089E+04  0.17067685812E+04 0.  0.
        3    1    3    3  502    0 -0.47972830788E+02  0.28185599920E+03 -0.48736668175E+03  0.56504025473E+03  0.10100000352E+00 0.  1.
       -3    1    3    3    0  502  0.47972830788E+02 -0.28185599920E+03  0.12895113943E+04  0.13208269542E+04  0.10100000352E+00 0. -1.
</event>
<event>
 5   0  0.2234723E-04  0.1693232E+04  0.7818609E-02  0.8765234E-01
       -2   -1    0    0    0  501  0.00000000000E+00  0.00000000000E+00  0.57701371528E+03  0.57701371528E+03  0.25500000920E-02 0.  1.
        2   -1    0    0  501    0  0.00000000000E+00  0.00000000000E+00 -0.12421868664E+04  0.12421868664E+04  0.25500000920E-02 0. -1.
    10030    2    1    2    0    0  0.00000000000E+00  0.00000000000E+00 -0.66517315116E+03  0.18192005817E+04  0.16932322450E+04 0.  0.
        1    1    3    3  502    0  0.38614970635E+03  0.67437874491E+03  0.28353561158E+02  0.77762601021E+03  0.50400001928E-02 0.  1.
       -1    1    3    3    0  502 -0.38614970635E+03 -0.67437874491E+03 -0.69352671232E+03  0.10415745715E+04  0.50400001928E-02 0. -1.
</event>
<event>
 5   0  0.2356829E-04  0.1661385E+04  0.7818609E-02  0.8783700E-01
       -2   -1    0    0    0  501  0.00000000000E+00  0.00000000000E+00  0.12204695577E+04  0.12204695577E+04  0.25500000920E-02 0.  1.
        2   -1    0    0  501    0  0.00000000000E+00  0.00000000000E+00 -0.56539691977E+03  0.56539691977E+03  0.25500000920E-02 0. -1.
    10030    2    1    2    0    0  0.00000000000E+00  0.00000000000E+00  0.65507263791E+03  0.17858664775E+04  0.16613846377E+04 0.  0.
        5    1    3    3  502    0 -0.58911819035E+03  0.18321794233E+03  0.92544926145E+03  0.11122533354E+04  0.46999998093E+01 0.  1.
       -5    1    3    3    0  502  0.58911819035E+03 -0.18321794233E+03 -0.27037662354E+03  0.67361314205E+03  0.46999998093E+01 0. -1.
</event>
<event>
 5   0  0.1234158E-04  0.1695590E+04  0.7818609E-02  0.8763883E-01
        1   -1    0    0  501    0  0.00000000000E+00  0.00000000000E+00  0.12952082913E+04  0.12952082913E+04  0.50400001928E-02 0. -1.
       -1   -1    0    0    0  501  0.00000000000E+00  0.00000000000E+00 -0.55493520590E+03  0.55493520593E+03  0.50400001928E-02 0.  1.
    10030    2    1    2    0    0  0.00000000000E+00  0.00000000000E+00  0.74027308537E+03  0.18501434972E+04  0.16955903749E+04 0.  0.
        5    1    3    3  502    0  0.79060921874E+03 -0.15608941488E+02  0.70365742395E+03  0.10585189824E+04  0.46999998093E+01 0.  1.
       -5    1    3    3    0  502 -0.79060921874E+03  0.15608941488E+02  0.36615661425E+02  0.79162451482E+03  0.46999998093E+01 0. -1.
</event>
<event>
 5   0  0.2234723E-04  0.1644354E+04  0.7818609E-02  0.8793753E-01
        2   -1    0    0  501    0  0.00000000000E+00  0.00000000000E+00  0.79631236133E+03  0.79631236134E+03  0.25500000920E-02 0. -1.
       -2   -1    0    0    0  501  0.00000000000E+00  0.00000000000E+00 -0.84888202539E+03  0.84888202539E+03  0.25500000920E-02 0.  1.
    10030    2    1    2    0    0  0.00000000000E+00  0.00000000000E+00 -0.52569664057E+02  0.16451943867E+04  0.16443542807E+04 0.  0.
        1    1    3    3  502    0 -0.49815956420E+03  0.39052418859E+03 -0.55124629278E+03  0.83937153192E+03  0.50400001928E-02 0. -1.
       -1    1    3    3    0  502  0.49815956420E+03 -0.39052418859E+03  0.49867662872E+03  0.80582285481E+03  0.50400001928E-02 0.  1.
</event>
<event>
 5   0  0.1204741E-04  0.1698791E+04  0.7818609E-02  0.8762054E-01
        1   -1    0    0  501    0  0.00000000000E+00  0.00000000000E+00  0.69311555014E+03  0.69311555016E+03  0.50400001928E-02 0.  1.
       -1   -1    0    0    0  501  0.00000000000E+00  0.00000000000E+00 -0.10409131320E+04  0.10409131320E+04  0.50400001928E-02 0. -1.
    10030    2    1    2    0    0  0.00000000000E+00  0.00000000000E+00 -0.34779758183E+03  0.17340286822E+04  0.16987914270E+04 0.  0.
        1    1    3    3  502    0 -0.65614160964E+03 -0.29397026787E+03  0.28773505482E+03  0.77442352243E+03  0.50400001928E-02 0. -1.
       -1    1    3    3    0  502  0.65614160964E+03  0.29397026787E+03 -0.63553263666E+03  0.95960515973E+03  0.50400001928E-02 0.  1.
</event>
<event>
 5   0  0.2288806E-04  0.1697887E+04  0.7818609E-02  0.8762570E-01
       -2   -1    0    0    0  501  0.00000000000E+00  0.00000000000E+00  0.79859656225E+03  0.79859656226E+03  0.25500000920E-02 0.  1.
        2   -1    0    0  501    0  0.00000000000E+00  0.00000000000E+00 -0.90246464936E+03  0.90246464936E+03  0.25500000920E-02 0. -1.
    10030    2    1    2    0    0  0.00000000000E+00  0.00000000000E+00 -0.10386808711E+03  0.17010612116E+04  0.16978871182E+04 0.  0.
        3    1    3    3  502    0  0.59017478059E+03  0.27840864537E+03 -0.59598467433E+03  0.88375074975E+03  0.10100000352E+00 0. -1.
       -3    1    3    3    0  502 -0.59017478059E+03 -0.27840864537E+03  0.49211658722E+03  0.81731046187E+03  0.10100000352E+00 0.  1.
</event>
<event>
 5   0  0.2242967E-04  0.1699828E+04  0.7818609E-02  0.8761462E-01
       -2   -1    0    0    0  501  0.00000000000E+00  0.00000000000E+00  0.25730365257E+03  0.25730365259E+03  0.25500000920E-02 0. -1.
        2   -1    0    0  501    0  0.00000000000E+00  0.00000000000E+00 -0.28073991858E+04  0.28073991858E+04  0.25500000920E-02 0.  1.
    10030    2    1    2    0    0  0.00000000000E+00  0.00000000000E+00 -0.25500955332E+04  0.30647028383E+04  0.16998283028E+04 0.  0.
        4    1    3    3  502    0  0.29143231346E+03 -0.53361567020E+03 -0.20434229795E+03  0.64143266556E+03  0.12699999809E+01 0. -1.
       -4    1    3    3    0  502 -0.29143231346E+03  0.53361567020E+03 -0.23457532352E+04  0.24232701728E+04  0.12699999809E+01 0.  1.
</event>
<event>
 5   0  0.2224454E-04  0.1696948E+04  0.7818609E-02  0.8763107E-01
        2   -1    0    0  501    0  0.00000000000E+00  0.00000000000E+00  0.84885729232E+03  0.84885729232E+03  0.25500000920E-02 0. -1.
       -2   -1    0    0    0  501  0.00000000000E+00  0.00000000000E+00 -0.84809082579E+03  0.84809082579E+03  0.25500000920E-02 0.  1.
    10030    2    1    2    0    0  0.00000000000E+00  0.00000000000E+00  0.76646652921E+00  0.16969481181E+04  0.16969479450E+04 0.  0.
        2    1    3    3  502    0 -0.20069185364E+03 -0.23243083410E+03 -0.79056992394E+03  0.84811680646E+03  0.25500000920E-02 0.  1.
       -2    1    3    3    0  502  0.20069185364E+03  0.23243083410E+03  0.79133639047E+03  0.84883131165E+03  0.25500000920E-02 0. -1.
</event>
<event>
 5   0  0.2224454E-04  0.1691488E+04  0.7818609E-02  0.8766234E-01
       -2   -1    0    0    0  501  0.00000000000E+00  0.00000000000E+00  0.58619871635E+03  0.58619871635E+03  0.25500000920E-02 0.  1.
        2   -1    0    0  501    0  0.00000000000E+00  0.00000000000E+00 -0.12202049932E+04  0.12202049932E+04  0.25500000920E-02 0. -1.
    10030    2    1    2    0    0  0.00000000000E+00  0.00000000000E+00 -0.63400627683E+03  0.18064037095E+04  0.16914876301E+04 0.  0.
        2    1    3    3  502    0 -0.16367977347E+03  0.38578967751E+03  0.46751907070E+03  0.62785255036E+03  0.25500000920E-02 0.  1.
       -2    1    3    3    0  502  0.16367977347E+03 -0.38578967751E+03 -0.11015253475E+04  0.11785511592E+04  0.25500000920E-02 0. -1.
</event>
<event>
 5   0  0.2234723E-04  0.1693788E+04  0.7818609E-02  0.8764915E-01
       -2   -1    0    0    0  501  0.00000000000E+00  0.00000000000E+00  0.47552103108E+03  0.47552103109E+03  0.25500000920E-02 0. -1.
        2   -1    0    0  501    0  0.00000000000E+00  0.00000000000E+00 -0.15083027551E+04  0.15083027551E+04  0.25500000920E-02 0.  1.
    10030    2    1    2    0    0  0.00000000000E+00  0.00000000000E+00 -0.10327817240E+04  0.19838237862E+04  0.16937882764E+04 0.  0.
        1    1    3    3  502    0  0.30721967613E+02  0.84479236097E+03 -0.57624667714E+03  0.10230729228E+04  0.50400001928E-02 0.  1.
       -1    1    3    3    0  502 -0.30721967613E+02 -0.84479236097E+03 -0.45653504689E+03  0.96075086339E+03  0.50400001928E-02 0. -1.
</event>
<event>
 5   0  0.1234158E-04  0.1708916E+04  0.7818609E-02  0.8756295E-01
        1   -1    0    0  501    0  0.00000000000E+00  0.00000000000E+00  0.87592222427E+03  0.87592222428E+03  0.50400001928E-02 0.  1.
       -1   -1    0    0    0  501  0.00000000000E+00  0.00000000000E+00 -0.83352001908E+03  0.83352001910E+03  0.50400001928E-02 0. -1.
    10030    2    1    2    0    0  0.00000000000E+00  0.00000000000E+00  0.42402205185E+02  0.17094422434E+04  0.17089162754E+04 0.  0.
        5    1    3    3  502    0 -0.72223494284E+03 -0.40289662498E+03 -0.19363840632E+03  0.84939209172E+03  0.46999998093E+01 0. -1.
       -5    1    3    3    0  502  0.72223494284E+03  0.40289662498E+03  0.23604061151E+03  0.86005015165E+03  0.46999998093E+01 0.  1.
</event>
<event>
 5   0  0.1204741E-04  0.1694671E+04  0.7818609E-02  0.8764410E-01
       -1   -1    0    0    0  501  0.00000000000E+00  0.00000000000E+00  0.82177955149E+03  0.82177955151E+03  0.50400001928E-02 0. -1.
        1   -1    0    0  501    0  0.00000000000E+00  0.00000000000E+00 -0.87368598696E+03  0.87368598698E+03  0.50400001928E-02 0.  1.
    10030    2    1    2    0    0  0.00000000000E+00  0.00000000000E+00 -0.51906435471E+02  0.16954655385E+04  0.16946707982E+04 0.  0.
        1    1    3    3  502    0  0.29502889034E+03 -0.63652773648E+03 -0.50132620470E+03  0.86228624539E+03  0.50400001928E-02 0.  1.
       -1    1    3    3    0  502 -0.29502889034E+03  0.63652773648E+03  0.44941976923E+03  0.83317929309E+03  0.50400001928E-02 0. -1.
</event>
<event>
 5   0  0.2234723E-04  0.1706649E+04  0.7818609E-02  0.8757581E-01
       -2   -1    0    0    0  501  0.00000000000E+00  0.00000000000E+00  0.38224454513E+03  0.38224454514E+03  0.25500000920E-02 0. -1.
        2   -1    0    0  501    0  0.00000000000E+00  0.00000000000E+00 -0.19049663765E+04  0.19049663765E+04  0.25500000920E-02 0.  1.
    10030    2    1    2    0    0  0.00000000000E+00  0.00000000000E+00 -0.15227218314E+04  0.22872109217E+04  0.17066493560E+04 0.  0.
        1    1    3    3  502    0  0.17383757478E+02  0.49283449030E+03 -0.16946615912E+04  0.17649549395E+04  0.50400001928E-02 0.  1.
       -1    1    3    3    0  502 -0.17383757478E+02 -0.49283449030E+03  0.17193975980E+03  0.52225598214E+03  0.50400001928E-02 0. -1.
</event>
<event>
 5   0  0.1215233E-04  0.1699368E+04  0.7818609E-02  0.8761725E-01
        1   -1    0    0  501    0  0.00000000000E+00  0.00000000000E+00  0.12569077722E+04  0.12569077722E+04  0.50400001928E-02 0. -1.
       -1   -1    0    0    0  501  0.00000000000E+00  0.00000000000E+00 -0.57439578649E+03  0.57439578651E+03  0.50400001928E-02 0.  1.
    10030    2    1    2    0    0  0.00000000000E+00  0.00000000000E+00  0.68251198572E+03  0.18313035587E+04  0.16993675628E+04 0.  0.
        2    1    3    3  502    0  0.80426523051E+03 -0.21586909512E+03  0.52324769687E+03  0.98347861162E+03  0.25500000920E-02 0.  1.
       -2    1    3    3    0  502 -0.80426523051E+03  0.21586909512E+03  0.15926428884E+03  0.84782494711E+03  0.25500000920E-02 0. -1.
</event>
<event>
 5   0  0.1186302E-04  0.1783755E+04  0.7818609E-02  0.8714986E-01
       -1   -1    0    0    0  501  0.00000000000E+00  0.00000000000E+00  0.84941875284E+03  0.84941875286E+03  0.50400001928E-02 0. -1.
        1   -1    0    0  501    0  0.00000000000E+00  0.00000000000E+00 -0.93645906508E+03  0.93645906510E+03  0.50400001928E-02 0.  1.
    10030    2    1    2    0    0  0.00000000000E+00  0.00000000000E+00 -0.87040312240E+02  0.17858778180E+04  0.17837554666E+04 0.  0.
        3    1    3    3  502    0 -0.13847875939E+03  0.60932781100E+03 -0.68066490901E+03  0.92399214099E+03  0.10100000352E+00 0.  1.
       -3    1    3    3    0  502  0.13847875939E+03 -0.60932781100E+03  0.59362459677E+03  0.86188567696E+03  0.10100000352E+00 0. -1.
</event>
<event>
 5   0  0.1126958E-04  0.1701419E+04  0.7818609E-02  0.8760555E-01
       -1   -1    0    0    0  501  0.00000000000E+00  0.00000000000E+00  0.11507686074E+04  0.11507686074E+04  0.50400001928E-02 0.  1.
        1   -1    0    0  501    0  0.00000000000E+00  0.00000000000E+00 -0.62889011132E+03  0.62889011134E+03  0.50400001928E-02 0. -1.
    10030    2    1    2    0    0  0.00000000000E+00  0.00000000000E+00  0.52187849605E+03  0.17796587187E+04  0.17014194046E+04 0.  0.
        4    1    3    3  502    0  0.60453764356E+03  0.51588476484E+03  0.57837886681E+03  0.98291738185E+03  0.12699999809E+01 0.  1.
       -4    1    3    3    0  502 -0.60453764356E+03 -0.51588476484E+03 -0.56500370762E+02  0.79674133686E+03  0.12699999809E+01 0. -1.
</event>
<event>
 5   0  0.2234723E-04  0.1708137E+04  0.7818609E-02  0.8756737E-01
       -2   -1    0    0    0  501  0.00000000000E+00  0.00000000000E+00  0.77018994970E+03  0.77018994970E+03  0.25500000920E-02 0. -1.
        2   -1    0    0  501    0  0.00000000000E+00  0.00000000000E+00 -0.94708165117E+03  0.94708165117E+03  0.25500000920E-02 0.  1.
    10030    2    1    2    0    0  0.00000000000E+00  0.00000000000E+00 -0.17689170147E+03  0.17172716009E+04  0.17081367267E+04 0.  0.
        1    1    3    3  502    0 -0.33133094563E+03  0.24755163012E+03  0.66279240004E+03  0.78125269323E+03  0.50400001928E-02 0. -1.
       -1    1    3    3    0  502  0.33133094563E+03 -0.24755163012E+03 -0.83968410151E+03  0.93601890764E+03  0.50400001928E-02 0.  1.
</event>
<event>
 5   0  0.1215233E-04  0.1727247E+04  0.7818609E-02  0.8745975E-01
        1   -1    0    0  501    0  0.00000000000E+00  0.00000000000E+00  0.83938301993E+03  0.83938301995E+03  0.50400001928E-02 0.  1.
       -1   -1    0    0    0  501  0.00000000000E+00  0.00000000000E+00 -0.88856448506E+03  0.88856448508E+03  0.50400001928E-02 0. -1.
    10030    2    1    2    0    0  0.00000000000E+00  0.00000000000E+00 -0.49181465131E+02  0.17279475050E+04  0.17272474529E+04 0.  0.
        2    1    3    3  502    0 -0.23909510148E+03  0.71497695771E+03  0.39687257957E+03  0.85197791171E+03  0.25500000920E-02 0.  1.
       -2    1    3    3    0  502  0.23909510148E+03 -0.71497695771E+03 -0.44605404471E+03  0.87596959332E+03  0.25500000920E-02 0. -1.
</event>
<event>
 5   0  0.1186302E-04  0.1706736E+04  0.7818609E-02  0.8757532E-01
       -1   -1    0    0    0  501  0.00000000000E+00  0.00000000000E+00  0.10790413951E+04  0.10790413951E+04  0.50400001928E-02 0.  1.
        1   -1    0    0  501    0  0.00000000000E+00  0.00000000000E+00 -0.67489217855E+03  0.67489217857E+03  0.50400001928E-02 0. -1.
    10030    2    1    2    0    0  0.00000000000E+00  0.00000000000E+00  0.40414921653E+03  0.17539335737E+04  0.17067355951E+04 0.  0.
        3    1    3    3  502    0 -0.43539463654E+03 -0.72783857556E+03  0.10502192201E+03  0.85460347291E+03  0.10100000352E+00 0. -1.
       -3    1    3    3    0  502  0.43539463654E+03  0.72783857556E+03  0.29912729452E+03  0.89933010076E+03  0.10100000352E+00 0.  1.
</event>
<event>
 5   0  0.1234158E-04  0.1503022E+04  0.7818609E-02  0.8882446E-01
       -1   -1    0    0    0  501  0.00000000000E+00  0.00000000000E+00  0.53619982325E+03  0.53619982327E+03  0.50400001928E-02 0. -1.
        1   -1    0    0  501    0  0.00000000000E+00  0.00000000000E+00 -0.10532798712E+04  0.10532798712E+04  0.50400001928E-02 0.  1.
    10030    2    1    2    0    0  0.00000000000E+00  0.00000000000E+00 -0.51708004793E+03  0.15894796945E+04  0.15030215977E+04 0.  0.
        5    1    3    3  502    0 -0.50638221894E+03  0.49041942666E+03 -0.53392723031E+03  0.88432716964E+03  0.46999998093E+01 0.  1.
       -5    1    3    3    0  502  0.50638221894E+03 -0.49041942666E+03  0.16847182380E+02  0.70515252481E+03  0.46999998093E+01 0. -1.
</event>
<event>
 5   0  0.2234723E-04  0.1701852E+04  0.7818609E-02  0.8760309E-01
       -2   -1    0    0    0  501  0.00000000000E+00  0.00000000000E+00  0.73894735849E+03  0.73894735849E+03  0.25500000920E-02 0.  1.
        2   -1    0    0  501    0  0.00000000000E+00  0.00000000000E+00 -0.97987397569E+03  0.97987397570E+03  0.25500000920E-02 0. -1.
    10030    2    1    2    0    0  0.00000000000E+00  0.00000000000E+00 -0.24092661720E+03  0.17188213342E+04  0.17018522686E+04 0.  0.
        1    1    3    3  502    0  0.25593464620E+03 -0.42778201609E+03 -0.81695913468E+03  0.95703825638E+03  0.50400001928E-02 0. -1.
       -1    1    3    3    0  502 -0.25593464620E+03  0.42778201609E+03  0.57603251748E+03  0.76178307781E+03  0.50400001928E-02 0.  1.
</event>
<event>
 5   0  0.1234158E-04  0.1709772E+04  0.7818609E-02  0.8755811E-01
       -1   -1    0    0    0  501  0.00000000000E+00  0.00000000000E+00  0.16366385801E+04  0.16366385801E+04  0.50400001928E-02 0.  1.
        1   -1    0    0  501    0  0.00000000000E+00  0.00000000000E+00 -0.44654330507E+03  0.44654330510E+03  0.50400001928E-02 0. -1.
    10030    2    1    2    0    0  0.00000000000E+00  0.00000000000E+00  0.11900952751E+04  0.20831818852E+04  0.17097719156E+04 0.  0.
        5    1    3    3  502    0  0.67993450643E+03  0.70600398320E+02 -0.30398151100E+02  0.68428173062E+03  0.46999998093E+01 0. -1.
       -5    1    3    3    0  502 -0.67993450643E+03 -0.70600398320E+02  0.12204934262E+04  0.13989001546E+04  0.46999998093E+01 0.  1.
</event>
<event>
 5   0  0.2224454E-04  0.1743244E+04  0.7818609E-02  0.8737078E-01
        2   -1    0    0  501    0  0.00000000000E+00  0.00000000000E+00  0.15511622535E+04  0.15511622535E+04  0.25500000920E-02 0.  1.
       -2   -1    0    0    0  501  0.00000000000E+00  0.00000000000E+00 -0.48977759699E+03  0.48977759700E+03  0.25500000920E-02 0. -1.
    10030    2    1    2    0    0  0.00000000000E+00  0.00000000000E+00  0.10613846565E+04  0.20409398505E+04  0.17432435528E+04 0.  0.
        2    1    3    3  502    0  0.66493463281E+03  0.54996261018E+03  0.67469047528E+03  0.10953557303E+04  0.25500000920E-02 0. -1.
       -2    1    3    3    0  502 -0.66493463281E+03 -0.54996261018E+03  0.38669418121E+03  0.94558412016E+03  0.25500000920E-02 0.  1.
</event>
<event>
 5   0  0.1215233E-04  0.1695447E+04  0.7818609E-02  0.8763965E-01
       -1   -1    0    0    0  501  0.00000000000E+00  0.00000000000E+00  0.29967408095E+03  0.29967408099E+03  0.50400001928E-02 0. -1.
        1   -1    0    0  501    0  0.00000000000E+00  0.00000000000E+00 -0.23980565039E+04  0.23980565039E+04  0.50400001928E-02 0.  1.
    10030    2    1    2    0    0  0.00000000000E+00  0.00000000000E+00 -0.20983824230E+04  0.26977305849E+04  0.16954472908E+04 0.  0.
        2    1    3    3  502    0 -0.71946251313E+03 -0.42791611440E+03 -0.12620555095E+04  0.15144380535E+04  0.25500000920E-02 0.  1.
       -2    1    3    3    0  502  0.71946251313E+03  0.42791611440E+03 -0.83632691347E+03  0.11832925314E+04  0.25500000920E-02 0. -1.
</event>
<event>
 5   0  0.2356829E-04  0.1696397E+04  0.7818609E-02  0.8763422E-01
        2   -1    0    0  501    0  0.00000000000E+00  0.00000000000E+00  0.85983722086E+03  0.85983722086E+03  0.25500000920E-02 0. -1.
       -2   -1    0    0    0  501  0.00000000000E+00  0.00000000000E+00 -0.83671720136E+03  0.83671720136E+03  0.25500000920E-02 0.  1.
    10030    2    1    2    0    0  0.00000000000E+00  0.00000000000E+00  0.23120019500E+02  0.16965544222E+04  0.16963968793E+04 0.  0.
        5    1    3    3  502    0  0.43976953155E+03 -0.71241479346E+03 -0.12441740765E+03  0.84642416089E+03  0.46999998093E+01 0. -1.
       -5    1    3    3    0  502 -0.43976953155E+03  0.71241479346E+03  0.14753742715E+03  0.85013026133E+03  0.46999998093E+01 0.  1.
</event>
<event>
 5   0  0.2242967E-04  0.1688999E+04  0.7818609E-02  0.8767663E-01
       -2   -1    0    0    0  501  0.00000000000E+00  0.00000000000E+00  0.94087683465E+03  0.94087683466E+03  0.25500000920E-02 0.  1.
        2   -1    0    0  501    0  0.00000000000E+00  0.00000000000E+00 -0.75799471734E+03  0.75799471735E+03  0.25500000920E-02 0. -1.
    10030    2    1    2    0    0  0.00000000000E+00  0.00000000000E+00  0.18288211731E+03  0.16988715520E+04  0.16889993136E+04 0.  0.
        4    1    3    3  502    0 -0.75961899645E+03  0.14523267666E+03 -0.24975323730E+03  0.81270649227E+03  0.12699999809E+01 0. -1.
       -4    1    3    3    0  502  0.75961899645E+03 -0.14523267666E+03  0.43263535461E+03  0.88616505973E+03  0.12699999809E+01 0.  1.
</event>
<event>
 5   0  0.2242967E-04  0.1695997E+04  0.7818609E-02  0.8763651E-01
       -2   -1    0    0    0  501  0.00000000000E+00  0.00000000000E+00  0.80029591710E+03  0.80029591711E+03  0.25500000920E-02 0.  1.
        2   -1    0    0  501    0  0.00000000000E+00  0.00000000000E+00 -0.89854479567E+03  0.89854479568E+03  0.25500000920E-02 0. -1.
    10030    2    1    2    0    0  0.00000000000E+00  0.00000000000E+00 -0.98248878570E+02  0.16988407128E+04  0.16959973247E+04 0.  0.
        4    1    3    3  502    0  0.49657397974E+03  0.63637689745E+03  0.21119362946E+03  0.83436540855E+03  0.12699999809E+01 0. -1.
       -4    1    3    3    0  502 -0.49657397974E+03 -0.63637689745E+03 -0.30944250803E+03  0.86447530424E+03  0.12699999809E+01 0.  1.
</event>
<event>
 5   0  0.1234158E-04  0.1699823E+04  0.7818609E-02  0.8761465E-01
        1   -1    0    0  501    0  0.00000000000E+00  0.00000000000E+00  0.14319085198E+04  0.14319085198E+04  0.50400001928E-02 0. -1.
       -1   -1    0    0    0  501  0.00000000000E+00  0.00000000000E+00 -0.50446646100E+03  0.50446646102E+03  0.50400001928E-02 0.  1.
    10030    2    1    2    0    0  0.00000000000E+00  0.00000000000E+00  0.92744205883E+03  0.19363749809E+04  0.16998233126E+04 0.  0.
        5    1    3    3  502    0  0.45617035131E+02  0.29023860192E+03 -0.44476258407E+03  0.53306210344E+03  0.46999998093E+01 0.  1.
       -5    1    3    3    0  502 -0.45617035131E+02 -0.29023860192E+03  0.13722046429E+04  0.14033128774E+04  0.46999998093E+01 0. -1.
</event>
<event>
 5   0  0.8372750E-05  0.1688318E+04  0.7818609E-02  0.8768055E-01
       -3   -1    0    0    0  501  0.00000000000E+00  0.00000000000E+00  0.87837728737E+03  0.87837729318E+03  0.10100000352E+00 0.  1.
        3   -1    0    0  501    0  0.00000000000E+00  0.00000000000E+00 -0.81127333631E+03  0.81127334260E+03  0.10100000352E+00 0. -1.
    10030    2    1    2    0    0  0.00000000000E+00  0.00000000000E+00  0.67103951057E+02  0.16896506358E+04  0.16883176036E+04 0.  0.
        4    1    3    3  502    0 -0.25952621204E+02 -0.74633342408E+03  0.42745561678E+03  0.86046907886E+03  0.12699999809E+01 0. -1.
       -4    1    3    3    0  502  0.25952621204E+02  0.74633342408E+03 -0.36035166573E+03  0.82918155692E+03  0.12699999809E+01 0.  1.
</event>
<event>
 5   0  0.1234158E-04  0.1688361E+04  0.7818609E-02  0.8768031E-01
        1   -1    0    0  501    0  0.00000000000E+00  0.00000000000E+00  0.12065591781E+04  0.12065591781E+04  0.50400001928E-02 0.  1.
       -1   -1    0    0    0  501  0.00000000000E+00  0.00000000000E+00 -0.59063857003E+03  0.59063857005E+03  0.50400001928E-02 0. -1.
    10030    2    1    2    0    0  0.00000000000E+00  0.00000000000E+00  0.61592060803E+03  0.17971977481E+04  0.16883606103E+04 0.  0.
        5    1    3    3  502    0  0.58872149408E+03 -0.57061547221E+03  0.93944204460E+02  0.82525306317E+03  0.46999998093E+01 0.  1.
       -5    1    3    3    0  502 -0.58872149408E+03  0.57061547221E+03  0.52197640357E+03  0.97194468495E+03  0.46999998093E+01 0. -1.
</event>
<event>
 5   0  0.2242967E-04  0.1698529E+04  0.7818609E-02  0.8762204E-01
        2   -1    0    0  501    0  0.00000000000E+00  0.00000000000E+00  0.13864938923E+04  0.13864938923E+04  0.25500000920E-02 0.  1.
       -2   -1    0    0    0  501  0.00000000000E+00  0.00000000000E+00 -0.52019734276E+03  0.52019734277E+03  0.25500000920E-02 0. -1.
    10030    2    1    2    0    0  0.00000000000E+00  0.00000000000E+00  0.86629654953E+03  0.19066912351E+04  0.16985292915E+04 0.  0.
        4    1    3    3  502    0  0.60095189691E+03 -0.54247545366E+03  0.14513921727E+03  0.82249000329E+03  0.12699999809E+01 0. -1.
       -4    1    3    3    0  502 -0.60095189691E+03  0.54247545366E+03  0.72115733226E+03  0.10842012318E+04  0.12699999809E+01 0.  1.
</event>
<event>
 5   0  0.2356829E-04  0.1685768E+04  0.7818609E-02  0.8769523E-01
        2   -1    0    0  501    0  0.00000000000E+00  0.00000000000E+00  0.84089779114E+03  0.84089779114E+03  0.25500000920E-02 0.  1.
       -2   -1    0    0    0  501  0.00000000000E+00  0.00000000000E+00 -0.84487450197E+03  0.84487450197E+03  0.25500000920E-02 0. -1.
    10030    2    1    2    0    0  0.00000000000E+00  0.00000000000E+00 -0.39767108293E+01  0.16857722931E+04  0.16857676026E+04 0.  0.
        5    1    3    3  502    0 -0.62765542889E+03  0.83189175669E+02  0.55439367052E+03  0.84157364994E+03  0.46999998093E+01 0.  1.
       -5    1    3    3    0  502  0.62765542889E+03 -0.83189175669E+02 -0.55837038135E+03  0.84419864317E+03  0.46999998093E+01 0. -1.
</event>
<event>
 5   0  0.1186302E-04  0.1679274E+04  0.7818609E-02  0.8773274E-01
        1   -1    0    0  501    0  0.00000000000E+00  0.00000000000E+00  0.11645429723E+04  0.11645429723E+04  0.50400001928E-02 0.  1.
       -1   -1    0    0    0  501  0.00000000000E+00  0.00000000000E+00 -0.60537945579E+03  0.60537945581E+03  0.50400001928E-02 0. -1.
    10030    2    1    2    0    0  0.00000000000E+00  0.00000000000E+00  0.55916351647E+03  0.17699224281E+04  0.16792741180E+04 0.  0.
        3    1    3    3  502    0  0.69979596405E+03 -0.23464226728E+03  0.70146244153E+03  0.10182440533E+04  0.10100000352E+00 0.  1.
       -3    1    3    3    0  502 -0.69979596405E+03  0.23464226728E+03 -0.14229892507E+03  0.75167837482E+03  0.10100000352E+00 0. -1.
</event>
<event>
 5   0  0.2242967E-04  0.1700221E+04  0.7818609E-02  0.8761238E-01
       -2   -1    0    0    0  501  0.00000000000E+00  0.00000000000E+00  0.71638738325E+03  0.71638738326E+03  0.25500000920E-02 0.  1.
        2   -1    0    0  501    0  0.00000000000E+00  0.00000000000E+00 -0.10087944838E+04  0.10087944838E+04  0.25500000920E-02 0. -1.
    10030    2    1    2    0    0  0.00000000000E+00  0.00000000000E+00 -0.29240710053E+03  0.17251818670E+04  0.17002207392E+04 0.  0.
        4    1    3    3  502    0  0.78722703483E+03  0.18094072141E+03  0.12267752167E+03  0.81701734146E+03  0.12699999809E+01 0. -1.
       -4    1    3    3    0  502 -0.78722703483E+03 -0.18094072141E+03 -0.41508462220E+03  0.90816452558E+03  0.12699999809E+01 0.  1.
</event>
<event>
 5   0  0.2234723E-04  0.1708536E+04  0.7818609E-02  0.8756511E-01
       -2   -1    0    0    0  501  0.00000000000E+00  0.00000000000E+00  0.12424667620E+04  0.12424667620E+04  0.25500000920E-02 0. -1.
        2   -1    0    0  501    0  0.00000000000E+00  0.00000000000E+00 -0.58735913559E+03  0.58735913560E+03  0.25500000920E-02 0.  1.
    10030    2    1    2    0    0  0.00000000000E+00  0.00000000000E+00  0.65510762641E+03  0.18298258976E+04  0.17085364536E+04 0.  0.
        1    1    3    3  502    0  0.60700672351E+03  0.22237848412E+03 -0.27053920850E+03  0.70078585598E+03  0.50400001928E-02 0.  1.
       -1    1    3    3    0  502 -0.60700672351E+03 -0.22237848412E+03  0.92564683491E+03  0.11290400416E+04  0.50400001928E-02 0. -1.
</event>
<event>
 5   0  0.1186302E-04  0.1747116E+04  0.7818609E-02  0.8734940E-01
       -1   -1    0    0    0  501  0.00000000000E+00  0.00000000000E+00  0.92705150182E+03  0.92705150184E+03  0.50400001928E-02 0. -1.
        1   -1    0    0  501    0  0.00000000000E+00  0.00000000000E+00 -0.82315083731E+03  0.82315083732E+03  0.50400001928E-02 0.  1.
    10030    2    1    2    0    0  0.00000000000E+00  0.00000000000E+00  0.10390066452E+03  0.17502023392E+04  0.17471155886E+04 0.  0.
        3    1    3    3  502    0  0.44805776390E+03 -0.60442876333E+03 -0.39269569468E+03  0.84870478292E+03  0.10100000352E+00 0.  1.
       -3    1    3    3    0  502 -0.44805776390E+03  0.60442876333E+03  0.49659635920E+03  0.90149755624E+03  0.10100000352E+00 0. -1.
</event>
<event>
 5   0  0.2288806E-04  0.1682306E+04  0.7818609E-02  0.8771521E-01
        2   -1    0    0  501    0  0.00000000000E+00  0.00000000000E+00  0.12538617000E+04  0.12538617000E+04  0.25500000920E-02 0. -1.
       -2   -1    0    0    0  501  0.00000000000E+00  0.00000000000E+00 -0.56428746067E+03  0.56428746068E+03  0.25500000920E-02 0.  1.
    10030    2    1    2    0    0  0.00000000000E+00  0.00000000000E+00  0.68957423928E+03  0.18181491606E+04  0.16823060776E+04 0.  0.
        3    1    3    3  502    0  0.13521564326E+03  0.20814153258E+03  0.12133834343E+04  0.12385094011E+04  0.10100000352E+00 0. -1.
       -3    1    3    3    0  502 -0.13521564326E+03 -0.20814153258E+03 -0.52380919506E+03  0.57963975950E+03  0.10100000352E+00 0.  1.
</event>
<event>
 5   0  0.1186302E-04  0.1710773E+04  0.7818609E-02  0.8755244E-01
       -1   -1    0    0    0  501  0.00000000000E+00  0.00000000000E+00  0.12768933995E+04  0.12768933995E+04  0.50400001928E-02 0.  1.
        1   -1    0    0  501    0  0.00000000000E+00  0.00000000000E+00 -0.57302032654E+03  0.57302032656E+03  0.50400001928E-02 0. -1.
    10030    2    1    2    0    0  0.00000000000E+00  0.00000000000E+00  0.70387307297E+03  0.18499137261E+04  0.17107727760E+04 0.  0.
        3    1    3    3  502    0  0.50084562978E+03 -0.41719816789E+03 -0.24699385493E+03  0.69707003288E+03  0.10100000352E+00 0. -1.
       -3    1    3    3    0  502 -0.50084562978E+03  0.41719816789E+03  0.95086692790E+03  0.11528436932E+04  0.10100000352E+00 0.  1.
</event>
<event>
 5   0  0.1234158E-04  0.1709806E+04  0.7818609E-02  0.8755791E-01
       -1   -1    0    0    0  501  0.00000000000E+00  0.00000000000E+00  0.94982523567E+03  0.94982523568E+03  0.50400001928E-02 0. -1.
        1   -1    0    0  501    0  0.00000000000E+00  0.00000000000E+00 -0.76946682812E+03  0.76946682814E+03  0.50400001928E-02 0.  1.
    10030    2    1    2    0    0  0.00000000000E+00  0.00000000000E+00  0.18035840755E+03  0.17192920638E+04  0.17098058503E+04 0.  0.
        5    1    3    3  502    0 -0.48728038974E+03 -0.59415533165E+03  0.46692332455E+03  0.89916751352E+03  0.46999998093E+01 0. -1.
       -5    1    3    3    0  502  0.48728038974E+03  0.59415533165E+03 -0.28656491700E+03  0.82012455031E+03  0.46999998093E+01 0.  1.
</event>
<event>
 5   0  0.1204741E-04  0.1696501E+04  0.7818609E-02  0.8763363E-01
        1   -1    0    0  501    0  0.00000000000E+00  0.00000000000E+00  0.55070976939E+03  0.55070976941E+03  0.50400001928E-02 0. -1.
       -1   -1    0    0    0  501  0.00000000000E+00  0.00000000000E+00 -0.13065480340E+04  0.13065480340E+04  0.50400001928E-02 0.  1.
    10030    2    1    2    0    0  0.00000000000E+00  0.00000000000E+00 -0.75583826463E+03  0.18572578034E+04  0.16965008300E+04 0.  0.
        1    1    3    3  502    0  0.11973584554E+03  0.23643711648E+03 -0.12600587624E+04  0.12876285441E+04  0.50400001928E-02 0.  1.
       -1    1    3    3    0  502 -0.11973584554E+03 -0.23643711648E+03  0.50422049777E+03  0.56962925938E+03  0.50400001928E-02 0. -1.
</event>
<event>
 5   0  0.1204741E-04  0.1702570E+04  0.7818609E-02  0.8759900E-01
        1   -1    0    0  501    0  0.00000000000E+00  0.00000000000E+00  0.80002144473E+03  0.80002144475E+03  0.50400001928E-02 0.  1.
       -1   -1    0    0    0  501  0.00000000000E+00  0.00000000000E+00 -0.90583354903E+03  0.90583354905E+03  0.50400001928E-02 0. -1.
    10030    2    1    2    0    0  0.00000000000E+00  0.00000000000E+00 -0.10581210430E+03  0.17058549938E+04  0.17025701332E+04 0.  0.
        1    1    3    3  502    0  0.70905896561E+03  0.38939717227E+03  0.21273089199E+03  0.83645036130E+03  0.50400001928E-02 0.  1.
       -1    1    3    3    0  502 -0.70905896561E+03 -0.38939717227E+03 -0.31854299630E+03  0.86940463249E+03  0.50400001928E-02 0. -1.
</event>
<event>
 5   0  0.2288806E-04  0.1702938E+04  0.7818609E-02  0.8759691E-01
        2   -1    0    0  501    0  0.00000000000E+00  0.00000000000E+00  0.16113839855E+04  0.16113839855E+04  0.25500000920E-02 0. -1.
       -2   -1    0    0    0  501  0.00000000000E+00  0.00000000000E+00 -0.44992323693E+03  0.44992323694E+03  0.25500000920E-02 0.  1.
    10030    2    1    2    0    0  0.00000000000E+00  0.00000000000E+00  0.11614607485E+04  0.20613072224E+04  0.17029375781E+04 0.  0.
        3    1    3    3  502    0  0.58482844484E+03 -0.43083975505E+03  0.11184608298E+04  0.13336423217E+04  0.10100000352E+00 0. -1.
       -3    1    3    3    0  502 -0.58482844484E+03  0.43083975505E+03  0.42999918766E+02  0.72766490066E+03  0.10100000352E+00 0.  1.
</event>
<event>
 5   0  0.1204741E-04  0.1697438E+04  0.7818609E-02  0.8762827E-01
        1   -1    0    0  501    0  0.00000000000E+00  0.00000000000E+00  0.10087030045E+04  0.10087030045E+04  0.50400001928E-02 0.  1.
       -1   -1    0    0    0  501  0.00000000000E+00  0.00000000000E+00 -0.71410892521E+03  0.71410892523E+03  0.50400001928E-02 0. -1.
    10030    2    1    2    0    0  0.00000000000E+00  0.00000000000E+00  0.29459407932E+03  0.17228119298E+04  0.16974378556E+04 0.  0.
        1    1    3    3  502    0  0.23072167105E+03 -0.35269172628E+03  0.89499095741E+03  0.98925869071E+03  0.50400001928E-02 0.  1.
       -1    1    3    3    0  502 -0.23072167105E+03  0.35269172628E+03 -0.60039687810E+03  0.73355323906E+03  0.50400001928E-02 0. -1.
</event>
<event>
 5   0  0.1215233E-04  0.1702296E+04  0.7818609E-02  0.8760056E-01
        1   -1    0    0  501    0  0.00000000000E+00  0.00000000000E+00  0.83711959466E+03  0.83711959467E+03  0.50400001928E-02 0.  1.
       -1   -1    0    0    0  501  0.00000000000E+00  0.00000000000E+00 -0.86541105531E+03  0.86541105532E+03  0.50400001928E-02 0. -1.
    10030    2    1    2    0    0  0.00000000000E+00  0.00000000000E+00 -0.28291460655E+02  0.17025306500E+04  0.17022955699E+04 0.  0.
        2    1    3    3  502    0 -0.75700536478E+03 -0.35098997249E+03 -0.18210185052E+03  0.85405630204E+03  0.25500000920E-02 0.  1.
       -2    1    3    3    0  502  0.75700536478E+03  0.35098997249E+03  0.15381038987E+03  0.84847434795E+03  0.25500000920E-02 0. -1.
</event>
<event>
 5   0  0.1234158E-04  0.1700709E+04  0.7818609E-02  0.8760960E-01
       -1   -1    0    0    0  501  0.00000000000E+00  0.00000000000E+00  0.97535236579E+03  0.97535236580E+03  0.50400001928E-02 0. -1.
        1   -1    0    0  501    0  0.00000000000E+00  0.00000000000E+00 -0.74137581168E+03  0.74137581169E+03  0.50400001928E-02 0.  1.
    10030    2    1    2    0    0  0.00000000000E+00  0.00000000000E+00  0.23397655411E+03  0.17167281775E+04  0.17007088544E+04 0.  0.
        5    1    3    3  502    0  0.40093828578E+03 -0.72222018405E+03 -0.86722068559E+02  0.83059997016E+03  0.46999998093E+01 0.  1.
       -5    1    3    3    0  502 -0.40093828578E+03  0.72222018405E+03  0.32069862267E+03  0.88612820734E+03  0.46999998093E+01 0. -1.
</event>
<event>
 5   0  0.2242967E-04  0.1521750E+04  0.7818609E-02  0.8870117E-01
        2   -1    0    0  501    0  0.00000000000E+00  0.00000000000E+00  0.31068521767E+03  0.31068521768E+03  0.25500000920E-02 0.  1.
       -2   -1    0    0    0  501  0.00000000000E+00  0.00000000000E+00 -0.18634007937E+04  0.18634007937E+04  0.25500000920E-02 0. -1.
    10030    2    1    2    0    0  0.00000000000E+00  0.00000000000E+00 -0.15527155760E+04  0.21740860114E+04  0.15217504148E+04 0.  0.
        4    1    3    3  502    0 -0.66633294558E+02  0.52885049793E+02 -0.18565837104E+04  0.18585320850E+04  0.12699999809E+01 0. -1.
       -4    1    3    3    0  502  0.66633294558E+02 -0.52885049793E+02  0.30386813438E+03  0.31555392634E+03  0.12699999809E+01 0.  1.
</event>
<event>
 5   0  0.2288806E-04  0.1684917E+04  0.7818609E-02  0.8770014E-01
        2   -1    0    0  501    0  0.00000000000E+00  0.00000000000E+00  0.80892185791E+03  0.80892185791E+03  0.25500000920E-02 0.  1.
       -2   -1    0    0    0  501  0.00000000000E+00  0.00000000000E+00 -0.87738556757E+03  0.87738556757E+03  0.25500000920E-02 0. -1.
    10030    2    1    2    0    0  0.00000000000E+00  0.00000000000E+00 -0.68463709660E+02  0.16863074255E+04  0.16849170465E+04 0.  0.
        3    1    3    3  502    0 -0.21256563334E+03 -0.48128587985E+03 -0.69273840653E+03  0.86988893355E+03  0.10100000352E+00 0. -1.
       -3    1    3    3    0  502  0.21256563334E+03  0.48128587985E+03  0.62427469687E+03  0.81641849194E+03  0.10100000352E+00 0.  1.
</event>
<event>
 5   0  0.1126958E-04  0.1701601E+04  0.7818609E-02  0.8760452E-01
        1   -1    0    0  501    0  0.00000000000E+00  0.00000000000E+00  0.11816817143E+04  0.11816817143E+04  0.50400001928E-02 0. -1.
       -1   -1    0    0    0  501  0.00000000000E+00  0.00000000000E+00 -0.61256869585E+03  0.61256869587E+03  0.50400001928E-02 0.  1.
    10030    2    1    2    0    0  0.00000000000E+00  0.00000000000E+00  0.56911301847E+03  0.17942504102E+04  0.17016006896E+04 0.  0.
        4    1    3    3  502    0  0.46978912624E+03  0.43355827808E+03  0.87653806903E+03  0.10848940976E+04  0.12699999809E+01 0. -1.
       -4    1    3    3    0  502 -0.46978912624E+03 -0.43355827808E+03 -0.30742505056E+03  0.70935631261E+03  0.12699999809E+01 0.  1.
</event>
<event>
 5   0  0.1215233E-04  0.1719195E+04  0.7818609E-02  0.8750492E-01
       -1   -1    0    0    0  501  0.00000000000E+00  0.00000000000E+00  0.32202182885E+03  0.32202182889E+03  0.50400001928E-02 0. -1.
        1   -1    0    0  501    0  0.00000000000E+00  0.00000000000E+00 -0.22945905424E+04  0.22945905424E+04  0.50400001928E-02 0.  1.
    10030    2    1    2    0    0  0.00000000000E+00  0.00000000000E+00 -0.19725687135E+04  0.26166123713E+04  0.17191954432E+04 0.  0.
        2    1    3    3  502    0 -0.28815448388E+03  0.13575387845E+03 -0.22014511143E+04  0.22243761217E+04  0.25500000920E-02 0.  1.
       -2    1    3    3    0  502  0.28815448388E+03 -0.13575387845E+03  0.22888240078E+03  0.39223624958E+03  0.25500000920E-02 0. -1.
</event>
<event>
 5   0  0.1126958E-04  0.1701675E+04  0.7818609E-02  0.8760409E-01
        1   -1    0    0  501    0  0.00000000000E+00  0.00000000000E+00  0.40659134066E+03  0.40659134069E+03  0.50400001928E-02 0. -1.
       -1   -1    0    0    0  501  0.00000000000E+00  0.00000000000E+00 -0.17804729016E+04  0.17804729016E+04  0.50400001928E-02 0.  1.
    10030    2    1    2    0    0  0.00000000000E+00  0.00000000000E+00 -0.13738815609E+04  0.21870642423E+04  0.17016754850E+04 0.  0.
        4    1    3    3  502    0 -0.82662439655E+03 -0.79804524863E+02 -0.44909606674E+03  0.94412157332E+03  0.12699999809E+01 0. -1.
       -4    1    3    3    0  502  0.82662439655E+03  0.79804524863E+02 -0.92478549416E+03  0.12429426689E+04  0.12699999809E+01 0.  1.
</event>
<event>
 5   0  0.1204741E-04  0.1698970E+04  0.7818609E-02  0.8761952E-01
       -1   -1    0    0    0  501  0.00000000000E+00  0.00000000000E+00  0.41190569422E+03  0.41190569426E+03  0.50400001928E-02 0.  1.
        1   -1    0    0  501    0  0.00000000000E+00  0.00000000000E+00 -0.17519166928E+04  0.17519166928E+04  0.50400001928E-02 0. -1.
    10030    2    1    2    0    0  0.00000000000E+00  0.00000000000E+00 -0.13400109986E+04  0.21638223871E+04  0.16989696426E+04 0.  0.
        1    1    3    3  502    0 -0.23068865228E+03  0.75294789427E+03 -0.26429232820E+03  0.83066131519E+03  0.50400001928E-02 0.  1.
       -1    1    3    3    0  502  0.23068865228E+03 -0.75294789427E+03 -0.10757186704E+04  0.13331610719E+04  0.50400001928E-02 0. -1.
</event>
<event>
 5   0  0.8372750E-05  0.1702423E+04  0.7818609E-02  0.8759984E-01
       -3   -1    0    0    0  501  0.00000000000E+00  0.00000000000E+00  0.12922656419E+04  0.12922656459E+04  0.10100000352E+00 0.  1.
        3   -1    0    0  501    0  0.00000000000E+00  0.00000000000E+00 -0.56069031859E+03  0.56069032768E+03  0.10100000352E+00 0. -1.
    10030    2    1    2    0    0  0.00000000000E+00  0.00000000000E+00  0.73157532334E+03  0.18529559736E+04  0.17024227989E+04 0.  0.
        3    1    3    3  502    0 -0.42836971208E+03  0.45146983286E+03  0.99785614217E+03  0.11760282781E+04  0.10100000352E+00 0.  1.
       -3    1    3    3    0  502  0.42836971208E+03 -0.45146983286E+03 -0.26628081883E+03  0.67692769547E+03  0.10100000352E+00 0. -1.
</event>
<event>
 5   0  0.1126958E-04  0.1682189E+04  0.7818609E-02  0.8771588E-01
       -1   -1    0    0    0  501  0.00000000000E+00  0.00000000000E+00  0.17296929378E+04  0.17296929378E+04  0.50400001928E-02 0. -1.
        1   -1    0    0  501    0  0.00000000000E+00  0.00000000000E+00 -0.40899762852E+03  0.40899762855E+03  0.50400001928E-02 0.  1.
    10030    2    1    2    0    0  0.00000000000E+00  0.00000000000E+00  0.13206953092E+04  0.21386905663E+04  0.16821894182E+04 0.  0.
        4    1    3    3  502    0 -0.47034947698E+03  0.49875882463E+03  0.12798727036E+04  0.14519176099E+04  0.12699999809E+01 0. -1.
       -4    1    3    3    0  502  0.47034947698E+03 -0.49875882463E+03  0.40822605650E+02  0.68677295642E+03  0.12699999809E+01 0.  1.
</event>
<event>
 5   0  0.2242967E-04  0.1698363E+04  0.7818609E-02  0.8762299E-01
       -2   -1    0    0    0  501  0.00000000000E+00  0.00000000000E+00  0.54617597765E+03  0.54617597766E+03  0.25500000920E-02 0. -1.
        2   -1    0    0  501    0  0.00000000000E+00  0.00000000000E+00 -0.13202869483E+04  0.13202869483E+04  0.25500000920E-02 0.  1.
    10030    2    1    2    0    0  0.00000000000E+00  0.00000000000E+00 -0.77411097062E+03  0.18664629259E+04  0.16983627584E+04 0.  0.
        4    1    3    3  502    0 -0.38325072869E+03 -0.24097576619E+03  0.40249481686E+03  0.60576739053E+03  0.12699999809E+01 0. -1.
       -4    1    3    3    0  502  0.38325072869E+03  0.24097576619E+03 -0.11766057875E+04  0.12606955354E+04  0.12699999809E+01 0.  1.
</event>
<event>
 5   0  0.2242967E-04  0.1655150E+04  0.7818609E-02  0.8787366E-01
        2   -1    0    0  501    0  0.00000000000E+00  0.00000000000E+00  0.10148531962E+04  0.10148531962E+04  0.25500000920E-02 0. -1.
       -2   -1    0    0    0  501  0.00000000000E+00  0.00000000000E+00 -0.67485622677E+03  0.67485622677E+03  0.25500000920E-02 0.  1.
    10030    2    1    2    0    0  0.00000000000E+00  0.00000000000E+00  0.33999696945E+03  0.16897094230E+04  0.16551495385E+04 0.  0.
        4    1    3    3  502    0 -0.10911335624E+02  0.26665770078E+03  0.96971528431E+03  0.10057707155E+04  0.12699999809E+01 0. -1.
       -4    1    3    3    0  502  0.10911335624E+02 -0.26665770078E+03 -0.62971831486E+03  0.68393870749E+03  0.12699999809E+01 0.  1.
</event>
<event>
 5   0  0.1204741E-04  0.1703805E+04  0.7818609E-02  0.8759197E-01
       -1   -1    0    0    0  501  0.00000000000E+00  0.00000000000E+00  0.80311139121E+03  0.80311139123E+03  0.50400001928E-02 0. -1.
        1   -1    0    0  501    0  0.00000000000E+00  0.00000000000E+00 -0.90365814921E+03  0.90365814922E+03  0.50400001928E-02 0.  1.
    10030    2    1    2    0    0  0.00000000000E+00  0.00000000000E+00 -0.10054675800E+03  0.17067695404E+04  0.17038053333E+04 0.  0.
        1    1    3    3  502    0 -0.12077487973E+03  0.83410737400E+03 -0.17465247265E+03  0.86071201291E+03  0.50400001928E-02 0.  1.
       -1    1    3    3    0  502  0.12077487973E+03 -0.83410737400E+03  0.74105714645E+02  0.84605752754E+03  0.50400001928E-02 0. -1.
</event>
<event>
 5   0  0.1126958E-04  0.1547657E+04  0.7818609E-02  0.8853366E-01
        1   -1    0    0  501    0  0.00000000000E+00  0.00000000000E+00  0.11797855691E+04  0.11797855691E+04  0.50400001928E-02 0. -1.
       -1   -1    0    0    0  501  0.00000000000E+00  0.00000000000E+00 -0.50755884982E+03  0.50755884984E+03  0.50400001928E-02 0.  1.
    10030    2    1    2    0    0  0.00000000000E+00  0.00000000000E+00  0.67222671925E+03  0.16873444189E+04  0.15476570764E+04 0.  0.
        4    1    3    3  502    0  0.22601798999E+03 -0.25272480533E+03  0.10944929448E+04  0.11458055586E+04  0.12699999809E+01 0. -1.
       -4    1    3    3    0  502 -0.22601798999E+03  0.25272480533E+03 -0.42226622558E+03  0.54153886028E+03  0.12699999809E+01 0.  1.
</event>
<event>
 5   0  0.2242967E-04  0.1657742E+04  0.7818609E-02  0.8785840E-01
        2   -1    0    0  501    0  0.00000000000E+00  0.00000000000E+00  0.50080912845E+03  0.50080912846E+03  0.25500000920E-02 0.  1.
       -2   -1    0    0    0  501  0.00000000000E+00  0.00000000000E+00 -0.13718336820E+04  0.13718336820E+04  0.25500000920E-02 0. -1.
    10030    2    1    2    0    0  0.00000000000E+00  0.00000000000E+00 -0.87102455357E+03  0.18726428105E+04  0.16577416333E+04 0.  0.
        4    1    3    3  502    0 -0.58836242975E+02 -0.62022182137E+03 -0.10530914443E+04  0.12235767300E+04  0.12699999809E+01 0. -1.
       -4    1    3    3    0  502  0.58836242975E+02  0.62022182137E+03  0.18206689077E+03  0.64906608046E+03  0.12699999809E+01 0.  1.
</event>
<event>
 5   0  0.2242967E-04  0.1682620E+04  0.7818609E-02  0.8771339E-01
       -2   -1    0    0    0  501  0.00000000000E+00  0.00000000000E+00  0.46533140710E+03  0.46533140710E+03  0.25500000920E-02 0.  1.
        2   -1    0    0  501    0  0.00000000000E+00  0.00000000000E+00 -0.15210713922E+04  0.15210713922E+04  0.25500000920E-02 0. -1.
    10030    2    1    2    0    0  0.00000000000E+00  0.00000000000E+00 -0.10557399851E+04  0.19864027993E+04  0.16826197327E+04 0.  0.
        4    1    3    3  502    0  0.23463315035E+03 -0.35096749344E+03  0.33122846346E+03  0.53660488686E+03  0.12699999809E+01 0.  1.
       -4    1    3    3    0  502 -0.23463315035E+03  0.35096749344E+03 -0.13869684485E+04  0.14497979124E+04  0.12699999809E+01 0. -1.
</event>
<event>
 5   0  0.2356829E-04  0.1593784E+04  0.7818609E-02  0.8824376E-01
       -2   -1    0    0    0  501  0.00000000000E+00  0.00000000000E+00  0.82628484586E+03  0.82628484586E+03  0.25500000920E-02 0.  1.
        2   -1    0    0  501    0  0.00000000000E+00  0.00000000000E+00 -0.76854505896E+03  0.76854505896E+03  0.25500000920E-02 0. -1.
    10030    2    1    2    0    0  0.00000000000E+00  0.00000000000E+00  0.57739786903E+02  0.15948299048E+04  0.15937843462E+04 0.  0.
        5    1    3    3  502    0  0.18016890755E+03  0.36155294931E+03 -0.65848223273E+03  0.77252981252E+03  0.46999998093E+01 0. -1.
       -5    1    3    3    0  502 -0.18016890755E+03 -0.36155294931E+03  0.71622201964E+03  0.82230009231E+03  0.46999998093E+01 0.  1.
</event>
<event>
 5   0  0.2234723E-04  0.1587793E+04  0.7818609E-02  0.8828082E-01
       -2   -1    0    0    0  501  0.00000000000E+00  0.00000000000E+00  0.59200767816E+03  0.59200767816E+03  0.25500000920E-02 0. -1.
        2   -1    0    0  501    0  0.00000000000E+00  0.00000000000E+00 -0.10646344270E+04  0.10646344270E+04  0.25500000920E-02 0.  1.
    10030    2    1    2    0    0  0.00000000000E+00  0.00000000000E+00 -0.47262674881E+03  0.16566421051E+04  0.15877931291E+04 0.  0.
        1    1    3    3  502    0 -0.43938142710E+02 -0.30488031994E+03 -0.99974399305E+03  0.10461217049E+04  0.50400001928E-02 0.  1.
       -1    1    3    3    0  502  0.43938142710E+02  0.30488031994E+03  0.52711724424E+03  0.61052040021E+03  0.50400001928E-02 0. -1.
</event>
<event>
 5   0  0.1234158E-04  0.1484847E+04  0.7818609E-02  0.8894592E-01
       -1   -1    0    0    0  501  0.00000000000E+00  0.00000000000E+00  0.11928734370E+04  0.11928734370E+04  0.50400001928E-02 0.  1.
        1   -1    0    0  501    0  0.00000000000E+00  0.00000000000E+00 -0.46207142966E+03  0.46207142969E+03  0.50400001928E-02 0. -1.
    10030    2    1    2    0    0  0.00000000000E+00  0.00000000000E+00  0.73080200734E+03  0.16549448667E+04  0.14848471093E+04 0.  0.
        5    1    3    3  502    0 -0.57463724678E+03  0.10362554707E+02  0.88918919338E+03  0.10587704471E+04  0.46999998093E+01 0.  1.
       -5    1    3    3    0  502  0.57463724678E+03 -0.10362554707E+02 -0.15838718605E+03  0.59617441964E+03  0.46999998093E+01 0. -1.
</event>
<event>
 5   0  0.2356829E-04  0.1697454E+04  0.7818609E-02  0.8762818E-01
        2   -1    0    0  501    0  0.00000000000E+00  0.00000000000E+00  0.59624056271E+03  0.59624056271E+03  0.25500000920E-02 0.  1.
       -2   -1    0    0    0  501  0.00000000000E+00  0.00000000000E+00 -0.12081327037E+04  0.12081327037E+04  0.25500000920E-02 0. -1.
    10030    2    1    2    0    0  0.00000000000E+00  0.00000000000E+00 -0.61189214103E+03  0.18043732665E+04  0.16974542387E+04 0.  0.
        5    1    3    3  502    0 -0.24252728409E+03  0.33007959966E+03 -0.10960997891E+04  0.11701405315E+04  0.46999998093E+01 0. -1.
       -5    1    3    3    0  502  0.24252728409E+03 -0.33007959966E+03  0.48420764811E+03  0.63423273498E+03  0.46999998093E+01 0.  1.
</event>
<event>
 5   0  0.1215233E-04  0.1699338E+04  0.7818609E-02  0.8761742E-01
        1   -1    0    0  501    0  0.00000000000E+00  0.00000000000E+00  0.58681962035E+03  0.58681962037E+03  0.50400001928E-02 0. -1.
       -1   -1    0    0    0  501  0.00000000000E+00  0.00000000000E+00 -0.12302544786E+04  0.12302544786E+04  0.50400001928E-02 0.  1.
    10030    2    1    2    0    0  0.00000000000E+00  0.00000000000E+00 -0.64343485823E+03  0.18170740990E+04  0.16993380665E+04 0.  0.
        2    1    3    3  502    0 -0.77435849173E+03  0.22747004455E+03 -0.60576020179E+03  0.10091179896E+04  0.25500000920E-02 0.  1.
       -2    1    3    3    0  502  0.77435849173E+03 -0.22747004455E+03 -0.37674656432E+02  0.80795610934E+03  0.25500000920E-02 0. -1.
</event>
<event>
 5   0  0.2356829E-04  0.1683516E+04  0.7818609E-02  0.8770822E-01
       -2   -1    0    0    0  501  0.00000000000E+00  0.00000000000E+00  0.18341250921E+04  0.18341250921E+04  0.25500000920E-02 0. -1.
        2   -1    0    0  501    0  0.00000000000E+00  0.00000000000E+00 -0.38631868532E+03  0.38631868533E+03  0.25500000920E-02 0.  1.
    10030    2    1    2    0    0  0.00000000000E+00  0.00000000000E+00  0.14478064068E+04  0.22204437774E+04  0.16835163133E+04 0.  0.
        5    1    3    3  502    0  0.13305579773E+03  0.12351814577E+03 -0.36017086575E+03  0.40336797119E+03  0.46999998093E+01 0.  1.
       -5    1    3    3    0  502 -0.13305579773E+03 -0.12351814577E+03  0.18079772725E+04  0.18170758062E+04  0.46999998093E+01 0. -1.
</event>
<event>
 5   0  0.1186302E-04  0.1709923E+04  0.7818609E-02  0.8755725E-01
       -1   -1    0    0    0  501  0.00000000000E+00  0.00000000000E+00  0.64231190379E+03  0.64231190381E+03  0.50400001928E-02 0.  1.
        1   -1    0    0  501    0  0.00000000000E+00  0.00000000000E+00 -0.11380132485E+04  0.11380132485E+04  0.50400001928E-02 0. -1.
    10030    2    1    2    0    0  0.00000000000E+00  0.00000000000E+00 -0.49570134467E+03  0.17803251523E+04  0.17099233389E+04 0.  0.
        3    1    3    3  502    0  0.55265586650E+03 -0.64868463792E+03 -0.31952675765E+03  0.91011956649E+03  0.10100000352E+00 0.  1.
       -3    1    3    3    0  502 -0.55265586650E+03  0.64868463792E+03 -0.17617458702E+03  0.87020558580E+03  0.10100000352E+00 0. -1.
</event>
<event>
 5   0  0.1126958E-04  0.1699895E+04  0.7818609E-02  0.8761424E-01
        1   -1    0    0  501    0  0.00000000000E+00  0.00000000000E+00  0.11728619860E+04  0.11728619860E+04  0.50400001928E-02 0. -1.
       -1   -1    0    0    0  501  0.00000000000E+00  0.00000000000E+00 -0.61593832213E+03  0.61593832215E+03  0.50400001928E-02 0.  1.
    10030    2    1    2    0    0  0.00000000000E+00  0.00000000000E+00  0.55692366391E+03  0.17888003082E+04  0.16998948718E+04 0.  0.
        4    1    3    3  502    0 -0.19007951481E+03 -0.53835658217E+02 -0.59144170813E+03  0.62356507845E+03  0.12699999809E+01 0.  1.
       -4    1    3    3    0  502  0.19007951481E+03  0.53835658217E+02  0.11483653720E+04  0.11652352297E+04  0.12699999809E+01 0. -1.
</event>
<event>
 5   0  0.1186302E-04  0.1697613E+04  0.7818609E-02  0.8762727E-01
        1   -1    0    0  501    0  0.00000000000E+00  0.00000000000E+00  0.10791594839E+04  0.10791594839E+04  0.50400001928E-02 0. -1.
       -1   -1    0    0    0  501  0.00000000000E+00  0.00000000000E+00 -0.66762365567E+03  0.66762365569E+03  0.50400001928E-02 0.  1.
    10030    2    1    2    0    0  0.00000000000E+00  0.00000000000E+00  0.41153582822E+03  0.17467831396E+04  0.16976129120E+04 0.  0.
        3    1    3    3  502    0  0.48872789129E+01 -0.44384501007E+02  0.10779501078E+04  0.10788745592E+04  0.10100000352E+00 0. -1.
       -3    1    3    3    0  502 -0.48872789129E+01  0.44384501007E+02 -0.66641427961E+03  0.66790858034E+03  0.10100000352E+00 0.  1.
</event>
<event>
 5   0  0.1186302E-04  0.1755617E+04  0.7818609E-02  0.8730264E-01
        1   -1    0    0  501    0  0.00000000000E+00  0.00000000000E+00  0.10188236402E+04  0.10188236403E+04  0.50400001928E-02 0. -1.
       -1   -1    0    0    0  501  0.00000000000E+00  0.00000000000E+00 -0.75631155534E+03  0.75631155536E+03  0.50400001928E-02 0.  1.
    10030    2    1    2    0    0  0.00000000000E+00  0.00000000000E+00  0.26251208490E+03  0.17751351956E+04  0.17556173752E+04 0.  0.
        3    1    3    3  502    0 -0.87216624149E+03  0.35711293016E+02  0.22501684373E+03  0.90143321406E+03  0.10100000352E+00 0. -1.
       -3    1    3    3    0  502  0.87216624149E+03 -0.35711293016E+02  0.37495241168E+02  0.87370198155E+03  0.10100000352E+00 0.  1.
</event>
<event>
 5   0  0.2224454E-04  0.1690808E+04  0.7818609E-02  0.8766625E-01
       -2   -1    0    0    0  501  0.00000000000E+00  0.00000000000E+00  0.77610811393E+03  0.77610811394E+03  0.25500000920E-02 0. -1.
        2   -1    0    0  501    0  0.00000000000E+00  0.00000000000E+00 -0.92088665377E+03  0.92088665378E+03  0.25500000920E-02 0.  1.
    10030    2    1    2    0    0  0.00000000000E+00  0.00000000000E+00 -0.14477853984E+03  0.16969947677E+04  0.16908076224E+04 0.  0.
        2    1    3    3  502    0  0.51222726883E+03 -0.41060803885E+03 -0.60700331551E+03  0.89410780197E+03  0.25500000920E-02 0.  1.
       -2    1    3    3    0  502 -0.51222726883E+03  0.41060803885E+03  0.46222477567E+03  0.80288696574E+03  0.25500000920E-02 0. -1.
</event>
<event>
 5   0  0.1234158E-04  0.1694099E+04  0.7818609E-02  0.8764737E-01
        1   -1    0    0  501    0  0.00000000000E+00  0.00000000000E+00  0.15951659352E+04  0.15951659352E+04  0.50400001928E-02 0.  1.
       -1   -1    0    0    0  501  0.00000000000E+00  0.00000000000E+00 -0.44979199498E+03  0.44979199501E+03  0.50400001928E-02 0. -1.
    10030    2    1    2    0    0  0.00000000000E+00  0.00000000000E+00  0.11453739402E+04  0.20449579302E+04  0.16940990152E+04 0.  0.
        5    1    3    3  502    0  0.27557892041E+03 -0.50493116573E+03 -0.17783003175E+03  0.60211696014E+03  0.46999998093E+01 0. -1.
       -5    1    3    3    0  502 -0.27557892041E+03  0.50493116573E+03  0.13232039720E+04  0.14428409701E+04  0.46999998093E+01 0.  1.
</event>
<event>
 5   0  0.1215233E-04  0.1704533E+04  0.7818609E-02  0.8758783E-01
        1   -1    0    0  501    0  0.00000000000E+00  0.00000000000E+00  0.11902951862E+04  0.11902951862E+04  0.50400001928E-02 0.  1.
       -1   -1    0    0    0  501  0.00000000000E+00  0.00000000000E+00 -0.61023346107E+03  0.61023346109E+03  0.50400001928E-02 0. -1.
    10030    2    1    2    0    0  0.00000000000E+00  0.00000000000E+00  0.58006172509E+03  0.18005286473E+04  0.17045327233E+04 0.  0.
        2    1    3    3  502    0  0.82590452495E+03 -0.20327567093E+03  0.34709812941E+03  0.91864922260E+03  0.25500000920E-02 0.  1.
       -2    1    3    3    0  502 -0.82590452495E+03  0.20327567093E+03  0.23296359567E+03  0.88187942467E+03  0.25500000920E-02 0. -1.
</event>
<event>
 5   0  0.1186302E-04  0.1683368E+04  0.7818609E-02  0.8770907E-01
       -1   -1    0    0    0  501  0.00000000000E+00  0.00000000000E+00  0.15831770677E+04  0.15831770677E+04  0.50400001928E-02 0.  1.
        1   -1    0    0  501    0  0.00000000000E+00  0.00000000000E+00 -0.44747499428E+03  0.44747499430E+03  0.50400001928E-02 0. -1.
    10030    2    1    2    0    0  0.00000000000E+00  0.00000000000E+00  0.11357020734E+04  0.20306520620E+04  0.16833682299E+04 0.  0.
        3    1    3    3  502    0  0.28925594309E+03  0.19726815706E+03 -0.35546210874E+03  0.49893591508E+03  0.10100000352E+00 0. -1.
       -3    1    3    3    0  502 -0.28925594309E+03 -0.19726815706E+03  0.14911641821E+04  0.15317161469E+04  0.10100000352E+00 0.  1.
</event>
<event>
 5   0  0.2234723E-04  0.1654674E+04  0.7818609E-02  0.8787646E-01
        2   -1    0    0  501    0  0.00000000000E+00  0.00000000000E+00  0.24593474876E+04  0.24593474876E+04  0.25500000920E-02 0.  1.
       -2   -1    0    0    0  501  0.00000000000E+00  0.00000000000E+00 -0.27832050542E+03  0.27832050543E+03  0.25500000920E-02 0. -1.
    10030    2    1    2    0    0  0.00000000000E+00  0.00000000000E+00  0.21810269822E+04  0.27376679930E+04  0.16546743918E+04 0.  0.
        1    1    3    3  502    0  0.23650135397E+03  0.77434324537E+03  0.80902143713E+03  0.11445767942E+04  0.50400001928E-02 0. -1.
       -1    1    3    3    0  502 -0.23650135397E+03 -0.77434324537E+03  0.13720055450E+04  0.15930911988E+04  0.50400001928E-02 0.  1.
</event>
<event>
 5   0  0.2224454E-04  0.1692731E+04  0.7818609E-02  0.8765521E-01
        2   -1    0    0  501    0  0.00000000000E+00  0.00000000000E+00  0.65264527734E+03  0.65264527734E+03  0.25500000920E-02 0. -1.
       -2   -1    0    0    0  501  0.00000000000E+00  0.00000000000E+00 -0.10975865620E+04  0.10975865620E+04  0.25500000920E-02 0.  1.
    10030    2    1    2    0    0  0.00000000000E+00  0.00000000000E+00 -0.44494128465E+03  0.17502318393E+04  0.16927311495E+04 0.  0.
        2    1    3    3  502    0 -0.72190842672E+03 -0.17446170311E+03 -0.64214754165E+03  0.98180554473E+03  0.25500000920E-02 0.  1.
       -2    1    3    3    0  502  0.72190842672E+03  0.17446170311E+03  0.19720625700E+03  0.76842629459E+03  0.25500000920E-02 0. -1.
</event>
<event>
 5   0  0.1186302E-04  0.1716585E+04  0.7818609E-02  0.8751961E-01
       -1   -1    0    0    0  501  0.00000000000E+00  0.00000000000E+00  0.83000830361E+03  0.83000830362E+03  0.50400001928E-02 0.  1.
        1   -1    0    0  501    0  0.00000000000E+00  0.00000000000E+00 -0.88754076229E+03  0.88754076230E+03  0.50400001928E-02 0. -1.
    10030    2    1    2    0    0  0.00000000000E+00  0.00000000000E+00 -0.57532458681E+02  0.17175490659E+04  0.17165852178E+04 0.  0.
        3    1    3    3  502    0  0.90815124453E+02 -0.75186371106E+03 -0.43287388535E+03  0.87231086068E+03  0.10100000352E+00 0. -1.
       -3    1    3    3    0  502 -0.90815124453E+02  0.75186371106E+03  0.37534142667E+03  0.84523820525E+03  0.10100000352E+00 0.  1.
</event>
<event>
 5   0  0.2234723E-04  0.1675112E+04  0.7818609E-02  0.8775688E-01
        2   -1    0    0  501    0  0.00000000000E+00  0.00000000000E+00  0.13649535869E+04  0.13649535869E+04  0.25500000920E-02 0. -1.
       -2   -1    0    0    0  501  0.00000000000E+00  0.00000000000E+00 -0.51393684669E+03  0.51393684670E+03  0.25500000920E-02 0.  1.
    10030    2    1    2    0    0  0.00000000000E+00  0.00000000000E+00  0.85101674023E+03  0.18788904336E+04  0.16751118677E+04 0.  0.
        1    1    3    3  502    0 -0.23949082201E+03  0.19762482214E+03 -0.44699496509E+03  0.54425722135E+03  0.50400001928E-02 0.  1.
       -1    1    3    3    0  502  0.23949082201E+03 -0.19762482214E+03  0.12980117053E+04  0.13346332123E+04  0.50400001928E-02 0. -1.
</event>
<event>
 5   0  0.1204741E-04  0.1654329E+04  0.7818609E-02  0.8787850E-01
        1   -1    0    0  501    0  0.00000000000E+00  0.00000000000E+00  0.10227199344E+04  0.10227199344E+04  0.50400001928E-02 0. -1.
       -1   -1    0    0    0  501  0.00000000000E+00  0.00000000000E+00 -0.66900126148E+03  0.66900126150E+03  0.50400001928E-02 0.  1.
    10030    2    1    2    0    0  0.00000000000E+00  0.00000000000E+00  0.35371867290E+03  0.16917211959E+04  0.16543287778E+04 0.  0.
        1    1    3    3  502    0  0.10647225115E+03  0.28439467106E+03  0.96365515804E+03  0.10103701959E+04  0.50400001928E-02 0. -1.
       -1    1    3    3    0  502 -0.10647225115E+03 -0.28439467106E+03 -0.60993648515E+03  0.68135099995E+03  0.50400001928E-02 0.  1.
</event>
<event>
 5   0  0.1186302E-04  0.1700318E+04  0.7818609E-02  0.8761183E-01
        1   -1    0    0  501    0  0.00000000000E+00  0.00000000000E+00  0.53713926540E+03  0.53713926543E+03  0.50400001928E-02 0.  1.
       -1   -1    0    0    0  501  0.00000000000E+00  0.00000000000E+00 -0.13455915647E+04  0.13455915647E+04  0.50400001928E-02 0. -1.
    10030    2    1    2    0    0  0.00000000000E+00  0.00000000000E+00 -0.80845229926E+03  0.18827308301E+04  0.17003176934E+04 0.  0.
        3    1    3    3  502    0 -0.49683229074E+03  0.66371581269E+03 -0.61258660281E+03  0.10308362437E+04  0.10100000352E+00 0. -1.
       -3    1    3    3    0  502  0.49683229074E+03 -0.66371581269E+03 -0.19586569646E+03  0.85189458643E+03  0.10100000352E+00 0.  1.
</event>
<event>
 5   0  0.2242967E-04  0.1696112E+04  0.7818609E-02  0.8763585E-01
       -2   -1    0    0    0  501  0.00000000000E+00  0.00000000000E+00  0.67640269422E+03  0.67640269423E+03  0.25500000920E-02 0. -1.
        2   -1    0    0  501    0  0.00000000000E+00  0.00000000000E+00 -0.10632699279E+04  0.10632699279E+04  0.25500000920E-02 0.  1.
    10030    2    1    2    0    0  0.00000000000E+00  0.00000000000E+00 -0.38686723365E+03  0.17396726221E+04  0.16961116047E+04 0.  0.
        4    1    3    3  502    0  0.19103381128E+03  0.54541012123E+03  0.44317669435E+03  0.72826733602E+03  0.12699999809E+01 0. -1.
       -4    1    3    3    0  502 -0.19103381128E+03 -0.54541012123E+03 -0.83004392800E+03  0.10114052861E+04  0.12699999809E+01 0.  1.
</event>
<event>
 5   0  0.2356829E-04  0.1694727E+04  0.7818609E-02  0.8764378E-01
        2   -1    0    0  501    0  0.00000000000E+00  0.00000000000E+00  0.15554648433E+04  0.15554648433E+04  0.25500000920E-02 0. -1.
       -2   -1    0    0    0  501  0.00000000000E+00  0.00000000000E+00 -0.46161420486E+03  0.46161420487E+03  0.25500000920E-02 0.  1.
    10030    2    1    2    0    0  0.00000000000E+00  0.00000000000E+00  0.10938506385E+04  0.20170790482E+04  0.16947267235E+04 0.  0.
        5    1    3    3  502    0 -0.12564048464E+03  0.28056872452E+03  0.14867370362E+04  0.15181941396E+04  0.46999998093E+01 0. -1.
       -5    1    3    3    0  502  0.12564048464E+03 -0.28056872452E+03 -0.39288639773E+03  0.49888490865E+03  0.46999998093E+01 0.  1.
</event>
<event>
 5   0  0.2234723E-04  0.1684213E+04  0.7818609E-02  0.8770420E-01
       -2   -1    0    0    0  501  0.00000000000E+00  0.00000000000E+00  0.44531786688E+03  0.44531786689E+03  0.25500000920E-02 0. -1.
        2   -1    0    0  501    0  0.00000000000E+00  0.00000000000E+00 -0.15924427075E+04  0.15924427075E+04  0.25500000920E-02 0.  1.
    10030    2    1    2    0    0  0.00000000000E+00  0.00000000000E+00 -0.11471248406E+04  0.20377605744E+04  0.16842128009E+04 0.  0.
        1    1    3    3  502    0 -0.61741451401E+03 -0.43567876067E+03 -0.10232332696E+04  0.12720153256E+04  0.50400001928E-02 0.  1.
       -1    1    3    3    0  502  0.61741451401E+03  0.43567876067E+03 -0.12389157102E+03  0.76574524876E+03  0.50400001928E-02 0. -1.
</event>
<event>
 5   0  0.2356829E-04  0.1711598E+04  0.7818609E-02  0.8754777E-01
        2   -1    0    0  501    0  0.00000000000E+00  0.00000000000E+00  0.50781732364E+03  0.50781732365E+03  0.25500000920E-02 0. -1.
       -2   -1    0    0    0  501  0.00000000000E+00  0.00000000000E+00 -0.14422349179E+04  0.14422349179E+04  0.25500000920E-02 0.  1.
    10030    2    1    2    0    0  0.00000000000E+00  0.00000000000E+00 -0.93441759428E+03  0.19500522416E+04  0.17115979389E+04 0.  0.
        5    1    3    3  502    0 -0.73411083305E+03 -0.25097508262E+03 -0.87872550329E+03  0.11722149152E+04  0.46999998093E+01 0.  1.
       -5    1    3    3    0  502  0.73411083305E+03  0.25097508262E+03 -0.55692090987E+02  0.77783732637E+03  0.46999998093E+01 0. -1.
</event>
<event>
 5   0  0.2242967E-04  0.1696978E+04  0.7818609E-02  0.8763090E-01
        2   -1    0    0  501    0  0.00000000000E+00  0.00000000000E+00  0.58419821307E+03  0.58419821308E+03  0.25500000920E-02 0.  1.
       -2   -1    0    0    0  501  0.00000000000E+00  0.00000000000E+00 -0.12323449944E+04  0.12323449944E+04  0.25500000920E-02 0. -1.
    10030    2    1    2    0    0  0.00000000000E+00  0.00000000000E+00 -0.64814678137E+03  0.18165432075E+04  0.16969781892E+04 0.  0.
        4    1    3    3  502    0 -0.80402223849E+03 -0.20567377846E+03 -0.13505753011E+03  0.84083031134E+03  0.12699999809E+01 0.  1.
       -4    1    3    3    0  502  0.80402223849E+03  0.20567377846E+03 -0.51308925126E+03  0.97571289619E+03  0.12699999809E+01 0. -1.
</event>
<event>
 5   0  0.1186302E-04  0.1704155E+04  0.7818609E-02  0.8758998E-01
       -1   -1    0    0    0  501  0.00000000000E+00  0.00000000000E+00  0.52698896871E+03  0.52698896873E+03  0.50400001928E-02 0. -1.
        1   -1    0    0  501    0  0.00000000000E+00  0.00000000000E+00 -0.13777068492E+04  0.13777068492E+04  0.50400001928E-02 0.  1.
    10030    2    1    2    0    0  0.00000000000E+00  0.00000000000E+00 -0.85071788046E+03  0.19046958179E+04  0.17041552883E+04 0.  0.
        3    1    3    3  502    0 -0.40196620765E+03 -0.18186324143E+03 -0.12401029975E+04  0.13162471368E+04  0.10100000352E+00 0.  1.
       -3    1    3    3    0  502  0.40196620765E+03  0.18186324143E+03  0.38938511703E+03  0.58844868106E+03  0.10100000352E+00 0. -1.
</event>
<event>
 5   0  0.1186302E-04  0.1708658E+04  0.7818609E-02  0.8756442E-01
        1   -1    0    0  501    0  0.00000000000E+00  0.00000000000E+00  0.12039178284E+04  0.12039178284E+04  0.50400001928E-02 0.  1.
       -1   -1    0    0    0  501  0.00000000000E+00  0.00000000000E+00 -0.60625260418E+03  0.60625260420E+03  0.50400001928E-02 0. -1.
    10030    2    1    2    0    0  0.00000000000E+00  0.00000000000E+00  0.59766522417E+03  0.18101704326E+04  0.17086583259E+04 0.  0.
        3    1    3    3  502    0 -0.27881260629E+03 -0.56935405719E+03 -0.30788480387E+03  0.70476490727E+03  0.10100000352E+00 0. -1.
       -3    1    3    3    0  502  0.27881260629E+03  0.56935405719E+03  0.90555002804E+03  0.11054055253E+04  0.10100000352E+00 0.  1.
</event>
<event>
 5   0  0.2288806E-04  0.1701439E+04  0.7818609E-02  0.8760544E-01
       -2   -1    0    0    0  501  0.00000000000E+00  0.00000000000E+00  0.83776974427E+03  0.83776974427E+03  0.25500000920E-02 0.  1.
        2   -1    0    0  501    0  0.00000000000E+00  0.00000000000E+00 -0.86386958514E+03  0.86386958514E+03  0.25500000920E-02 0. -1.
    10030    2    1    2    0    0  0.00000000000E+00  0.00000000000E+00 -0.26099840868E+02  0.17016393294E+04  0.17014391572E+04 0.  0.
        3    1    3    3  502    0 -0.15236249542E+03 -0.10073771917E+03 -0.84402755131E+03  0.86356524690E+03  0.10100000352E+00 0. -1.
       -3    1    3    3    0  502  0.15236249542E+03  0.10073771917E+03  0.81792771044E+03  0.83807408252E+03  0.10100000352E+00 0.  1.
</event>
<event>
 5   0  0.2242967E-04  0.1632505E+04  0.7818609E-02  0.8800824E-01
        2   -1    0    0  501    0  0.00000000000E+00  0.00000000000E+00  0.54405892695E+03  0.54405892696E+03  0.25500000920E-02 0.  1.
       -2   -1    0    0    0  501  0.00000000000E+00  0.00000000000E+00 -0.12246253342E+04  0.12246253342E+04  0.25500000920E-02 0. -1.
    10030    2    1    2    0    0  0.00000000000E+00  0.00000000000E+00 -0.68056640728E+03  0.17686842612E+04  0.16325052469E+04 0.  0.
        4    1    3    3  502    0  0.74990553992E+02  0.81228327597E+03 -0.30890094860E+03  0.87226665221E+03  0.12699999809E+01 0.  1.
       -4    1    3    3    0  502 -0.74990553992E+02 -0.81228327597E+03 -0.37166545868E+03  0.89641760898E+03  0.12699999809E+01 0. -1.
</event>
<event>
 5   0  0.1215233E-04  0.1697333E+04  0.7818609E-02  0.8762887E-01
        1   -1    0    0  501    0  0.00000000000E+00  0.00000000000E+00  0.12025848558E+04  0.12025848558E+04  0.50400001928E-02 0. -1.
       -1   -1    0    0    0  501  0.00000000000E+00  0.00000000000E+00 -0.59890576405E+03  0.59890576407E+03  0.50400001928E-02 0.  1.
    10030    2    1    2    0    0  0.00000000000E+00  0.00000000000E+00  0.60367909172E+03  0.18014906199E+04  0.16973332047E+04 0.  0.
        2    1    3    3  502    0  0.71809136346E+03 -0.43275496642E+03  0.44145219948E+03  0.94752947799E+03  0.25500000920E-02 0. -1.
       -2    1    3    3    0  502 -0.71809136346E+03  0.43275496642E+03  0.16222689223E+03  0.85396114186E+03  0.25500000920E-02 0.  1.
</event>
<event>
 5   0  0.1204741E-04  0.1697572E+04  0.7818609E-02  0.8762751E-01
       -1   -1    0    0    0  501  0.00000000000E+00  0.00000000000E+00  0.86409326995E+03  0.86409326996E+03  0.50400001928E-02 0. -1.
        1   -1    0    0  501    0  0.00000000000E+00  0.00000000000E+00 -0.83374948770E+03  0.83374948772E+03  0.50400001928E-02 0.  1.
    10030    2    1    2    0    0  0.00000000000E+00  0.00000000000E+00  0.30343782246E+02  0.16978427577E+04  0.16975715846E+04 0.  0.
        1    1    3    3  502    0  0.21726587391E+02 -0.13047053901E+02  0.86371477867E+03  0.86408650558E+03  0.50400001928E-02 0. -1.
       -1    1    3    3    0  502 -0.21726587391E+02  0.13047053901E+02 -0.83337099642E+03  0.83375625210E+03  0.50400001928E-02 0.  1.
</event>
<event>
 5   0  0.1215233E-04  0.1691921E+04  0.7818609E-02  0.8765986E-01
        1   -1    0    0  501    0  0.00000000000E+00  0.00000000000E+00  0.11940427165E+04  0.11940427165E+04  0.50400001928E-02 0.  1.
       -1   -1    0    0    0  501  0.00000000000E+00  0.00000000000E+00 -0.59934952830E+03  0.59934952833E+03  0.50400001928E-02 0. -1.
    10030    2    1    2    0    0  0.00000000000E+00  0.00000000000E+00  0.59469318821E+03  0.17933922449E+04  0.16919207298E+04 0.  0.
        2    1    3    3  502    0  0.58755650904E+03 -0.52982969419E+02  0.94002588414E+03  0.11098101230E+04  0.25500000920E-02 0.  1.
       -2    1    3    3    0  502 -0.58755650904E+03  0.52982969419E+02 -0.34533269593E+03  0.68358212180E+03  0.25500000920E-02 0. -1.
</event>
<event>
 5   0  0.2242967E-04  0.1721858E+04  0.7818609E-02  0.8748995E-01
        2   -1    0    0  501    0  0.00000000000E+00  0.00000000000E+00  0.12809666804E+04  0.12809666804E+04  0.25500000920E-02 0.  1.
       -2   -1    0    0    0  501  0.00000000000E+00  0.00000000000E+00 -0.57862438195E+03  0.57862438196E+03  0.25500000920E-02 0. -1.
    10030    2    1    2    0    0  0.00000000000E+00  0.00000000000E+00  0.70234229844E+03  0.18595910624E+04  0.17218577801E+04 0.  0.
        4    1    3    3  502    0 -0.48533562266E+03  0.63735876405E+03  0.69170259897E+03  0.10584096367E+04  0.12699999809E+01 0. -1.
       -4    1    3    3    0  502  0.48533562266E+03 -0.63735876405E+03  0.10639699477E+02  0.80118142567E+03  0.12699999809E+01 0.  1.
</event>
<event>
 5   0  0.2242967E-04  0.1694338E+04  0.7818609E-02  0.8764600E-01
       -2   -1    0    0    0  501  0.00000000000E+00  0.00000000000E+00  0.88104132707E+03  0.88104132707E+03  0.25500000920E-02 0.  1.
        2   -1    0    0  501    0  0.00000000000E+00  0.00000000000E+00 -0.81459899137E+03  0.81459899137E+03  0.25500000920E-02 0. -1.
    10030    2    1    2    0    0  0.00000000000E+00  0.00000000000E+00  0.66442335702E+02  0.16956403184E+04  0.16943380730E+04 0.  0.
        4    1    3    3  502    0  0.25403491389E+02  0.28362125098E+03 -0.76526888466E+03  0.81653195290E+03  0.12699999809E+01 0. -1.
       -4    1    3    3    0  502 -0.25403491389E+02 -0.28362125098E+03  0.83171122036E+03  0.87910836554E+03  0.12699999809E+01 0.  1.
</event>
<event>
 5   0  0.2356829E-04  0.1702152E+04  0.7818609E-02  0.8760138E-01
       -2   -1    0    0    0  501  0.00000000000E+00  0.00000000000E+00  0.58544134209E+03  0.58544134209E+03  0.25500000920E-02 0.  1.
        2   -1    0    0  501    0  0.00000000000E+00  0.00000000000E+00 -0.12372388368E+04  0.12372388368E+04  0.25500000920E-02 0. -1.
    10030    2    1    2    0    0  0.00000000000E+00  0.00000000000E+00 -0.65179749475E+03  0.18226801789E+04  0.17021524786E+04 0.  0.
        5    1    3    3  502    0 -0.37038595080E+03 -0.62867974638E+03  0.14316533816E+03  0.74360095489E+03  0.46999998093E+01 0. -1.
       -5    1    3    3    0  502  0.37038595080E+03  0.62867974638E+03 -0.79496283291E+03  0.10790792240E+04  0.46999998093E+01 0.  1.
</event>
<event>
 5   0  0.1186302E-04  0.1699249E+04  0.7818609E-02  0.8761793E-01
        1   -1    0    0  501    0  0.00000000000E+00  0.00000000000E+00  0.12633465988E+04  0.12633465988E+04  0.50400001928E-02 0.  1.
       -1   -1    0    0    0  501  0.00000000000E+00  0.00000000000E+00 -0.57138865225E+03  0.57138865227E+03  0.50400001928E-02 0. -1.
    10030    2    1    2    0    0  0.00000000000E+00  0.00000000000E+00  0.69195794653E+03  0.18347352511E+04  0.16992491406E+04 0.  0.
        3    1    3    3  502    0 -0.25598058675E+03 -0.28075594317E+03  0.11665134430E+04  0.12268266314E+04  0.10100000352E+00 0.  1.
       -3    1    3    3    0  502  0.25598058675E+03  0.28075594317E+03 -0.47455549652E+03  0.60790861969E+03  0.10100000352E+00 0. -1.
</event>
<event>
 5   0  0.1215233E-04  0.1682097E+04  0.7818609E-02  0.8771642E-01
       -1   -1    0    0    0  501  0.00000000000E+00  0.00000000000E+00  0.50818007786E+03  0.50818007788E+03  0.50400001928E-02 0. -1.
        1   -1    0    0  501    0  0.00000000000E+00  0.00000000000E+00 -0.13919519287E+04  0.13919519288E+04  0.50400001928E-02 0.  1.
    10030    2    1    2    0    0  0.00000000000E+00  0.00000000000E+00 -0.88377185089E+03  0.19001320066E+04  0.16820965960E+04 0.  0.
        2    1    3    3  502    0  0.80705496802E+03  0.23663536985E+03 -0.43588510742E+03  0.94727495826E+03  0.25500000920E-02 0. -1.
       -2    1    3    3    0  502 -0.80705496802E+03 -0.23663536985E+03 -0.44788674347E+03  0.95285704838E+03  0.25500000920E-02 0.  1.
</event>
<event>
 5   0  0.2234723E-04  0.1688454E+04  0.7818609E-02  0.8767977E-01
        2   -1    0    0  501    0  0.00000000000E+00  0.00000000000E+00  0.85214609568E+03  0.85214609569E+03  0.25500000920E-02 0.  1.
       -2   -1    0    0    0  501  0.00000000000E+00  0.00000000000E+00 -0.83638172544E+03  0.83638172544E+03  0.25500000920E-02 0. -1.
    10030    2    1    2    0    0  0.00000000000E+00  0.00000000000E+00  0.15764370242E+02  0.16885278211E+04  0.16884542302E+04 0.  0.
        1    1    3    3  502    0 -0.18059056450E+03  0.82466920161E+03  0.13095639780E+02  0.84431258422E+03  0.50400001928E-02 0. -1.
       -1    1    3    3    0  502  0.18059056450E+03 -0.82466920161E+03  0.26687304619E+01  0.84421523690E+03  0.50400001928E-02 0.  1.
</event>
<event>
 5   0  0.1126958E-04  0.1695866E+04  0.7818609E-02  0.8763726E-01
       -1   -1    0    0    0  501  0.00000000000E+00  0.00000000000E+00  0.13429309752E+04  0.13429309752E+04  0.50400001928E-02 0.  1.
        1   -1    0    0  501    0  0.00000000000E+00  0.00000000000E+00 -0.53538888615E+03  0.53538888618E+03  0.50400001928E-02 0. -1.
    10030    2    1    2    0    0  0.00000000000E+00  0.00000000000E+00  0.80754208902E+03  0.18783198614E+04  0.16958659369E+04 0.  0.
        4    1    3    3  502    0  0.11393916518E+03  0.58347222011E+03 -0.26589977047E+03  0.65124977224E+03  0.12699999809E+01 0. -1.
       -4    1    3    3    0  502 -0.11393916518E+03 -0.58347222011E+03  0.10734418595E+04  0.12270700891E+04  0.12699999809E+01 0.  1.
</event>
<event>
 5   0  0.2242967E-04  0.1690636E+04  0.7818609E-02  0.8766723E-01
       -2   -1    0    0    0  501  0.00000000000E+00  0.00000000000E+00  0.96851868693E+03  0.96851868693E+03  0.25500000920E-02 0. -1.
        2   -1    0    0  501    0  0.00000000000E+00  0.00000000000E+00 -0.73778910836E+03  0.73778910836E+03  0.25500000920E-02 0.  1.
    10030    2    1    2    0    0  0.00000000000E+00  0.00000000000E+00  0.23072957857E+03  0.17063077953E+04  0.16906360205E+04 0.  0.
        4    1    3    3  502    0 -0.11087032619E+02  0.52256948791E+02  0.96681241982E+03  0.96828796286E+03  0.12699999809E+01 0. -1.
       -4    1    3    3    0  502  0.11087032619E+02 -0.52256948791E+02 -0.73608284125E+03  0.73801983244E+03  0.12699999809E+01 0.  1.
</event>
<event>
 5   0  0.8372750E-05  0.1704803E+04  0.7818609E-02  0.8758630E-01
       -3   -1    0    0    0  501  0.00000000000E+00  0.00000000000E+00  0.13084195699E+04  0.13084195738E+04  0.10100000352E+00 0.  1.
        3   -1    0    0  501    0  0.00000000000E+00  0.00000000000E+00 -0.55531750356E+03  0.55531751274E+03  0.10100000352E+00 0. -1.
    10030    2    1    2    0    0  0.00000000000E+00  0.00000000000E+00  0.75310206631E+03  0.18637370865E+04  0.17048029814E+04 0.  0.
        5    1    3    3  502    0 -0.88671341299E+02 -0.83644957761E+03  0.22563930112E+03  0.87088787272E+03  0.46999998093E+01 0. -1.
       -5    1    3    3    0  502  0.88671341299E+02  0.83644957761E+03  0.52746276520E+03  0.99284921379E+03  0.46999998093E+01 0.  1.
</event>
<event>
 5   0  0.2224454E-04  0.1696972E+04  0.7818609E-02  0.8763094E-01
        2   -1    0    0  501    0  0.00000000000E+00  0.00000000000E+00  0.80847312204E+03  0.80847312204E+03  0.25500000920E-02 0. -1.
       -2   -1    0    0    0  501  0.00000000000E+00  0.00000000000E+00 -0.89047867150E+03  0.89047867151E+03  0.25500000920E-02 0.  1.
    10030    2    1    2    0    0  0.00000000000E+00  0.00000000000E+00 -0.82005549466E+02  0.16989517935E+04  0.16969715044E+04 0.  0.
        2    1    3    3  502    0 -0.17224106268E+03  0.24719697900E+02  0.79041802402E+03  0.80934461130E+03  0.25500000920E-02 0. -1.
       -2    1    3    3    0  502  0.17224106268E+03 -0.24719697900E+02 -0.87242357348E+03  0.88960718225E+03  0.25500000920E-02 0.  1.
</event>
<event>
 5   0  0.1126958E-04  0.1765837E+04  0.7818609E-02  0.8724681E-01
       -1   -1    0    0    0  501  0.00000000000E+00  0.00000000000E+00  0.59144185814E+03  0.59144185816E+03  0.50400001928E-02 0. -1.
        1   -1    0    0  501    0  0.00000000000E+00  0.00000000000E+00 -0.13180412402E+04  0.13180412402E+04  0.50400001928E-02 0.  1.
    10030    2    1    2    0    0  0.00000000000E+00  0.00000000000E+00 -0.72659938205E+03  0.19094830984E+04  0.17658366405E+04 0.  0.
        4    1    3    3  502    0  0.56184065805E+03 -0.87877119389E+02  0.36703496851E+03  0.67683350550E+03  0.12699999809E+01 0. -1.
       -4    1    3    3    0  502 -0.56184065805E+03  0.87877119389E+02 -0.10936343506E+04  0.12326495929E+04  0.12699999809E+01 0.  1.
</event>
<event>
 5   0  0.2242967E-04  0.1694530E+04  0.7818609E-02  0.8764490E-01
       -2   -1    0    0    0  501  0.00000000000E+00  0.00000000000E+00  0.31953566660E+03  0.31953566661E+03  0.25500000920E-02 0. -1.
        2   -1    0    0  501    0  0.00000000000E+00  0.00000000000E+00 -0.22465656883E+04  0.22465656883E+04  0.25500000920E-02 0.  1.
    10030    2    1    2    0    0  0.00000000000E+00  0.00000000000E+00 -0.19270300217E+04  0.25661013549E+04  0.16945298637E+04 0.  0.
        4    1    3    3  502    0 -0.73677081688E+02 -0.40163655278E+03 -0.20877215217E+04  0.21272806580E+04  0.12699999809E+01 0.  1.
       -4    1    3    3    0  502  0.73677081688E+02  0.40163655278E+03  0.16069150006E+03  0.43882069685E+03  0.12699999809E+01 0. -1.
</event>
<event>
 5   0  0.1186302E-04  0.1702967E+04  0.7818609E-02  0.8759674E-01
       -1   -1    0    0    0  501  0.00000000000E+00  0.00000000000E+00  0.71769896582E+03  0.71769896584E+03  0.50400001928E-02 0.  1.
        1   -1    0    0  501    0  0.00000000000E+00  0.00000000000E+00 -0.10102066086E+04  0.10102066086E+04  0.50400001928E-02 0. -1.
    10030    2    1    2    0    0  0.00000000000E+00  0.00000000000E+00 -0.29250764279E+03  0.17279055745E+04  0.17029671028E+04 0.  0.
        3    1    3    3  502    0  0.28894863503E+03  0.73304276022E+03 -0.47375169110E+03  0.91939310255E+03  0.10100000352E+00 0. -1.
       -3    1    3    3    0  502 -0.28894863503E+03 -0.73304276022E+03  0.18124404831E+03  0.80851247192E+03  0.10100000352E+00 0.  1.
</event>
<event>
 5   0  0.2356829E-04  0.1700370E+04  0.7818609E-02  0.8761153E-01
        2   -1    0    0  501    0  0.00000000000E+00  0.00000000000E+00  0.13578264084E+04  0.13578264084E+04  0.25500000920E-02 0.  1.
       -2   -1    0    0    0  501  0.00000000000E+00  0.00000000000E+00 -0.53233225042E+03  0.53233225043E+03  0.25500000920E-02 0. -1.
    10030    2    1    2    0    0  0.00000000000E+00  0.00000000000E+00  0.82549415793E+03  0.18901586588E+04  0.17003702981E+04 0.  0.
        5    1    3    3  502    0  0.77383924413E+02 -0.71866597968E+03 -0.84784723932E+02  0.72779090508E+03  0.46999998093E+01 0. -1.
       -5    1    3    3    0  502 -0.77383924413E+02  0.71866597968E+03  0.91027888186E+03  0.11623677537E+04  0.46999998093E+01 0.  1.
</event>
<event>
 5   0  0.2356829E-04  0.1683336E+04  0.7818609E-02  0.8770926E-01
        2   -1    0    0  501    0  0.00000000000E+00  0.00000000000E+00  0.95622090811E+03  0.95622090811E+03  0.25500000920E-02 0. -1.
       -2   -1    0    0    0  501  0.00000000000E+00  0.00000000000E+00 -0.74083868009E+03  0.74083868010E+03  0.25500000920E-02 0.  1.
    10030    2    1    2    0    0  0.00000000000E+00  0.00000000000E+00  0.21538222802E+03  0.16970595882E+04  0.16833364910E+04 0.  0.
        5    1    3    3  502    0  0.39812550909E+03 -0.40806046443E+03 -0.51652215579E+03  0.76930779993E+03  0.46999998093E+01 0.  1.
       -5    1    3    3    0  502 -0.39812550909E+03  0.40806046443E+03  0.73190438381E+03  0.92775178828E+03  0.46999998093E+01 0. -1.
</event>
<event>
 5   0  0.2234723E-04  0.1703977E+04  0.7818609E-02  0.8759100E-01
       -2   -1    0    0    0  501  0.00000000000E+00  0.00000000000E+00  0.71238695162E+03  0.71238695163E+03  0.25500000920E-02 0.  1.
        2   -1    0    0  501    0  0.00000000000E+00  0.00000000000E+00 -0.10189463776E+04  0.10189463776E+04  0.25500000920E-02 0. -1.
    10030    2    1    2    0    0  0.00000000000E+00  0.00000000000E+00 -0.30655942597E+03  0.17313333292E+04  0.17039766475E+04 0.  0.
        1    1    3    3  502    0  0.67547161034E+03 -0.24377133363E+03  0.31255417242E+03  0.78318354822E+03  0.50400001928E-02 0.  1.
       -1    1    3    3    0  502 -0.67547161034E+03  0.24377133363E+03 -0.61911359839E+03  0.94814978100E+03  0.50400001928E-02 0. -1.
</event>
<event>
 5   0  0.1215233E-04  0.1733412E+04  0.7818609E-02  0.8742535E-01
       -1   -1    0    0    0  501  0.00000000000E+00  0.00000000000E+00  0.78591895284E+03  0.78591895286E+03  0.50400001928E-02 0. -1.
        1   -1    0    0  501    0  0.00000000000E+00  0.00000000000E+00 -0.95579704251E+03  0.95579704252E+03  0.50400001928E-02 0.  1.
    10030    2    1    2    0    0  0.00000000000E+00  0.00000000000E+00 -0.16987808967E+03  0.17417159954E+04  0.17334116774E+04 0.  0.
        2    1    3    3  502    0  0.24564953901E+03  0.56232594212E+03 -0.69993734183E+03  0.93084179305E+03  0.25500000920E-02 0.  1.
       -2    1    3    3    0  502 -0.24564953901E+03 -0.56232594212E+03  0.53005925216E+03  0.81087420233E+03  0.25500000920E-02 0. -1.
</event>
<event>
 5   0  0.1186302E-04  0.1690792E+04  0.7818609E-02  0.8766634E-01
       -1   -1    0    0    0  501  0.00000000000E+00  0.00000000000E+00  0.87975771752E+03  0.87975771754E+03  0.50400001928E-02 0.  1.
        1   -1    0    0  501    0  0.00000000000E+00  0.00000000000E+00 -0.81237595863E+03  0.81237595864E+03  0.50400001928E-02 0. -1.
    10030    2    1    2    0    0  0.00000000000E+00  0.00000000000E+00  0.67381758897E+02  0.16921336762E+04  0.16907915533E+04 0.  0.
        3    1    3    3  502    0 -0.57005713245E+03 -0.32967103488E+03  0.56424930211E+03  0.86719398674E+03  0.10100000352E+00 0.  1.
       -3    1    3    3    0  502  0.57005713245E+03  0.32967103488E+03 -0.49686754322E+03  0.82493968944E+03  0.10100000352E+00 0. -1.
</event>
<event>
 5   0  0.1186302E-04  0.1709297E+04  0.7818609E-02  0.8756080E-01
        1   -1    0    0  501    0  0.00000000000E+00  0.00000000000E+00  0.11998983158E+04  0.11998983158E+04  0.50400001928E-02 0. -1.
       -1   -1    0    0    0  501  0.00000000000E+00  0.00000000000E+00 -0.60873839107E+03  0.60873839109E+03  0.50400001928E-02 0.  1.
    10030    2    1    2    0    0  0.00000000000E+00  0.00000000000E+00  0.59115992477E+03  0.18086367069E+04  0.17092971307E+04 0.  0.
        3    1    3    3  502    0  0.83870075383E+03 -0.60120072101E+02  0.45740888865E+03  0.95721276588E+03  0.10100000352E+00 0. -1.
       -3    1    3    3    0  502 -0.83870075383E+03  0.60120072101E+02  0.13375103611E+03  0.85142394106E+03  0.10100000352E+00 0.  1.
</event>
<event>
 5   0  0.2242967E-04  0.1710333E+04  0.7818609E-02  0.8755493E-01
       -2   -1    0    0    0  501  0.00000000000E+00  0.00000000000E+00  0.87042750584E+03  0.87042750584E+03  0.25500000920E-02 0.  1.
        2   -1    0    0  501    0  0.00000000000E+00  0.00000000000E+00 -0.84017294607E+03  0.84017294607E+03  0.25500000920E-02 0. -1.
    10030    2    1    2    0    0  0.00000000000E+00  0.00000000000E+00  0.30254559771E+02  0.17106004519E+04  0.17103328821E+04 0.  0.
        4    1    3    3  502    0  0.22810875762E+03  0.27250676562E+03  0.79307573699E+03  0.86905942266E+03  0.12699999809E+01 0.  1.
       -4    1    3    3    0  502 -0.22810875762E+03 -0.27250676562E+03 -0.76282117722E+03  0.84154102926E+03  0.12699999809E+01 0. -1.
</event>
<event>
 5   0  0.1234158E-04  0.1701958E+04  0.7818609E-02  0.8760248E-01
       -1   -1    0    0    0  501  0.00000000000E+00  0.00000000000E+00  0.47834312436E+03  0.47834312439E+03  0.50400001928E-02 0.  1.
        1   -1    0    0  501    0  0.00000000000E+00  0.00000000000E+00 -0.15139034021E+04  0.15139034021E+04  0.50400001928E-02 0. -1.
    10030    2    1    2    0    0  0.00000000000E+00  0.00000000000E+00 -0.10355602777E+04  0.19922465265E+04  0.17019580293E+04 0.  0.
        5    1    3    3  502    0 -0.40117597126E+03 -0.51651502152E+03  0.11951858749E+03  0.66485841359E+03  0.46999998093E+01 0.  1.
       -5    1    3    3    0  502  0.40117597126E+03  0.51651502152E+03 -0.11550788652E+04  0.13273881129E+04  0.46999998093E+01 0. -1.
</event>
<event>
 5   0  0.1126958E-04  0.1708414E+04  0.7818609E-02  0.8756580E-01
       -1   -1    0    0    0  501  0.00000000000E+00  0.00000000000E+00  0.33272257271E+03  0.33272257274E+03  0.50400001928E-02 0.  1.
        1   -1    0    0  501    0  0.00000000000E+00  0.00000000000E+00 -0.21930271077E+04  0.21930271077E+04  0.50400001928E-02 0. -1.
    10030    2    1    2    0    0  0.00000000000E+00  0.00000000000E+00 -0.18603045350E+04  0.25257496805E+04  0.17084140263E+04 0.  0.
        4    1    3    3  502    0  0.49602447697E+03 -0.33788150375E+03 -0.31517671643E+02  0.60099847658E+03  0.12699999809E+01 0.  1.
       -4    1    3    3    0  502 -0.49602447697E+03  0.33788150375E+03 -0.18287868634E+04  0.19247512039E+04  0.12699999809E+01 0. -1.
</event>
<event>
 5   0  0.1215233E-04  0.1700718E+04  0.7818609E-02  0.8760955E-01
       -1   -1    0    0    0  501  0.00000000000E+00  0.00000000000E+00  0.45717013917E+03  0.45717013920E+03  0.50400001928E-02 0. -1.
        1   -1    0    0  501    0  0.00000000000E+00  0.00000000000E+00 -0.15817089439E+04  0.15817089439E+04  0.50400001928E-02 0.  1.
    10030    2    1    2    0    0  0.00000000000E+00  0.00000000000E+00 -0.11245388047E+04  0.20388790831E+04  0.17007176109E+04 0.  0.
        2    1    3    3  502    0 -0.59328902729E+03 -0.58908027630E+02 -0.12891706399E+04  0.14203601531E+04  0.25500000920E-02 0.  1.
       -2    1    3    3    0  502  0.59328902729E+03  0.58908027630E+02  0.16463183520E+03  0.61851893002E+03  0.25500000920E-02 0. -1.
</event>
<event>
 5   0  0.2288806E-04  0.1694023E+04  0.7818609E-02  0.8764780E-01
       -2   -1    0    0    0  501  0.00000000000E+00  0.00000000000E+00  0.31293406086E+03  0.31293406087E+03  0.25500000920E-02 0.  1.
        2   -1    0    0  501    0  0.00000000000E+00  0.00000000000E+00 -0.22925873262E+04  0.22925873262E+04  0.25500000920E-02 0. -1.
    10030    2    1    2    0    0  0.00000000000E+00  0.00000000000E+00 -0.19796532654E+04  0.26055213871E+04  0.16940232134E+04 0.  0.
        3    1    3    3  502    0 -0.15153792455E+02  0.29112248800E+03  0.23334458850E+03  0.37340547348E+03  0.10100000352E+00 0.  1.
       -3    1    3    3    0  502  0.15153792455E+02 -0.29112248800E+03 -0.22129978539E+04  0.22321159136E+04  0.10100000352E+00 0. -1.
</event>
<event>
 5   0  0.2242967E-04  0.1690240E+04  0.7818609E-02  0.8766951E-01
       -2   -1    0    0    0  501  0.00000000000E+00  0.00000000000E+00  0.43608568931E+03  0.43608568932E+03  0.25500000920E-02 0. -1.
        2   -1    0    0  501    0  0.00000000000E+00  0.00000000000E+00 -0.16378147430E+04  0.16378147430E+04  0.25500000920E-02 0.  1.
    10030    2    1    2    0    0  0.00000000000E+00  0.00000000000E+00 -0.12017290537E+04  0.20739004324E+04  0.16902397122E+04 0.  0.
        4    1    3    3  502    0 -0.31219018513E+02  0.82975340403E+03 -0.40779205551E+03  0.92507367926E+03  0.12699999809E+01 0.  1.
       -4    1    3    3    0  502  0.31219018513E+02 -0.82975340403E+03 -0.79393699822E+03  0.11488267531E+04  0.12699999809E+01 0. -1.
</event>
<event>
 5   0  0.2234723E-04  0.1665294E+04  0.7818609E-02  0.8781410E-01
        2   -1    0    0  501    0  0.00000000000E+00  0.00000000000E+00  0.10828490380E+04  0.10828490380E+04  0.25500000920E-02 0.  1.
       -2   -1    0    0    0  501  0.00000000000E+00  0.00000000000E+00 -0.64025633945E+03  0.64025633946E+03  0.25500000920E-02 0. -1.
    10030    2    1    2    0    0  0.00000000000E+00  0.00000000000E+00  0.44259269851E+03  0.17231053774E+04  0.16652939215E+04 0.  0.
        1    1    3    3  502    0 -0.78227453955E+03 -0.20787227021E+03  0.42336180308E+03  0.91345473467E+03  0.50400001928E-02 0.  1.
       -1    1    3    3    0  502  0.78227453955E+03  0.20787227021E+03  0.19230895431E+02  0.80965064276E+03  0.50400001928E-02 0. -1.
</event>
<event>
 5   0  0.2288806E-04  0.1692747E+04  0.7818609E-02  0.8765512E-01
        2   -1    0    0  501    0  0.00000000000E+00  0.00000000000E+00  0.10804285377E+04  0.10804285377E+04  0.25500000920E-02 0.  1.
       -2   -1    0    0    0  501  0.00000000000E+00  0.00000000000E+00 -0.66302195691E+03  0.66302195691E+03  0.25500000920E-02 0. -1.
    10030    2    1    2    0    0  0.00000000000E+00  0.00000000000E+00  0.41740658080E+03  0.17434504946E+04  0.16927466950E+04 0.  0.
        3    1    3    3  502    0 -0.33432677416E+03 -0.41671527599E+03 -0.46740597609E+03  0.70985517527E+03  0.10100000352E+00 0. -1.
       -3    1    3    3    0  502  0.33432677416E+03  0.41671527599E+03  0.88481255690E+03  0.10335953194E+04  0.10100000352E+00 0.  1.
</event>
<event>
 5   0  0.1234158E-04  0.1698492E+04  0.7818609E-02  0.8762225E-01
       -1   -1    0    0    0  501  0.00000000000E+00  0.00000000000E+00  0.79581116247E+03  0.79581116249E+03  0.50400001928E-02 0. -1.
        1   -1    0    0  501    0  0.00000000000E+00  0.00000000000E+00 -0.90626859503E+03  0.90626859505E+03  0.50400001928E-02 0.  1.
    10030    2    1    2    0    0  0.00000000000E+00  0.00000000000E+00 -0.11045743256E+03  0.17020797575E+04  0.16984918771E+04 0.  0.
        5    1    3    3  502    0 -0.37581945904E+03 -0.40019342113E+03 -0.70451831112E+03  0.89317589579E+03  0.46999998093E+01 0.  1.
       -5    1    3    3    0  502  0.37581945904E+03  0.40019342113E+03  0.59406087856E+03  0.80890386175E+03  0.46999998093E+01 0. -1.
</event>
<event>
 5   0  0.1126958E-04  0.1569677E+04  0.7818609E-02  0.8839396E-01
        1   -1    0    0  501    0  0.00000000000E+00  0.00000000000E+00  0.12225665777E+04  0.12225665777E+04  0.50400001928E-02 0.  1.
       -1   -1    0    0    0  501  0.00000000000E+00  0.00000000000E+00 -0.50383441894E+03  0.50383441896E+03  0.50400001928E-02 0. -1.
    10030    2    1    2    0    0  0.00000000000E+00  0.00000000000E+00  0.71873215879E+03  0.17264009967E+04  0.15696765544E+04 0.  0.
        4    1    3    3  502    0  0.68253150273E+03 -0.26414748227E+03  0.47610223272E+02  0.73341086088E+03  0.12699999809E+01 0. -1.
       -4    1    3    3    0  502 -0.68253150273E+03  0.26414748227E+03  0.67112193552E+03  0.99299013582E+03  0.12699999809E+01 0.  1.
</event>
<event>
 5   0  0.1234158E-04  0.1693786E+04  0.7818609E-02  0.8764917E-01
        1   -1    0    0  501    0  0.00000000000E+00  0.00000000000E+00  0.10314036788E+04  0.10314036788E+04  0.50400001928E-02 0.  1.
       -1   -1    0    0    0  501  0.00000000000E+00  0.00000000000E+00 -0.69538969454E+03  0.69538969456E+03  0.50400001928E-02 0. -1.
    10030    2    1    2    0    0  0.00000000000E+00  0.00000000000E+00  0.33601398426E+03  0.17267933734E+04  0.16937856879E+04 0.  0.
        5    1    3    3  502    0 -0.46605502393E+03 -0.59782731184E+03 -0.21697695417E+03  0.78848327106E+03  0.46999998093E+01 0. -1.
       -5    1    3    3    0  502  0.46605502393E+03  0.59782731184E+03  0.55299093843E+03  0.93831010231E+03  0.46999998093E+01 0.  1.
</event>
<event>
 5   0  0.1204741E-04  0.1622483E+04  0.7818609E-02  0.8806854E-01
        1   -1    0    0  501    0  0.00000000000E+00  0.00000000000E+00  0.21979552623E+04  0.21979552623E+04  0.50400001928E-02 0. -1.
       -1   -1    0    0    0  501  0.00000000000E+00  0.00000000000E+00 -0.29942046148E+03  0.29942046152E+03  0.50400001928E-02 0.  1.
    10030    2    1    2    0    0  0.00000000000E+00  0.00000000000E+00  0.18985348008E+04  0.24973757238E+04  0.16224830094E+04 0.  0.
        1    1    3    3  502    0 -0.32224388160E+03 -0.15998356838E+03 -0.16990992510E+03  0.39787591539E+03  0.50400001928E-02 0.  1.
       -1    1    3    3    0  502  0.32224388160E+03  0.15998356838E+03  0.20684447259E+04  0.20994998084E+04  0.50400001928E-02 0. -1.
</event>
<event>
 5   0  0.2242967E-04  0.1705696E+04  0.7818609E-02  0.8758122E-01
       -2   -1    0    0    0  501  0.00000000000E+00  0.00000000000E+00  0.59803579449E+03  0.59803579450E+03  0.25500000920E-02 0.  1.
        2   -1    0    0  501    0  0.00000000000E+00  0.00000000000E+00 -0.12162309593E+04  0.12162309593E+04  0.25500000920E-02 0. -1.
    10030    2    1    2    0    0  0.00000000000E+00  0.00000000000E+00 -0.61819516476E+03  0.18142667538E+04  0.17056959260E+04 0.  0.
        4    1    3    3  502    0 -0.28790951621E+03 -0.80072735187E+03 -0.37012426796E+03  0.92792767401E+03  0.12699999809E+01 0.  1.
       -4    1    3    3    0  502  0.28790951621E+03  0.80072735187E+03 -0.24807089680E+03  0.88633907975E+03  0.12699999809E+01 0. -1.
</event>
<event>
 5   0  0.2234723E-04  0.1695096E+04  0.7818609E-02  0.8764166E-01
        2   -1    0    0  501    0  0.00000000000E+00  0.00000000000E+00  0.64343297248E+03  0.64343297249E+03  0.25500000920E-02 0.  1.
       -2   -1    0    0    0  501  0.00000000000E+00  0.00000000000E+00 -0.11164138426E+04  0.11164138426E+04  0.25500000920E-02 0. -1.
    10030    2    1    2    0    0  0.00000000000E+00  0.00000000000E+00 -0.47298087013E+03  0.17598468151E+04  0.16950958407E+04 0.  0.
        1    1    3    3  502    0 -0.29510961947E+03  0.76736941996E+03 -0.22732437529E+02  0.82247326882E+03  0.50400001928E-02 0.  1.
       -1    1    3    3    0  502  0.29510961947E+03 -0.76736941996E+03 -0.45024843260E+03  0.93737354628E+03  0.50400001928E-02 0. -1.
</event>
<event>
 5   0  0.2224454E-04  0.1696998E+04  0.7818609E-02  0.8763079E-01
       -2   -1    0    0    0  501  0.00000000000E+00  0.00000000000E+00  0.89907074688E+03  0.89907074688E+03  0.25500000920E-02 0.  1.
        2   -1    0    0  501    0  0.00000000000E+00  0.00000000000E+00 -0.80077152235E+03  0.80077152236E+03  0.25500000920E-02 0. -1.
    10030    2    1    2    0    0  0.00000000000E+00  0.00000000000E+00  0.98299224529E+02  0.16998422692E+04  0.16969976437E+04 0.  0.
        2    1    3    3  502    0 -0.31535379791E+02  0.31083099169E+03  0.83935720055E+03  0.89561760573E+03  0.25500000920E-02 0.  1.
       -2    1    3    3    0  502  0.31535379791E+02 -0.31083099169E+03 -0.74105797602E+03  0.80422466351E+03  0.25500000920E-02 0. -1.
</event>
<event>
 5   0  0.1186302E-04  0.1699957E+04  0.7818609E-02  0.8761389E-01
       -1   -1    0    0    0  501  0.00000000000E+00  0.00000000000E+00  0.42334917256E+03  0.42334917259E+03  0.50400001928E-02 0.  1.
        1   -1    0    0  501    0  0.00000000000E+00  0.00000000000E+00 -0.17065429817E+04  0.17065429818E+04  0.50400001928E-02 0. -1.
    10030    2    1    2    0    0  0.00000000000E+00  0.00000000000E+00 -0.12831938092E+04  0.21298921543E+04  0.16999571281E+04 0.  0.
        3    1    3    3  502    0  0.72542493017E+03 -0.34348512052E+03 -0.99205379088E+03  0.12760854562E+04  0.10100000352E+00 0.  1.
       -3    1    3    3    0  502 -0.72542493017E+03  0.34348512052E+03 -0.29114001830E+03  0.85380669814E+03  0.10100000352E+00 0. -1.
</event>
<event>
 5   0  0.2288806E-04  0.1696979E+04  0.7818609E-02  0.8763089E-01
       -2   -1    0    0    0  501  0.00000000000E+00  0.00000000000E+00  0.48668730435E+03  0.48668730435E+03  0.25500000920E-02 0. -1.
        2   -1    0    0  501    0  0.00000000000E+00  0.00000000000E+00 -0.14792547288E+04  0.14792547288E+04  0.25500000920E-02 0.  1.
    10030    2    1    2    0    0  0.00000000000E+00  0.00000000000E+00 -0.99256742450E+03  0.19659420332E+04  0.16969790764E+04 0.  0.
        3    1    3    3  502    0 -0.36533215293E+02  0.68840835381E+03 -0.10693510522E+04  0.12723020163E+04  0.10100000352E+00 0.  1.
       -3    1    3    3    0  502  0.36533215293E+02 -0.68840835381E+03  0.76783627750E+02  0.69364001695E+03  0.10100000352E+00 0. -1.
</event>
<event>
 5   0  0.2356829E-04  0.1665294E+04  0.7818609E-02  0.8781410E-01
       -2   -1    0    0    0  501  0.00000000000E+00  0.00000000000E+00  0.29699957815E+03  0.29699957816E+03  0.25500000920E-02 0. -1.
        2   -1    0    0  501    0  0.00000000000E+00  0.00000000000E+00 -0.23343494670E+04  0.23343494670E+04  0.25500000920E-02 0.  1.
    10030    2    1    2    0    0  0.00000000000E+00  0.00000000000E+00 -0.20373498889E+04  0.26313490452E+04  0.16652937362E+04 0.  0.
        5    1    3    3  502    0  0.33977382269E+03  0.24069443805E+03 -0.21579981904E+04  0.21978076218E+04  0.46999998093E+01 0.  1.
       -5    1    3    3    0  502 -0.33977382269E+03 -0.24069443805E+03  0.12064830148E+03  0.43354142333E+03  0.46999998093E+01 0. -1.
</event>
<event>
 5   0  0.2234723E-04  0.1699020E+04  0.7818609E-02  0.8761924E-01
        2   -1    0    0  501    0  0.00000000000E+00  0.00000000000E+00  0.93319733710E+03  0.93319733711E+03  0.25500000920E-02 0.  1.
       -2   -1    0    0    0  501  0.00000000000E+00  0.00000000000E+00 -0.77332721815E+03  0.77332721816E+03  0.25500000920E-02 0. -1.
    10030    2    1    2    0    0  0.00000000000E+00  0.00000000000E+00  0.15987011895E+03  0.17065245553E+04  0.16990196005E+04 0.  0.
        1    1    3    3  502    0  0.44261810785E+03 -0.42876669711E+03  0.66725314734E+03  0.90828323369E+03  0.50400001928E-02 0.  1.
       -1    1    3    3    0  502 -0.44261810785E+03  0.42876669711E+03 -0.50738302839E+03  0.79824132158E+03  0.50400001928E-02 0. -1.
</event>
<event>
 5   0  0.1186302E-04  0.1692742E+04  0.7818609E-02  0.8765515E-01
       -1   -1    0    0    0  501  0.00000000000E+00  0.00000000000E+00  0.12920308759E+04  0.12920308759E+04  0.50400001928E-02 0.  1.
        1   -1    0    0  501    0  0.00000000000E+00  0.00000000000E+00 -0.55443243530E+03  0.55443243532E+03  0.50400001928E-02 0. -1.
    10030    2    1    2    0    0  0.00000000000E+00  0.00000000000E+00  0.73759844062E+03  0.18464633113E+04  0.16927419473E+04 0.  0.
        3    1    3    3  502    0 -0.31975955631E+03  0.62119110328E+02  0.12209174478E+04  0.12636235128E+04  0.10100000352E+00 0.  1.
       -3    1    3    3    0  502  0.31975955631E+03 -0.62119110328E+02 -0.48331900716E+03  0.58283979841E+03  0.10100000352E+00 0. -1.
</event>
<event>
 5   0  0.1126958E-04  0.1704368E+04  0.7818609E-02  0.8758877E-01
       -1   -1    0    0    0  501  0.00000000000E+00  0.00000000000E+00  0.22928782346E+04  0.22928782346E+04  0.50400001928E-02 0. -1.
        1   -1    0    0  501    0  0.00000000000E+00  0.00000000000E+00 -0.31672747094E+03  0.31672747098E+03  0.50400001928E-02 0.  1.
    10030    2    1    2    0    0  0.00000000000E+00  0.00000000000E+00  0.19761507636E+04  0.26096057056E+04  0.17043679467E+04 0.  0.
        4    1    3    3  502    0 -0.44768450391E+03  0.16545769758E+03 -0.92881826176E+02  0.48623688802E+03  0.12699999809E+01 0.  1.
       -4    1    3    3    0  502  0.44768450391E+03 -0.16545769758E+03  0.20690325898E+04  0.21233688175E+04  0.12699999809E+01 0. -1.
</event>
<event>
 5   0  0.1186302E-04  0.1709115E+04  0.7818609E-02  0.8756183E-01
       -1   -1    0    0    0  501  0.00000000000E+00  0.00000000000E+00  0.64949244902E+03  0.64949244904E+03  0.50400001928E-02 0.  1.
        1   -1    0    0  501    0  0.00000000000E+00  0.00000000000E+00 -0.11243685811E+04  0.11243685811E+04  0.50400001928E-02 0. -1.
    10030    2    1    2    0    0  0.00000000000E+00  0.00000000000E+00 -0.47487613208E+03  0.17738610301E+04  0.17091154477E+04 0.  0.
        3    1    3    3  502    0  0.15724988084E+03  0.41720571562E+03 -0.99408271764E+03  0.10894900614E+04  0.10100000352E+00 0. -1.
       -3    1    3    3    0  502 -0.15724988084E+03 -0.41720571562E+03  0.51920658556E+03  0.68437096875E+03  0.10100000352E+00 0.  1.
</event>
<event>
 5   0  0.2242967E-04  0.1708759E+04  0.7818609E-02  0.8756385E-01
       -2   -1    0    0    0  501  0.00000000000E+00  0.00000000000E+00  0.42822793185E+03  0.42822793186E+03  0.25500000920E-02 0.  1.
        2   -1    0    0  501    0  0.00000000000E+00  0.00000000000E+00 -0.17046162333E+04  0.17046162333E+04  0.25500000920E-02 0. -1.
    10030    2    1    2    0    0  0.00000000000E+00  0.00000000000E+00 -0.12763883014E+04  0.21328441651E+04  0.17087589463E+04 0.  0.
        4    1    3    3  502    0  0.66082935994E+03 -0.11217919780E+03 -0.12994757251E+04  0.14621622305E+04  0.12699999809E+01 0. -1.
       -4    1    3    3    0  502 -0.66082935994E+03  0.11217919780E+03  0.23087423661E+02  0.67068193461E+03  0.12699999809E+01 0.  1.
</event>
<event>
 5   0  0.2356829E-04  0.1701435E+04  0.7818609E-02  0.8760546E-01
       -2   -1    0    0    0  501  0.00000000000E+00  0.00000000000E+00  0.47023962423E+03  0.47023962423E+03  0.25500000920E-02 0. -1.
        2   -1    0    0  501    0  0.00000000000E+00  0.00000000000E+00 -0.15390455789E+04  0.15390455789E+04  0.25500000920E-02 0.  1.
    10030    2    1    2    0    0  0.00000000000E+00  0.00000000000E+00 -0.10688059547E+04  0.20092852031E+04  0.17014349411E+04 0.  0.
        5    1    3    3  502    0 -0.26859485666E+03  0.77913386851E+03 -0.78353658268E+03  0.11371650929E+04  0.46999998093E+01 0. -1.
       -5    1    3    3    0  502  0.26859485666E+03 -0.77913386851E+03 -0.28526937198E+03  0.87212011023E+03  0.46999998093E+01 0.  1.
</event>
<event>
 5   0  0.2224454E-04  0.1704750E+04  0.7818609E-02  0.8758660E-01
        2   -1    0    0  501    0  0.00000000000E+00  0.00000000000E+00  0.16386150435E+04  0.16386150435E+04  0.25500000920E-02 0.  1.
       -2   -1    0    0    0  501  0.00000000000E+00  0.00000000000E+00 -0.44338842526E+03  0.44338842526E+03  0.25500000920E-02 0. -1.
    10030    2    1    2    0    0  0.00000000000E+00  0.00000000000E+00  0.11952266182E+04  0.20820034688E+04  0.17047497690E+04 0.  0.
        2    1    3    3  502    0  0.76179613665E+03 -0.21800209638E+03  0.98127255432E+03  0.12612510035E+04  0.25500000920E-02 0.  1.
       -2    1    3    3    0  502 -0.76179613665E+03  0.21800209638E+03  0.21395406392E+03  0.82075246531E+03  0.25500000920E-02 0. -1.
</event>
<event>
 5   0  0.2288806E-04  0.1659342E+04  0.7818609E-02  0.8784899E-01
        2   -1    0    0  501    0  0.00000000000E+00  0.00000000000E+00  0.93543286076E+03  0.93543286077E+03  0.25500000920E-02 0. -1.
       -2   -1    0    0    0  501  0.00000000000E+00  0.00000000000E+00 -0.73586657173E+03  0.73586657174E+03  0.25500000920E-02 0.  1.
    10030    2    1    2    0    0  0.00000000000E+00  0.00000000000E+00  0.19956628903E+03  0.16712994325E+04  0.16593417639E+04 0.  0.
        3    1    3    3  502    0 -0.48157278158E+03  0.37406115981E+03  0.66643820512E+03  0.90331278452E+03  0.10100000352E+00 0. -1.
       -3    1    3    3    0  502  0.48157278158E+03 -0.37406115981E+03 -0.46687191609E+03  0.76798664798E+03  0.10100000352E+00 0.  1.
</event>
<event>
 5   0  0.2224454E-04  0.1685634E+04  0.7818609E-02  0.8769600E-01
       -2   -1    0    0    0  501  0.00000000000E+00  0.00000000000E+00  0.33781411241E+03  0.33781411242E+03  0.25500000920E-02 0. -1.
        2   -1    0    0  501    0  0.00000000000E+00  0.00000000000E+00 -0.21027563772E+04  0.21027563772E+04  0.25500000920E-02 0.  1.
    10030    2    1    2    0    0  0.00000000000E+00  0.00000000000E+00 -0.17649422648E+04  0.24405704896E+04  0.16856343366E+04 0.  0.
        2    1    3    3  502    0  0.21398594947E+03 -0.81305669289E+03 -0.79694157378E+03  0.11584330125E+04  0.25500000920E-02 0.  1.
       -2    1    3    3    0  502 -0.21398594947E+03  0.81305669289E+03 -0.96800069102E+03  0.12821374771E+04  0.25500000920E-02 0. -1.
</event>
<event>
 5   0  0.2288806E-04  0.1705007E+04  0.7818609E-02  0.8758514E-01
        2   -1    0    0  501    0  0.00000000000E+00  0.00000000000E+00  0.83895910335E+03  0.83895910336E+03  0.25500000920E-02 0. -1.
       -2   -1    0    0    0  501  0.00000000000E+00  0.00000000000E+00 -0.86626695604E+03  0.86626695605E+03  0.25500000920E-02 0.  1.
    10030    2    1    2    0    0  0.00000000000E+00  0.00000000000E+00 -0.27307852691E+02  0.17052260594E+04  0.17050073885E+04 0.  0.
        3    1    3    3  502    0  0.78290004976E+03  0.32904063174E+03  0.60936556366E+02  0.85141852185E+03  0.10100000352E+00 0. -1.
       -3    1    3    3    0  502 -0.78290004976E+03 -0.32904063174E+03 -0.88244409057E+02  0.85380753755E+03  0.10100000352E+00 0.  1.
</event>
<event>
 5   0  0.2288806E-04  0.1694687E+04  0.7818609E-02  0.8764401E-01
       -2   -1    0    0    0  501  0.00000000000E+00  0.00000000000E+00  0.41829344397E+03  0.41829344398E+03  0.25500000920E-02 0. -1.
        2   -1    0    0  501    0  0.00000000000E+00  0.00000000000E+00 -0.17164759250E+04  0.17164759250E+04  0.25500000920E-02 0.  1.
    10030    2    1    2    0    0  0.00000000000E+00  0.00000000000E+00 -0.12981824810E+04  0.21347693689E+04  0.16946865505E+04 0.  0.
        3    1    3    3  502    0  0.83113664133E+03 -0.30618740951E+02 -0.44494084904E+03  0.94323803634E+03  0.10100000352E+00 0. -1.
       -3    1    3    3    0  502 -0.83113664133E+03  0.30618740951E+02 -0.85324163195E+03  0.11915313326E+04  0.10100000352E+00 0.  1.
</event>
<event>
 5   0  0.2242967E-04  0.1705279E+04  0.7818609E-02  0.8758359E-01
       -2   -1    0    0    0  501  0.00000000000E+00  0.00000000000E+00  0.46368117330E+03  0.46368117331E+03  0.25500000920E-02 0.  1.
        2   -1    0    0  501    0  0.00000000000E+00  0.00000000000E+00 -0.15678745326E+04  0.15678745326E+04  0.25500000920E-02 0. -1.
    10030    2    1    2    0    0  0.00000000000E+00  0.00000000000E+00 -0.11041933593E+04  0.20315557060E+04  0.17052787489E+04 0.  0.
        4    1    3    3  502    0 -0.11463991185E+03 -0.84489637135E+03 -0.55171566824E+03  0.10155707652E+04  0.12699999809E+01 0.  1.
       -4    1    3    3    0  502  0.11463991185E+03  0.84489637135E+03 -0.55247769110E+03  0.10159849407E+04  0.12699999809E+01 0. -1.
</event>
<event>
 5   0  0.1234158E-04  0.1701558E+04  0.7818609E-02  0.8760476E-01
       -1   -1    0    0    0  501  0.00000000000E+00  0.00000000000E+00  0.42305564501E+03  0.42305564504E+03  0.50400001928E-02 0.  1.
        1   -1    0    0  501    0  0.00000000000E+00  0.00000000000E+00 -0.17109452496E+04  0.17109452496E+04  0.50400001928E-02 0. -1.
    10030    2    1    2    0    0  0.00000000000E+00  0.00000000000E+00 -0.12878896046E+04  0.21340008946E+04  0.17015581638E+04 0.  0.
        5    1    3    3  502    0 -0.44255675847E+03  0.25430762926E+03  0.20967957578E+03  0.55183010906E+03  0.46999998093E+01 0.  1.
       -5    1    3    3    0  502  0.44255675847E+03 -0.25430762926E+03 -0.14975691803E+04  0.15821707856E+04  0.46999998093E+01 0. -1.
</event>
<event>
 5   0  0.1215233E-04  0.1701777E+04  0.7818609E-02  0.8760351E-01
       -1   -1    0    0    0  501  0.00000000000E+00  0.00000000000E+00  0.53749203593E+03  0.53749203596E+03  0.50400001928E-02 0.  1.
        1   -1    0    0  501    0  0.00000000000E+00  0.00000000000E+00 -0.13470181941E+04  0.13470181941E+04  0.50400001928E-02 0. -1.
    10030    2    1    2    0    0  0.00000000000E+00  0.00000000000E+00 -0.80952615815E+03  0.18845102300E+04  0.17017773669E+04 0.  0.
        2    1    3    3  502    0 -0.32346370224E+03 -0.67138915838E+03  0.49962624742E+02  0.74691929452E+03  0.25500000920E-02 0.  1.
       -2    1    3    3    0  502  0.32346370224E+03  0.67138915838E+03 -0.85948878289E+03  0.11375909355E+04  0.25500000920E-02 0. -1.
</event>
<event>
 5   0  0.1215233E-04  0.1701574E+04  0.7818609E-02  0.8760467E-01
       -1   -1    0    0    0  501  0.00000000000E+00  0.00000000000E+00  0.37977844696E+03  0.37977844700E+03  0.50400001928E-02 0.  1.
        1   -1    0    0  501    0  0.00000000000E+00  0.00000000000E+00 -0.19059501480E+04  0.19059501480E+04  0.50400001928E-02 0. -1.
    10030    2    1    2    0    0  0.00000000000E+00  0.00000000000E+00 -0.15261717010E+04  0.22857285950E+04  0.17015743148E+04 0.  0.
        2    1    3    3  502    0  0.16173581463E+03 -0.81621441203E+03 -0.10014012492E+04  0.13019865214E+04  0.25500000920E-02 0. -1.
       -2    1    3    3    0  502 -0.16173581463E+03  0.81621441203E+03 -0.52477045184E+03  0.98374207355E+03  0.25500000920E-02 0.  1.
</event>
<event>
 5   0  0.1186302E-04  0.1693707E+04  0.7818609E-02  0.8764962E-01
        1   -1    0    0  501    0  0.00000000000E+00  0.00000000000E+00  0.12683073249E+04  0.12683073249E+04  0.50400001928E-02 0. -1.
       -1   -1    0    0    0  501  0.00000000000E+00  0.00000000000E+00 -0.56544727967E+03  0.56544727969E+03  0.50400001928E-02 0.  1.
    10030    2    1    2    0    0  0.00000000000E+00  0.00000000000E+00  0.70286004526E+03  0.18337546046E+04  0.16937070900E+04 0.  0.
        3    1    3    3  502    0 -0.39075155730E+03  0.74387076013E+03  0.46565441784E+03  0.96065838588E+03  0.10100000352E+00 0. -1.
       -3    1    3    3    0  502  0.39075155730E+03 -0.74387076013E+03  0.23720562742E+03  0.87309621875E+03  0.10100000352E+00 0.  1.
</event>
<event>
 5   0  0.2234723E-04  0.1692833E+04  0.7818609E-02  0.8765463E-01
        2   -1    0    0  501    0  0.00000000000E+00  0.00000000000E+00  0.54048955549E+03  0.54048955549E+03  0.25500000920E-02 0. -1.
       -2   -1    0    0    0  501  0.00000000000E+00  0.00000000000E+00 -0.13255031524E+04  0.13255031524E+04  0.25500000920E-02 0.  1.
    10030    2    1    2    0    0  0.00000000000E+00  0.00000000000E+00 -0.78501359692E+03  0.18659927079E+04  0.16928326670E+04 0.  0.
        1    1    3    3  502    0 -0.54435446144E+03 -0.45182013189E+03  0.11974082777E+03  0.71749639521E+03  0.50400001928E-02 0. -1.
       -1    1    3    3    0  502  0.54435446144E+03  0.45182013189E+03 -0.90475442469E+03  0.11484963127E+04  0.50400001928E-02 0.  1.
</event>
<event>
 5   0  0.1186302E-04  0.1692114E+04  0.7818609E-02  0.8765875E-01
        1   -1    0    0  501    0  0.00000000000E+00  0.00000000000E+00  0.11243703790E+04  0.11243703790E+04  0.50400001928E-02 0.  1.
       -1   -1    0    0    0  501  0.00000000000E+00  0.00000000000E+00 -0.63663433994E+03  0.63663433996E+03  0.50400001928E-02 0. -1.
    10030    2    1    2    0    0  0.00000000000E+00  0.00000000000E+00  0.48773603908E+03  0.17610047190E+04  0.16921144100E+04 0.  0.
        3    1    3    3  502    0  0.41088037070E+03  0.70020047721E+03 -0.39645096743E+01  0.81186151211E+03  0.10100000352E+00 0. -1.
       -3    1    3    3    0  502 -0.41088037070E+03 -0.70020047721E+03  0.49170054875E+03  0.94914320687E+03  0.10100000352E+00 0.  1.
</event>
<event>
 5   0  0.2288806E-04  0.1695339E+04  0.7818609E-02  0.8764027E-01
        2   -1    0    0  501    0  0.00000000000E+00  0.00000000000E+00  0.25860586628E+04  0.25860586628E+04  0.25500000920E-02 0.  1.
       -2   -1    0    0    0  501  0.00000000000E+00  0.00000000000E+00 -0.27785288991E+03  0.27785288992E+03  0.25500000920E-02 0. -1.
    10030    2    1    2    0    0  0.00000000000E+00  0.00000000000E+00  0.23082057729E+04  0.28639115527E+04  0.16953393441E+04 0.  0.
        3    1    3    3  502    0  0.35876333163E+03 -0.76607968819E+03  0.10622789967E+04  0.13579491499E+04  0.10100000352E+00 0. -1.
       -3    1    3    3    0  502 -0.35876333163E+03  0.76607968819E+03  0.12459267762E+04  0.15059624028E+04  0.10100000352E+00 0.  1.
</event>
<event>
 5   0  0.1204741E-04  0.1714542E+04  0.7818609E-02  0.8753114E-01
       -1   -1    0    0    0  501  0.00000000000E+00  0.00000000000E+00  0.28214089246E+03  0.28214089251E+03  0.50400001928E-02 0.  1.
        1   -1    0    0  501    0  0.00000000000E+00  0.00000000000E+00 -0.26047755532E+04  0.26047755532E+04  0.50400001928E-02 0. -1.
    10030    2    1    2    0    0  0.00000000000E+00  0.00000000000E+00 -0.23226346607E+04  0.28869164457E+04  0.17145421538E+04 0.  0.
        1    1    3    3  502    0 -0.99030558202E+02  0.21856903449E+03  0.22444119042E+03  0.32856250893E+03  0.50400001928E-02 0.  1.
       -1    1    3    3    0  502  0.99030558202E+02 -0.21856903449E+03 -0.25470758511E+04  0.25583539368E+04  0.50400001928E-02 0. -1.
</event>
<event>
 5   0  0.2242967E-04  0.1694861E+04  0.7818609E-02  0.8764301E-01
       -2   -1    0    0    0  501  0.00000000000E+00  0.00000000000E+00  0.10218812357E+04  0.10218812358E+04  0.25500000920E-02 0.  1.
        2   -1    0    0  501    0  0.00000000000E+00  0.00000000000E+00 -0.70276080846E+03  0.70276080847E+03  0.25500000920E-02 0. -1.
    10030    2    1    2    0    0  0.00000000000E+00  0.00000000000E+00  0.31912042729E+03  0.17246420442E+04  0.16948605646E+04 0.  0.
        4    1    3    3  502    0 -0.21735840825E+03  0.41281321586E+03 -0.56031475812E+03  0.72911841966E+03  0.12699999809E+01 0. -1.
       -4    1    3    3    0  502  0.21735840825E+03 -0.41281321586E+03  0.87943518541E+03  0.99552362456E+03  0.12699999809E+01 0.  1.
</event>
<event>
 5   0  0.2242967E-04  0.1703355E+04  0.7818609E-02  0.8759453E-01
        2   -1    0    0  501    0  0.00000000000E+00  0.00000000000E+00  0.79345487266E+03  0.79345487267E+03  0.25500000920E-02 0. -1.
       -2   -1    0    0    0  501  0.00000000000E+00  0.00000000000E+00 -0.91417246039E+03  0.91417246039E+03  0.25500000920E-02 0.  1.
    10030    2    1    2    0    0  0.00000000000E+00  0.00000000000E+00 -0.12071758772E+03  0.17076273331E+04  0.17033550342E+04 0.  0.
        4    1    3    3  502    0 -0.12480617399E+03  0.77875585817E+03  0.26187501663E+03  0.83103393729E+03  0.12699999809E+01 0.  1.
       -4    1    3    3    0  502  0.12480617399E+03 -0.77875585817E+03 -0.38259260435E+03  0.87659339577E+03  0.12699999809E+01 0. -1.
</event>
<event>
 5   0  0.1234158E-04  0.1711378E+04  0.7818609E-02  0.8754901E-01
       -1   -1    0    0    0  501  0.00000000000E+00  0.00000000000E+00  0.60796823770E+03  0.60796823772E+03  0.50400001928E-02 0.  1.
        1   -1    0    0  501    0  0.00000000000E+00  0.00000000000E+00 -0.12043459563E+04  0.12043459563E+04  0.50400001928E-02 0. -1.
    10030    2    1    2    0    0  0.00000000000E+00  0.00000000000E+00 -0.59637771861E+03  0.18123141940E+04  0.17113784954E+04 0.  0.
        5    1    3    3  502    0 -0.17290916595E+03 -0.19738796874E+03  0.56429257634E+03  0.62234057524E+03  0.46999998093E+01 0.  1.
       -5    1    3    3    0  502  0.17290916595E+03  0.19738796874E+03 -0.11606702950E+04  0.11899736188E+04  0.46999998093E+01 0. -1.
</event>
<event>
 5   0  0.1186302E-04  0.1699276E+04  0.7818609E-02  0.8761777E-01
       -1   -1    0    0    0  501  0.00000000000E+00  0.00000000000E+00  0.98905303446E+03  0.98905303448E+03  0.50400001928E-02 0.  1.
        1   -1    0    0  501    0  0.00000000000E+00  0.00000000000E+00 -0.72987498341E+03  0.72987498342E+03  0.50400001928E-02 0. -1.
    10030    2    1    2    0    0  0.00000000000E+00  0.00000000000E+00  0.25917805106E+03  0.17189280179E+04  0.16992763956E+04 0.  0.
        3    1    3    3  502    0 -0.39126580716E+03 -0.54745060912E+03  0.65433079710E+03  0.93858398852E+03  0.10100000352E+00 0.  1.
       -3    1    3    3    0  502  0.39126580716E+03  0.54745060912E+03 -0.39515274604E+03  0.78034402938E+03  0.10100000352E+00 0. -1.
</event>
<event>
 5   0  0.1215233E-04  0.1698726E+04  0.7818609E-02  0.8762091E-01
        1   -1    0    0  501    0  0.00000000000E+00  0.00000000000E+00  0.14547493856E+04  0.14547493856E+04  0.50400001928E-02 0. -1.
       -1   -1    0    0    0  501  0.00000000000E+00  0.00000000000E+00 -0.49590480342E+03  0.49590480344E+03  0.50400001928E-02 0.  1.
    10030    2    1    2    0    0  0.00000000000E+00  0.00000000000E+00  0.95884458218E+03  0.19506541890E+04  0.16987256496E+04 0.  0.
        2    1    3    3  502    0 -0.26931140705E+03  0.86926063864E+02  0.13990216126E+04  0.14273563841E+04  0.25500000920E-02 0. -1.
       -2    1    3    3    0  502  0.26931140705E+03 -0.86926063864E+02 -0.44017703045E+03  0.52329780497E+03  0.25500000920E-02 0.  1.
</event>
<event>
 5   0  0.2242967E-04  0.1703821E+04  0.7818609E-02  0.8759188E-01
       -2   -1    0    0    0  501  0.00000000000E+00  0.00000000000E+00  0.85592384119E+03  0.85592384119E+03  0.25500000920E-02 0.  1.
        2   -1    0    0  501    0  0.00000000000E+00  0.00000000000E+00 -0.84791602884E+03  0.84791602884E+03  0.25500000920E-02 0. -1.
    10030    2    1    2    0    0  0.00000000000E+00  0.00000000000E+00  0.80078123527E+01  0.17038398700E+04  0.17038210521E+04 0.  0.
        4    1    3    3  502    0 -0.67018258520E+03  0.48799346599E+03  0.20013768929E+03  0.85284173674E+03  0.12699999809E+01 0.  1.
       -4    1    3    3    0  502  0.67018258520E+03 -0.48799346599E+03 -0.19212987694E+03  0.85099813329E+03  0.12699999809E+01 0. -1.
</event>
<event>
 5   0  0.1186302E-04  0.1737173E+04  0.7818609E-02  0.8740442E-01
        1   -1    0    0  501    0  0.00000000000E+00  0.00000000000E+00  0.18594083717E+04  0.18594083717E+04  0.50400001928E-02 0.  1.
       -1   -1    0    0    0  501  0.00000000000E+00  0.00000000000E+00 -0.40574348662E+03  0.40574348665E+03  0.50400001928E-02 0. -1.
    10030    2    1    2    0    0  0.00000000000E+00  0.00000000000E+00  0.14536648851E+04  0.22651518584E+04  0.17371733775E+04 0.  0.
        3    1    3    3  502    0 -0.59048573892E+03  0.56828406841E+03  0.11020893374E+04  0.13733976511E+04  0.10100000352E+00 0. -1.
       -3    1    3    3    0  502  0.59048573892E+03 -0.56828406841E+03  0.35157554777E+03  0.89175420731E+03  0.10100000352E+00 0.  1.
</event>
<event>
 5   0  0.2224454E-04  0.1693768E+04  0.7818609E-02  0.8764927E-01
        2   -1    0    0  501    0  0.00000000000E+00  0.00000000000E+00  0.65529895166E+03  0.65529895166E+03  0.25500000920E-02 0. -1.
       -2   -1    0    0    0  501  0.00000000000E+00  0.00000000000E+00 -0.10944816354E+04  0.10944816354E+04  0.25500000920E-02 0.  1.
    10030    2    1    2    0    0  0.00000000000E+00  0.00000000000E+00 -0.43918268374E+03  0.17497805871E+04  0.16937681875E+04 0.  0.
        2    1    3    3  502    0 -0.56406864359E+03 -0.29820734359E+03 -0.79488374329E+03  0.10192846608E+04  0.25500000920E-02 0.  1.
       -2    1    3    3    0  502  0.56406864359E+03  0.29820734359E+03  0.35570105955E+03  0.73049592622E+03  0.25500000920E-02 0. -1.
</event>
<event>
 5   0  0.2242967E-04  0.1713055E+04  0.7818609E-02  0.8753954E-01
        2   -1    0    0  501    0  0.00000000000E+00  0.00000000000E+00  0.84696199069E+03  0.84696199069E+03  0.25500000920E-02 0.  1.
       -2   -1    0    0    0  501  0.00000000000E+00  0.00000000000E+00 -0.86620069910E+03  0.86620069910E+03  0.25500000920E-02 0. -1.
    10030    2    1    2    0    0  0.00000000000E+00  0.00000000000E+00 -0.19238708405E+02  0.17131626898E+04  0.17130546616E+04 0.  0.
        4    1    3    3  502    0  0.35192412100E+03  0.76886651219E+03 -0.14612395095E+03  0.85811428286E+03  0.12699999809E+01 0. -1.
       -4    1    3    3    0  502 -0.35192412100E+03 -0.76886651219E+03  0.12688524254E+03  0.85504840693E+03  0.12699999809E+01 0.  1.
</event>
<event>
 5   0  0.1234158E-04  0.1699316E+04  0.7818609E-02  0.8761754E-01
        1   -1    0    0  501    0  0.00000000000E+00  0.00000000000E+00  0.42637545196E+03  0.42637545199E+03  0.50400001928E-02 0.  1.
       -1   -1    0    0    0  501  0.00000000000E+00  0.00000000000E+00 -0.16931536130E+04  0.16931536130E+04  0.50400001928E-02 0. -1.
    10030    2    1    2    0    0  0.00000000000E+00  0.00000000000E+00 -0.12667781610E+04  0.21195290649E+04  0.16993164943E+04 0.  0.
        5    1    3    3  502    0 -0.21407544743E+03  0.15580380187E+03 -0.16403677189E+04  0.16616050870E+04  0.46999998093E+01 0. -1.
       -5    1    3    3    0  502  0.21407544743E+03 -0.15580380187E+03  0.37358955788E+03  0.45792397799E+03  0.46999998093E+01 0.  1.
</event>
<event>
 5   0  0.8372750E-05  0.1667690E+04  0.7818609E-02  0.8780010E-01
        4   -1    0    0  501    0  0.00000000000E+00  0.00000000000E+00  0.66914542851E+03  0.66914663370E+03  0.12699999809E+01 0. -1.
       -4   -1    0    0    0  501  0.00000000000E+00  0.00000000000E+00 -0.10390801108E+04  0.10390808869E+04  0.12699999809E+01 0.  1.
    10030    2    1    2    0    0  0.00000000000E+00  0.00000000000E+00 -0.36993468229E+03  0.17082275206E+04  0.16676898971E+04 0.  0.
        5    1    3    3  502    0  0.17019781273E+03 -0.57109450821E+03 -0.78237591029E+03  0.98348888543E+03  0.46999998093E+01 0.  1.
       -5    1    3    3    0  502 -0.17019781273E+03  0.57109450821E+03  0.41244122800E+03  0.72473863518E+03  0.46999998093E+01 0. -1.
</event>
<event>
 5   0  0.2224454E-04  0.1732702E+04  0.7818609E-02  0.8742930E-01
       -2   -1    0    0    0  501  0.00000000000E+00  0.00000000000E+00  0.11579862185E+04  0.11579862185E+04  0.25500000920E-02 0. -1.
        2   -1    0    0  501    0  0.00000000000E+00  0.00000000000E+00 -0.64816290058E+03  0.64816290058E+03  0.25500000920E-02 0.  1.
    10030    2    1    2    0    0  0.00000000000E+00  0.00000000000E+00  0.50982331795E+03  0.18061491191E+04  0.17327015972E+04 0.  0.
        2    1    3    3  502    0  0.31541341081E+03  0.19783118104E+03  0.10703376911E+04  0.11332455908E+04  0.25500000920E-02 0. -1.
       -2    1    3    3    0  502 -0.31541341081E+03 -0.19783118104E+03 -0.56051437319E+03  0.67290352835E+03  0.25500000920E-02 0.  1.
</event>
<event>
 5   0  0.2288806E-04  0.1703727E+04  0.7818609E-02  0.8759242E-01
        2   -1    0    0  501    0  0.00000000000E+00  0.00000000000E+00  0.12887145491E+04  0.12887145491E+04  0.25500000920E-02 0.  1.
       -2   -1    0    0    0  501  0.00000000000E+00  0.00000000000E+00 -0.56309700765E+03  0.56309700765E+03  0.25500000920E-02 0. -1.
    10030    2    1    2    0    0  0.00000000000E+00  0.00000000000E+00  0.72561754145E+03  0.18518115568E+04  0.17037268635E+04 0.  0.
        3    1    3    3  502    0 -0.32919789111E+03 -0.58664538090E+02  0.12143995722E+04  0.12595948200E+04  0.10100000352E+00 0.  1.
       -3    1    3    3    0  502  0.32919789111E+03  0.58664538090E+02 -0.48878203070E+03  0.59221673675E+03  0.10100000352E+00 0. -1.
</event>
<event>
 5   0  0.2356829E-04  0.1740817E+04  0.7818609E-02  0.8738421E-01
       -2   -1    0    0    0  501  0.00000000000E+00  0.00000000000E+00  0.51083015908E+03  0.51083015909E+03  0.25500000920E-02 0. -1.
        2   -1    0    0  501    0  0.00000000000E+00  0.00000000000E+00 -0.14830979581E+04  0.14830979581E+04  0.25500000920E-02 0.  1.
    10030    2    1    2    0    0  0.00000000000E+00  0.00000000000E+00 -0.97226779906E+03  0.19939281172E+04  0.17408172401E+04 0.  0.
        5    1    3    3  502    0 -0.79521136439E+03 -0.27568442567E+03 -0.74026268079E+03  0.11208808782E+04  0.46999998093E+01 0.  1.
       -5    1    3    3    0  502  0.79521136439E+03  0.27568442567E+03 -0.23200511826E+03  0.87304723900E+03  0.46999998093E+01 0. -1.
</event>
<event>
 5   0  0.1215233E-04  0.1699768E+04  0.7818609E-02  0.8761497E-01
        1   -1    0    0  501    0  0.00000000000E+00  0.00000000000E+00  0.12503440565E+04  0.12503440565E+04  0.50400001928E-02 0.  1.
       -1   -1    0    0    0  501  0.00000000000E+00  0.00000000000E+00 -0.57768328001E+03  0.57768328004E+03  0.50400001928E-02 0. -1.
    10030    2    1    2    0    0  0.00000000000E+00  0.00000000000E+00  0.67266077647E+03  0.18280273365E+04  0.16997680497E+04 0.  0.
        2    1    3    3  502    0 -0.53073208290E+02 -0.48282847904E+03  0.10863509627E+04  0.11899993781E+04  0.25500000920E-02 0.  1.
       -2    1    3    3    0  502  0.53073208290E+02  0.48282847904E+03 -0.41369018623E+03  0.63802795848E+03  0.25500000920E-02 0. -1.
</event>
<event>
 5   0  0.2224454E-04  0.1697070E+04  0.7818609E-02  0.8763037E-01
        2   -1    0    0  501    0  0.00000000000E+00  0.00000000000E+00  0.24458231070E+04  0.24458231070E+04  0.25500000920E-02 0.  1.
       -2   -1    0    0    0  501  0.00000000000E+00  0.00000000000E+00 -0.29438413606E+03  0.29438413607E+03  0.25500000920E-02 0. -1.
    10030    2    1    2    0    0  0.00000000000E+00  0.00000000000E+00  0.21514389710E+04  0.27402072431E+04  0.16970698540E+04 0.  0.
        2    1    3    3  502    0  0.50671034587E+03  0.66136053028E+03  0.81607178071E+03  0.11662445185E+04  0.25500000920E-02 0. -1.
       -2    1    3    3    0  502 -0.50671034587E+03 -0.66136053028E+03  0.13353671903E+04  0.15739627246E+04  0.25500000920E-02 0.  1.
</event>
<event>
 5   0  0.1215233E-04  0.1706976E+04  0.7818609E-02  0.8757396E-01
       -1   -1    0    0    0  501  0.00000000000E+00  0.00000000000E+00  0.46881694535E+03  0.46881694538E+03  0.50400001928E-02 0. -1.
        1   -1    0    0  501    0  0.00000000000E+00  0.00000000000E+00 -0.15537873045E+04  0.15537873045E+04  0.50400001928E-02 0.  1.
    10030    2    1    2    0    0  0.00000000000E+00  0.00000000000E+00 -0.10849703591E+04  0.20226042499E+04  0.17069760606E+04 0.  0.
        2    1    3    3  502    0  0.72957459064E+03  0.12556658554E+03 -0.10457500966E+04  0.12812647327E+04  0.25500000920E-02 0.  1.
       -2    1    3    3    0  502 -0.72957459064E+03 -0.12556658554E+03 -0.39220262537E+02  0.74133951717E+03  0.25500000920E-02 0. -1.
</event>
<event>
 5   0  0.2356829E-04  0.1663160E+04  0.7818609E-02  0.8782659E-01
       -2   -1    0    0    0  501  0.00000000000E+00  0.00000000000E+00  0.12068277048E+04  0.12068277048E+04  0.25500000920E-02 0. -1.
        2   -1    0    0  501    0  0.00000000000E+00  0.00000000000E+00 -0.57301101671E+03  0.57301101672E+03  0.25500000920E-02 0.  1.
    10030    2    1    2    0    0  0.00000000000E+00  0.00000000000E+00  0.63381668805E+03  0.17798387215E+04  0.16631603291E+04 0.  0.
        5    1    3    3  502    0 -0.63366541836E+02  0.37362813148E+03 -0.47521587531E+03  0.60783675227E+03  0.46999998093E+01 0.  1.
       -5    1    3    3    0  502  0.63366541836E+02 -0.37362813148E+03  0.11090325634E+04  0.11720019692E+04  0.46999998093E+01 0. -1.
</event>
<event>
 5   0  0.1204741E-04  0.1700811E+04  0.7818609E-02  0.8760902E-01
        1   -1    0    0  501    0  0.00000000000E+00  0.00000000000E+00  0.18001788180E+04  0.18001788180E+04  0.50400001928E-02 0.  1.
       -1   -1    0    0    0  501  0.00000000000E+00  0.00000000000E+00 -0.40173187886E+03  0.40173187889E+03  0.50400001928E-02 0. -1.
    10030    2    1    2    0    0  0.00000000000E+00  0.00000000000E+00  0.13984469392E+04  0.22019106969E+04  0.17008106525E+04 0.  0.
        1    1    3    3  502    0 -0.15772873549E+03 -0.49787739549E+03  0.15680976435E+04  0.16527826459E+04  0.50400001928E-02 0. -1.
       -1    1    3    3    0  502  0.15772873549E+03  0.49787739549E+03 -0.16965070434E+03  0.54912805104E+03  0.50400001928E-02 0.  1.
</event>
<event>
 5   0  0.1215233E-04  0.1694057E+04  0.7818609E-02  0.8764761E-01
       -1   -1    0    0    0  501  0.00000000000E+00  0.00000000000E+00  0.53582368318E+03  0.53582368321E+03  0.50400001928E-02 0.  1.
        1   -1    0    0  501    0  0.00000000000E+00  0.00000000000E+00 -0.13389796824E+04  0.13389796824E+04  0.50400001928E-02 0. -1.
    10030    2    1    2    0    0  0.00000000000E+00  0.00000000000E+00 -0.80315599925E+03  0.18748033656E+04  0.16940566994E+04 0.  0.
        2    1    3    3  502    0  0.15115541932E+03 -0.29859027894E+03 -0.12627065096E+04  0.13063046524E+04  0.25500000920E-02 0. -1.
       -2    1    3    3    0  502 -0.15115541932E+03  0.29859027894E+03  0.45955051032E+03  0.56849871329E+03  0.25500000920E-02 0.  1.
</event>
<event>
 5   0  0.1204741E-04  0.1710175E+04  0.7818609E-02  0.8755582E-01
        1   -1    0    0  501    0  0.00000000000E+00  0.00000000000E+00  0.18644741655E+04  0.18644741655E+04  0.50400001928E-02 0. -1.
       -1   -1    0    0    0  501  0.00000000000E+00  0.00000000000E+00 -0.39216121485E+03  0.39216121488E+03  0.50400001928E-02 0.  1.
    10030    2    1    2    0    0  0.00000000000E+00  0.00000000000E+00  0.14723129506E+04  0.22566353804E+04  0.17101747909E+04 0.  0.
        1    1    3    3  502    0 -0.70522568390E+03 -0.28975079153E+03  0.12469983118E+04  0.14616099261E+04  0.50400001928E-02 0.  1.
       -1    1    3    3    0  502  0.70522568390E+03  0.28975079153E+03  0.22531463883E+03  0.79502545426E+03  0.50400001928E-02 0. -1.
</event>
<event>
 5   0  0.2356829E-04  0.1698169E+04  0.7818609E-02  0.8762409E-01
        2   -1    0    0  501    0  0.00000000000E+00  0.00000000000E+00  0.10651868873E+04  0.10651868873E+04  0.25500000920E-02 0. -1.
       -2   -1    0    0    0  501  0.00000000000E+00  0.00000000000E+00 -0.67682434086E+03  0.67682434086E+03  0.25500000920E-02 0.  1.
    10030    2    1    2    0    0  0.00000000000E+00  0.00000000000E+00  0.38836254649E+03  0.17420112282E+04  0.16981689114E+04 0.  0.
        5    1    3    3  502    0  0.70326945840E+03 -0.13210729654E+02 -0.29365920797E+03  0.76224685957E+03  0.46999998093E+01 0.  1.
       -5    1    3    3    0  502 -0.70326945840E+03  0.13210729654E+02  0.68202175446E+03  0.97976436864E+03  0.46999998093E+01 0. -1.
</event>
<event>
 5   0  0.1234158E-04  0.1696884E+04  0.7818609E-02  0.8763144E-01
        1   -1    0    0  501    0  0.00000000000E+00  0.00000000000E+00  0.43708234509E+03  0.43708234512E+03  0.50400001928E-02 0. -1.
       -1   -1    0    0    0  501  0.00000000000E+00  0.00000000000E+00 -0.16469515138E+04  0.16469515138E+04  0.50400001928E-02 0.  1.
    10030    2    1    2    0    0  0.00000000000E+00  0.00000000000E+00 -0.12098691687E+04  0.20840338589E+04  0.16968835316E+04 0.  0.
        5    1    3    3  502    0  0.59676486196E+03  0.48140108851E+03 -0.15879849238E+03  0.78301619374E+03  0.46999998093E+01 0.  1.
       -5    1    3    3    0  502 -0.59676486196E+03 -0.48140108851E+03 -0.10510706763E+04  0.13010176652E+04  0.46999998093E+01 0. -1.
</event>
<event>
 5   0  0.1186302E-04  0.1681062E+04  0.7818609E-02  0.8772239E-01
        1   -1    0    0  501    0  0.00000000000E+00  0.00000000000E+00  0.79679710520E+03  0.79679710521E+03  0.50400001928E-02 0. -1.
       -1   -1    0    0    0  501  0.00000000000E+00  0.00000000000E+00 -0.88666573310E+03  0.88666573312E+03  0.50400001928E-02 0.  1.
    10030    2    1    2    0    0  0.00000000000E+00  0.00000000000E+00 -0.89868627905E+02  0.16834628383E+04  0.16810623896E+04 0.  0.
        3    1    3    3  502    0  0.79965455891E+03  0.16514760270E+03 -0.24464710386E+03  0.85239272632E+03  0.10100000352E+00 0.  1.
       -3    1    3    3    0  502 -0.79965455891E+03 -0.16514760270E+03  0.15477847595E+03  0.83107011201E+03  0.10100000352E+00 0. -1.
</event>
<event>
 5   0  0.2234723E-04  0.1697589E+04  0.7818609E-02  0.8762740E-01
        2   -1    0    0  501    0  0.00000000000E+00  0.00000000000E+00  0.18748917979E+04  0.18748917979E+04  0.25500000920E-02 0.  1.
       -2   -1    0    0    0  501  0.00000000000E+00  0.00000000000E+00 -0.38426346715E+03  0.38426346715E+03  0.25500000920E-02 0. -1.
    10030    2    1    2    0    0  0.00000000000E+00  0.00000000000E+00  0.14906283307E+04  0.22591552650E+04  0.16975893765E+04 0.  0.
        1    1    3    3  502    0 -0.11670774977E+03 -0.90192920036E+02  0.18577061686E+04  0.18635524330E+04  0.50400001928E-02 0.  1.
       -1    1    3    3    0  502  0.11670774977E+03  0.90192920036E+02 -0.36707783783E+03  0.39560283206E+03  0.50400001928E-02 0. -1.
</event>
<event>
 5   0  0.1204741E-04  0.1690663E+04  0.7818609E-02  0.8766708E-01
        1   -1    0    0  501    0  0.00000000000E+00  0.00000000000E+00  0.13836080449E+04  0.13836080449E+04  0.50400001928E-02 0.  1.
       -1   -1    0    0    0  501  0.00000000000E+00  0.00000000000E+00 -0.51646511097E+03  0.51646511099E+03  0.50400001928E-02 0. -1.
    10030    2    1    2    0    0  0.00000000000E+00  0.00000000000E+00  0.86714293394E+03  0.19000731559E+04  0.16906629262E+04 0.  0.
        1    1    3    3  502    0  0.41023040060E+03 -0.41480981416E+03  0.11210863145E+04  0.12638000981E+04  0.50400001928E-02 0.  1.
       -1    1    3    3    0  502 -0.41023040060E+03  0.41480981416E+03 -0.25394338054E+03  0.63627305777E+03  0.50400001928E-02 0. -1.
</event>
<event>
 5   0  0.2288806E-04  0.1714446E+04  0.7818609E-02  0.8753168E-01
       -2   -1    0    0    0  501  0.00000000000E+00  0.00000000000E+00  0.87229023448E+03  0.87229023448E+03  0.25500000920E-02 0.  1.
        2   -1    0    0  501    0  0.00000000000E+00  0.00000000000E+00 -0.84241631517E+03  0.84241631518E+03  0.25500000920E-02 0. -1.
    10030    2    1    2    0    0  0.00000000000E+00  0.00000000000E+00  0.29873919307E+02  0.17147065497E+04  0.17144462956E+04 0.  0.
        3    1    3    3  502    0 -0.69162810668E+02  0.76360312065E+03  0.39834655105E+03  0.86403310421E+03  0.10100000352E+00 0.  1.
       -3    1    3    3    0  502  0.69162810668E+02 -0.76360312065E+03 -0.36847263174E+03  0.85067344545E+03  0.10100000352E+00 0. -1.
</event>
<event>
 5   0  0.1204741E-04  0.1709464E+04  0.7818609E-02  0.8755985E-01
       -1   -1    0    0    0  501  0.00000000000E+00  0.00000000000E+00  0.56116501147E+03  0.56116501149E+03  0.50400001928E-02 0. -1.
        1   -1    0    0  501    0  0.00000000000E+00  0.00000000000E+00 -0.13018749705E+04  0.13018749705E+04  0.50400001928E-02 0.  1.
    10030    2    1    2    0    0  0.00000000000E+00  0.00000000000E+00 -0.74070995902E+03  0.18630399820E+04  0.17094638724E+04 0.  0.
        1    1    3    3  502    0 -0.23648383707E+03  0.34623533747E+02 -0.12647157942E+04  0.12871011748E+04  0.50400001928E-02 0.  1.
       -1    1    3    3    0  502  0.23648383707E+03 -0.34623533747E+02  0.52400583514E+03  0.57593880714E+03  0.50400001928E-02 0. -1.
</event>
<event>
 5   0  0.1204741E-04  0.1704976E+04  0.7818609E-02  0.8758532E-01
       -1   -1    0    0    0  501  0.00000000000E+00  0.00000000000E+00  0.81284771010E+03  0.81284771012E+03  0.50400001928E-02 0.  1.
        1   -1    0    0  501    0  0.00000000000E+00  0.00000000000E+00 -0.89406119783E+03  0.89406119784E+03  0.50400001928E-02 0. -1.
    10030    2    1    2    0    0  0.00000000000E+00  0.00000000000E+00 -0.81213487724E+02  0.17069089080E+04  0.17049757739E+04 0.  0.
        1    1    3    3  502    0 -0.79693515406E+03 -0.18849715488E+03  0.19651361381E+03  0.84217243936E+03  0.50400001928E-02 0.  1.
       -1    1    3    3    0  502  0.79693515406E+03  0.18849715488E+03 -0.27772710153E+03  0.86473646860E+03  0.50400001928E-02 0. -1.
</event>
<event>
 5   0  0.2234723E-04  0.1700992E+04  0.7818609E-02  0.8760799E-01
       -2   -1    0    0    0  501  0.00000000000E+00  0.00000000000E+00  0.64704735907E+03  0.64704735908E+03  0.25500000920E-02 0. -1.
        2   -1    0    0  501    0  0.00000000000E+00  0.00000000000E+00 -0.11179144085E+04  0.11179144085E+04  0.25500000920E-02 0.  1.
    10030    2    1    2    0    0  0.00000000000E+00  0.00000000000E+00 -0.47086704943E+03  0.17649617676E+04  0.17009921407E+04 0.  0.
        1    1    3    3  502    0  0.84966139981E+03 -0.24188246848E+02 -0.20546840375E+03  0.87448660972E+03  0.50400001928E-02 0. -1.
       -1    1    3    3    0  502 -0.84966139981E+03  0.24188246848E+02 -0.26539864568E+03  0.89047515786E+03  0.50400001928E-02 0.  1.
</event>
<event>
 5   0  0.1204741E-04  0.1668614E+04  0.7818609E-02  0.8779470E-01
        1   -1    0    0  501    0  0.00000000000E+00  0.00000000000E+00  0.12062455520E+04  0.12062455520E+04  0.50400001928E-02 0.  1.
       -1   -1    0    0    0  501  0.00000000000E+00  0.00000000000E+00 -0.57705357460E+03  0.57705357462E+03  0.50400001928E-02 0. -1.
    10030    2    1    2    0    0  0.00000000000E+00  0.00000000000E+00  0.62919197741E+03  0.17832991266E+04  0.16686141647E+04 0.  0.
        1    1    3    3  502    0 -0.41809369395E+03 -0.72190289179E+03  0.30278249946E+03  0.88748147254E+03  0.50400001928E-02 0. -1.
       -1    1    3    3    0  502  0.41809369395E+03  0.72190289179E+03  0.32640947795E+03  0.89581765411E+03  0.50400001928E-02 0.  1.
</event>
<event>
 5   0  0.1204741E-04  0.1703910E+04  0.7818609E-02  0.8759138E-01
        1   -1    0    0  501    0  0.00000000000E+00  0.00000000000E+00  0.13940450756E+04  0.13940450756E+04  0.50400001928E-02 0. -1.
       -1   -1    0    0    0  501  0.00000000000E+00  0.00000000000E+00 -0.52066256953E+03  0.52066256956E+03  0.50400001928E-02 0.  1.
    10030    2    1    2    0    0  0.00000000000E+00  0.00000000000E+00  0.87338250609E+03  0.19147076452E+04  0.17039097290E+04 0.  0.
        1    1    3    3  502    0 -0.31371494754E+03  0.32227608272E+02  0.13260394931E+04  0.13630247336E+04  0.50400001928E-02 0. -1.
       -1    1    3    3    0  502  0.31371494754E+03 -0.32227608272E+02 -0.45265698702E+03  0.55168291161E+03  0.50400001928E-02 0.  1.
</event>
<event>
 5   0  0.2288806E-04  0.1694042E+04  0.7818609E-02  0.8764770E-01
       -2   -1    0    0    0  501  0.00000000000E+00  0.00000000000E+00  0.34302902237E+03  0.34302902238E+03  0.25500000920E-02 0.  1.
        2   -1    0    0  501    0  0.00000000000E+00  0.00000000000E+00 -0.20914987925E+04  0.20914987925E+04  0.25500000920E-02 0. -1.
    10030    2    1    2    0    0  0.00000000000E+00  0.00000000000E+00 -0.17484697701E+04  0.24345278149E+04  0.16940422499E+04 0.  0.
        3    1    3    3  502    0  0.21245159009E+03  0.23203205595E+03  0.25595105596E+03  0.40556812790E+03  0.10100000352E+00 0.  1.
       -3    1    3    3    0  502 -0.21245159009E+03 -0.23203205595E+03 -0.20044208261E+04  0.20289596870E+04  0.10100000352E+00 0. -1.
</event>
<event>
 5   0  0.2356829E-04  0.1696856E+04  0.7818609E-02  0.8763159E-01
       -2   -1    0    0    0  501  0.00000000000E+00  0.00000000000E+00  0.94322362212E+03  0.94322362213E+03  0.25500000920E-02 0. -1.
        2   -1    0    0  501    0  0.00000000000E+00  0.00000000000E+00 -0.76315991010E+03  0.76315991011E+03  0.25500000920E-02 0.  1.
    10030    2    1    2    0    0  0.00000000000E+00  0.00000000000E+00  0.18006371202E+03  0.17063835322E+04  0.16968564520E+04 0.  0.
        5    1    3    3  502    0 -0.56888141840E+03  0.39918690569E+03 -0.39935448065E+03  0.80154996419E+03  0.46999998093E+01 0.  1.
       -5    1    3    3    0  502  0.56888141840E+03 -0.39918690569E+03  0.57941819267E+03  0.90483356805E+03  0.46999998093E+01 0. -1.
</event>
<event>
 5   0  0.2224454E-04  0.1701015E+04  0.7818609E-02  0.8760786E-01
        2   -1    0    0  501    0  0.00000000000E+00  0.00000000000E+00  0.11980034316E+04  0.11980034316E+04  0.25500000920E-02 0. -1.
       -2   -1    0    0    0  501  0.00000000000E+00  0.00000000000E+00 -0.60380680980E+03  0.60380680980E+03  0.25500000920E-02 0.  1.
    10030    2    1    2    0    0  0.00000000000E+00  0.00000000000E+00  0.59419662176E+03  0.18018102414E+04  0.17010145563E+04 0.  0.
        2    1    3    3  502    0  0.63414098919E+03 -0.56391182820E+03  0.23688552533E+03  0.88104829395E+03  0.25500000920E-02 0. -1.
       -2    1    3    3    0  502 -0.63414098919E+03  0.56391182820E+03  0.35731109644E+03  0.92076194741E+03  0.25500000920E-02 0.  1.
</event>
<event>
 5   0  0.2224454E-04  0.1739533E+04  0.7818609E-02  0.8739133E-01
       -2   -1    0    0    0  501  0.00000000000E+00  0.00000000000E+00  0.38964227456E+03  0.38964227457E+03  0.25500000920E-02 0. -1.
        2   -1    0    0  501    0  0.00000000000E+00  0.00000000000E+00 -0.19415078243E+04  0.19415078243E+04  0.25500000920E-02 0.  1.
    10030    2    1    2    0    0  0.00000000000E+00  0.00000000000E+00 -0.15518655497E+04  0.23311500989E+04  0.17395327243E+04 0.  0.
        2    1    3    3  502    0 -0.41740890998E+03 -0.65643123459E+03 -0.25456384489E+03  0.81849551923E+03  0.25500000920E-02 0.  1.
       -2    1    3    3    0  502  0.41740890998E+03  0.65643123459E+03 -0.12973017048E+04  0.15126545796E+04  0.25500000920E-02 0. -1.
</event>
<event>
 5   0  0.2288806E-04  0.1710101E+04  0.7818609E-02  0.8755624E-01
       -2   -1    0    0    0  501  0.00000000000E+00  0.00000000000E+00  0.56344196806E+03  0.56344196807E+03  0.25500000920E-02 0.  1.
        2   -1    0    0  501    0  0.00000000000E+00  0.00000000000E+00 -0.12975800003E+04  0.12975800003E+04  0.25500000920E-02 0. -1.
    10030    2    1    2    0    0  0.00000000000E+00  0.00000000000E+00 -0.73413803226E+03  0.18610219684E+04  0.17101006159E+04 0.  0.
        3    1    3    3  502    0 -0.42036333242E+03  0.72687603445E+03 -0.19140154015E+03  0.86121348136E+03  0.10100000352E+00 0.  1.
       -3    1    3    3    0  502  0.42036333242E+03 -0.72687603445E+03 -0.54273649211E+03  0.99980848704E+03  0.10100000352E+00 0. -1.
</event>
<event>
 5   0  0.1215233E-04  0.1714445E+04  0.7818609E-02  0.8753169E-01
        1   -1    0    0  501    0  0.00000000000E+00  0.00000000000E+00  0.12090421235E+04  0.12090421235E+04  0.50400001928E-02 0. -1.
       -1   -1    0    0    0  501  0.00000000000E+00  0.00000000000E+00 -0.60777871892E+03  0.60777871894E+03  0.50400001928E-02 0.  1.
    10030    2    1    2    0    0  0.00000000000E+00  0.00000000000E+00  0.60126340453E+03  0.18168208424E+04  0.17144446015E+04 0.  0.
        2    1    3    3  502    0 -0.28633827146E+03  0.23778979233E+03  0.11189453051E+04  0.11792252486E+04  0.25500000920E-02 0. -1.
       -2    1    3    3    0  502  0.28633827146E+03 -0.23778979233E+03 -0.51768190059E+03  0.63759559381E+03  0.25500000920E-02 0.  1.
</event>
<event>
 5   0  0.2234723E-04  0.1803682E+04  0.7818609E-02  0.8704344E-01
       -2   -1    0    0    0  501  0.00000000000E+00  0.00000000000E+00  0.78638496650E+03  0.78638496650E+03  0.25500000920E-02 0.  1.
        2   -1    0    0  501    0  0.00000000000E+00  0.00000000000E+00 -0.10342483316E+04  0.10342483316E+04  0.25500000920E-02 0. -1.
    10030    2    1    2    0    0  0.00000000000E+00  0.00000000000E+00 -0.24786336509E+03  0.18206332981E+04  0.18036821667E+04 0.  0.
        1    1    3    3  502    0  0.33350601779E+03  0.68411588385E+03 -0.61229317056E+03  0.97680281182E+03  0.50400001928E-02 0. -1.
       -1    1    3    3    0  502 -0.33350601779E+03 -0.68411588385E+03  0.36442980547E+03  0.84383048628E+03  0.50400001928E-02 0.  1.
</event>
<event>
 5   0  0.1186302E-04  0.1685930E+04  0.7818609E-02  0.8769430E-01
       -1   -1    0    0    0  501  0.00000000000E+00  0.00000000000E+00  0.70944289641E+03  0.70944289643E+03  0.50400001928E-02 0. -1.
        1   -1    0    0  501    0  0.00000000000E+00  0.00000000000E+00 -0.10016173249E+04  0.10016173249E+04  0.50400001928E-02 0.  1.
    10030    2    1    2    0    0  0.00000000000E+00  0.00000000000E+00 -0.29217442852E+03  0.17110602214E+04  0.16859303617E+04 0.  0.
        3    1    3    3  502    0  0.19980228373E+03  0.79605148544E+03 -0.34123265575E+03  0.88885243747E+03  0.10100000352E+00 0. -1.
       -3    1    3    3    0  502 -0.19980228373E+03 -0.79605148544E+03  0.49058227229E+02  0.82220778390E+03  0.10100000352E+00 0.  1.
</event>
<event>
 5   0  0.1186302E-04  0.1697989E+04  0.7818609E-02  0.8762512E-01
       -1   -1    0    0    0  501  0.00000000000E+00  0.00000000000E+00  0.72376429387E+03  0.72376429389E+03  0.50400001928E-02 0.  1.
        1   -1    0    0  501    0  0.00000000000E+00  0.00000000000E+00 -0.99589337678E+03  0.99589337679E+03  0.50400001928E-02 0. -1.
    10030    2    1    2    0    0  0.00000000000E+00  0.00000000000E+00 -0.27212908291E+03  0.17196576707E+04  0.16979894778E+04 0.  0.
        3    1    3    3  502    0 -0.47413593782E+02  0.83014605471E+03  0.37592345743E+02  0.83234831392E+03  0.10100000352E+00 0.  1.
       -3    1    3    3    0  502  0.47413593782E+02 -0.83014605471E+03 -0.30972142865E+03  0.88730935676E+03  0.10100000352E+00 0. -1.
</event>
<event>
 5   0  0.1126958E-04  0.1737635E+04  0.7818609E-02  0.8740186E-01
        1   -1    0    0  501    0  0.00000000000E+00  0.00000000000E+00  0.99764510441E+03  0.99764510442E+03  0.50400001928E-02 0.  1.
       -1   -1    0    0    0  501  0.00000000000E+00  0.00000000000E+00 -0.75662532082E+03  0.75662532084E+03  0.50400001928E-02 0. -1.
    10030    2    1    2    0    0  0.00000000000E+00  0.00000000000E+00  0.24101978358E+03  0.17542704253E+04  0.17376346534E+04 0.  0.
        4    1    3    3  502    0 -0.23617132618E+03 -0.23131907703E+03  0.93166743245E+03  0.98858041064E+03  0.12699999809E+01 0.  1.
       -4    1    3    3    0  502  0.23617132618E+03  0.23131907703E+03 -0.69064764887E+03  0.76569001462E+03  0.12699999809E+01 0. -1.
</event>
<event>
 5   0  0.2242967E-04  0.1705577E+04  0.7818609E-02  0.8758190E-01
        2   -1    0    0  501    0  0.00000000000E+00  0.00000000000E+00  0.17693150841E+04  0.17693150841E+04  0.25500000920E-02 0.  1.
       -2   -1    0    0    0  501  0.00000000000E+00  0.00000000000E+00 -0.41103386219E+03  0.41103386220E+03  0.25500000920E-02 0. -1.
    10030    2    1    2    0    0  0.00000000000E+00  0.00000000000E+00  0.13582812219E+04  0.21803489463E+04  0.17055772190E+04 0.  0.
        4    1    3    3  502    0  0.57670778192E+03 -0.64427783785E+02  0.14779945078E+04  0.15878325425E+04  0.12699999809E+01 0.  1.
       -4    1    3    3    0  502 -0.57670778192E+03  0.64427783785E+02 -0.11971328589E+03  0.59251640380E+03  0.12699999809E+01 0. -1.
</event>
<event>
 5   0  0.1186302E-04  0.1739471E+04  0.7818609E-02  0.8739168E-01
       -1   -1    0    0    0  501  0.00000000000E+00  0.00000000000E+00  0.12485233472E+04  0.12485233472E+04  0.50400001928E-02 0. -1.
        1   -1    0    0  501    0  0.00000000000E+00  0.00000000000E+00 -0.60586729840E+03  0.60586729842E+03  0.50400001928E-02 0.  1.
    10030    2    1    2    0    0  0.00000000000E+00  0.00000000000E+00  0.64265604881E+03  0.18543906456E+04  0.17394705716E+04 0.  0.
        3    1    3    3  502    0 -0.14133924377E+02 -0.72851763452E+03 -0.18491505136E+03  0.75175215200E+03  0.10100000352E+00 0.  1.
       -3    1    3    3    0  502  0.14133924377E+02  0.72851763452E+03  0.82757110017E+03  0.11026384936E+04  0.10100000352E+00 0. -1.
</event>
<event>
 5   0  0.2356829E-04  0.1705604E+04  0.7818609E-02  0.8758175E-01
       -2   -1    0    0    0  501  0.00000000000E+00  0.00000000000E+00  0.46868327820E+03  0.46868327821E+03  0.25500000920E-02 0. -1.
        2   -1    0    0  501    0  0.00000000000E+00  0.00000000000E+00 -0.15517329778E+04  0.15517329778E+04  0.25500000920E-02 0.  1.
    10030    2    1    2    0    0  0.00000000000E+00  0.00000000000E+00 -0.10830496996E+04  0.20204162560E+04  0.17056040560E+04 0.  0.
        5    1    3    3  502    0 -0.16280640085E+03 -0.47177084663E+03  0.27761172620E+03  0.57110770999E+03  0.46999998093E+01 0. -1.
       -5    1    3    3    0  502  0.16280640085E+03  0.47177084663E+03 -0.13606614258E+04  0.14493085460E+04  0.46999998093E+01 0.  1.
</event>
<event>
 5   0  0.1186302E-04  0.1680926E+04  0.7818609E-02  0.8772318E-01
       -1   -1    0    0    0  501  0.00000000000E+00  0.00000000000E+00  0.32377918550E+03  0.32377918553E+03  0.50400001928E-02 0. -1.
        1   -1    0    0  501    0  0.00000000000E+00  0.00000000000E+00 -0.21816656668E+04  0.21816656668E+04  0.50400001928E-02 0.  1.
    10030    2    1    2    0    0  0.00000000000E+00  0.00000000000E+00 -0.18578864813E+04  0.25054448523E+04  0.16809258552E+04 0.  0.
        3    1    3    3  502    0  0.33247144890E+03  0.76128696397E+03 -0.73874738190E+03  0.11116846722E+04  0.10100000352E+00 0. -1.
       -3    1    3    3    0  502 -0.33247144890E+03 -0.76128696397E+03 -0.11191390994E+04  0.13937601802E+04  0.10100000352E+00 0.  1.
</event>
<event>
 5   0  0.2234723E-04  0.1690395E+04  0.7818609E-02  0.8766861E-01
       -2   -1    0    0    0  501  0.00000000000E+00  0.00000000000E+00  0.80809442359E+03  0.80809442360E+03  0.25500000920E-02 0.  1.
        2   -1    0    0  501    0  0.00000000000E+00  0.00000000000E+00 -0.88400443273E+03  0.88400443273E+03  0.25500000920E-02 0. -1.
    10030    2    1    2    0    0  0.00000000000E+00  0.00000000000E+00 -0.75910009134E+02  0.16920988563E+04  0.16903952822E+04 0.  0.
        1    1    3    3  502    0 -0.69842833125E+03 -0.31214995011E+03  0.32173890746E+03  0.82991303752E+03  0.50400001928E-02 0.  1.
       -1    1    3    3    0  502  0.69842833125E+03  0.31214995011E+03 -0.39764891660E+03  0.86218581881E+03  0.50400001928E-02 0. -1.
</event>
<event>
 5   0  0.1186302E-04  0.1700620E+04  0.7818609E-02  0.8761011E-01
       -1   -1    0    0    0  501  0.00000000000E+00  0.00000000000E+00  0.95527156020E+03  0.95527156022E+03  0.50400001928E-02 0.  1.
        1   -1    0    0  501    0  0.00000000000E+00  0.00000000000E+00 -0.75688077627E+03  0.75688077629E+03  0.50400001928E-02 0. -1.
    10030    2    1    2    0    0  0.00000000000E+00  0.00000000000E+00  0.19839078394E+03  0.17121523365E+04  0.17006195107E+04 0.  0.
        3    1    3    3  502    0  0.32319506471E+03  0.18248228754E+03 -0.67102330699E+03  0.76682926643E+03  0.10100000352E+00 0. -1.
       -3    1    3    3    0  502 -0.32319506471E+03 -0.18248228754E+03  0.86941409093E+03  0.94532307008E+03  0.10100000352E+00 0.  1.
</event>
<event>
 5   0  0.2356829E-04  0.1693357E+04  0.7818609E-02  0.8765162E-01
        2   -1    0    0  501    0  0.00000000000E+00  0.00000000000E+00  0.81243660156E+03  0.81243660156E+03  0.25500000920E-02 0.  1.
       -2   -1    0    0    0  501  0.00000000000E+00  0.00000000000E+00 -0.88236346640E+03  0.88236346640E+03  0.25500000920E-02 0. -1.
    10030    2    1    2    0    0  0.00000000000E+00  0.00000000000E+00 -0.69926864843E+02  0.16948000680E+04  0.16933568744E+04 0.  0.
        5    1    3    3  502    0 -0.58100590658E+03  0.44655973502E+03 -0.45942253763E+03  0.86491306991E+03  0.46999998093E+01 0. -1.
       -5    1    3    3    0  502  0.58100590658E+03 -0.44655973502E+03  0.38949567279E+03  0.82988699805E+03  0.46999998093E+01 0.  1.
</event>
<event>
 5   0  0.2288806E-04  0.1727031E+04  0.7818609E-02  0.8746096E-01
       -2   -1    0    0    0  501  0.00000000000E+00  0.00000000000E+00  0.51297391131E+03  0.51297391131E+03  0.25500000920E-02 0.  1.
        2   -1    0    0  501    0  0.00000000000E+00  0.00000000000E+00 -0.14535999081E+04  0.14535999081E+04  0.25500000920E-02 0. -1.
    10030    2    1    2    0    0  0.00000000000E+00  0.00000000000E+00 -0.94062599678E+03  0.19665738194E+04  0.17270307818E+04 0.  0.
        3    1    3    3  502    0  0.42514767797E+03 -0.69383763414E+03 -0.14127413531E+03  0.82590532274E+03  0.10100000352E+00 0.  1.
       -3    1    3    3    0  502 -0.42514767797E+03  0.69383763414E+03 -0.79935186147E+03  0.11406684967E+04  0.10100000352E+00 0. -1.
</event>
<event>
 5   0  0.2288806E-04  0.1703226E+04  0.7818609E-02  0.8759526E-01
        2   -1    0    0  501    0  0.00000000000E+00  0.00000000000E+00  0.10468015928E+04  0.10468015928E+04  0.25500000920E-02 0. -1.
       -2   -1    0    0    0  501  0.00000000000E+00  0.00000000000E+00 -0.69282004400E+03  0.69282004401E+03  0.25500000920E-02 0.  1.
    10030    2    1    2    0    0  0.00000000000E+00  0.00000000000E+00  0.35398154879E+03  0.17396216368E+04  0.17032264977E+04 0.  0.
        3    1    3    3  502    0 -0.49582959552E+03  0.68584854482E+03  0.80041980798E+02  0.85008349185E+03  0.10100000352E+00 0.  1.
       -3    1    3    3    0  502  0.49582959552E+03 -0.68584854482E+03  0.27393956799E+03  0.88953814496E+03  0.10100000352E+00 0. -1.
</event>
<event>
 5   0  0.1204741E-04  0.1706322E+04  0.7818609E-02  0.8757767E-01
       -1   -1    0    0    0  501  0.00000000000E+00  0.00000000000E+00  0.33663194489E+03  0.33663194493E+03  0.50400001928E-02 0. -1.
        1   -1    0    0  501    0  0.00000000000E+00  0.00000000000E+00 -0.21622548043E+04  0.21622548043E+04  0.50400001928E-02 0.  1.
    10030    2    1    2    0    0  0.00000000000E+00  0.00000000000E+00 -0.18256228594E+04  0.24988867492E+04  0.17063224082E+04 0.  0.
        1    1    3    3  502    0  0.57792164520E+03  0.52412322377E+03 -0.14183998466E+04  0.16188133637E+04  0.50400001928E-02 0. -1.
       -1    1    3    3    0  502 -0.57792164520E+03 -0.52412322377E+03 -0.40722301277E+03  0.88007338548E+03  0.50400001928E-02 0.  1.
</event>
<event>
 5   0  0.1126958E-04  0.1578441E+04  0.7818609E-02  0.8833903E-01
       -1   -1    0    0    0  501  0.00000000000E+00  0.00000000000E+00  0.11514185561E+04  0.11514185561E+04  0.50400001928E-02 0. -1.
        1   -1    0    0  501    0  0.00000000000E+00  0.00000000000E+00 -0.54095798817E+03  0.54095798820E+03  0.50400001928E-02 0.  1.
    10030    2    1    2    0    0  0.00000000000E+00  0.00000000000E+00  0.61046056796E+03  0.16923765443E+04  0.15784410863E+04 0.  0.
        4    1    3    3  502    0  0.55435449195E+03  0.35939073853E+03 -0.15767048436E+03  0.67921439931E+03  0.12699999809E+01 0.  1.
       -4    1    3    3    0  502 -0.55435449195E+03 -0.35939073853E+03  0.76813105232E+03  0.10131621450E+04  0.12699999809E+01 0. -1.
</event>
<event>
 5   0  0.1204741E-04  0.1668061E+04  0.7818609E-02  0.8779793E-01
        1   -1    0    0  501    0  0.00000000000E+00  0.00000000000E+00  0.10898742090E+04  0.10898742090E+04  0.50400001928E-02 0. -1.
       -1   -1    0    0    0  501  0.00000000000E+00  0.00000000000E+00 -0.63824502586E+03  0.63824502588E+03  0.50400001928E-02 0.  1.
    10030    2    1    2    0    0  0.00000000000E+00  0.00000000000E+00  0.45162918310E+03  0.17281192348E+04  0.16680609014E+04 0.  0.
        1    1    3    3  502    0  0.55899663805E+03  0.48803917303E+03 -0.16861264031E+03  0.76097943353E+03  0.50400001928E-02 0.  1.
       -1    1    3    3    0  502 -0.55899663805E+03 -0.48803917303E+03  0.62024182341E+03  0.96713980132E+03  0.50400001928E-02 0. -1.
</event>
<event>
 5   0  0.8372750E-05  0.1700483E+04  0.7818609E-02  0.8761089E-01
       -3   -1    0    0    0  501  0.00000000000E+00  0.00000000000E+00  0.60169718219E+03  0.60169719067E+03  0.10100000352E+00 0.  1.
        3   -1    0    0  501    0  0.00000000000E+00  0.00000000000E+00 -0.12014523086E+04  0.12014523129E+04  0.10100000352E+00 0. -1.
    10030    2    1    2    0    0  0.00000000000E+00  0.00000000000E+00 -0.59975512646E+03  0.18031495036E+04  0.17004828492E+04 0.  0.
        4    1    3    3  502    0 -0.44436361998E+02 -0.39218891082E+03  0.49866446735E+03  0.63596744879E+03  0.12699999809E+01 0.  1.
       -4    1    3    3    0  502  0.44436361998E+02  0.39218891082E+03 -0.10984195938E+04  0.11671820548E+04  0.12699999809E+01 0. -1.
</event>
<event>
 5   0  0.1186302E-04  0.1683206E+04  0.7818609E-02  0.8771001E-01
        1   -1    0    0  501    0  0.00000000000E+00  0.00000000000E+00  0.17355951456E+04  0.17355951456E+04  0.50400001928E-02 0.  1.
       -1   -1    0    0    0  501  0.00000000000E+00  0.00000000000E+00 -0.40809951158E+03  0.40809951161E+03  0.50400001928E-02 0. -1.
    10030    2    1    2    0    0  0.00000000000E+00  0.00000000000E+00  0.13274956340E+04  0.21436946572E+04  0.16832059069E+04 0.  0.
        3    1    3    3  502    0 -0.48128800515E+03  0.55516250905E+03  0.11864613217E+04  0.13955407674E+04  0.10100000352E+00 0.  1.
       -3    1    3    3    0  502  0.48128800515E+03 -0.55516250905E+03  0.14103431226E+03  0.74815388978E+03  0.10100000352E+00 0. -1.
</event>
<event>
 5   0  0.1126958E-04  0.1702980E+04  0.7818609E-02  0.8759667E-01
        1   -1    0    0  501    0  0.00000000000E+00  0.00000000000E+00  0.18315504371E+04  0.18315504371E+04  0.50400001928E-02 0. -1.
       -1   -1    0    0    0  501  0.00000000000E+00  0.00000000000E+00 -0.39585871050E+03  0.39585871053E+03  0.50400001928E-02 0.  1.
    10030    2    1    2    0    0  0.00000000000E+00  0.00000000000E+00  0.14356917266E+04  0.22274091476E+04  0.17029799697E+04 0.  0.
        4    1    3    3  502    0  0.41077283759E+03  0.29651632684E+02  0.16926137901E+04  0.17419978756E+04  0.12699999809E+01 0. -1.
       -4    1    3    3    0  502 -0.41077283759E+03 -0.29651632684E+02 -0.25692206346E+03  0.48541127203E+03  0.12699999809E+01 0.  1.
</event>
<event>
 5   0  0.1215233E-04  0.1704855E+04  0.7818609E-02  0.8758600E-01
       -1   -1    0    0    0  501  0.00000000000E+00  0.00000000000E+00  0.24658377656E+04  0.24658377656E+04  0.50400001928E-02 0.  1.
        1   -1    0    0  501    0  0.00000000000E+00  0.00000000000E+00 -0.29467983316E+03  0.29467983320E+03  0.50400001928E-02 0. -1.
    10030    2    1    2    0    0  0.00000000000E+00  0.00000000000E+00  0.21711579325E+04  0.27605175988E+04  0.17048550219E+04 0.  0.
        2    1    3    3  502    0  0.69481591344E+03  0.33076403546E+03  0.49183739484E+03  0.91327872180E+03  0.25500000920E-02 0. -1.
       -2    1    3    3    0  502 -0.69481591344E+03 -0.33076403546E+03  0.16793205376E+04  0.18472388770E+04  0.25500000920E-02 0.  1.
</event>
<event>
 5   0  0.2224454E-04  0.1687003E+04  0.7818609E-02  0.8768812E-01
        2   -1    0    0  501    0  0.00000000000E+00  0.00000000000E+00  0.90879322334E+03  0.90879322335E+03  0.25500000920E-02 0. -1.
       -2   -1    0    0    0  501  0.00000000000E+00  0.00000000000E+00 -0.78290106864E+03  0.78290106864E+03  0.25500000920E-02 0.  1.
    10030    2    1    2    0    0  0.00000000000E+00  0.00000000000E+00  0.12589215471E+03  0.16916942920E+04  0.16870034804E+04 0.  0.
        2    1    3    3  502    0  0.16473645203E+03 -0.58544867394E+03 -0.52315058229E+03  0.80223112642E+03  0.25500000920E-02 0.  1.
       -2    1    3    3    0  502 -0.16473645203E+03  0.58544867394E+03  0.64904273699E+03  0.88946316556E+03  0.25500000920E-02 0. -1.
</event>
<event>
 5   0  0.1234158E-04  0.1700505E+04  0.7818609E-02  0.8761076E-01
        1   -1    0    0  501    0  0.00000000000E+00  0.00000000000E+00  0.12119878431E+04  0.12119878431E+04  0.50400001928E-02 0.  1.
       -1   -1    0    0    0  501  0.00000000000E+00  0.00000000000E+00 -0.59648245398E+03  0.59648245400E+03  0.50400001928E-02 0. -1.
    10030    2    1    2    0    0  0.00000000000E+00  0.00000000000E+00  0.61550538910E+03  0.18084702971E+04  0.17005051989E+04 0.  0.
        5    1    3    3  502    0  0.21828648103E+03 -0.78730486653E+03  0.57415521016E+02  0.81903392647E+03  0.46999998093E+01 0. -1.
       -5    1    3    3    0  502 -0.21828648103E+03  0.78730486653E+03  0.55808986808E+03  0.98943637063E+03  0.46999998093E+01 0.  1.
</event>
<event>
 5   0  0.1186302E-04  0.1715149E+04  0.7818609E-02  0.8752771E-01
       -1   -1    0    0    0  501  0.00000000000E+00  0.00000000000E+00  0.89292975075E+03  0.89292975076E+03  0.50400001928E-02 0.  1.
        1   -1    0    0  501    0  0.00000000000E+00  0.00000000000E+00 -0.82361896267E+03  0.82361896268E+03  0.50400001928E-02 0. -1.
    10030    2    1    2    0    0  0.00000000000E+00  0.00000000000E+00  0.69310788079E+02  0.17165487134E+04  0.17151488274E+04 0.  0.
        3    1    3    3  502    0  0.69312742051E+03  0.47316853050E+03 -0.14189659704E+03  0.85114554206E+03  0.10100000352E+00 0. -1.
       -3    1    3    3    0  502 -0.69312742051E+03 -0.47316853050E+03  0.21120738511E+03  0.86540317138E+03  0.10100000352E+00 0.  1.
</event>
<event>
 5   0  0.2224454E-04  0.1684262E+04  0.7818609E-02  0.8770392E-01
        2   -1    0    0  501    0  0.00000000000E+00  0.00000000000E+00  0.10510119948E+04  0.10510119948E+04  0.25500000920E-02 0.  1.
       -2   -1    0    0    0  501  0.00000000000E+00  0.00000000000E+00 -0.67476343666E+03  0.67476343666E+03  0.25500000920E-02 0. -1.
    10030    2    1    2    0    0  0.00000000000E+00  0.00000000000E+00  0.37624855815E+03  0.17257754315E+04  0.16842618153E+04 0.  0.
        2    1    3    3  502    0  0.33699035722E+03  0.61537567566E+03  0.66536691383E+03  0.96693477189E+03  0.25500000920E-02 0.  1.
       -2    1    3    3    0  502 -0.33699035722E+03 -0.61537567566E+03 -0.28911835567E+03  0.75884065959E+03  0.25500000920E-02 0. -1.
</event>
<event>
 5   0  0.1215233E-04  0.1725300E+04  0.7818609E-02  0.8747065E-01
       -1   -1    0    0    0  501  0.00000000000E+00  0.00000000000E+00  0.72508343450E+03  0.72508343451E+03  0.50400001928E-02 0.  1.
        1   -1    0    0  501    0  0.00000000000E+00  0.00000000000E+00 -0.10263158998E+04  0.10263158998E+04  0.50400001928E-02 0. -1.
    10030    2    1    2    0    0  0.00000000000E+00  0.00000000000E+00 -0.30123246527E+03  0.17513993343E+04  0.17252995769E+04 0.  0.
        2    1    3    3  502    0  0.65714897393E+02  0.17285168587E+03 -0.10059590366E+04  0.10228146149E+04  0.25500000920E-02 0. -1.
       -2    1    3    3    0  502 -0.65714897393E+02 -0.17285168587E+03  0.70472657133E+03  0.72858471943E+03  0.25500000920E-02 0.  1.
</event>
<event>
 5   0  0.1234158E-04  0.1698581E+04  0.7818609E-02  0.8762174E-01
        1   -1    0    0  501    0  0.00000000000E+00  0.00000000000E+00  0.10564033656E+04  0.10564033656E+04  0.50400001928E-02 0. -1.
       -1   -1    0    0    0  501  0.00000000000E+00  0.00000000000E+00 -0.68278307891E+03  0.68278307892E+03  0.50400001928E-02 0.  1.
    10030    2    1    2    0    0  0.00000000000E+00  0.00000000000E+00  0.37362028671E+03  0.17391864445E+04  0.16985809873E+04 0.  0.
        5    1    3    3  502    0 -0.61487894100E+03 -0.53485392814E+02  0.78413897758E+03  0.99791423754E+03  0.46999998093E+01 0. -1.
       -5    1    3    3    0  502  0.61487894100E+03  0.53485392814E+02 -0.41051869087E+03  0.74127220701E+03  0.46999998093E+01 0.  1.
</event>
<event>
 5   0  0.2234723E-04  0.1684556E+04  0.7818609E-02  0.8770222E-01
       -2   -1    0    0    0  501  0.00000000000E+00  0.00000000000E+00  0.63606480690E+03  0.63606480691E+03  0.25500000920E-02 0. -1.
        2   -1    0    0  501    0  0.00000000000E+00  0.00000000000E+00 -0.11153461946E+04  0.11153461946E+04  0.25500000920E-02 0.  1.
    10030    2    1    2    0    0  0.00000000000E+00  0.00000000000E+00 -0.47928138769E+03  0.17514110015E+04  0.16845562762E+04 0.  0.
        1    1    3    3  502    0 -0.13014357872E+03  0.83111939502E+03 -0.28295537565E+03  0.88755875552E+03  0.50400001928E-02 0.  1.
       -1    1    3    3    0  502  0.13014357872E+03 -0.83111939502E+03 -0.19632601204E+03  0.86385224599E+03  0.50400001928E-02 0. -1.
</event>
<event>
 5   0  0.2224454E-04  0.1702015E+04  0.7818609E-02  0.8760216E-01
        2   -1    0    0  501    0  0.00000000000E+00  0.00000000000E+00  0.17406913766E+04  0.17406913766E+04  0.25500000920E-02 0. -1.
       -2   -1    0    0    0  501  0.00000000000E+00  0.00000000000E+00 -0.41604960882E+03  0.41604960882E+03  0.25500000920E-02 0.  1.
    10030    2    1    2    0    0  0.00000000000E+00  0.00000000000E+00  0.13246417678E+04  0.21567409854E+04  0.17020152365E+04 0.  0.
        2    1    3    3  502    0  0.37067841443E+03 -0.76228967207E+03  0.56643431835E+03  0.10194782333E+04  0.25500000920E-02 0. -1.
       -2    1    3    3    0  502 -0.37067841443E+03  0.76228967207E+03  0.75820744942E+03  0.11372627522E+04  0.25500000920E-02 0.  1.
</event>
<event>
 5   0  0.2242967E-04  0.1697351E+04  0.7818609E-02  0.8762876E-01
        2   -1    0    0  501    0  0.00000000000E+00  0.00000000000E+00  0.21883984792E+04  0.21883984792E+04  0.25500000920E-02 0.  1.
       -2   -1    0    0    0  501  0.00000000000E+00  0.00000000000E+00 -0.32912216450E+03  0.32912216451E+03  0.25500000920E-02 0. -1.
    10030    2    1    2    0    0  0.00000000000E+00  0.00000000000E+00  0.18592763147E+04  0.25175206437E+04  0.16973514006E+04 0.  0.
        4    1    3    3  502    0 -0.69869905139E+03  0.34119116835E+03  0.14340523985E+04  0.16312877344E+04  0.12699999809E+01 0.  1.
       -4    1    3    3    0  502  0.69869905139E+03 -0.34119116835E+03  0.42522391618E+03  0.88623290932E+03  0.12699999809E+01 0. -1.
</event>
<event>
 5   0  0.2356829E-04  0.1563827E+04  0.7818609E-02  0.8843084E-01
        2   -1    0    0  501    0  0.00000000000E+00  0.00000000000E+00  0.11629422909E+04  0.11629422909E+04  0.25500000920E-02 0.  1.
       -2   -1    0    0    0  501  0.00000000000E+00  0.00000000000E+00 -0.52572592827E+03  0.52572592827E+03  0.25500000920E-02 0. -1.
    10030    2    1    2    0    0  0.00000000000E+00  0.00000000000E+00  0.63721636259E+03  0.16886682191E+04  0.15638272480E+04 0.  0.
        5    1    3    3  502    0 -0.38104925161E+03 -0.19941574747E+03 -0.38651500198E+03  0.57825695780E+03  0.46999998093E+01 0. -1.
       -5    1    3    3    0  502  0.38104925161E+03  0.19941574747E+03  0.10237313646E+04  0.11104112613E+04  0.46999998093E+01 0.  1.
</event>
<event>
 5   0  0.2242967E-04  0.1909120E+04  0.7818609E-02  0.8650330E-01
        2   -1    0    0  501    0  0.00000000000E+00  0.00000000000E+00  0.91712799127E+03  0.91712799127E+03  0.25500000920E-02 0.  1.
       -2   -1    0    0    0  501  0.00000000000E+00  0.00000000000E+00 -0.99351926581E+03  0.99351926581E+03  0.25500000920E-02 0. -1.
    10030    2    1    2    0    0  0.00000000000E+00  0.00000000000E+00 -0.76391274542E+02  0.19106472571E+04  0.19091195128E+04 0.  0.
        4    1    3    3  502    0  0.77365609180E+03 -0.18544842455E+03  0.48971851731E+03  0.93421662673E+03  0.12699999809E+01 0.  1.
       -4    1    3    3    0  502 -0.77365609180E+03  0.18544842455E+03 -0.56610979186E+03  0.97643063035E+03  0.12699999809E+01 0. -1.
</event>
<event>
 5   0  0.2234723E-04  0.1684285E+04  0.7818609E-02  0.8770378E-01
       -2   -1    0    0    0  501  0.00000000000E+00  0.00000000000E+00  0.13215851290E+04  0.13215851290E+04  0.25500000920E-02 0.  1.
        2   -1    0    0  501    0  0.00000000000E+00  0.00000000000E+00 -0.53663136653E+03  0.53663136653E+03  0.25500000920E-02 0. -1.
    10030    2    1    2    0    0  0.00000000000E+00  0.00000000000E+00  0.78495376244E+03  0.18582164955E+04  0.16842850516E+04 0.  0.
        1    1    3    3  502    0 -0.28177848245E+03 -0.54582673072E+03 -0.24310281448E+03  0.66062463743E+03  0.50400001928E-02 0. -1.
       -1    1    3    3    0  502  0.28177848245E+03  0.54582673072E+03  0.10280565769E+04  0.11975918581E+04  0.50400001928E-02 0.  1.
</event>
<event>
 5   0  0.1215233E-04  0.1786684E+04  0.7818609E-02  0.8713413E-01
        1   -1    0    0  501    0  0.00000000000E+00  0.00000000000E+00  0.13159578435E+04  0.13159578435E+04  0.50400001928E-02 0.  1.
       -1   -1    0    0    0  501  0.00000000000E+00  0.00000000000E+00 -0.60644768581E+03  0.60644768583E+03  0.50400001928E-02 0. -1.
    10030    2    1    2    0    0  0.00000000000E+00  0.00000000000E+00  0.70951015765E+03  0.19224055293E+04  0.17866836192E+04 0.  0.
        2    1    3    3  502    0  0.20818174689E+03 -0.47964963632E+02  0.12880680850E+04  0.13056644550E+04  0.25500000920E-02 0.  1.
       -2    1    3    3    0  502 -0.20818174689E+03  0.47964963632E+02 -0.57855792732E+03  0.61674107431E+03  0.25500000920E-02 0. -1.
</event>
<event>
 5   0  0.2224454E-04  0.1737674E+04  0.7818609E-02  0.8740165E-01
       -2   -1    0    0    0  501  0.00000000000E+00  0.00000000000E+00  0.45635622230E+03  0.45635622231E+03  0.25500000920E-02 0. -1.
        2   -1    0    0  501    0  0.00000000000E+00  0.00000000000E+00 -0.16541406350E+04  0.16541406350E+04  0.25500000920E-02 0.  1.
    10030    2    1    2    0    0  0.00000000000E+00  0.00000000000E+00 -0.11977844127E+04  0.21104968574E+04  0.17376735843E+04 0.  0.
        2    1    3    3  502    0  0.24280702025E+03 -0.49363594151E+03 -0.14156696281E+04  0.15187995877E+04  0.25500000920E-02 0.  1.
       -2    1    3    3    0  502 -0.24280702025E+03  0.49363594151E+03  0.21788521533E+03  0.59169726963E+03  0.25500000920E-02 0. -1.
</event>
<event>
 5   0  0.2288806E-04  0.1719485E+04  0.7818609E-02  0.8750329E-01
        2   -1    0    0  501    0  0.00000000000E+00  0.00000000000E+00  0.67264886099E+03  0.67264886099E+03  0.25500000920E-02 0. -1.
       -2   -1    0    0    0  501  0.00000000000E+00  0.00000000000E+00 -0.10988746395E+04  0.10988746395E+04  0.25500000920E-02 0.  1.
    10030    2    1    2    0    0  0.00000000000E+00  0.00000000000E+00 -0.42622577850E+03  0.17715235005E+04  0.17194845444E+04 0.  0.
        3    1    3    3  502    0 -0.12236313681E+03  0.55677465957E+03  0.44993722147E+03  0.72623293251E+03  0.10100000352E+00 0. -1.
       -3    1    3    3    0  502  0.12236313681E+03 -0.55677465957E+03 -0.87616299997E+03  0.10452905680E+04  0.10100000352E+00 0.  1.
</event>
<event>
 5   0  0.2356829E-04  0.1695812E+04  0.7818609E-02  0.8763756E-01
       -2   -1    0    0    0  501  0.00000000000E+00  0.00000000000E+00  0.25421943414E+03  0.25421943415E+03  0.25500000920E-02 0. -1.
        2   -1    0    0  501    0  0.00000000000E+00  0.00000000000E+00 -0.28280484886E+04  0.28280484886E+04  0.25500000920E-02 0.  1.
    10030    2    1    2    0    0  0.00000000000E+00  0.00000000000E+00 -0.25738290545E+04  0.30822679228E+04  0.16958123558E+04 0.  0.
        5    1    3    3  502    0  0.32243726889E+03 -0.74751695686E+03 -0.85612445015E+03  0.11814053315E+04  0.46999998093E+01 0. -1.
       -5    1    3    3    0  502 -0.32243726889E+03  0.74751695686E+03 -0.17177046043E+04  0.19008625913E+04  0.46999998093E+01 0.  1.
</event>
<event>
 5   0  0.2234723E-04  0.1570274E+04  0.7818609E-02  0.8839021E-01
       -2   -1    0    0    0  501  0.00000000000E+00  0.00000000000E+00  0.47326132845E+03  0.47326132846E+03  0.25500000920E-02 0. -1.
        2   -1    0    0  501    0  0.00000000000E+00  0.00000000000E+00 -0.13025369808E+04  0.13025369808E+04  0.25500000920E-02 0.  1.
    10030    2    1    2    0    0  0.00000000000E+00  0.00000000000E+00 -0.82927565240E+03  0.17757983093E+04  0.15702743479E+04 0.  0.
        1    1    3    3  502    0  0.60912179323E+02  0.71947095958E+03 -0.76336777040E+03  0.10507516872E+04  0.50400001928E-02 0.  1.
       -1    1    3    3    0  502 -0.60912179323E+02 -0.71947095958E+03 -0.65907881992E+02  0.72504662209E+03  0.50400001928E-02 0. -1.
</event>
<event>
 5   0  0.1204741E-04  0.1709989E+04  0.7818609E-02  0.8755687E-01
       -1   -1    0    0    0  501  0.00000000000E+00  0.00000000000E+00  0.57904076247E+03  0.57904076249E+03  0.50400001928E-02 0. -1.
        1   -1    0    0  501    0  0.00000000000E+00  0.00000000000E+00 -0.12624602214E+04  0.12624602214E+04  0.50400001928E-02 0.  1.
    10030    2    1    2    0    0  0.00000000000E+00  0.00000000000E+00 -0.68341945890E+03  0.18415009839E+04  0.17099893908E+04 0.  0.
        1    1    3    3  502    0  0.50119243182E+03 -0.50768156818E+02  0.40224940853E+03  0.64465172469E+03  0.50400001928E-02 0. -1.
       -1    1    3    3    0  502 -0.50119243182E+03  0.50768156818E+02 -0.10856688674E+04  0.11968492592E+04  0.50400001928E-02 0.  1.
</event>
<event>
 5   0  0.2224454E-04  0.1697592E+04  0.7818609E-02  0.8762739E-01
       -2   -1    0    0    0  501  0.00000000000E+00  0.00000000000E+00  0.39858751451E+03  0.39858751452E+03  0.25500000920E-02 0.  1.
        2   -1    0    0  501    0  0.00000000000E+00  0.00000000000E+00 -0.18075195968E+04  0.18075195968E+04  0.25500000920E-02 0. -1.
    10030    2    1    2    0    0  0.00000000000E+00  0.00000000000E+00 -0.14089320822E+04  0.22061071113E+04  0.16975921106E+04 0.  0.
        2    1    3    3  502    0  0.56392239657E+03 -0.33958703628E+03 -0.14008202449E+04  0.15477807283E+04  0.25500000920E-02 0. -1.
       -2    1    3    3    0  502 -0.56392239657E+03  0.33958703628E+03 -0.81118373819E+01  0.65832638294E+03  0.25500000920E-02 0.  1.
</event>
<event>
 5   0  0.1186302E-04  0.1717568E+04  0.7818609E-02  0.8751407E-01
       -1   -1    0    0    0  501  0.00000000000E+00  0.00000000000E+00  0.44991023061E+03  0.44991023064E+03  0.50400001928E-02 0. -1.
        1   -1    0    0  501    0  0.00000000000E+00  0.00000000000E+00 -0.16392386170E+04  0.16392386170E+04  0.50400001928E-02 0.  1.
    10030    2    1    2    0    0  0.00000000000E+00  0.00000000000E+00 -0.11893283864E+04  0.20891488476E+04  0.17175683092E+04 0.  0.
        3    1    3    3  502    0 -0.52285720159E+03  0.14753382613E+03 -0.14036584081E+04  0.15051255163E+04  0.10100000352E+00 0.  1.
       -3    1    3    3    0  502  0.52285720159E+03 -0.14753382613E+03  0.21433002170E+03  0.58402333131E+03  0.10100000352E+00 0. -1.
</event>
<event>
 5   0  0.2356829E-04  0.1694789E+04  0.7818609E-02  0.8764342E-01
        2   -1    0    0  501    0  0.00000000000E+00  0.00000000000E+00  0.10918801179E+04  0.10918801179E+04  0.25500000920E-02 0.  1.
       -2   -1    0    0    0  501  0.00000000000E+00  0.00000000000E+00 -0.65765222349E+03  0.65765222349E+03  0.25500000920E-02 0. -1.
    10030    2    1    2    0    0  0.00000000000E+00  0.00000000000E+00  0.43422789437E+03  0.17495323414E+04  0.16947889394E+04 0.  0.
        5    1    3    3  502    0 -0.43131557144E+03  0.32354674644E+02  0.96933162252E+03  0.10614640039E+04  0.46999998093E+01 0.  1.
       -5    1    3    3    0  502  0.43131557144E+03 -0.32354674644E+02 -0.53510372815E+03  0.68806833746E+03  0.46999998093E+01 0. -1.
</event>
<event>
 5   0  0.1126958E-04  0.1719011E+04  0.7818609E-02  0.8750596E-01
       -1   -1    0    0    0  501  0.00000000000E+00  0.00000000000E+00  0.73512996454E+03  0.73512996456E+03  0.50400001928E-02 0.  1.
        1   -1    0    0  501    0  0.00000000000E+00  0.00000000000E+00 -0.10049235866E+04  0.10049235866E+04  0.50400001928E-02 0. -1.
    10030    2    1    2    0    0  0.00000000000E+00  0.00000000000E+00 -0.26979362208E+03  0.17400535512E+04  0.17190106930E+04 0.  0.
        4    1    3    3  502    0  0.24243633135E+03  0.77055062525E+03  0.16233725999E+03  0.82394092004E+03  0.12699999809E+01 0.  1.
       -4    1    3    3    0  502 -0.24243633135E+03 -0.77055062525E+03 -0.43213088207E+03  0.91611263116E+03  0.12699999809E+01 0. -1.
</event>
<event>
 5   0  0.2242967E-04  0.1699596E+04  0.7818609E-02  0.8761595E-01
       -2   -1    0    0    0  501  0.00000000000E+00  0.00000000000E+00  0.36699162808E+03  0.36699162809E+03  0.25500000920E-02 0. -1.
        2   -1    0    0  501    0  0.00000000000E+00  0.00000000000E+00 -0.19677751415E+04  0.19677751415E+04  0.25500000920E-02 0.  1.
    10030    2    1    2    0    0  0.00000000000E+00  0.00000000000E+00 -0.16007835134E+04  0.23347667696E+04  0.16995964261E+04 0.  0.
        4    1    3    3  502    0 -0.16988118183E+03 -0.33989873733E+03 -0.18445664588E+04  0.18832997110E+04  0.12699999809E+01 0.  1.
       -4    1    3    3    0  502  0.16988118183E+03  0.33989873733E+03  0.24378294543E+03  0.45146705856E+03  0.12699999809E+01 0. -1.
</event>
<event>
 5   0  0.1204741E-04  0.1700808E+04  0.7818609E-02  0.8760904E-01
       -1   -1    0    0    0  501  0.00000000000E+00  0.00000000000E+00  0.83958244710E+03  0.83958244711E+03  0.50400001928E-02 0.  1.
        1   -1    0    0  501    0  0.00000000000E+00  0.00000000000E+00 -0.86136507719E+03  0.86136507720E+03  0.50400001928E-02 0. -1.
    10030    2    1    2    0    0  0.00000000000E+00  0.00000000000E+00 -0.21782630087E+02  0.17009475243E+04  0.17008080425E+04 0.  0.
        1    1    3    3  502    0 -0.40888602072E+03  0.22964811590E+03  0.69857574667E+03  0.84138820347E+03  0.50400001928E-02 0.  1.
       -1    1    3    3    0  502  0.40888602072E+03 -0.22964811590E+03 -0.72035837675E+03  0.85955932085E+03  0.50400001928E-02 0. -1.
</event>
<event>
 5   0  0.2234723E-04  0.1745338E+04  0.7818609E-02  0.8735920E-01
       -2   -1    0    0    0  501  0.00000000000E+00  0.00000000000E+00  0.45171242630E+03  0.45171242631E+03  0.25500000920E-02 0.  1.
        2   -1    0    0  501    0  0.00000000000E+00  0.00000000000E+00 -0.16859210621E+04  0.16859210621E+04  0.25500000920E-02 0. -1.
    10030    2    1    2    0    0  0.00000000000E+00  0.00000000000E+00 -0.12342086358E+04  0.21376334884E+04  0.17453383552E+04 0.  0.
        1    1    3    3  502    0  0.96853503169E+02 -0.32815208023E+03  0.36613837564E+03  0.50112044358E+03  0.50400001928E-02 0.  1.
       -1    1    3    3    0  502 -0.96853503169E+02  0.32815208023E+03 -0.16003470114E+04  0.16365130448E+04  0.50400001928E-02 0. -1.
</event>
<event>
 5   0  0.1126958E-04  0.1706191E+04  0.7818609E-02  0.8757841E-01
        1   -1    0    0  501    0  0.00000000000E+00  0.00000000000E+00  0.98735199409E+03  0.98735199410E+03  0.50400001928E-02 0.  1.
       -1   -1    0    0    0  501  0.00000000000E+00  0.00000000000E+00 -0.73709513255E+03  0.73709513257E+03  0.50400001928E-02 0. -1.
    10030    2    1    2    0    0  0.00000000000E+00  0.00000000000E+00  0.25025686154E+03  0.17244471267E+04  0.17061914886E+04 0.  0.
        4    1    3    3  502    0 -0.73313248301E+03  0.45596118593E+02 -0.31334342227E+03  0.79859123265E+03  0.12699999809E+01 0. -1.
       -4    1    3    3    0  502  0.73313248301E+03 -0.45596118593E+02  0.56360028381E+03  0.92585589402E+03  0.12699999809E+01 0.  1.
</event>
<event>
 5   0  0.2288806E-04  0.1702203E+04  0.7818609E-02  0.8760109E-01
       -2   -1    0    0    0  501  0.00000000000E+00  0.00000000000E+00  0.11076646355E+04  0.11076646355E+04  0.25500000920E-02 0.  1.
        2   -1    0    0  501    0  0.00000000000E+00  0.00000000000E+00 -0.65396513965E+03  0.65396513966E+03  0.25500000920E-02 0. -1.
    10030    2    1    2    0    0  0.00000000000E+00  0.00000000000E+00  0.45369949586E+03  0.17616297752E+04  0.17022033463E+04 0.  0.
        3    1    3    3  502    0  0.82185102251E+03  0.14394413783E+03  0.40068724451E+03  0.92558592045E+03  0.10100000352E+00 0.  1.
       -3    1    3    3    0  502 -0.82185102251E+03 -0.14394413783E+03  0.53012251346E+02  0.83604385472E+03  0.10100000352E+00 0. -1.
</event>
<event>
 5   0  0.1186302E-04  0.1700967E+04  0.7818609E-02  0.8760813E-01
       -1   -1    0    0    0  501  0.00000000000E+00  0.00000000000E+00  0.90767715298E+03  0.90767715299E+03  0.50400001928E-02 0.  1.
        1   -1    0    0  501    0  0.00000000000E+00  0.00000000000E+00 -0.79689377880E+03  0.79689377882E+03  0.50400001928E-02 0. -1.
    10030    2    1    2    0    0  0.00000000000E+00  0.00000000000E+00  0.11078337417E+03  0.17045709318E+04  0.17009671089E+04 0.  0.
        3    1    3    3  502    0 -0.40296970248E+03  0.17914634827E+03  0.78414923221E+03  0.89964883360E+03  0.10100000352E+00 0.  1.
       -3    1    3    3    0  502  0.40296970248E+03 -0.17914634827E+03 -0.67336585804E+03  0.80492209821E+03  0.10100000352E+00 0. -1.
</event>
<event>
 5   0  0.2234723E-04  0.1695445E+04  0.7818609E-02  0.8763966E-01
       -2   -1    0    0    0  501  0.00000000000E+00  0.00000000000E+00  0.64149019559E+03  0.64149019560E+03  0.25500000920E-02 0.  1.
        2   -1    0    0  501    0  0.00000000000E+00  0.00000000000E+00 -0.11202564183E+04  0.11202564183E+04  0.25500000920E-02 0. -1.
    10030    2    1    2    0    0  0.00000000000E+00  0.00000000000E+00 -0.47876622267E+03  0.17617466139E+04  0.16954450848E+04 0.  0.
        1    1    3    3  502    0 -0.36132259197E+03 -0.59727971356E+03 -0.73916641002E+03  0.10166927035E+04  0.50400001928E-02 0. -1.
       -1    1    3    3    0  502  0.36132259197E+03  0.59727971356E+03  0.26040018735E+03  0.74505391033E+03  0.50400001928E-02 0.  1.
</event>
<event>
 5   0  0.1126958E-04  0.1690219E+04  0.7818609E-02  0.8766962E-01
        1   -1    0    0  501    0  0.00000000000E+00  0.00000000000E+00  0.45305137722E+03  0.45305137725E+03  0.50400001928E-02 0.  1.
       -1   -1    0    0    0  501  0.00000000000E+00  0.00000000000E+00 -0.15764445164E+04  0.15764445164E+04  0.50400001928E-02 0. -1.
    10030    2    1    2    0    0  0.00000000000E+00  0.00000000000E+00 -0.11233931392E+04  0.20294958936E+04  0.16902193459E+04 0.  0.
        4    1    3    3  502    0  0.22953637113E+03  0.53873113690E+02 -0.15361529359E+04  0.15541417932E+04  0.12699999809E+01 0. -1.
       -4    1    3    3    0  502 -0.22953637113E+03 -0.53873113690E+02  0.41275979676E+03  0.47535410040E+03  0.12699999809E+01 0.  1.
</event>
<event>
 5   0  0.2288806E-04  0.1701968E+04  0.7818609E-02  0.8760243E-01
        2   -1    0    0  501    0  0.00000000000E+00  0.00000000000E+00  0.83596005539E+03  0.83596005540E+03  0.25500000920E-02 0. -1.
       -2   -1    0    0    0  501  0.00000000000E+00  0.00000000000E+00 -0.86627768754E+03  0.86627768755E+03  0.25500000920E-02 0.  1.
    10030    2    1    2    0    0  0.00000000000E+00  0.00000000000E+00 -0.30317632149E+02  0.17022377429E+04  0.17019677361E+04 0.  0.
        3    1    3    3  502    0  0.49832236070E+03 -0.31529071680E+03  0.59848568325E+03  0.84018958249E+03  0.10100000352E+00 0. -1.
       -3    1    3    3    0  502 -0.49832236070E+03  0.31529071680E+03 -0.62880331540E+03  0.86204816045E+03  0.10100000352E+00 0.  1.
</event>
<event>
 5   0  0.1126958E-04  0.1704137E+04  0.7818609E-02  0.8759008E-01
       -1   -1    0    0    0  501  0.00000000000E+00  0.00000000000E+00  0.52281268320E+03  0.52281268322E+03  0.50400001928E-02 0. -1.
        1   -1    0    0  501    0  0.00000000000E+00  0.00000000000E+00 -0.13886825357E+04  0.13886825358E+04  0.50400001928E-02 0.  1.
    10030    2    1    2    0    0  0.00000000000E+00  0.00000000000E+00 -0.86586985254E+03  0.19114952190E+04  0.17041371338E+04 0.  0.
        4    1    3    3  502    0  0.75651103369E+03 -0.19183114203E+03 -0.81646245928E+03  0.11294780615E+04  0.12699999809E+01 0.  1.
       -4    1    3    3    0  502 -0.75651103369E+03  0.19183114203E+03 -0.49407393266E+02  0.78201715746E+03  0.12699999809E+01 0. -1.
</event>
<event>
 5   0  0.8372750E-05  0.1702744E+04  0.7818609E-02  0.8759801E-01
        3   -1    0    0  501    0  0.00000000000E+00  0.00000000000E+00  0.94148696903E+03  0.94148697445E+03  0.10100000352E+00 0. -1.
       -3   -1    0    0    0  501  0.00000000000E+00  0.00000000000E+00 -0.76988219433E+03  0.76988220095E+03  0.10100000352E+00 0.  1.
    10030    2    1    2    0    0  0.00000000000E+00  0.00000000000E+00  0.17160477470E+03  0.17113691754E+04  0.17027437434E+04 0.  0.
        4    1    3    3  502    0  0.22511517421E+03  0.26903811563E+02 -0.73898349851E+03  0.77298051767E+03  0.12699999809E+01 0.  1.
       -4    1    3    3    0  502 -0.22511517421E+03 -0.26903811563E+02  0.91058827321E+03  0.93838865772E+03  0.12699999809E+01 0. -1.
</event>
<event>
 5   0  0.1126958E-04  0.1700536E+04  0.7818609E-02  0.8761059E-01
       -1   -1    0    0    0  501  0.00000000000E+00  0.00000000000E+00  0.96379148852E+03  0.96379148853E+03  0.50400001928E-02 0.  1.
        1   -1    0    0  501    0  0.00000000000E+00  0.00000000000E+00 -0.75011630323E+03  0.75011630325E+03  0.50400001928E-02 0. -1.
    10030    2    1    2    0    0  0.00000000000E+00  0.00000000000E+00  0.21367518529E+03  0.17139077918E+04  0.17005360431E+04 0.  0.
        4    1    3    3  502    0  0.67701557914E+02 -0.34216301425E+03  0.88836719402E+03  0.95438824048E+03  0.12699999809E+01 0.  1.
       -4    1    3    3    0  502 -0.67701557914E+02  0.34216301425E+03 -0.67469200873E+03  0.75951955130E+03  0.12699999809E+01 0. -1.
</event>
<event>
 5   0  0.1234158E-04  0.1754422E+04  0.7818609E-02  0.8730920E-01
       -1   -1    0    0    0  501  0.00000000000E+00  0.00000000000E+00  0.61284408957E+03  0.61284408959E+03  0.50400001928E-02 0.  1.
        1   -1    0    0  501    0  0.00000000000E+00  0.00000000000E+00 -0.12556196586E+04  0.12556196586E+04  0.50400001928E-02 0. -1.
    10030    2    1    2    0    0  0.00000000000E+00  0.00000000000E+00 -0.64277556900E+03  0.18684637482E+04  0.17544219407E+04 0.  0.
        5    1    3    3  502    0  0.26396356831E+03 -0.79398671723E+03 -0.40854474204E+02  0.83772480601E+03  0.46999998093E+01 0.  1.
       -5    1    3    3    0  502 -0.26396356831E+03  0.79398671723E+03 -0.60192109479E+03  0.10307389422E+04  0.46999998093E+01 0. -1.
</event>
<event>
 5   0  0.2224454E-04  0.1718821E+04  0.7818609E-02  0.8750702E-01
       -2   -1    0    0    0  501  0.00000000000E+00  0.00000000000E+00  0.50089569809E+03  0.50089569809E+03  0.25500000920E-02 0.  1.
        2   -1    0    0  501    0  0.00000000000E+00  0.00000000000E+00 -0.14745307454E+04  0.14745307454E+04  0.25500000920E-02 0. -1.
    10030    2    1    2    0    0  0.00000000000E+00  0.00000000000E+00 -0.97363504732E+03  0.19754264435E+04  0.17188206504E+04 0.  0.
        2    1    3    3  502    0 -0.41187454025E+01 -0.40852446097E+03 -0.13557892081E+04  0.14160062062E+04  0.25500000920E-02 0. -1.
       -2    1    3    3    0  502  0.41187454025E+01  0.40852446097E+03  0.38215416078E+03  0.55942023728E+03  0.25500000920E-02 0.  1.
</event>
<event>
 5   0  0.2242967E-04  0.1692540E+04  0.7818609E-02  0.8765630E-01
       -2   -1    0    0    0  501  0.00000000000E+00  0.00000000000E+00  0.11637413864E+04  0.11637413864E+04  0.25500000920E-02 0.  1.
        2   -1    0    0  501    0  0.00000000000E+00  0.00000000000E+00 -0.61540563052E+03  0.61540563052E+03  0.25500000920E-02 0. -1.
    10030    2    1    2    0    0  0.00000000000E+00  0.00000000000E+00  0.54833575587E+03  0.17791470169E+04  0.16925401049E+04 0.  0.
        4    1    3    3  502    0 -0.65822567077E+03 -0.38271495654E+03 -0.11411041777E+03  0.76990556042E+03  0.12699999809E+01 0. -1.
       -4    1    3    3    0  502  0.65822567077E+03  0.38271495654E+03  0.66244617364E+03  0.10092414565E+04  0.12699999809E+01 0.  1.
</event>
<event>
 5   0  0.2356829E-04  0.1705149E+04  0.7818609E-02  0.8758433E-01
       -2   -1    0    0    0  501  0.00000000000E+00  0.00000000000E+00  0.59657464074E+03  0.59657464074E+03  0.25500000920E-02 0. -1.
        2   -1    0    0  501    0  0.00000000000E+00  0.00000000000E+00 -0.12184287602E+04  0.12184287602E+04  0.25500000920E-02 0.  1.
    10030    2    1    2    0    0  0.00000000000E+00  0.00000000000E+00 -0.62185411949E+03  0.18150034010E+04  0.17051494948E+04 0.  0.
        5    1    3    3  502    0  0.30311793548E+03  0.58968405115E+03 -0.88141689297E+03  0.11029621898E+04  0.46999998093E+01 0.  1.
       -5    1    3    3    0  502 -0.30311793548E+03 -0.58968405115E+03  0.25956277348E+03  0.71204121114E+03  0.46999998093E+01 0. -1.
</event>
<event>
 5   0  0.2356829E-04  0.1686109E+04  0.7818609E-02  0.8769327E-01
       -2   -1    0    0    0  501  0.00000000000E+00  0.00000000000E+00  0.10051193731E+04  0.10051193731E+04  0.25500000920E-02 0. -1.
        2   -1    0    0  501    0  0.00000000000E+00  0.00000000000E+00 -0.70712104172E+03  0.70712104172E+03  0.25500000920E-02 0.  1.
    10030    2    1    2    0    0  0.00000000000E+00  0.00000000000E+00  0.29799833136E+03  0.17122404148E+04  0.16861091995E+04 0.  0.
        5    1    3    3  502    0  0.37800558835E+03 -0.30796247996E+03  0.84740033580E+03  0.97766995095E+03  0.46999998093E+01 0. -1.
       -5    1    3    3    0  502 -0.37800558835E+03  0.30796247996E+03 -0.54940200444E+03  0.73457046385E+03  0.46999998093E+01 0.  1.
</event>
<event>
 5   0  0.1126958E-04  0.1703611E+04  0.7818609E-02  0.8759308E-01
        1   -1    0    0  501    0  0.00000000000E+00  0.00000000000E+00  0.17158891031E+04  0.17158891031E+04  0.50400001928E-02 0. -1.
       -1   -1    0    0    0  501  0.00000000000E+00  0.00000000000E+00 -0.42285512102E+03  0.42285512105E+03  0.50400001928E-02 0.  1.
    10030    2    1    2    0    0  0.00000000000E+00  0.00000000000E+00  0.12930339821E+04  0.21387442241E+04  0.17036108645E+04 0.  0.
        4    1    3    3  502    0  0.83982656191E+03  0.14163782438E+03  0.66431358459E+03  0.10801315100E+04  0.12699999809E+01 0.  1.
       -4    1    3    3    0  502 -0.83982656191E+03 -0.14163782438E+03  0.62872039748E+03  0.10586127141E+04  0.12699999809E+01 0. -1.
</event>
<event>
 5   0  0.1204741E-04  0.1720325E+04  0.7818609E-02  0.8749857E-01
        1   -1    0    0  501    0  0.00000000000E+00  0.00000000000E+00  0.12384845022E+04  0.12384845022E+04  0.50400001928E-02 0.  1.
       -1   -1    0    0    0  501  0.00000000000E+00  0.00000000000E+00 -0.59740706766E+03  0.59740706768E+03  0.50400001928E-02 0. -1.
    10030    2    1    2    0    0  0.00000000000E+00  0.00000000000E+00  0.64107743450E+03  0.18358915699E+04  0.17203248470E+04 0.  0.
        1    1    3    3  502    0  0.64965657880E+02  0.83183650970E+03  0.97432607030E+02  0.84003906369E+03  0.50400001928E-02 0. -1.
       -1    1    3    3    0  502 -0.64965657880E+02 -0.83183650970E+03  0.54364482747E+03  0.99585250617E+03  0.50400001928E-02 0.  1.
</event>
<event>
 5   0  0.2288806E-04  0.1703164E+04  0.7818609E-02  0.8759562E-01
       -2   -1    0    0    0  501  0.00000000000E+00  0.00000000000E+00  0.89768547325E+03  0.89768547326E+03  0.25500000920E-02 0.  1.
        2   -1    0    0  501    0  0.00000000000E+00  0.00000000000E+00 -0.80784626191E+03  0.80784626192E+03  0.25500000920E-02 0. -1.
    10030    2    1    2    0    0  0.00000000000E+00  0.00000000000E+00  0.89839211342E+02  0.17055317352E+04  0.17031639427E+04 0.  0.
        3    1    3    3  502    0 -0.44781083028E+03  0.10660351370E+03 -0.67252110917E+03  0.81497454030E+03  0.10100000352E+00 0. -1.
       -3    1    3    3    0  502  0.44781083028E+03 -0.10660351370E+03  0.76236032051E+03  0.89055719488E+03  0.10100000352E+00 0.  1.
</event>
<event>
 5   0  0.2234723E-04  0.1702870E+04  0.7818609E-02  0.8759729E-01
       -2   -1    0    0    0  501  0.00000000000E+00  0.00000000000E+00  0.39953349457E+03  0.39953349458E+03  0.25500000920E-02 0. -1.
        2   -1    0    0  501    0  0.00000000000E+00  0.00000000000E+00 -0.18144698836E+04  0.18144698836E+04  0.25500000920E-02 0.  1.
    10030    2    1    2    0    0  0.00000000000E+00  0.00000000000E+00 -0.14149363890E+04  0.22140033781E+04  0.17028699227E+04 0.  0.
        1    1    3    3  502    0  0.46754104132E+03  0.62520163200E+03 -0.11492735617E+04  0.13893528802E+04  0.50400001928E-02 0.  1.
       -1    1    3    3    0  502 -0.46754104132E+03 -0.62520163200E+03 -0.26566282729E+03  0.82465049797E+03  0.50400001928E-02 0. -1.
</event>
<event>
 5   0  0.2288806E-04  0.1697529E+04  0.7818609E-02  0.8762775E-01
        2   -1    0    0  501    0  0.00000000000E+00  0.00000000000E+00  0.84364022055E+03  0.84364022055E+03  0.25500000920E-02 0.  1.
       -2   -1    0    0    0  501  0.00000000000E+00  0.00000000000E+00 -0.85392001903E+03  0.85392001904E+03  0.25500000920E-02 0. -1.
    10030    2    1    2    0    0  0.00000000000E+00  0.00000000000E+00 -0.10279798488E+02  0.16975602396E+04  0.16975291140E+04 0.  0.
        3    1    3    3  502    0 -0.77757473768E+03  0.30657322207E+03  0.14248275810E+03  0.84788617145E+03  0.10100000352E+00 0.  1.
       -3    1    3    3    0  502  0.77757473768E+03 -0.30657322207E+03 -0.15276255659E+03  0.84967406814E+03  0.10100000352E+00 0. -1.
</event>
<event>
 5   0  0.1186302E-04  0.1694294E+04  0.7818609E-02  0.8764625E-01
        1   -1    0    0  501    0  0.00000000000E+00  0.00000000000E+00  0.10025595039E+04  0.10025595040E+04  0.50400001928E-02 0.  1.
       -1   -1    0    0    0  501  0.00000000000E+00  0.00000000000E+00 -0.71582592953E+03  0.71582592955E+03  0.50400001928E-02 0. -1.
    10030    2    1    2    0    0  0.00000000000E+00  0.00000000000E+00  0.28673357441E+03  0.17183854335E+04  0.16942940581E+04 0.  0.
        3    1    3    3  502    0  0.69003127451E+03  0.66722831052E+02  0.63718109261E+03  0.94159165829E+03  0.10100000352E+00 0.  1.
       -3    1    3    3    0  502 -0.69003127451E+03 -0.66722831052E+02 -0.35044751820E+03  0.77679377521E+03  0.10100000352E+00 0. -1.
</event>
<event>
 5   0  0.2224454E-04  0.1696111E+04  0.7818609E-02  0.8763586E-01
       -2   -1    0    0    0  501  0.00000000000E+00  0.00000000000E+00  0.10292060521E+04  0.10292060521E+04  0.25500000920E-02 0. -1.
        2   -1    0    0  501    0  0.00000000000E+00  0.00000000000E+00 -0.69878898096E+03  0.69878898096E+03  0.25500000920E-02 0.  1.
    10030    2    1    2    0    0  0.00000000000E+00  0.00000000000E+00  0.33041707117E+03  0.17279950331E+04  0.16961106666E+04 0.  0.
        2    1    3    3  502    0 -0.74884092040E+03 -0.38128318935E+03  0.28162941015E+03  0.88625883308E+03  0.25500000920E-02 0. -1.
       -2    1    3    3    0  502  0.74884092040E+03  0.38128318935E+03  0.48787661020E+02  0.84173620001E+03  0.25500000920E-02 0.  1.
</event>
<event>
 5   0  0.1204741E-04  0.1705740E+04  0.7818609E-02  0.8758098E-01
        1   -1    0    0  501    0  0.00000000000E+00  0.00000000000E+00  0.77123327365E+03  0.77123327367E+03  0.50400001928E-02 0.  1.
       -1   -1    0    0    0  501  0.00000000000E+00  0.00000000000E+00 -0.94314760930E+03  0.94314760932E+03  0.50400001928E-02 0. -1.
    10030    2    1    2    0    0  0.00000000000E+00  0.00000000000E+00 -0.17191433565E+03  0.17143808830E+04  0.17057395092E+04 0.  0.
        1    1    3    3  502    0 -0.44062975767E+03 -0.55525761949E+03  0.39070404406E+03  0.80939190595E+03  0.50400001928E-02 0.  1.
       -1    1    3    3    0  502  0.44062975767E+03  0.55525761949E+03 -0.56261837971E+03  0.90498897704E+03  0.50400001928E-02 0. -1.
</event>
<event>
 5   0  0.2288806E-04  0.1689528E+04  0.7818609E-02  0.8767360E-01
       -2   -1    0    0    0  501  0.00000000000E+00  0.00000000000E+00  0.70506159122E+03  0.70506159123E+03  0.25500000920E-02 0.  1.
        2   -1    0    0  501    0  0.00000000000E+00  0.00000000000E+00 -0.10121468623E+04  0.10121468623E+04  0.25500000920E-02 0. -1.
    10030    2    1    2    0    0  0.00000000000E+00  0.00000000000E+00 -0.30708527105E+03  0.17172084535E+04  0.16895275994E+04 0.  0.
        3    1    3    3  502    0  0.18108564126E+03  0.12497571144E+03 -0.98251245780E+03  0.10068473955E+04  0.10100000352E+00 0. -1.
       -3    1    3    3    0  502 -0.18108564126E+03 -0.12497571144E+03  0.67542718675E+03  0.71036105800E+03  0.10100000352E+00 0.  1.
</event>
<event>
 5   0  0.2224454E-04  0.1804507E+04  0.7818609E-02  0.8703907E-01
        2   -1    0    0  501    0  0.00000000000E+00  0.00000000000E+00  0.69441054988E+03  0.69441054988E+03  0.25500000920E-02 0. -1.
       -2   -1    0    0    0  501  0.00000000000E+00  0.00000000000E+00 -0.11723050807E+04  0.11723050807E+04  0.25500000920E-02 0.  1.
    10030    2    1    2    0    0  0.00000000000E+00  0.00000000000E+00 -0.47789453078E+03  0.18667156305E+04  0.18045065981E+04 0.  0.
        2    1    3    3  502    0 -0.16496360426E+03 -0.11042043760E+03 -0.11494346912E+04  0.11664500731E+04  0.25500000920E-02 0.  1.
       -2    1    3    3    0  502  0.16496360426E+03  0.11042043760E+03  0.67154016044E+03  0.70026555739E+03  0.25500000920E-02 0. -1.
</event>
<event>
 5   0  0.1204741E-04  0.1694511E+04  0.7818609E-02  0.8764501E-01
        1   -1    0    0  501    0  0.00000000000E+00  0.00000000000E+00  0.16570441819E+04  0.16570441819E+04  0.50400001928E-02 0. -1.
       -1   -1    0    0    0  501  0.00000000000E+00  0.00000000000E+00 -0.43320614125E+03  0.43320614128E+03  0.50400001928E-02 0.  1.
    10030    2    1    2    0    0  0.00000000000E+00  0.00000000000E+00  0.12238380406E+04  0.20902503232E+04  0.16945108037E+04 0.  0.
        1    1    3    3  502    0  0.61520309209E+02  0.37737243162E+03 -0.32072933197E+03  0.49906112351E+03  0.50400001928E-02 0.  1.
       -1    1    3    3    0  502 -0.61520309209E+02 -0.37737243162E+03  0.15445673726E+04  0.15911891997E+04  0.50400001928E-02 0. -1.
</event>
<event>
 5   0  0.2356829E-04  0.1674899E+04  0.7818609E-02  0.8775811E-01
        2   -1    0    0  501    0  0.00000000000E+00  0.00000000000E+00  0.55884329813E+03  0.55884329814E+03  0.25500000920E-02 0.  1.
       -2   -1    0    0    0  501  0.00000000000E+00  0.00000000000E+00 -0.12549528680E+04  0.12549528680E+04  0.25500000920E-02 0. -1.
    10030    2    1    2    0    0  0.00000000000E+00  0.00000000000E+00 -0.69610956984E+03  0.18137961661E+04  0.16748993997E+04 0.  0.
        5    1    3    3  502    0 -0.53535869131E+03  0.65719190398E+02  0.34567221389E+03  0.64065537522E+03  0.46999998093E+01 0.  1.
       -5    1    3    3    0  502  0.53535869131E+03 -0.65719190398E+02 -0.10417817837E+04  0.11731407909E+04  0.46999998093E+01 0. -1.
</event>
<event>
 5   0  0.2224454E-04  0.1682441E+04  0.7818609E-02  0.8771442E-01
       -2   -1    0    0    0  501  0.00000000000E+00  0.00000000000E+00  0.77221199706E+03  0.77221199706E+03  0.25500000920E-02 0. -1.
        2   -1    0    0  501    0  0.00000000000E+00  0.00000000000E+00 -0.91639645097E+03  0.91639645097E+03  0.25500000920E-02 0.  1.
    10030    2    1    2    0    0  0.00000000000E+00  0.00000000000E+00 -0.14418445391E+03  0.16886084480E+04  0.16824414801E+04 0.  0.
        2    1    3    3  502    0  0.37932102158E+03  0.50443924939E+03  0.48610185360E+03  0.79664195585E+03  0.25500000920E-02 0. -1.
       -2    1    3    3    0  502 -0.37932102158E+03 -0.50443924939E+03 -0.63028630751E+03  0.89196649218E+03  0.25500000920E-02 0.  1.
</event>
<event>
 5   0  0.2356829E-04  0.1700282E+04  0.7818609E-02  0.8761204E-01
        2   -1    0    0  501    0  0.00000000000E+00  0.00000000000E+00  0.55662457826E+03  0.55662457827E+03  0.25500000920E-02 0.  1.
       -2   -1    0    0    0  501  0.00000000000E+00  0.00000000000E+00 -0.12984326107E+04  0.12984326107E+04  0.25500000920E-02 0. -1.
    10030    2    1    2    0    0  0.00000000000E+00  0.00000000000E+00 -0.74180803243E+03  0.18550571890E+04  0.17002817465E+04 0.  0.
        5    1    3    3  502    0 -0.88670880683E+02 -0.28101027945E+03 -0.12409190624E+04  0.12754338523E+04  0.46999998093E+01 0. -1.
       -5    1    3    3    0  502  0.88670880683E+02  0.28101027945E+03  0.49911102992E+03  0.57962333668E+03  0.46999998093E+01 0.  1.
</event>
<event>
 5   0  0.1204741E-04  0.1701264E+04  0.7818609E-02  0.8760644E-01
       -1   -1    0    0    0  501  0.00000000000E+00  0.00000000000E+00  0.53585732005E+03  0.53585732007E+03  0.50400001928E-02 0. -1.
        1   -1    0    0  501    0  0.00000000000E+00  0.00000000000E+00 -0.13503126473E+04  0.13503126473E+04  0.50400001928E-02 0.  1.
    10030    2    1    2    0    0  0.00000000000E+00  0.00000000000E+00 -0.81445532726E+03  0.18861699674E+04  0.17012641376E+04 0.  0.
        1    1    3    3  502    0 -0.21339118330E+03  0.55723228147E+03 -0.10793622534E+04  0.12333152422E+04  0.50400001928E-02 0.  1.
       -1    1    3    3    0  502  0.21339118330E+03 -0.55723228147E+03  0.26490692614E+03  0.65285472516E+03  0.50400001928E-02 0. -1.
</event>
<event>
 5   0  0.2242967E-04  0.1714574E+04  0.7818609E-02  0.8753096E-01
       -2   -1    0    0    0  501  0.00000000000E+00  0.00000000000E+00  0.11801660077E+04  0.11801660077E+04  0.25500000920E-02 0. -1.
        2   -1    0    0  501    0  0.00000000000E+00  0.00000000000E+00 -0.62274359184E+03  0.62274359185E+03  0.25500000920E-02 0.  1.
    10030    2    1    2    0    0  0.00000000000E+00  0.00000000000E+00  0.55742241589E+03  0.18029095996E+04  0.17145737880E+04 0.  0.
        4    1    3    3  502    0 -0.10926927158E+03 -0.74055221508E+03 -0.16064555437E+03  0.76561476214E+03  0.12699999809E+01 0.  1.
       -4    1    3    3    0  502  0.10926927158E+03  0.74055221508E+03  0.71806797026E+03  0.10372948374E+04  0.12699999809E+01 0. -1.
</event>
<event>
 5   0  0.2288806E-04  0.1691303E+04  0.7818609E-02  0.8766340E-01
       -2   -1    0    0    0  501  0.00000000000E+00  0.00000000000E+00  0.35435172055E+03  0.35435172056E+03  0.25500000920E-02 0. -1.
        2   -1    0    0  501    0  0.00000000000E+00  0.00000000000E+00 -0.20181263490E+04  0.20181263490E+04  0.25500000920E-02 0.  1.
    10030    2    1    2    0    0  0.00000000000E+00  0.00000000000E+00 -0.16637746285E+04  0.23724780696E+04  0.16913031001E+04 0.  0.
        3    1    3    3  502    0  0.43570368305E+02 -0.20781554209E+03 -0.19801239636E+04  0.19914759848E+04  0.10100000352E+00 0.  1.
       -3    1    3    3    0  502 -0.43570368305E+02  0.20781554209E+03  0.31634933517E+03  0.38100208476E+03  0.10100000352E+00 0. -1.
</event>
<event>
 5   0  0.2356829E-04  0.1677610E+04  0.7818609E-02  0.8774238E-01
        2   -1    0    0  501    0  0.00000000000E+00  0.00000000000E+00  0.22924117222E+04  0.22924117222E+04  0.25500000920E-02 0.  1.
       -2   -1    0    0    0  501  0.00000000000E+00  0.00000000000E+00 -0.30692291783E+03  0.30692291784E+03  0.25500000920E-02 0. -1.
    10030    2    1    2    0    0  0.00000000000E+00  0.00000000000E+00  0.19854888043E+04  0.25993346400E+04  0.16776098410E+04 0.  0.
        5    1    3    3  502    0  0.50486625460E+03 -0.53916867156E+03  0.37690048966E+03  0.82925801807E+03  0.46999998093E+01 0. -1.
       -5    1    3    3    0  502 -0.50486625460E+03  0.53916867156E+03  0.16085883147E+04  0.17700766219E+04  0.46999998093E+01 0.  1.
</event>
<event>
 5   0  0.2288806E-04  0.1694777E+04  0.7818609E-02  0.8764349E-01
        2   -1    0    0  501    0  0.00000000000E+00  0.00000000000E+00  0.10001839412E+04  0.10001839412E+04  0.25500000920E-02 0.  1.
       -2   -1    0    0    0  501  0.00000000000E+00  0.00000000000E+00 -0.71793523163E+03  0.71793523163E+03  0.25500000920E-02 0. -1.
    10030    2    1    2    0    0  0.00000000000E+00  0.00000000000E+00  0.28224870953E+03  0.17181191728E+04  0.16947770231E+04 0.  0.
        3    1    3    3  502    0 -0.13409406836E+03  0.37888259983E+03  0.89741126115E+03  0.98330067907E+03  0.10100000352E+00 0.  1.
       -3    1    3    3    0  502  0.13409406836E+03 -0.37888259983E+03 -0.61516255161E+03  0.73481849373E+03  0.10100000352E+00 0. -1.
</event>
<event>
 5   0  0.1186302E-04  0.1697891E+04  0.7818609E-02  0.8762568E-01
       -1   -1    0    0    0  501  0.00000000000E+00  0.00000000000E+00  0.41977548556E+03  0.41977548559E+03  0.50400001928E-02 0. -1.
        1   -1    0    0  501    0  0.00000000000E+00  0.00000000000E+00 -0.17168905043E+04  0.17168905043E+04  0.50400001928E-02 0.  1.
    10030    2    1    2    0    0  0.00000000000E+00  0.00000000000E+00 -0.12971150187E+04  0.21366659899E+04  0.16978910979E+04 0.  0.
        3    1    3    3  502    0  0.60820070197E+03  0.11976206995E+03  0.81390460015E+02  0.62520033946E+03  0.10100000352E+00 0. -1.
       -3    1    3    3    0  502 -0.60820070197E+03 -0.11976206995E+03 -0.13785054787E+04  0.15114656504E+04  0.10100000352E+00 0.  1.
</event>
<event>
 5   0  0.1186302E-04  0.1696238E+04  0.7818609E-02  0.8763513E-01
        1   -1    0    0  501    0  0.00000000000E+00  0.00000000000E+00  0.67974228291E+03  0.67974228292E+03  0.50400001928E-02 0.  1.
       -1   -1    0    0    0  501  0.00000000000E+00  0.00000000000E+00 -0.10582034776E+04  0.10582034776E+04  0.50400001928E-02 0. -1.
    10030    2    1    2    0    0  0.00000000000E+00  0.00000000000E+00 -0.37846119468E+03  0.17379457605E+04  0.16962377754E+04 0.  0.
        3    1    3    3  502    0 -0.16658640590E+03 -0.62704827565E+03 -0.74888957468E+03  0.99084619184E+03  0.10100000352E+00 0.  1.
       -3    1    3    3    0  502  0.16658640590E+03  0.62704827565E+03  0.37042837999E+03  0.74709956869E+03  0.10100000352E+00 0. -1.
</event>
<event>
 5   0  0.2242967E-04  0.1797215E+04  0.7818609E-02  0.8707782E-01
       -2   -1    0    0    0  501  0.00000000000E+00  0.00000000000E+00  0.10121243058E+04  0.10121243058E+04  0.25500000920E-02 0.  1.
        2   -1    0    0  501    0  0.00000000000E+00  0.00000000000E+00 -0.79782283806E+03  0.79782283807E+03  0.25500000920E-02 0. -1.
    10030    2    1    2    0    0  0.00000000000E+00  0.00000000000E+00  0.21430146772E+03  0.18099471439E+04  0.17972154975E+04 0.  0.
        4    1    3    3  502    0  0.76708345033E+03  0.11586714026E+03  0.56385205581E+03  0.95904794860E+03  0.12699999809E+01 0.  1.
       -4    1    3    3    0  502 -0.76708345033E+03 -0.11586714026E+03 -0.34955058809E+03  0.85089919526E+03  0.12699999809E+01 0. -1.
</event>
<event>
 5   0  0.1234158E-04  0.1707275E+04  0.7818609E-02  0.8757226E-01
       -1   -1    0    0    0  501  0.00000000000E+00  0.00000000000E+00  0.38733746815E+03  0.38733746818E+03  0.50400001928E-02 0. -1.
        1   -1    0    0  501    0  0.00000000000E+00  0.00000000000E+00 -0.18812978054E+04  0.18812978054E+04  0.50400001928E-02 0.  1.
    10030    2    1    2    0    0  0.00000000000E+00  0.00000000000E+00 -0.14939603373E+04  0.22686352736E+04  0.17072751727E+04 0.  0.
        5    1    3    3  502    0 -0.68226505281E+02 -0.54489825562E+03 -0.16153985938E+04  0.17061956722E+04  0.46999998093E+01 0.  1.
       -5    1    3    3    0  502  0.68226505281E+02  0.54489825562E+03  0.12143825658E+03  0.56243960135E+03  0.46999998093E+01 0. -1.
</event>
<event>
 5   0  0.8372750E-05  0.1704382E+04  0.7818609E-02  0.8758869E-01
        3   -1    0    0  501    0  0.00000000000E+00  0.00000000000E+00  0.10797934913E+04  0.10797934960E+04  0.10100000352E+00 0.  1.
       -3   -1    0    0    0  501  0.00000000000E+00  0.00000000000E+00 -0.67256319319E+03  0.67256320078E+03  0.10100000352E+00 0. -1.
    10030    2    1    2    0    0  0.00000000000E+00  0.00000000000E+00  0.40723029811E+03  0.17523566968E+04  0.17043818460E+04 0.  0.
        5    1    3    3  502    0  0.27743203902E+03  0.39026169144E+03 -0.52116320014E+03  0.70774705599E+03  0.46999998093E+01 0. -1.
       -5    1    3    3    0  502 -0.27743203902E+03 -0.39026169144E+03  0.92839349825E+03  0.10446096408E+04  0.46999998093E+01 0.  1.
</event>
<event>
 5   0  0.1186302E-04  0.1634287E+04  0.7818609E-02  0.8799757E-01
       -1   -1    0    0    0  501  0.00000000000E+00  0.00000000000E+00  0.89933230676E+03  0.89933230677E+03  0.50400001928E-02 0. -1.
        1   -1    0    0  501    0  0.00000000000E+00  0.00000000000E+00 -0.74246552197E+03  0.74246552199E+03  0.50400001928E-02 0.  1.
    10030    2    1    2    0    0  0.00000000000E+00  0.00000000000E+00  0.15686678479E+03  0.16417978288E+04  0.16342866708E+04 0.  0.
        3    1    3    3  502    0 -0.77660631688E+03 -0.79453012987E+02  0.32098261879E+03  0.84407345916E+03  0.10100000352E+00 0.  1.
       -3    1    3    3    0  502  0.77660631688E+03  0.79453012987E+02 -0.16411583400E+03  0.79772436961E+03  0.10100000352E+00 0. -1.
</event>
<event>
 5   0  0.8372750E-05  0.1683133E+04  0.7818609E-02  0.8771043E-01
       -3   -1    0    0    0  501  0.00000000000E+00  0.00000000000E+00  0.49342824350E+03  0.49342825384E+03  0.10100000352E+00 0. -1.
        3   -1    0    0  501    0  0.00000000000E+00  0.00000000000E+00 -0.14353335302E+04  0.14353335337E+04  0.10100000352E+00 0.  1.
    10030    2    1    2    0    0  0.00000000000E+00  0.00000000000E+00 -0.94190528666E+03  0.19287617875E+04  0.16831329312E+04 0.  0.
        1    1    3    3  502    0  0.48682553587E+03 -0.35801974312E+03  0.20023390043E+03  0.63660887030E+03  0.50400001928E-02 0. -1.
       -1    1    3    3    0  502 -0.48682553587E+03  0.35801974312E+03 -0.11421391871E+04  0.12921529172E+04  0.50400001928E-02 0.  1.
</event>
<event>
 5   0  0.1186302E-04  0.1702592E+04  0.7818609E-02  0.8759888E-01
        1   -1    0    0  501    0  0.00000000000E+00  0.00000000000E+00  0.81925997446E+03  0.81925997448E+03  0.50400001928E-02 0.  1.
       -1   -1    0    0    0  501  0.00000000000E+00  0.00000000000E+00 -0.88458435671E+03  0.88458435673E+03  0.50400001928E-02 0. -1.
    10030    2    1    2    0    0  0.00000000000E+00  0.00000000000E+00 -0.65324382251E+02  0.17038443312E+04  0.17025916216E+04 0.  0.
        3    1    3    3  502    0  0.63754090891E+03  0.10627726895E+03  0.52177728608E+03  0.83066528451E+03  0.10100000352E+00 0.  1.
       -3    1    3    3    0  502 -0.63754090891E+03 -0.10627726895E+03 -0.58710166833E+03  0.87317904669E+03  0.10100000352E+00 0. -1.
</event>
<event>
 5   0  0.2234723E-04  0.1690761E+04  0.7818609E-02  0.8766651E-01
        2   -1    0    0  501    0  0.00000000000E+00  0.00000000000E+00  0.17316641672E+04  0.17316641672E+04  0.25500000920E-02 0.  1.
       -2   -1    0    0    0  501  0.00000000000E+00  0.00000000000E+00 -0.41270590815E+03  0.41270590816E+03  0.25500000920E-02 0. -1.
    10030    2    1    2    0    0  0.00000000000E+00  0.00000000000E+00  0.13189582591E+04  0.21443700754E+04  0.16907608143E+04 0.  0.
        1    1    3    3  502    0 -0.19411082885E+03 -0.81482133556E+03  0.80439284602E+03  0.11613185065E+04  0.50400001928E-02 0.  1.
       -1    1    3    3    0  502  0.19411082885E+03  0.81482133556E+03  0.51456541304E+03  0.98305156888E+03  0.50400001928E-02 0. -1.
</event>
<event>
 5   0  0.1215233E-04  0.1685644E+04  0.7818609E-02  0.8769595E-01
        1   -1    0    0  501    0  0.00000000000E+00  0.00000000000E+00  0.99553503019E+03  0.99553503020E+03  0.50400001928E-02 0. -1.
       -1   -1    0    0    0  501  0.00000000000E+00  0.00000000000E+00 -0.71353474291E+03  0.71353474292E+03  0.50400001928E-02 0.  1.
    10030    2    1    2    0    0  0.00000000000E+00  0.00000000000E+00  0.28200028728E+03  0.17090697731E+04  0.16856438910E+04 0.  0.
        2    1    3    3  502    0  0.81271005425E+03  0.19956483789E+03  0.24251691062E+03  0.87128537733E+03  0.25500000920E-02 0. -1.
       -2    1    3    3    0  502 -0.81271005425E+03 -0.19956483789E+03  0.39483376659E+02  0.83778439580E+03  0.25500000920E-02 0.  1.
</event>
<event>
 5   0  0.1186302E-04  0.1703246E+04  0.7818609E-02  0.8759515E-01
        1   -1    0    0  501    0  0.00000000000E+00  0.00000000000E+00  0.87984234166E+03  0.87984234167E+03  0.50400001928E-02 0. -1.
       -1   -1    0    0    0  501  0.00000000000E+00  0.00000000000E+00 -0.82430833829E+03  0.82430833830E+03  0.50400001928E-02 0.  1.
    10030    2    1    2    0    0  0.00000000000E+00  0.00000000000E+00  0.55534003371E+02  0.17041506800E+04  0.17032455826E+04 0.  0.
        3    1    3    3  502    0 -0.59205959497E+03 -0.20767799150E+03  0.60391730153E+03  0.87085063555E+03  0.10100000352E+00 0. -1.
       -3    1    3    3    0  502  0.59205959497E+03  0.20767799150E+03 -0.54838329815E+03  0.83330004443E+03  0.10100000352E+00 0.  1.
</event>
<event>
 5   0  0.1215233E-04  0.1706456E+04  0.7818609E-02  0.8757691E-01
       -1   -1    0    0    0  501  0.00000000000E+00  0.00000000000E+00  0.65257680214E+03  0.65257680216E+03  0.50400001928E-02 0. -1.
        1   -1    0    0  501    0  0.00000000000E+00  0.00000000000E+00 -0.11155746559E+04  0.11155746559E+04  0.50400001928E-02 0.  1.
    10030    2    1    2    0    0  0.00000000000E+00  0.00000000000E+00 -0.46299785372E+03  0.17681514580E+04  0.17064561424E+04 0.  0.
        2    1    3    3  502    0 -0.48508467791E+03  0.70177903090E+03 -0.24604899976E+03  0.88788572645E+03  0.25500000920E-02 0. -1.
       -2    1    3    3    0  502  0.48508467791E+03 -0.70177903090E+03 -0.21694885397E+03  0.88026573158E+03  0.25500000920E-02 0.  1.
</event>
<event>
 5   0  0.1186302E-04  0.1754243E+04  0.7818609E-02  0.8731018E-01
       -1   -1    0    0    0  501  0.00000000000E+00  0.00000000000E+00  0.37633445458E+03  0.37633445461E+03  0.50400001928E-02 0. -1.
        1   -1    0    0  501    0  0.00000000000E+00  0.00000000000E+00 -0.20443034525E+04  0.20443034525E+04  0.50400001928E-02 0.  1.
    10030    2    1    2    0    0  0.00000000000E+00  0.00000000000E+00 -0.16679689979E+04  0.24206379071E+04  0.17542426569E+04 0.  0.
        3    1    3    3  502    0 -0.53371298045E+03  0.35619185559E+03 -0.88004236778E+01  0.64171616869E+03  0.10100000352E+00 0. -1.
       -3    1    3    3    0  502  0.53371298045E+03 -0.35619185559E+03 -0.16591685742E+04  0.17789217384E+04  0.10100000352E+00 0.  1.
</event>
<event>
 5   0  0.2356829E-04  0.1701942E+04  0.7818609E-02  0.8760258E-01
       -2   -1    0    0    0  501  0.00000000000E+00  0.00000000000E+00  0.82610653775E+03  0.82610653775E+03  0.25500000920E-02 0. -1.
        2   -1    0    0  501    0  0.00000000000E+00  0.00000000000E+00 -0.87658381271E+03  0.87658381271E+03  0.25500000920E-02 0.  1.
    10030    2    1    2    0    0  0.00000000000E+00  0.00000000000E+00 -0.50477274960E+02  0.17026903505E+04  0.17019419715E+04 0.  0.
        5    1    3    3  502    0  0.16273327312E+03 -0.25018159523E+03 -0.82249342583E+03  0.87498027081E+03  0.46999998093E+01 0.  1.
       -5    1    3    3    0  502 -0.16273327312E+03  0.25018159523E+03  0.77201615087E+03  0.82771007966E+03  0.46999998093E+01 0. -1.
</event>
<event>
 5   0  0.2234723E-04  0.1610705E+04  0.7818609E-02  0.8813999E-01
        2   -1    0    0  501    0  0.00000000000E+00  0.00000000000E+00  0.11495749850E+04  0.11495749850E+04  0.25500000920E-02 0. -1.
       -2   -1    0    0    0  501  0.00000000000E+00  0.00000000000E+00 -0.56420186658E+03  0.56420186658E+03  0.25500000920E-02 0.  1.
    10030    2    1    2    0    0  0.00000000000E+00  0.00000000000E+00  0.58537311841E+03  0.17137768516E+04  0.16107046313E+04 0.  0.
        1    1    3    3  502    0 -0.55890401720E+03  0.33690062966E+03  0.79481483283E+03  0.10283998995E+04  0.50400001928E-02 0. -1.
       -1    1    3    3    0  502  0.55890401720E+03 -0.33690062966E+03 -0.20944171442E+03  0.68537695210E+03  0.50400001928E-02 0.  1.
</event>
<event>
 5   0  0.1204741E-04  0.1698821E+04  0.7818609E-02  0.8762037E-01
       -1   -1    0    0    0  501  0.00000000000E+00  0.00000000000E+00  0.96671715959E+03  0.96671715960E+03  0.50400001928E-02 0. -1.
        1   -1    0    0  501    0  0.00000000000E+00  0.00000000000E+00 -0.74633868777E+03  0.74633868779E+03  0.50400001928E-02 0.  1.
    10030    2    1    2    0    0  0.00000000000E+00  0.00000000000E+00  0.22037847182E+03  0.17130558474E+04  0.16988212576E+04 0.  0.
        1    1    3    3  502    0  0.14617752861E+03  0.83360108503E+03  0.18318207530E+03  0.86591818988E+03  0.50400001928E-02 0. -1.
       -1    1    3    3    0  502 -0.14617752861E+03 -0.83360108503E+03  0.37196396522E+02  0.84713765751E+03  0.50400001928E-02 0.  1.
</event>
<event>
 5   0  0.2224454E-04  0.1698687E+04  0.7818609E-02  0.8762114E-01
        2   -1    0    0  501    0  0.00000000000E+00  0.00000000000E+00  0.98800130155E+03  0.98800130155E+03  0.25500000920E-02 0. -1.
       -2   -1    0    0    0  501  0.00000000000E+00  0.00000000000E+00 -0.73014510761E+03  0.73014510761E+03  0.25500000920E-02 0.  1.
    10030    2    1    2    0    0  0.00000000000E+00  0.00000000000E+00  0.25785619394E+03  0.17181464092E+04  0.16986869242E+04 0.  0.
        2    1    3    3  502    0 -0.74637219112E+03  0.32401804405E+03 -0.11742971770E+03  0.82210028534E+03  0.25500000920E-02 0.  1.
       -2    1    3    3    0  502  0.74637219112E+03 -0.32401804405E+03  0.37528591164E+03  0.89604612383E+03  0.25500000920E-02 0. -1.
</event>
<event>
 5   0  0.2356829E-04  0.1689628E+04  0.7818609E-02  0.8767302E-01
        2   -1    0    0  501    0  0.00000000000E+00  0.00000000000E+00  0.18876619014E+04  0.18876619014E+04  0.25500000920E-02 0.  1.
       -2   -1    0    0    0  501  0.00000000000E+00  0.00000000000E+00 -0.37809244790E+03  0.37809244791E+03  0.25500000920E-02 0. -1.
    10030    2    1    2    0    0  0.00000000000E+00  0.00000000000E+00  0.15095694535E+04  0.22657543493E+04  0.16896280172E+04 0.  0.
        5    1    3    3  502    0 -0.67935337050E+02  0.82571928861E+02 -0.36896404057E+03  0.38417429207E+03  0.46999998093E+01 0. -1.
       -5    1    3    3    0  502  0.67935337050E+02 -0.82571928861E+02  0.18785334941E+04  0.18815800572E+04  0.46999998093E+01 0.  1.
</event>
<event>
 5   0  0.1215233E-04  0.1692105E+04  0.7818609E-02  0.8765880E-01
        1   -1    0    0  501    0  0.00000000000E+00  0.00000000000E+00  0.17542181409E+04  0.17542181409E+04  0.50400001928E-02 0. -1.
       -1   -1    0    0    0  501  0.00000000000E+00  0.00000000000E+00 -0.40804764365E+03  0.40804764369E+03  0.50400001928E-02 0.  1.
    10030    2    1    2    0    0  0.00000000000E+00  0.00000000000E+00  0.13461704972E+04  0.21622657846E+04  0.16921046999E+04 0.  0.
        2    1    3    3  502    0  0.25977210779E+03 -0.79952664098E+03  0.79485210759E+03  0.11569417749E+04  0.25500000920E-02 0.  1.
       -2    1    3    3    0  502 -0.25977210779E+03  0.79952664098E+03  0.55131838964E+03  0.10053240096E+04  0.25500000920E-02 0. -1.
</event>
<event>
 5   0  0.2224454E-04  0.1700472E+04  0.7818609E-02  0.8761095E-01
        2   -1    0    0  501    0  0.00000000000E+00  0.00000000000E+00  0.49003883826E+03  0.49003883826E+03  0.25500000920E-02 0.  1.
       -2   -1    0    0    0  501  0.00000000000E+00  0.00000000000E+00 -0.14751922249E+04  0.14751922249E+04  0.25500000920E-02 0. -1.
    10030    2    1    2    0    0  0.00000000000E+00  0.00000000000E+00 -0.98515338662E+03  0.19652310631E+04  0.17004722686E+04 0.  0.
        2    1    3    3  502    0 -0.66423665037E+03 -0.47378628618E+03 -0.21613133147E+03  0.84403585535E+03  0.25500000920E-02 0.  1.
       -2    1    3    3    0  502  0.66423665037E+03  0.47378628618E+03 -0.76902205516E+03  0.11211952078E+04  0.25500000920E-02 0. -1.
</event>
<event>
 5   0  0.2288806E-04  0.1696432E+04  0.7818609E-02  0.8763402E-01
       -2   -1    0    0    0  501  0.00000000000E+00  0.00000000000E+00  0.13514558941E+04  0.13514558941E+04  0.25500000920E-02 0. -1.
        2   -1    0    0  501    0  0.00000000000E+00  0.00000000000E+00 -0.53236669022E+03  0.53236669023E+03  0.25500000920E-02 0.  1.
    10030    2    1    2    0    0  0.00000000000E+00  0.00000000000E+00  0.81908920385E+03  0.18838225843E+04  0.16964316683E+04 0.  0.
        3    1    3    3  502    0 -0.28627796642E+03  0.38812663495E+03 -0.36529418791E+03  0.60501009309E+03  0.10100000352E+00 0.  1.
       -3    1    3    3    0  502  0.28627796642E+03 -0.38812663495E+03  0.11843833918E+04  0.12788124912E+04  0.10100000352E+00 0. -1.
</event>
<event>
 5   0  0.8372750E-05  0.1699047E+04  0.7818609E-02  0.8761908E-01
        3   -1    0    0  501    0  0.00000000000E+00  0.00000000000E+00  0.58812039809E+03  0.58812040676E+03  0.10100000352E+00 0. -1.
       -3   -1    0    0    0  501  0.00000000000E+00  0.00000000000E+00 -0.12271124916E+04  0.12271124958E+04  0.10100000352E+00 0.  1.
    10030    2    1    2    0    0  0.00000000000E+00  0.00000000000E+00 -0.63899209355E+03  0.18152329026E+04  0.16990466724E+04 0.  0.
        4    1    3    3  502    0 -0.55669711098E+03  0.52602446898E+03 -0.71215393431E+03  0.10458385413E+04  0.12699999809E+01 0.  1.
       -4    1    3    3    0  502  0.55669711098E+03 -0.52602446898E+03  0.73161840760E+02  0.76939436129E+03  0.12699999809E+01 0. -1.
</event>
<event>
 5   0  0.1234158E-04  0.1700782E+04  0.7818609E-02  0.8760918E-01
        1   -1    0    0  501    0  0.00000000000E+00  0.00000000000E+00  0.11183629726E+04  0.11183629726E+04  0.50400001928E-02 0. -1.
       -1   -1    0    0    0  501  0.00000000000E+00  0.00000000000E+00 -0.64662841271E+03  0.64662841273E+03  0.50400001928E-02 0.  1.
    10030    2    1    2    0    0  0.00000000000E+00  0.00000000000E+00  0.47173455991E+03  0.17649913854E+04  0.17007824950E+04 0.  0.
        5    1    3    3  502    0  0.72905165045E+03  0.59258204296E+02  0.68596407309E+03  0.10027944173E+04  0.46999998093E+01 0. -1.
       -5    1    3    3    0  502 -0.72905165045E+03 -0.59258204296E+02 -0.21422951318E+03  0.76219696806E+03  0.46999998093E+01 0.  1.
</event>
<event>
 5   0  0.2234723E-04  0.1681715E+04  0.7818609E-02  0.8771862E-01
        2   -1    0    0  501    0  0.00000000000E+00  0.00000000000E+00  0.10927247261E+04  0.10927247261E+04  0.25500000920E-02 0.  1.
       -2   -1    0    0    0  501  0.00000000000E+00  0.00000000000E+00 -0.64704400606E+03  0.64704400606E+03  0.25500000920E-02 0. -1.
    10030    2    1    2    0    0  0.00000000000E+00  0.00000000000E+00  0.44568072009E+03  0.17397687322E+04  0.16817145826E+04 0.  0.
        1    1    3    3  502    0 -0.21048486909E+03  0.49178812099E+02 -0.61781111563E+03  0.65453266557E+03  0.50400001928E-02 0. -1.
       -1    1    3    3    0  502  0.21048486909E+03 -0.49178812099E+02  0.10634918357E+04  0.10852360666E+04  0.50400001928E-02 0.  1.
</event>
<event>
 5   0  0.1126958E-04  0.1695733E+04  0.7818609E-02  0.8763802E-01
        1   -1    0    0  501    0  0.00000000000E+00  0.00000000000E+00  0.73005884933E+03  0.73005884935E+03  0.50400001928E-02 0.  1.
       -1   -1    0    0    0  501  0.00000000000E+00  0.00000000000E+00 -0.98468396725E+03  0.98468396727E+03  0.50400001928E-02 0. -1.
    10030    2    1    2    0    0  0.00000000000E+00  0.00000000000E+00 -0.25462511792E+03  0.17147428166E+04  0.16957325781E+04 0.  0.
        4    1    3    3  502    0 -0.61991773808E+03  0.39449761592E+03 -0.55507887354E+03  0.92089116605E+03  0.12699999809E+01 0. -1.
       -4    1    3    3    0  502  0.61991773808E+03 -0.39449761592E+03  0.30045375563E+03  0.79385165057E+03  0.12699999809E+01 0.  1.
</event>
<event>
 5   0  0.1215233E-04  0.1713664E+04  0.7818609E-02  0.8753609E-01
        1   -1    0    0  501    0  0.00000000000E+00  0.00000000000E+00  0.13055234410E+04  0.13055234410E+04  0.50400001928E-02 0. -1.
       -1   -1    0    0    0  501  0.00000000000E+00  0.00000000000E+00 -0.56235021700E+03  0.56235021702E+03  0.50400001928E-02 0.  1.
    10030    2    1    2    0    0  0.00000000000E+00  0.00000000000E+00  0.74317322400E+03  0.18678736580E+04  0.17136643666E+04 0.  0.
        2    1    3    3  502    0  0.42726382807E+03 -0.32528132113E+02  0.11803466677E+04  0.12557192020E+04  0.25500000920E-02 0. -1.
       -2    1    3    3    0  502 -0.42726382807E+03  0.32528132113E+02 -0.43717344373E+03  0.61215445606E+03  0.25500000920E-02 0.  1.
</event>
<event>
 5   0  0.2242967E-04  0.1675423E+04  0.7818609E-02  0.8775507E-01
       -2   -1    0    0    0  501  0.00000000000E+00  0.00000000000E+00  0.34606909254E+03  0.34606909255E+03  0.25500000920E-02 0. -1.
        2   -1    0    0  501    0  0.00000000000E+00  0.00000000000E+00 -0.20278043853E+04  0.20278043853E+04  0.25500000920E-02 0.  1.
    10030    2    1    2    0    0  0.00000000000E+00  0.00000000000E+00 -0.16817352928E+04  0.23738734779E+04  0.16754228403E+04 0.  0.
        4    1    3    3  502    0  0.46056549995E+03 -0.65183161840E+03 -0.48031750280E+03  0.93151036220E+03  0.12699999809E+01 0.  1.
       -4    1    3    3    0  502 -0.46056549995E+03  0.65183161840E+03 -0.12014177900E+04  0.14423631157E+04  0.12699999809E+01 0. -1.
</event>
<event>
 5   0  0.2224454E-04  0.1706374E+04  0.7818609E-02  0.8757737E-01
        2   -1    0    0  501    0  0.00000000000E+00  0.00000000000E+00  0.67978547551E+03  0.67978547551E+03  0.25500000920E-02 0. -1.
       -2   -1    0    0    0  501  0.00000000000E+00  0.00000000000E+00 -0.10708208020E+04  0.10708208020E+04  0.25500000920E-02 0.  1.
    10030    2    1    2    0    0  0.00000000000E+00  0.00000000000E+00 -0.39103532649E+03  0.17506062775E+04  0.17063744350E+04 0.  0.
        2    1    3    3  502    0  0.18315960532E+03  0.67052191601E+03 -0.70309626607E+03  0.98868166779E+03  0.25500000920E-02 0.  1.
       -2    1    3    3    0  502 -0.18315960532E+03 -0.67052191601E+03  0.31206093958E+03  0.76192460971E+03  0.25500000920E-02 0. -1.
</event>
<event>
 5   0  0.2288806E-04  0.1698145E+04  0.7818609E-02  0.8762423E-01
        2   -1    0    0  501    0  0.00000000000E+00  0.00000000000E+00  0.13109194199E+04  0.13109194199E+04  0.25500000920E-02 0.  1.
       -2   -1    0    0    0  501  0.00000000000E+00  0.00000000000E+00 -0.54993756984E+03  0.54993756984E+03  0.25500000920E-02 0. -1.
    10030    2    1    2    0    0  0.00000000000E+00  0.00000000000E+00  0.76098185002E+03  0.18608569897E+04  0.16981446817E+04 0.  0.
        3    1    3    3  502    0  0.12262155021E+03  0.32875294226E+03 -0.46677480000E+03  0.58394628669E+03  0.10100000352E+00 0. -1.
       -3    1    3    3    0  502 -0.12262155021E+03 -0.32875294226E+03  0.12277566500E+04  0.12769107030E+04  0.10100000352E+00 0.  1.
</event>
<event>
 5   0  0.8372750E-05  0.1720959E+04  0.7818609E-02  0.8749500E-01
       -4   -1    0    0    0  501  0.00000000000E+00  0.00000000000E+00  0.53820238770E+03  0.53820388611E+03  0.12699999809E+01 0. -1.
        4   -1    0    0  501    0  0.00000000000E+00  0.00000000000E+00 -0.13757338429E+04  0.13757344291E+04  0.12699999809E+01 0.  1.
    10030    2    1    2    0    0  0.00000000000E+00  0.00000000000E+00 -0.83753145516E+03  0.19139383152E+04  0.17209593069E+04 0.  0.
        3    1    3    3  502    0 -0.12587406743E+02 -0.15128355062E+03 -0.13607247025E+04  0.13691664916E+04  0.10100000352E+00 0.  1.
       -3    1    3    3    0  502  0.12587406743E+02  0.15128355062E+03  0.52319324735E+03  0.54477182358E+03  0.10100000352E+00 0. -1.
</event>
<event>
 5   0  0.2242967E-04  0.1689330E+04  0.7818609E-02  0.8767474E-01
        2   -1    0    0  501    0  0.00000000000E+00  0.00000000000E+00  0.17041088495E+04  0.17041088495E+04  0.25500000920E-02 0. -1.
       -2   -1    0    0    0  501  0.00000000000E+00  0.00000000000E+00 -0.41866960442E+03  0.41866960443E+03  0.25500000920E-02 0.  1.
    10030    2    1    2    0    0  0.00000000000E+00  0.00000000000E+00  0.12854392451E+04  0.21227784539E+04  0.16893295450E+04 0.  0.
        4    1    3    3  502    0  0.51924804674E+03  0.33433702880E+03  0.13668165962E+04  0.14998629949E+04  0.12699999809E+01 0. -1.
       -4    1    3    3    0  502 -0.51924804674E+03 -0.33433702880E+03 -0.81377351174E+02  0.62291545900E+03  0.12699999809E+01 0.  1.
</event>
<event>
 5   0  0.2288806E-04  0.1698419E+04  0.7818609E-02  0.8762266E-01
       -2   -1    0    0    0  501  0.00000000000E+00  0.00000000000E+00  0.40459445112E+03  0.40459445113E+03  0.25500000920E-02 0.  1.
        2   -1    0    0  501    0  0.00000000000E+00  0.00000000000E+00 -0.17824198947E+04  0.17824198947E+04  0.25500000920E-02 0. -1.
    10030    2    1    2    0    0  0.00000000000E+00  0.00000000000E+00 -0.13778254436E+04  0.21870143458E+04  0.16984194994E+04 0.  0.
        3    1    3    3  502    0 -0.48262961701E+03 -0.27453671891E+03  0.13846851120E+03  0.57225457275E+03  0.10100000352E+00 0.  1.
       -3    1    3    3    0  502  0.48262961701E+03  0.27453671891E+03 -0.15162939548E+04  0.16147597731E+04  0.10100000352E+00 0. -1.
</event>
<event>
 5   0  0.1186302E-04  0.1725570E+04  0.7818609E-02  0.8746914E-01
        1   -1    0    0  501    0  0.00000000000E+00  0.00000000000E+00  0.14799115564E+04  0.14799115565E+04  0.50400001928E-02 0.  1.
       -1   -1    0    0    0  501  0.00000000000E+00  0.00000000000E+00 -0.50300184184E+03  0.50300184186E+03  0.50400001928E-02 0. -1.
    10030    2    1    2    0    0  0.00000000000E+00  0.00000000000E+00  0.97690971461E+03  0.19829133983E+04  0.17255703274E+04 0.  0.
        3    1    3    3  502    0  0.15690209140E+03 -0.33983605744E+03 -0.40483889348E+03  0.55136317622E+03  0.10100000352E+00 0. -1.
       -3    1    3    3    0  502 -0.15690209140E+03  0.33983605744E+03  0.13817486081E+04  0.14315502221E+04  0.10100000352E+00 0.  1.
</event>
<event>
 5   0  0.2234723E-04  0.1743321E+04  0.7818609E-02  0.8737035E-01
        2   -1    0    0  501    0  0.00000000000E+00  0.00000000000E+00  0.50500960310E+03  0.50500960311E+03  0.25500000920E-02 0.  1.
       -2   -1    0    0    0  501  0.00000000000E+00  0.00000000000E+00 -0.15045104288E+04  0.15045104288E+04  0.25500000920E-02 0. -1.
    10030    2    1    2    0    0  0.00000000000E+00  0.00000000000E+00 -0.99950082567E+03  0.20095200319E+04  0.17433212148E+04 0.  0.
        1    1    3    3  502    0 -0.24382272603E+03 -0.26790309763E+03 -0.14136362871E+04  0.14593111880E+04  0.50400001928E-02 0. -1.
       -1    1    3    3    0  502  0.24382272603E+03  0.26790309763E+03  0.41413546138E+03  0.55020884385E+03  0.50400001928E-02 0.  1.
</event>
<event>
 5   0  0.1215233E-04  0.1752648E+04  0.7818609E-02  0.8731894E-01
        1   -1    0    0  501    0  0.00000000000E+00  0.00000000000E+00  0.15845442782E+04  0.15845442782E+04  0.50400001928E-02 0. -1.
       -1   -1    0    0    0  501  0.00000000000E+00  0.00000000000E+00 -0.48464646131E+03  0.48464646133E+03  0.50400001928E-02 0.  1.
    10030    2    1    2    0    0  0.00000000000E+00  0.00000000000E+00  0.10998978169E+04  0.20691907395E+04  0.17526480277E+04 0.  0.
        2    1    3    3  502    0 -0.50253465655E+03  0.88438766825E+02 -0.29117236317E+03  0.58748943956E+03  0.25500000920E-02 0.  1.
       -2    1    3    3    0  502  0.50253465655E+03 -0.88438766825E+02  0.13910701800E+04  0.14817013000E+04  0.25500000920E-02 0. -1.
</event>
<event>
 5   0  0.1204741E-04  0.1665771E+04  0.7818609E-02  0.8781131E-01
        1   -1    0    0  501    0  0.00000000000E+00  0.00000000000E+00  0.83092861772E+03  0.83092861774E+03  0.50400001928E-02 0.  1.
       -1   -1    0    0    0  501  0.00000000000E+00  0.00000000000E+00 -0.83484699695E+03  0.83484699696E+03  0.50400001928E-02 0. -1.
    10030    2    1    2    0    0  0.00000000000E+00  0.00000000000E+00 -0.39183792269E+01  0.16657756147E+04  0.16657710061E+04 0.  0.
        1    1    3    3  502    0 -0.13167705386E+03 -0.40247263959E+03 -0.71916072003E+03  0.83457486985E+03  0.50400001928E-02 0. -1.
       -1    1    3    3    0  502  0.13167705386E+03  0.40247263959E+03  0.71524234080E+03  0.83120074485E+03  0.50400001928E-02 0.  1.
</event>
<event>
 5   0  0.2242967E-04  0.1689970E+04  0.7818609E-02  0.8767105E-01
       -2   -1    0    0    0  501  0.00000000000E+00  0.00000000000E+00  0.56848768072E+03  0.56848768073E+03  0.25500000920E-02 0. -1.
        2   -1    0    0  501    0  0.00000000000E+00  0.00000000000E+00 -0.12559639514E+04  0.12559639514E+04  0.25500000920E-02 0.  1.
    10030    2    1    2    0    0  0.00000000000E+00  0.00000000000E+00 -0.68747627067E+03  0.18244516321E+04  0.16899704539E+04 0.  0.
        4    1    3    3  502    0 -0.31140312943E+03 -0.69005754802E+03 -0.74889871642E+03  0.10648954075E+04  0.12699999809E+01 0.  1.
       -4    1    3    3    0  502  0.31140312943E+03  0.69005754802E+03  0.61422445748E+02  0.75955622460E+03  0.12699999809E+01 0. -1.
</event>
<event>
 5   0  0.2242967E-04  0.1697463E+04  0.7818609E-02  0.8762813E-01
        2   -1    0    0  501    0  0.00000000000E+00  0.00000000000E+00  0.15953690321E+04  0.15953690321E+04  0.25500000920E-02 0. -1.
       -2   -1    0    0    0  501  0.00000000000E+00  0.00000000000E+00 -0.45152268712E+03  0.45152268713E+03  0.25500000920E-02 0.  1.
    10030    2    1    2    0    0  0.00000000000E+00  0.00000000000E+00  0.11438463450E+04  0.20468917192E+04  0.16974631805E+04 0.  0.
        4    1    3    3  502    0 -0.80404705407E+03  0.74573428319E+02  0.25680334691E+03  0.84735024238E+03  0.12699999809E+01 0.  1.
       -4    1    3    3    0  502  0.80404705407E+03 -0.74573428319E+02  0.88704299806E+03  0.11995414768E+04  0.12699999809E+01 0. -1.
</event>
<event>
 5   0  0.2242967E-04  0.1686679E+04  0.7818609E-02  0.8768999E-01
       -2   -1    0    0    0  501  0.00000000000E+00  0.00000000000E+00  0.49498737902E+03  0.49498737903E+03  0.25500000920E-02 0. -1.
        2   -1    0    0  501    0  0.00000000000E+00  0.00000000000E+00 -0.14368472936E+04  0.14368472936E+04  0.25500000920E-02 0.  1.
    10030    2    1    2    0    0  0.00000000000E+00  0.00000000000E+00 -0.94185991457E+03  0.19318346726E+04  0.16866787198E+04 0.  0.
        4    1    3    3  502    0  0.31878121842E+03 -0.97382590012E+02 -0.13581978582E+04  0.13985020089E+04  0.12699999809E+01 0.  1.
       -4    1    3    3    0  502 -0.31878121842E+03  0.97382590012E+02  0.41633794358E+03  0.53333266375E+03  0.12699999809E+01 0. -1.
</event>
<event>
 5   0  0.1204741E-04  0.1696490E+04  0.7818609E-02  0.8763368E-01
       -1   -1    0    0    0  501  0.00000000000E+00  0.00000000000E+00  0.90046056537E+03  0.90046056539E+03  0.50400001928E-02 0.  1.
        1   -1    0    0  501    0  0.00000000000E+00  0.00000000000E+00 -0.79905775370E+03  0.79905775371E+03  0.50400001928E-02 0. -1.
    10030    2    1    2    0    0  0.00000000000E+00  0.00000000000E+00  0.10140281168E+03  0.16995183191E+04  0.16964904912E+04 0.  0.
        1    1    3    3  502    0  0.84928096819E+02 -0.17314250472E+03  0.87820768847E+03  0.89913283372E+03  0.50400001928E-02 0.  1.
       -1    1    3    3    0  502 -0.84928096819E+02  0.17314250472E+03 -0.77680487679E+03  0.80038548538E+03  0.50400001928E-02 0. -1.
</event>
<event>
 5   0  0.2288806E-04  0.1708639E+04  0.7818609E-02  0.8756452E-01
       -2   -1    0    0    0  501  0.00000000000E+00  0.00000000000E+00  0.79951300913E+03  0.79951300914E+03  0.25500000920E-02 0.  1.
        2   -1    0    0  501    0  0.00000000000E+00  0.00000000000E+00 -0.91288319207E+03  0.91288319207E+03  0.25500000920E-02 0. -1.
    10030    2    1    2    0    0  0.00000000000E+00  0.00000000000E+00 -0.11337018293E+03  0.17123962012E+04  0.17086392105E+04 0.  0.
        3    1    3    3  502    0  0.23658440391E+03  0.50824951209E+03  0.58938129644E+03  0.81342490096E+03  0.10100000352E+00 0.  1.
       -3    1    3    3    0  502 -0.23658440391E+03 -0.50824951209E+03 -0.70275147937E+03  0.89897130025E+03  0.10100000352E+00 0. -1.
</event>
<event>
 5   0  0.2234723E-04  0.1715040E+04  0.7818609E-02  0.8752832E-01
        2   -1    0    0  501    0  0.00000000000E+00  0.00000000000E+00  0.16925677590E+04  0.16925677590E+04  0.25500000920E-02 0. -1.
       -2   -1    0    0    0  501  0.00000000000E+00  0.00000000000E+00 -0.43445285591E+03  0.43445285591E+03  0.25500000920E-02 0.  1.
    10030    2    1    2    0    0  0.00000000000E+00  0.00000000000E+00  0.12581149031E+04  0.21270206149E+04  0.17150404039E+04 0.  0.
        1    1    3    3  502    0 -0.22526534998E+03  0.82653947060E+03  0.67593896862E+03  0.10912403327E+04  0.50400001928E-02 0.  1.
       -1    1    3    3    0  502  0.22526534998E+03 -0.82653947060E+03  0.58217593447E+03  0.10357802822E+04  0.50400001928E-02 0. -1.
</event>
<event>
 5   0  0.8372750E-05  0.1717044E+04  0.7818609E-02  0.8751703E-01
        4   -1    0    0  501    0  0.00000000000E+00  0.00000000000E+00  0.13633468364E+04  0.13633474279E+04  0.12699999809E+01 0.  1.
       -4   -1    0    0    0  501  0.00000000000E+00  0.00000000000E+00 -0.54062414354E+03  0.54062563524E+03  0.12699999809E+01 0. -1.
    10030    2    1    2    0    0  0.00000000000E+00  0.00000000000E+00  0.82272269282E+03  0.19039730631E+04  0.17170442032E+04 0.  0.
        5    1    3    3  502    0  0.36575549951E+03  0.31952987401E+03  0.11963588104E+04  0.12911905045E+04  0.46999998093E+01 0.  1.
       -5    1    3    3    0  502 -0.36575549951E+03 -0.31952987401E+03 -0.37363611755E+03  0.61278255861E+03  0.46999998093E+01 0. -1.
</event>
<event>
 5   0  0.1204741E-04  0.1701414E+04  0.7818609E-02  0.8760558E-01
        1   -1    0    0  501    0  0.00000000000E+00  0.00000000000E+00  0.13588677873E+04  0.13588677873E+04  0.50400001928E-02 0. -1.
       -1   -1    0    0    0  501  0.00000000000E+00  0.00000000000E+00 -0.53257754934E+03  0.53257754937E+03  0.50400001928E-02 0.  1.
    10030    2    1    2    0    0  0.00000000000E+00  0.00000000000E+00  0.82629023794E+03  0.18914453367E+04  0.17014140896E+04 0.  0.
        1    1    3    3  502    0 -0.66934180598E+03 -0.20231038070E+03  0.95177539712E+03  0.11810268202E+04  0.50400001928E-02 0. -1.
       -1    1    3    3    0  502  0.66934180598E+03  0.20231038070E+03 -0.12548515918E+03  0.71041851649E+03  0.50400001928E-02 0.  1.
</event>
<event>
 5   0  0.1215233E-04  0.1701916E+04  0.7818609E-02  0.8760273E-01
       -1   -1    0    0    0  501  0.00000000000E+00  0.00000000000E+00  0.12802700035E+04  0.12802700035E+04  0.50400001928E-02 0. -1.
        1   -1    0    0  501    0  0.00000000000E+00  0.00000000000E+00 -0.56560668132E+03  0.56560668134E+03  0.50400001928E-02 0.  1.
    10030    2    1    2    0    0  0.00000000000E+00  0.00000000000E+00  0.71466332219E+03  0.18458766849E+04  0.17019157064E+04 0.  0.
        2    1    3    3  502    0  0.61688751949E+03  0.43764409955E+03 -0.65583383688E+02  0.75919941372E+03  0.25500000920E-02 0.  1.
       -2    1    3    3    0  502 -0.61688751949E+03 -0.43764409955E+03  0.78024670588E+03  0.10866772711E+04  0.25500000920E-02 0. -1.
</event>
<event>
 5   0  0.2288806E-04  0.1586467E+04  0.7818609E-02  0.8828905E-01
       -2   -1    0    0    0  501  0.00000000000E+00  0.00000000000E+00  0.37908081701E+03  0.37908081702E+03  0.25500000920E-02 0. -1.
        2   -1    0    0  501    0  0.00000000000E+00  0.00000000000E+00 -0.16598562110E+04  0.16598562110E+04  0.25500000920E-02 0.  1.
    10030    2    1    2    0    0  0.00000000000E+00  0.00000000000E+00 -0.12807753940E+04  0.20389370280E+04  0.15864673317E+04 0.  0.
        3    1    3    3  502    0 -0.75912943410E+02 -0.50776040935E+03 -0.14175241675E+04  0.15076333055E+04  0.10100000352E+00 0.  1.
       -3    1    3    3    0  502  0.75912943410E+02  0.50776040935E+03  0.13674877352E+03  0.53130372250E+03  0.10100000352E+00 0. -1.
</event>
<event>
 5   0  0.1215233E-04  0.1705607E+04  0.7818609E-02  0.8758173E-01
       -1   -1    0    0    0  501  0.00000000000E+00  0.00000000000E+00  0.20751951481E+03  0.20751951487E+03  0.50400001928E-02 0.  1.
        1   -1    0    0  501    0  0.00000000000E+00  0.00000000000E+00 -0.35046044499E+04  0.35046044499E+04  0.50400001928E-02 0. -1.
    10030    2    1    2    0    0  0.00000000000E+00  0.00000000000E+00 -0.32970849351E+04  0.37121239648E+04  0.17056070065E+04 0.  0.
        2    1    3    3  502    0 -0.71148359786E+03  0.46225778818E+03 -0.18355458301E+04  0.20221571816E+04  0.25500000920E-02 0. -1.
       -2    1    3    3    0  502  0.71148359786E+03 -0.46225778818E+03 -0.14615391050E+04  0.16899667832E+04  0.25500000920E-02 0.  1.
</event>
<event>
 5   0  0.2224454E-04  0.1701901E+04  0.7818609E-02  0.8760281E-01
       -2   -1    0    0    0  501  0.00000000000E+00  0.00000000000E+00  0.76745707765E+03  0.76745707765E+03  0.25500000920E-02 0. -1.
        2   -1    0    0  501    0  0.00000000000E+00  0.00000000000E+00 -0.94352698466E+03  0.94352698466E+03  0.25500000920E-02 0.  1.
    10030    2    1    2    0    0  0.00000000000E+00  0.00000000000E+00 -0.17606990701E+03  0.17109840623E+04  0.17019006579E+04 0.  0.
        2    1    3    3  502    0  0.46568195083E+03 -0.79947385191E+02  0.62346059360E+03  0.78227512775E+03  0.25500000920E-02 0. -1.
       -2    1    3    3    0  502 -0.46568195083E+03  0.79947385191E+02 -0.79953050061E+03  0.92870893456E+03  0.25500000920E-02 0.  1.
</event>
<event>
 5   0  0.1186302E-04  0.1704158E+04  0.7818609E-02  0.8758997E-01
        1   -1    0    0  501    0  0.00000000000E+00  0.00000000000E+00  0.15610941578E+04  0.15610941578E+04  0.50400001928E-02 0. -1.
       -1   -1    0    0    0  501  0.00000000000E+00  0.00000000000E+00 -0.46508291526E+03  0.46508291529E+03  0.50400001928E-02 0.  1.
    10030    2    1    2    0    0  0.00000000000E+00  0.00000000000E+00  0.10960112425E+04  0.20261770731E+04  0.17041575302E+04 0.  0.
        3    1    3    3  502    0 -0.50078762039E+02 -0.83703778800E+03  0.72792051047E+03  0.11104091231E+04  0.10100000352E+00 0. -1.
       -3    1    3    3    0  502  0.50078762039E+02  0.83703778800E+03  0.36809073206E+03  0.91576794996E+03  0.10100000352E+00 0.  1.
</event>
<event>
 5   0  0.1204741E-04  0.1683504E+04  0.7818609E-02  0.8770829E-01
       -1   -1    0    0    0  501  0.00000000000E+00  0.00000000000E+00  0.41016136900E+03  0.41016136903E+03  0.50400001928E-02 0.  1.
        1   -1    0    0  501    0  0.00000000000E+00  0.00000000000E+00 -0.17274817661E+04  0.17274817661E+04  0.50400001928E-02 0. -1.
    10030    2    1    2    0    0  0.00000000000E+00  0.00000000000E+00 -0.13173203971E+04  0.21376431351E+04  0.16835038297E+04 0.  0.
        1    1    3    3  502    0  0.10795311740E+03 -0.47494417556E+03  0.21306426371E+03  0.53162225871E+03  0.50400001928E-02 0.  1.
       -1    1    3    3    0  502 -0.10795311740E+03  0.47494417556E+03 -0.15303846608E+04  0.16060208764E+04  0.50400001928E-02 0. -1.
</event>
<event>
 5   0  0.2242967E-04  0.1692642E+04  0.7818609E-02  0.8765572E-01
       -2   -1    0    0    0  501  0.00000000000E+00  0.00000000000E+00  0.52310833857E+03  0.52310833857E+03  0.25500000920E-02 0. -1.
        2   -1    0    0  501    0  0.00000000000E+00  0.00000000000E+00 -0.13692375438E+04  0.13692375438E+04  0.25500000920E-02 0.  1.
    10030    2    1    2    0    0  0.00000000000E+00  0.00000000000E+00 -0.84612920525E+03  0.18923458824E+04  0.16926424036E+04 0.  0.
        4    1    3    3  502    0 -0.18751746441E+03 -0.29067209487E+03  0.44046794261E+03  0.56005953930E+03  0.12699999809E+01 0. -1.
       -4    1    3    3    0  502  0.18751746441E+03  0.29067209487E+03 -0.12865971479E+04  0.13322863431E+04  0.12699999809E+01 0.  1.
</event>
<event>
 5   0  0.2356829E-04  0.1714524E+04  0.7818609E-02  0.8753124E-01
        2   -1    0    0  501    0  0.00000000000E+00  0.00000000000E+00  0.17271300687E+04  0.17271300687E+04  0.25500000920E-02 0. -1.
       -2   -1    0    0    0  501  0.00000000000E+00  0.00000000000E+00 -0.42550271028E+03  0.42550271028E+03  0.25500000920E-02 0.  1.
    10030    2    1    2    0    0  0.00000000000E+00  0.00000000000E+00  0.13016273584E+04  0.21526327790E+04  0.17145244533E+04 0.  0.
        5    1    3    3  502    0 -0.85005856660E+03  0.10958209089E+03  0.63023551040E+03  0.10638734370E+04  0.46999998093E+01 0.  1.
       -5    1    3    3    0  502  0.85005856660E+03 -0.10958209089E+03  0.67139184805E+03  0.10887593421E+04  0.46999998093E+01 0. -1.
</event>
<event>
 5   0  0.1215233E-04  0.1704143E+04  0.7818609E-02  0.8759005E-01
       -1   -1    0    0    0  501  0.00000000000E+00  0.00000000000E+00  0.51686081316E+03  0.51686081319E+03  0.50400001928E-02 0.  1.
        1   -1    0    0  501    0  0.00000000000E+00  0.00000000000E+00 -0.14046830515E+04  0.14046830515E+04  0.50400001928E-02 0. -1.
    10030    2    1    2    0    0  0.00000000000E+00  0.00000000000E+00 -0.88782223833E+03  0.19215438647E+04  0.17041427455E+04 0.  0.
        2    1    3    3  502    0  0.41334927805E+03  0.72950891051E+03 -0.27296304725E+03  0.88178778702E+03  0.25500000920E-02 0. -1.
       -2    1    3    3    0  502 -0.41334927805E+03 -0.72950891051E+03 -0.61485919108E+03  0.10397560777E+04  0.25500000920E-02 0.  1.
</event>
<event>
 5   0  0.1215233E-04  0.1703168E+04  0.7818609E-02  0.8759560E-01
        1   -1    0    0  501    0  0.00000000000E+00  0.00000000000E+00  0.88827670436E+03  0.88827670438E+03  0.50400001928E-02 0. -1.
       -1   -1    0    0    0  501  0.00000000000E+00  0.00000000000E+00 -0.81640685282E+03  0.81640685283E+03  0.50400001928E-02 0.  1.
    10030    2    1    2    0    0  0.00000000000E+00  0.00000000000E+00  0.71869851543E+02  0.17046835572E+04  0.17031678586E+04 0.  0.
        2    1    3    3  502    0 -0.17295292012E+03  0.41186989602E+03 -0.68972453695E+03  0.82174780846E+03  0.25500000920E-02 0.  1.
       -2    1    3    3    0  502  0.17295292012E+03 -0.41186989602E+03  0.76159438850E+03  0.88293574875E+03  0.25500000920E-02 0. -1.
</event>
<event>
 5   0  0.1204741E-04  0.1708030E+04  0.7818609E-02  0.8756798E-01
       -1   -1    0    0    0  501  0.00000000000E+00  0.00000000000E+00  0.59321490456E+03  0.59321490458E+03  0.50400001928E-02 0. -1.
        1   -1    0    0  501    0  0.00000000000E+00  0.00000000000E+00 -0.12294721396E+04  0.12294721396E+04  0.50400001928E-02 0.  1.
    10030    2    1    2    0    0  0.00000000000E+00  0.00000000000E+00 -0.63625723507E+03  0.18226870442E+04  0.17080295056E+04 0.  0.
        1    1    3    3  502    0 -0.31380546153E+02 -0.49407114214E+03 -0.10607229442E+04  0.11705657592E+04  0.50400001928E-02 0.  1.
       -1    1    3    3    0  502  0.31380546153E+02  0.49407114214E+03  0.42446570912E+03  0.65212128505E+03  0.50400001928E-02 0. -1.
</event>
<event>
 5   0  0.1234158E-04  0.1701616E+04  0.7818609E-02  0.8760443E-01
       -1   -1    0    0    0  501  0.00000000000E+00  0.00000000000E+00  0.23006612054E+03  0.23006612060E+03  0.50400001928E-02 0.  1.
        1   -1    0    0  501    0  0.00000000000E+00  0.00000000000E+00 -0.31463739993E+04  0.31463739993E+04  0.50400001928E-02 0. -1.
    10030    2    1    2    0    0  0.00000000000E+00  0.00000000000E+00 -0.29163078788E+04  0.33764401199E+04  0.17016157732E+04 0.  0.
        5    1    3    3  502    0 -0.22380951988E+03  0.30488626783E+03 -0.29703669110E+04  0.29943526869E+04  0.46999998093E+01 0. -1.
       -5    1    3    3    0  502  0.22380951988E+03 -0.30488626783E+03  0.54059032242E+02  0.38208743301E+03  0.46999998093E+01 0.  1.
</event>
<event>
 5   0  0.1186302E-04  0.1705970E+04  0.7818609E-02  0.8757967E-01
       -1   -1    0    0    0  501  0.00000000000E+00  0.00000000000E+00  0.14072258254E+04  0.14072258254E+04  0.50400001928E-02 0. -1.
        1   -1    0    0  501    0  0.00000000000E+00  0.00000000000E+00 -0.51703380636E+03  0.51703380639E+03  0.50400001928E-02 0.  1.
    10030    2    1    2    0    0  0.00000000000E+00  0.00000000000E+00  0.89019201903E+03  0.19242596318E+04  0.17059699000E+04 0.  0.
        3    1    3    3  502    0 -0.87734685277E+02  0.50911634719E+03  0.12106838737E+04  0.13163025041E+04  0.10100000352E+00 0. -1.
       -3    1    3    3    0  502  0.87734685277E+02 -0.50911634719E+03 -0.32049185470E+03  0.60795712769E+03  0.10100000352E+00 0.  1.
</event>
<event>
 5   0  0.2234723E-04  0.1696454E+04  0.7818609E-02  0.8763389E-01
       -2   -1    0    0    0  501  0.00000000000E+00  0.00000000000E+00  0.60946949822E+03  0.60946949822E+03  0.25500000920E-02 0. -1.
        2   -1    0    0  501    0  0.00000000000E+00  0.00000000000E+00 -0.11805168218E+04  0.11805168218E+04  0.25500000920E-02 0.  1.
    10030    2    1    2    0    0  0.00000000000E+00  0.00000000000E+00 -0.57104732355E+03  0.17899863200E+04  0.16964539428E+04 0.  0.
        1    1    3    3  502    0  0.30066305006E+03  0.41049158605E+03 -0.10016071456E+04  0.11234404684E+04  0.50400001928E-02 0.  1.
       -1    1    3    3    0  502 -0.30066305006E+03 -0.41049158605E+03  0.43055982205E+03  0.66654585159E+03  0.50400001928E-02 0. -1.
</event>
<event>
 5   0  0.1234158E-04  0.1708174E+04  0.7818609E-02  0.8756716E-01
       -1   -1    0    0    0  501  0.00000000000E+00  0.00000000000E+00  0.59917942122E+03  0.59917942124E+03  0.50400001928E-02 0.  1.
        1   -1    0    0  501    0  0.00000000000E+00  0.00000000000E+00 -0.12174399147E+04  0.12174399147E+04  0.50400001928E-02 0. -1.
    10030    2    1    2    0    0  0.00000000000E+00  0.00000000000E+00 -0.61826049345E+03  0.18166193359E+04  0.17081743980E+04 0.  0.
        5    1    3    3  502    0 -0.35016300334E+03  0.68328859248E+03 -0.70697265498E+03  0.10437096600E+04  0.46999998093E+01 0. -1.
       -5    1    3    3    0  502  0.35016300334E+03 -0.68328859248E+03  0.88712161530E+02  0.77290967592E+03  0.46999998093E+01 0.  1.
</event>
<event>
 5   0  0.1204741E-04  0.1698941E+04  0.7818609E-02  0.8761969E-01
        1   -1    0    0  501    0  0.00000000000E+00  0.00000000000E+00  0.19153671114E+04  0.19153671114E+04  0.50400001928E-02 0.  1.
       -1   -1    0    0    0  501  0.00000000000E+00  0.00000000000E+00 -0.37674244088E+03  0.37674244092E+03  0.50400001928E-02 0. -1.
    10030    2    1    2    0    0  0.00000000000E+00  0.00000000000E+00  0.15386246705E+04  0.22921095523E+04  0.16989409416E+04 0.  0.
        1    1    3    3  502    0  0.69833160846E+03 -0.48224425752E+03  0.81931288916E+03  0.11796186543E+04  0.50400001928E-02 0. -1.
       -1    1    3    3    0  502 -0.69833160846E+03  0.48224425752E+03  0.71931178137E+03  0.11124908980E+04  0.50400001928E-02 0.  1.
</event>
<event>
 5   0  0.1204741E-04  0.1703005E+04  0.7818609E-02  0.8759653E-01
        1   -1    0    0  501    0  0.00000000000E+00  0.00000000000E+00  0.20450583030E+04  0.20450583030E+04  0.50400001928E-02 0. -1.
       -1   -1    0    0    0  501  0.00000000000E+00  0.00000000000E+00 -0.35454058145E+03  0.35454058148E+03  0.50400001928E-02 0.  1.
    10030    2    1    2    0    0  0.00000000000E+00  0.00000000000E+00  0.16905177215E+04  0.23995988845E+04  0.17030045918E+04 0.  0.
        1    1    3    3  502    0 -0.50379851254E+03  0.63822423451E+03  0.48903944475E+03  0.94884281802E+03  0.50400001928E-02 0.  1.
       -1    1    3    3    0  502  0.50379851254E+03 -0.63822423451E+03  0.12014782768E+04  0.14507560665E+04  0.50400001928E-02 0. -1.
</event>
<event>
 5   0  0.1126958E-04  0.1688403E+04  0.7818609E-02  0.8768006E-01
        1   -1    0    0  501    0  0.00000000000E+00  0.00000000000E+00  0.60740819297E+03  0.60740819299E+03  0.50400001928E-02 0.  1.
       -1   -1    0    0    0  501  0.00000000000E+00  0.00000000000E+00 -0.11733070486E+04  0.11733070486E+04  0.50400001928E-02 0. -1.
    10030    2    1    2    0    0  0.00000000000E+00  0.00000000000E+00 -0.56589885564E+03  0.17807152416E+04  0.16884031678E+04 0.  0.
        4    1    3    3  502    0  0.80968501957E+03 -0.23590821632E+03 -0.32286273451E+03  0.90304179066E+03  0.12699999809E+01 0. -1.
       -4    1    3    3    0  502 -0.80968501957E+03  0.23590821632E+03 -0.24303612112E+03  0.87767345095E+03  0.12699999809E+01 0.  1.
</event>
<event>
 5   0  0.1186302E-04  0.1706290E+04  0.7818609E-02  0.8757785E-01
        1   -1    0    0  501    0  0.00000000000E+00  0.00000000000E+00  0.13620420181E+04  0.13620420181E+04  0.50400001928E-02 0. -1.
       -1   -1    0    0    0  501  0.00000000000E+00  0.00000000000E+00 -0.53438615776E+03  0.53438615778E+03  0.50400001928E-02 0.  1.
    10030    2    1    2    0    0  0.00000000000E+00  0.00000000000E+00  0.82765586033E+03  0.18964281759E+04  0.17062900114E+04 0.  0.
        3    1    3    3  502    0  0.71587728831E+03  0.29677459454E+03  0.81037920810E+03  0.11212804836E+04  0.10100000352E+00 0. -1.
       -3    1    3    3    0  502 -0.71587728831E+03 -0.29677459454E+03  0.17276652234E+02  0.77514769224E+03  0.10100000352E+00 0.  1.
</event>
<event>
 5   0  0.2234723E-04  0.1701470E+04  0.7818609E-02  0.8760526E-01
       -2   -1    0    0    0  501  0.00000000000E+00  0.00000000000E+00  0.77174637274E+03  0.77174637274E+03  0.25500000920E-02 0. -1.
        2   -1    0    0  501    0  0.00000000000E+00  0.00000000000E+00 -0.93780811229E+03  0.93780811230E+03  0.25500000920E-02 0.  1.
    10030    2    1    2    0    0  0.00000000000E+00  0.00000000000E+00 -0.16606173955E+03  0.17095544850E+04  0.17014699633E+04 0.  0.
        1    1    3    3  502    0 -0.61758167178E+02 -0.84615420164E+03 -0.19811279886E+02  0.84863625364E+03  0.50400001928E-02 0. -1.
       -1    1    3    3    0  502  0.61758167178E+02  0.84615420164E+03 -0.14625045967E+03  0.86091823139E+03  0.50400001928E-02 0.  1.
</event>
<event>
 5   0  0.2288806E-04  0.1682241E+04  0.7818609E-02  0.8771559E-01
       -2   -1    0    0    0  501  0.00000000000E+00  0.00000000000E+00  0.11491778262E+04  0.11491778262E+04  0.25500000920E-02 0. -1.
        2   -1    0    0  501    0  0.00000000000E+00  0.00000000000E+00 -0.61564301908E+03  0.61564301909E+03  0.25500000920E-02 0.  1.
    10030    2    1    2    0    0  0.00000000000E+00  0.00000000000E+00  0.53353480709E+03  0.17648208453E+04  0.16822405373E+04 0.  0.
        3    1    3    3  502    0  0.10185588155E+03  0.25656613092E+03  0.11003034861E+04  0.11344022971E+04  0.10100000352E+00 0. -1.
       -3    1    3    3    0  502 -0.10185588155E+03 -0.25656613092E+03 -0.56676867897E+03  0.63041854811E+03  0.10100000352E+00 0.  1.
</event>
<event>
 5   0  0.1186302E-04  0.1713179E+04  0.7818609E-02  0.8753883E-01
       -1   -1    0    0    0  501  0.00000000000E+00  0.00000000000E+00  0.69543164338E+03  0.69543164339E+03  0.50400001928E-02 0.  1.
        1   -1    0    0  501    0  0.00000000000E+00  0.00000000000E+00 -0.10550941968E+04  0.10550941968E+04  0.50400001928E-02 0. -1.
    10030    2    1    2    0    0  0.00000000000E+00  0.00000000000E+00 -0.35966255341E+03  0.17505258402E+04  0.17131793732E+04 0.  0.
        3    1    3    3  502    0  0.61850410546E+03  0.41281023430E+03 -0.61428988123E+03  0.96452666443E+03  0.10100000352E+00 0. -1.
       -3    1    3    3    0  502 -0.61850410546E+03 -0.41281023430E+03  0.25462732782E+03  0.78599917576E+03  0.10100000352E+00 0.  1.
</event>
<event>
 5   0  0.2356829E-04  0.1699284E+04  0.7818609E-02  0.8761773E-01
        2   -1    0    0  501    0  0.00000000000E+00  0.00000000000E+00  0.96036868407E+03  0.96036868407E+03  0.25500000920E-02 0.  1.
       -2   -1    0    0    0  501  0.00000000000E+00  0.00000000000E+00 -0.75168125888E+03  0.75168125888E+03  0.25500000920E-02 0. -1.
    10030    2    1    2    0    0  0.00000000000E+00  0.00000000000E+00  0.20868742519E+03  0.17120499430E+04  0.16992835448E+04 0.  0.
        5    1    3    3  502    0  0.81747406746E+03  0.22358643360E+03  0.43772940847E+02  0.84864179995E+03  0.46999998093E+01 0. -1.
       -5    1    3    3    0  502 -0.81747406746E+03 -0.22358643360E+03  0.16491448434E+03  0.86340814301E+03  0.46999998093E+01 0.  1.
</event>
<event>
 5   0  0.1126958E-04  0.1703153E+04  0.7818609E-02  0.8759568E-01
       -1   -1    0    0    0  501  0.00000000000E+00  0.00000000000E+00  0.38122384684E+03  0.38122384688E+03  0.50400001928E-02 0.  1.
        1   -1    0    0  501    0  0.00000000000E+00  0.00000000000E+00 -0.19022487631E+04  0.19022487631E+04  0.50400001928E-02 0. -1.
    10030    2    1    2    0    0  0.00000000000E+00  0.00000000000E+00 -0.15210249163E+04  0.22834726100E+04  0.17031530656E+04 0.  0.
        4    1    3    3  502    0  0.38155819340E+02  0.72782332371E+03 -0.16998361874E+03  0.74838405958E+03  0.12699999809E+01 0.  1.
       -4    1    3    3    0  502 -0.38155819340E+02 -0.72782332371E+03 -0.13510412976E+04  0.15350885504E+04  0.12699999809E+01 0. -1.
</event>
<event>
 5   0  0.1215233E-04  0.1710119E+04  0.7818609E-02  0.8755614E-01
        1   -1    0    0  501    0  0.00000000000E+00  0.00000000000E+00  0.75155283152E+03  0.75155283154E+03  0.50400001928E-02 0. -1.
       -1   -1    0    0    0  501  0.00000000000E+00  0.00000000000E+00 -0.97282097213E+03  0.97282097214E+03  0.50400001928E-02 0.  1.
    10030    2    1    2    0    0  0.00000000000E+00  0.00000000000E+00 -0.22126814060E+03  0.17243738037E+04  0.17101185411E+04 0.  0.
        2    1    3    3  502    0  0.76179554443E+03 -0.44861486169E+02 -0.49957124128E+03  0.91209452886E+03  0.25500000920E-02 0.  1.
       -2    1    3    3    0  502 -0.76179554443E+03  0.44861486169E+02  0.27830310067E+03  0.81227927482E+03  0.25500000920E-02 0. -1.
</event>
<event>
 5   0  0.1204741E-04  0.1699182E+04  0.7818609E-02  0.8761831E-01
       -1   -1    0    0    0  501  0.00000000000E+00  0.00000000000E+00  0.52928445182E+03  0.52928445184E+03  0.50400001928E-02 0. -1.
        1   -1    0    0  501    0  0.00000000000E+00  0.00000000000E+00 -0.13637373853E+04  0.13637373853E+04  0.50400001928E-02 0.  1.
    10030    2    1    2    0    0  0.00000000000E+00  0.00000000000E+00 -0.83445293350E+03  0.18930218372E+04  0.16991821497E+04 0.  0.
        1    1    3    3  502    0 -0.50765855283E+03 -0.44020469129E+03  0.16199524062E+03  0.69118726442E+03  0.50400001928E-02 0. -1.
       -1    1    3    3    0  502  0.50765855283E+03  0.44020469129E+03 -0.99644817412E+03  0.12018345727E+04  0.50400001928E-02 0.  1.
</event>
<event>
 5   0  0.1234158E-04  0.1544259E+04  0.7818609E-02  0.8855543E-01
       -1   -1    0    0    0  501  0.00000000000E+00  0.00000000000E+00  0.78844027285E+03  0.78844027286E+03  0.50400001928E-02 0. -1.
        1   -1    0    0  501    0  0.00000000000E+00  0.00000000000E+00 -0.75615640675E+03  0.75615640676E+03  0.50400001928E-02 0.  1.
    10030    2    1    2    0    0  0.00000000000E+00  0.00000000000E+00  0.32283866099E+02  0.15445966796E+04  0.15442592576E+04 0.  0.
        5    1    3    3  502    0  0.16687171538E+02  0.57001842411E+03  0.53679635993E+03  0.78318062256E+03  0.46999998093E+01 0. -1.
       -5    1    3    3    0  502 -0.16687171538E+02 -0.57001842411E+03 -0.50451249383E+03  0.76141605706E+03  0.46999998093E+01 0.  1.
</event>
<event>
 5   0  0.2356829E-04  0.1708567E+04  0.7818609E-02  0.8756493E-01
       -2   -1    0    0    0  501  0.00000000000E+00  0.00000000000E+00  0.10436245952E+04  0.10436245952E+04  0.25500000920E-02 0. -1.
        2   -1    0    0  501    0  0.00000000000E+00  0.00000000000E+00 -0.69929386619E+03  0.69929386620E+03  0.25500000920E-02 0.  1.
    10030    2    1    2    0    0  0.00000000000E+00  0.00000000000E+00  0.34433072903E+03  0.17429184614E+04  0.17085669762E+04 0.  0.
        5    1    3    3  502    0  0.50379621737E+03 -0.34562217920E+03 -0.43692631593E+03  0.75112716296E+03  0.46999998093E+01 0.  1.
       -5    1    3    3    0  502 -0.50379621737E+03  0.34562217920E+03  0.78125704496E+03  0.99179129845E+03  0.46999998093E+01 0. -1.
</event>
<event>
 5   0  0.2242967E-04  0.1704787E+04  0.7818609E-02  0.8758639E-01
        2   -1    0    0  501    0  0.00000000000E+00  0.00000000000E+00  0.87900908558E+03  0.87900908558E+03  0.25500000920E-02 0. -1.
       -2   -1    0    0    0  501  0.00000000000E+00  0.00000000000E+00 -0.82658373431E+03  0.82658373432E+03  0.25500000920E-02 0.  1.
    10030    2    1    2    0    0  0.00000000000E+00  0.00000000000E+00  0.52425351266E+02  0.17055928199E+04  0.17047869221E+04 0.  0.
        4    1    3    3  502    0 -0.23881495727E+01 -0.69402033895E+03  0.52132343540E+03  0.86801478751E+03  0.12699999809E+01 0. -1.
       -4    1    3    3    0  502  0.23881495727E+01  0.69402033895E+03 -0.46889808414E+03  0.83757803239E+03  0.12699999809E+01 0.  1.
</event>
<event>
 5   0  0.1234158E-04  0.1696640E+04  0.7818609E-02  0.8763283E-01
        1   -1    0    0  501    0  0.00000000000E+00  0.00000000000E+00  0.45200211367E+03  0.45200211370E+03  0.50400001928E-02 0.  1.
       -1   -1    0    0    0  501  0.00000000000E+00  0.00000000000E+00 -0.15921318983E+04  0.15921318983E+04  0.50400001928E-02 0. -1.
    10030    2    1    2    0    0  0.00000000000E+00  0.00000000000E+00 -0.11401297846E+04  0.20441340120E+04  0.16966401897E+04 0.  0.
        5    1    3    3  502    0 -0.54108826277E+03  0.61604236174E+03 -0.83220569792E+03  0.11682778408E+04  0.46999998093E+01 0. -1.
       -5    1    3    3    0  502  0.54108826277E+03 -0.61604236174E+03 -0.30792408672E+03  0.87585617127E+03  0.46999998093E+01 0.  1.
</event>
<event>
 5   0  0.8372750E-05  0.1694842E+04  0.7818609E-02  0.8764312E-01
        3   -1    0    0  501    0  0.00000000000E+00  0.00000000000E+00  0.14973447698E+04  0.14973447732E+04  0.10100000352E+00 0.  1.
       -3   -1    0    0    0  501  0.00000000000E+00  0.00000000000E+00 -0.47959715413E+03  0.47959716476E+03  0.10100000352E+00 0. -1.
    10030    2    1    2    0    0  0.00000000000E+00  0.00000000000E+00  0.10177476157E+04  0.19769419380E+04  0.16948419445E+04 0.  0.
        4    1    3    3  502    0  0.77815046081E+03  0.15730050570E+03  0.85462054668E+03  0.11664645217E+04  0.12699999809E+01 0.  1.
       -4    1    3    3    0  502 -0.77815046081E+03 -0.15730050570E+03  0.16312706904E+03  0.81047741628E+03  0.12699999809E+01 0. -1.
</event>
<event>
 5   0  0.2234723E-04  0.1747257E+04  0.7818609E-02  0.8734861E-01
        2   -1    0    0  501    0  0.00000000000E+00  0.00000000000E+00  0.11882337483E+04  0.11882337483E+04  0.25500000920E-02 0.  1.
       -2   -1    0    0    0  501  0.00000000000E+00  0.00000000000E+00 -0.64232066814E+03  0.64232066815E+03  0.25500000920E-02 0. -1.
    10030    2    1    2    0    0  0.00000000000E+00  0.00000000000E+00  0.54591308018E+03  0.18305544165E+04  0.17472573882E+04 0.  0.
        1    1    3    3  502    0 -0.71920203506E+03 -0.41956096583E+03 -0.41210330997E+01  0.83264635604E+03  0.50400001928E-02 0. -1.
       -1    1    3    3    0  502  0.71920203506E+03  0.41956096583E+03  0.55003411328E+03  0.99790806043E+03  0.50400001928E-02 0.  1.
</event>
<event>
 5   0  0.2242967E-04  0.1524042E+04  0.7818609E-02  0.8868621E-01
       -2   -1    0    0    0  501  0.00000000000E+00  0.00000000000E+00  0.48958993947E+03  0.48958993948E+03  0.25500000920E-02 0.  1.
        2   -1    0    0  501    0  0.00000000000E+00  0.00000000000E+00 -0.11860456591E+04  0.11860456591E+04  0.25500000920E-02 0. -1.
    10030    2    1    2    0    0  0.00000000000E+00  0.00000000000E+00 -0.69645571959E+03  0.16756355985E+04  0.15240420236E+04 0.  0.
        4    1    3    3  502    0  0.17156256834E+03 -0.41915138130E+03 -0.10220079076E+04  0.11178655426E+04  0.12699999809E+01 0. -1.
       -4    1    3    3    0  502 -0.17156256834E+03  0.41915138130E+03  0.32555218798E+03  0.55777005594E+03  0.12699999809E+01 0.  1.
</event>
<event>
 5   0  0.2242967E-04  0.1689624E+04  0.7818609E-02  0.8767304E-01
       -2   -1    0    0    0  501  0.00000000000E+00  0.00000000000E+00  0.28659794157E+03  0.28659794158E+03  0.25500000920E-02 0.  1.
        2   -1    0    0  501    0  0.00000000000E+00  0.00000000000E+00 -0.24902733410E+04  0.24902733410E+04  0.25500000920E-02 0. -1.
    10030    2    1    2    0    0  0.00000000000E+00  0.00000000000E+00 -0.22036753995E+04  0.27768712826E+04  0.16896238794E+04 0.  0.
        4    1    3    3  502    0 -0.12971862164E+03 -0.74325149077E+03 -0.17264828242E+04  0.18841428434E+04  0.12699999809E+01 0. -1.
       -4    1    3    3    0  502  0.12971862164E+03  0.74325149077E+03 -0.47719257528E+03  0.89272843919E+03  0.12699999809E+01 0.  1.
</event>
<event>
 5   0  0.1126958E-04  0.1666877E+04  0.7818609E-02  0.8780484E-01
        1   -1    0    0  501    0  0.00000000000E+00  0.00000000000E+00  0.30842587254E+04  0.30842587254E+04  0.50400001928E-02 0. -1.
       -1   -1    0    0    0  501  0.00000000000E+00  0.00000000000E+00 -0.22521460427E+03  0.22521460433E+03  0.50400001928E-02 0.  1.
    10030    2    1    2    0    0  0.00000000000E+00  0.00000000000E+00  0.28590441211E+04  0.33094733297E+04  0.16668774501E+04 0.  0.
        4    1    3    3  502    0  0.75699311365E+02 -0.53734690606E+03  0.17359424841E+03  0.56974438055E+03  0.12699999809E+01 0.  1.
       -4    1    3    3    0  502 -0.75699311365E+02  0.53734690606E+03  0.26854498727E+04  0.27397289492E+04  0.12699999809E+01 0. -1.
</event>
<event>
 5   0  0.1186302E-04  0.1740959E+04  0.7818609E-02  0.8738342E-01
        1   -1    0    0  501    0  0.00000000000E+00  0.00000000000E+00  0.66215040511E+03  0.66215040513E+03  0.50400001928E-02 0. -1.
       -1   -1    0    0    0  501  0.00000000000E+00  0.00000000000E+00 -0.11443547554E+04  0.11443547554E+04  0.50400001928E-02 0.  1.
    10030    2    1    2    0    0  0.00000000000E+00  0.00000000000E+00 -0.48220435030E+03  0.18065051606E+04  0.17409594653E+04 0.  0.
        3    1    3    3  502    0 -0.46243602643E+02 -0.51651372377E+03 -0.96657410517E+03  0.10969003640E+04  0.10100000352E+00 0.  1.
       -3    1    3    3    0  502  0.46243602643E+02  0.51651372377E+03  0.48436975487E+03  0.70960479653E+03  0.10100000352E+00 0. -1.
</event>
<event>
 5   0  0.1186302E-04  0.1701431E+04  0.7818609E-02  0.8760549E-01
        1   -1    0    0  501    0  0.00000000000E+00  0.00000000000E+00  0.72951150854E+03  0.72951150856E+03  0.50400001928E-02 0.  1.
       -1   -1    0    0    0  501  0.00000000000E+00  0.00000000000E+00 -0.99205634583E+03  0.99205634584E+03  0.50400001928E-02 0. -1.
    10030    2    1    2    0    0  0.00000000000E+00  0.00000000000E+00 -0.26254483729E+03  0.17215678544E+04  0.17014305997E+04 0.  0.
        3    1    3    3  502    0  0.50607520759E+03  0.55208505722E+03 -0.53954080820E+03  0.92304621772E+03  0.10100000352E+00 0. -1.
       -3    1    3    3    0  502 -0.50607520759E+03 -0.55208505722E+03  0.27699597091E+03  0.79852163668E+03  0.10100000352E+00 0.  1.
</event>
<event>
 5   0  0.2242967E-04  0.1684113E+04  0.7818609E-02  0.8770477E-01
        2   -1    0    0  501    0  0.00000000000E+00  0.00000000000E+00  0.50103293185E+03  0.50103293186E+03  0.25500000920E-02 0.  1.
       -2   -1    0    0    0  501  0.00000000000E+00  0.00000000000E+00 -0.14151950861E+04  0.14151950861E+04  0.25500000920E-02 0. -1.
    10030    2    1    2    0    0  0.00000000000E+00  0.00000000000E+00 -0.91416215423E+03  0.19162280179E+04  0.16841132303E+04 0.  0.
        4    1    3    3  502    0 -0.58368707388E+03 -0.56423182764E+03 -0.71153109092E+03  0.10795027845E+04  0.12699999809E+01 0. -1.
       -4    1    3    3    0  502  0.58368707388E+03  0.56423182764E+03 -0.20263106331E+03  0.83672523343E+03  0.12699999809E+01 0.  1.
</event>
<event>
 5   0  0.1126958E-04  0.1700927E+04  0.7818609E-02  0.8760836E-01
       -1   -1    0    0    0  501  0.00000000000E+00  0.00000000000E+00  0.61685651321E+03  0.61685651323E+03  0.50400001928E-02 0. -1.
        1   -1    0    0  501    0  0.00000000000E+00  0.00000000000E+00 -0.11725385996E+04  0.11725385997E+04  0.50400001928E-02 0.  1.
    10030    2    1    2    0    0  0.00000000000E+00  0.00000000000E+00 -0.55568208643E+03  0.17893951129E+04  0.17009268911E+04 0.  0.
        4    1    3    3  502    0 -0.35080805442E+03 -0.20218302109E+03 -0.10646320560E+04  0.11390291009E+04  0.12699999809E+01 0.  1.
       -4    1    3    3    0  502  0.35080805442E+03  0.20218302109E+03  0.50894996961E+03  0.65036601197E+03  0.12699999809E+01 0. -1.
</event>
<event>
 5   0  0.2234723E-04  0.1710264E+04  0.7818609E-02  0.8755532E-01
        2   -1    0    0  501    0  0.00000000000E+00  0.00000000000E+00  0.18108087850E+04  0.18108087850E+04  0.25500000920E-02 0.  1.
       -2   -1    0    0    0  501  0.00000000000E+00  0.00000000000E+00 -0.40382570125E+03  0.40382570126E+03  0.25500000920E-02 0. -1.
    10030    2    1    2    0    0  0.00000000000E+00  0.00000000000E+00  0.14069830837E+04  0.22146344862E+04  0.17102644561E+04 0.  0.
        1    1    3    3  502    0 -0.53256316983E+03  0.65785375459E+03  0.86132179294E+03  0.12075886399E+04  0.50400001928E-02 0. -1.
       -1    1    3    3    0  502  0.53256316983E+03 -0.65785375459E+03  0.54566129079E+03  0.10070458463E+04  0.50400001928E-02 0.  1.
</event>
<event>
 5   0  0.1234158E-04  0.1708581E+04  0.7818609E-02  0.8756485E-01
        1   -1    0    0  501    0  0.00000000000E+00  0.00000000000E+00  0.10430022530E+04  0.10430022530E+04  0.50400001928E-02 0.  1.
       -1   -1    0    0    0  501  0.00000000000E+00  0.00000000000E+00 -0.69972287588E+03  0.69972287589E+03  0.50400001928E-02 0. -1.
    10030    2    1    2    0    0  0.00000000000E+00  0.00000000000E+00  0.34327937710E+03  0.17427251289E+04  0.17085813250E+04 0.  0.
        5    1    3    3  502    0  0.69826876822E+03 -0.11550751990E+03  0.65960269789E+03  0.96748078476E+03  0.46999998093E+01 0.  1.
       -5    1    3    3    0  502 -0.69826876822E+03  0.11550751990E+03 -0.31632332079E+03  0.77524434412E+03  0.46999998093E+01 0. -1.
</event>
<event>
 5   0  0.2288806E-04  0.1703522E+04  0.7818609E-02  0.8759358E-01
       -2   -1    0    0    0  501  0.00000000000E+00  0.00000000000E+00  0.12263724665E+04  0.12263724665E+04  0.25500000920E-02 0.  1.
        2   -1    0    0  501    0  0.00000000000E+00  0.00000000000E+00 -0.59157922616E+03  0.59157922616E+03  0.25500000920E-02 0. -1.
    10030    2    1    2    0    0  0.00000000000E+00  0.00000000000E+00  0.63479324034E+03  0.18179516927E+04  0.17035216168E+04 0.  0.
        3    1    3    3  502    0 -0.26892690778E+03 -0.27734860580E+03 -0.49270800895E+03  0.62610312501E+03  0.10100000352E+00 0. -1.
       -3    1    3    3    0  502  0.26892690778E+03  0.27734860580E+03  0.11275012493E+04  0.11918485677E+04  0.10100000352E+00 0.  1.
</event>
<event>
 5   0  0.2234723E-04  0.1700479E+04  0.7818609E-02  0.8761091E-01
       -2   -1    0    0    0  501  0.00000000000E+00  0.00000000000E+00  0.99867320305E+03  0.99867320305E+03  0.25500000920E-02 0.  1.
        2   -1    0    0  501    0  0.00000000000E+00  0.00000000000E+00 -0.72386727750E+03  0.72386727750E+03  0.25500000920E-02 0. -1.
    10030    2    1    2    0    0  0.00000000000E+00  0.00000000000E+00  0.27480592555E+03  0.17225404806E+04  0.17004785828E+04 0.  0.
        1    1    3    3  502    0  0.46252121953E+03 -0.27226231271E+03  0.80539318959E+03  0.96783822786E+03  0.50400001928E-02 0.  1.
       -1    1    3    3    0  502 -0.46252121953E+03  0.27226231271E+03 -0.53058726404E+03  0.75470225270E+03  0.50400001928E-02 0. -1.
</event>
<event>
 5   0  0.1234158E-04  0.1688678E+04  0.7818609E-02  0.8767848E-01
        1   -1    0    0  501    0  0.00000000000E+00  0.00000000000E+00  0.12848540584E+04  0.12848540584E+04  0.50400001928E-02 0. -1.
       -1   -1    0    0    0  501  0.00000000000E+00  0.00000000000E+00 -0.55485522208E+03  0.55485522211E+03  0.50400001928E-02 0.  1.
    10030    2    1    2    0    0  0.00000000000E+00  0.00000000000E+00  0.72999883634E+03  0.18397092805E+04  0.16886775701E+04 0.  0.
        5    1    3    3  502    0  0.53269903642E+03 -0.40983020463E+03 -0.19174152616E+03  0.69893916966E+03  0.46999998093E+01 0.  1.
       -5    1    3    3    0  502 -0.53269903642E+03  0.40983020463E+03  0.92174036250E+03  0.11407701109E+04  0.46999998093E+01 0. -1.
</event>
<event>
 5   0  0.1215233E-04  0.1762881E+04  0.7818609E-02  0.8726292E-01
       -1   -1    0    0    0  501  0.00000000000E+00  0.00000000000E+00  0.43269926097E+03  0.43269926100E+03  0.50400001928E-02 0.  1.
        1   -1    0    0  501    0  0.00000000000E+00  0.00000000000E+00 -0.17955605307E+04  0.17955605307E+04  0.50400001928E-02 0. -1.
    10030    2    1    2    0    0  0.00000000000E+00  0.00000000000E+00 -0.13628612698E+04  0.22282597917E+04  0.17628814081E+04 0.  0.
        2    1    3    3  502    0  0.30807921651E+03 -0.17567858272E+03 -0.17014002457E+04  0.17379696672E+04  0.25500000920E-02 0. -1.
       -2    1    3    3    0  502 -0.30807921651E+03  0.17567858272E+03  0.33853897588E+03  0.49029012459E+03  0.25500000920E-02 0.  1.
</event>
<event>
 5   0  0.2224454E-04  0.1700770E+04  0.7818609E-02  0.8760925E-01
        2   -1    0    0  501    0  0.00000000000E+00  0.00000000000E+00  0.13549368455E+04  0.13549368455E+04  0.25500000920E-02 0.  1.
       -2   -1    0    0    0  501  0.00000000000E+00  0.00000000000E+00 -0.53371845649E+03  0.53371845649E+03  0.25500000920E-02 0. -1.
    10030    2    1    2    0    0  0.00000000000E+00  0.00000000000E+00  0.82121838899E+03  0.18886553020E+04  0.17007701806E+04 0.  0.
        2    1    3    3  502    0 -0.19679750624E+03  0.79347123225E+03  0.15058604058E+03  0.83126530693E+03  0.25500000920E-02 0.  1.
       -2    1    3    3    0  502  0.19679750624E+03 -0.79347123225E+03  0.67063234841E+03  0.10573899950E+04  0.25500000920E-02 0. -1.
</event>
<event>
 5   0  0.2224454E-04  0.1718654E+04  0.7818609E-02  0.8750796E-01
       -2   -1    0    0    0  501  0.00000000000E+00  0.00000000000E+00  0.11809077780E+04  0.11809077780E+04  0.25500000920E-02 0.  1.
        2   -1    0    0  501    0  0.00000000000E+00  0.00000000000E+00 -0.62531810371E+03  0.62531810371E+03  0.25500000920E-02 0. -1.
    10030    2    1    2    0    0  0.00000000000E+00  0.00000000000E+00  0.55558967424E+03  0.18062258817E+04  0.17186541390E+04 0.  0.
        2    1    3    3  502    0  0.81388033831E+03 -0.16885525023E+03  0.50691650549E+03  0.97359008015E+03  0.25500000920E-02 0. -1.
       -2    1    3    3    0  502 -0.81388033831E+03  0.16885525023E+03  0.48673168758E+02  0.83263580152E+03  0.25500000920E-02 0.  1.
</event>
<event>
 5   0  0.1186302E-04  0.1703061E+04  0.7818609E-02  0.8759620E-01
       -1   -1    0    0    0  501  0.00000000000E+00  0.00000000000E+00  0.11117271241E+04  0.11117271241E+04  0.50400001928E-02 0. -1.
        1   -1    0    0  501    0  0.00000000000E+00  0.00000000000E+00 -0.65223240703E+03  0.65223240705E+03  0.50400001928E-02 0.  1.
    10030    2    1    2    0    0  0.00000000000E+00  0.00000000000E+00  0.45949471705E+03  0.17639595311E+04  0.17030613120E+04 0.  0.
        3    1    3    3  502    0  0.21496284332E+03  0.43164014200E+03  0.95668590155E+03  0.10713403570E+04  0.10100000352E+00 0. -1.
       -3    1    3    3    0  502 -0.21496284332E+03 -0.43164014200E+03 -0.49719118450E+03  0.69261917411E+03  0.10100000352E+00 0.  1.
</event>
<event>
 5   0  0.1215233E-04  0.1582157E+04  0.7818609E-02  0.8831585E-01
       -1   -1    0    0    0  501  0.00000000000E+00  0.00000000000E+00  0.75879069440E+03  0.75879069441E+03  0.50400001928E-02 0.  1.
        1   -1    0    0  501    0  0.00000000000E+00  0.00000000000E+00 -0.82474057051E+03  0.82474057052E+03  0.50400001928E-02 0. -1.
    10030    2    1    2    0    0  0.00000000000E+00  0.00000000000E+00 -0.65949876110E+02  0.15835312649E+04  0.15821573502E+04 0.  0.
        2    1    3    3  502    0 -0.55484844225E+03 -0.53391636703E+03 -0.21446632164E+03  0.79932426710E+03  0.25500000920E-02 0. -1.
       -2    1    3    3    0  502  0.55484844225E+03  0.53391636703E+03  0.14851644553E+03  0.78420699784E+03  0.25500000920E-02 0.  1.
</event>
<event>
 5   0  0.2234723E-04  0.1699217E+04  0.7818609E-02  0.8761811E-01
        2   -1    0    0  501    0  0.00000000000E+00  0.00000000000E+00  0.27713081533E+03  0.27713081534E+03  0.25500000920E-02 0.  1.
       -2   -1    0    0    0  501  0.00000000000E+00  0.00000000000E+00 -0.26046703327E+04  0.26046703327E+04  0.25500000920E-02 0. -1.
    10030    2    1    2    0    0  0.00000000000E+00  0.00000000000E+00 -0.23275395173E+04  0.28818011480E+04  0.16992167760E+04 0.  0.
        1    1    3    3  502    0  0.22052295785E+03  0.70320874943E+03 -0.18807039834E+04  0.20199456412E+04  0.50400001928E-02 0.  1.
       -1    1    3    3    0  502 -0.22052295785E+03 -0.70320874943E+03 -0.44683553393E+03  0.86185550681E+03  0.50400001928E-02 0. -1.
</event>
<event>
 5   0  0.1126958E-04  0.1691852E+04  0.7818609E-02  0.8766025E-01
        1   -1    0    0  501    0  0.00000000000E+00  0.00000000000E+00  0.18959903877E+04  0.18959903877E+04  0.50400001928E-02 0.  1.
       -1   -1    0    0    0  501  0.00000000000E+00  0.00000000000E+00 -0.37742330322E+03  0.37742330325E+03  0.50400001928E-02 0. -1.
    10030    2    1    2    0    0  0.00000000000E+00  0.00000000000E+00  0.15185670845E+04  0.22734136910E+04  0.16918521863E+04 0.  0.
        4    1    3    3  502    0  0.24521055802E+03 -0.79780870580E+03  0.57424481622E+03  0.10131069394E+04  0.12699999809E+01 0. -1.
       -4    1    3    3    0  502 -0.24521055802E+03  0.79780870580E+03  0.94432226828E+03  0.12603067516E+04  0.12699999809E+01 0.  1.
</event>
<event>
 5   0  0.2234723E-04  0.1703936E+04  0.7818609E-02  0.8759123E-01
        2   -1    0    0  501    0  0.00000000000E+00  0.00000000000E+00  0.10804413344E+04  0.10804413344E+04  0.25500000920E-02 0. -1.
       -2   -1    0    0    0  501  0.00000000000E+00  0.00000000000E+00 -0.67180834465E+03  0.67180834465E+03  0.25500000920E-02 0.  1.
    10030    2    1    2    0    0  0.00000000000E+00  0.00000000000E+00  0.40863298978E+03  0.17522496791E+04  0.17039360368E+04 0.  0.
        1    1    3    3  502    0  0.22728783164E+02 -0.23916171616E+03  0.10448880242E+04  0.10721501328E+04  0.50400001928E-02 0. -1.
       -1    1    3    3    0  502 -0.22728783164E+02  0.23916171616E+03 -0.63625503441E+03  0.68009954632E+03  0.50400001928E-02 0.  1.
</event>
<event>
 5   0  0.1204741E-04  0.1693983E+04  0.7818609E-02  0.8764804E-01
       -1   -1    0    0    0  501  0.00000000000E+00  0.00000000000E+00  0.12083477742E+04  0.12083477743E+04  0.50400001928E-02 0. -1.
        1   -1    0    0  501    0  0.00000000000E+00  0.00000000000E+00 -0.59369855570E+03  0.59369855572E+03  0.50400001928E-02 0.  1.
    10030    2    1    2    0    0  0.00000000000E+00  0.00000000000E+00  0.61464921855E+03  0.18020463300E+04  0.16939826780E+04 0.  0.
        1    1    3    3  502    0 -0.14166254285E+03 -0.12495718677E+03  0.11856539248E+04  0.12006072647E+04  0.50400001928E-02 0. -1.
       -1    1    3    3    0  502  0.14166254285E+03  0.12495718677E+03 -0.57100470630E+03  0.60143906525E+03  0.50400001928E-02 0.  1.
</event>
<event>
 5   0  0.2242967E-04  0.1731762E+04  0.7818609E-02  0.8743454E-01
        2   -1    0    0  501    0  0.00000000000E+00  0.00000000000E+00  0.74486160028E+03  0.74486160029E+03  0.25500000920E-02 0.  1.
       -2   -1    0    0    0  501  0.00000000000E+00  0.00000000000E+00 -0.10065631577E+04  0.10065631577E+04  0.25500000920E-02 0. -1.
    10030    2    1    2    0    0  0.00000000000E+00  0.00000000000E+00 -0.26170155738E+03  0.17514247579E+04  0.17317623906E+04 0.  0.
        4    1    3    3  502    0  0.67762025799E+03 -0.39672720325E+03  0.23824069044E+03  0.82056195824E+03  0.12699999809E+01 0.  1.
       -4    1    3    3    0  502 -0.67762025799E+03  0.39672720325E+03 -0.49994224781E+03  0.93086279971E+03  0.12699999809E+01 0. -1.
</event>
<event>
 5   0  0.8372750E-05  0.1547127E+04  0.7818609E-02  0.8853705E-01
       -3   -1    0    0    0  501  0.00000000000E+00  0.00000000000E+00  0.43559194215E+03  0.43559195386E+03  0.10100000352E+00 0.  1.
        3   -1    0    0  501    0  0.00000000000E+00  0.00000000000E+00 -0.13737647056E+04  0.13737647093E+04  0.10100000352E+00 0. -1.
    10030    2    1    2    0    0  0.00000000000E+00  0.00000000000E+00 -0.93817276341E+03  0.18093566631E+04  0.15471274674E+04 0.  0.
        4    1    3    3  502    0  0.47246496235E+03 -0.22502553705E+03  0.19715551306E+03  0.55922405368E+03  0.12699999809E+01 0.  1.
       -4    1    3    3    0  502 -0.47246496235E+03  0.22502553705E+03 -0.11353282765E+04  0.12501326095E+04  0.12699999809E+01 0. -1.
</event>
<event>
 5   0  0.2288806E-04  0.1704938E+04  0.7818609E-02  0.8758553E-01
       -2   -1    0    0    0  501  0.00000000000E+00  0.00000000000E+00  0.58354245755E+03  0.58354245756E+03  0.25500000920E-02 0.  1.
        2   -1    0    0  501    0  0.00000000000E+00  0.00000000000E+00 -0.12453301511E+04  0.12453301511E+04  0.25500000920E-02 0. -1.
    10030    2    1    2    0    0  0.00000000000E+00  0.00000000000E+00 -0.66178769357E+03  0.18288726087E+04  0.17049375553E+04 0.  0.
        3    1    3    3  502    0  0.94158149903E+02 -0.84327575263E+03 -0.41884970151E+03  0.94626361804E+03  0.10100000352E+00 0.  1.
       -3    1    3    3    0  502 -0.94158149903E+02  0.84327575263E+03 -0.24293799206E+03  0.88260899064E+03  0.10100000352E+00 0. -1.
</event>
<event>
 5   0  0.2224454E-04  0.1702182E+04  0.7818609E-02  0.8760121E-01
        2   -1    0    0  501    0  0.00000000000E+00  0.00000000000E+00  0.11049586236E+04  0.11049586236E+04  0.25500000920E-02 0.  1.
       -2   -1    0    0    0  501  0.00000000000E+00  0.00000000000E+00 -0.65555019408E+03  0.65555019409E+03  0.25500000920E-02 0. -1.
    10030    2    1    2    0    0  0.00000000000E+00  0.00000000000E+00  0.44940842951E+03  0.17605088177E+04  0.17021819411E+04 0.  0.
        2    1    3    3  502    0 -0.69111802171E+03 -0.49103186480E+03  0.30209763812E+03  0.90001077501E+03  0.25500000920E-02 0. -1.
       -2    1    3    3    0  502  0.69111802171E+03  0.49103186480E+03  0.14731079139E+03  0.86049804267E+03  0.25500000920E-02 0.  1.
</event>
<event>
 5   0  0.2234723E-04  0.1690232E+04  0.7818609E-02  0.8766955E-01
        2   -1    0    0  501    0  0.00000000000E+00  0.00000000000E+00  0.63352784698E+03  0.63352784698E+03  0.25500000920E-02 0. -1.
       -2   -1    0    0    0  501  0.00000000000E+00  0.00000000000E+00 -0.11273714707E+04  0.11273714707E+04  0.25500000920E-02 0.  1.
    10030    2    1    2    0    0  0.00000000000E+00  0.00000000000E+00 -0.49384362371E+03  0.17608993177E+04  0.16902321977E+04 0.  0.
        1    1    3    3  502    0 -0.16447308558E+03 -0.54281622614E+03 -0.89963029037E+03  0.10635015330E+04  0.50400001928E-02 0.  1.
       -1    1    3    3    0  502  0.16447308558E+03  0.54281622614E+03  0.40578666666E+03  0.69739778470E+03  0.50400001928E-02 0. -1.
</event>
<event>
 5   0  0.1215233E-04  0.1712074E+04  0.7818609E-02  0.8754508E-01
        1   -1    0    0  501    0  0.00000000000E+00  0.00000000000E+00  0.11199040336E+04  0.11199040336E+04  0.50400001928E-02 0.  1.
       -1   -1    0    0    0  501  0.00000000000E+00  0.00000000000E+00 -0.65434153758E+03  0.65434153760E+03  0.50400001928E-02 0. -1.
    10030    2    1    2    0    0  0.00000000000E+00  0.00000000000E+00  0.46556249602E+03  0.17742455712E+04  0.17120744462E+04 0.  0.
        2    1    3    3  502    0 -0.26223894028E+03 -0.28524340501E+03  0.10238262137E+04  0.10946931889E+04  0.25500000920E-02 0.  1.
       -2    1    3    3    0  502  0.26223894028E+03  0.28524340501E+03 -0.55826371766E+03  0.67955238236E+03  0.25500000920E-02 0. -1.
</event>
<event>
 5   0  0.2224454E-04  0.1715014E+04  0.7818609E-02  0.8752847E-01
       -2   -1    0    0    0  501  0.00000000000E+00  0.00000000000E+00  0.59592869054E+03  0.59592869055E+03  0.25500000920E-02 0.  1.
        2   -1    0    0  501    0  0.00000000000E+00  0.00000000000E+00 -0.12339034563E+04  0.12339034563E+04  0.25500000920E-02 0. -1.
    10030    2    1    2    0    0  0.00000000000E+00  0.00000000000E+00 -0.63797476580E+03  0.18298321469E+04  0.17150142518E+04 0.  0.
        2    1    3    3  502    0  0.41690748055E+03  0.10480214040E+03 -0.11106339027E+04  0.11909252713E+04  0.25500000920E-02 0. -1.
       -2    1    3    3    0  502 -0.41690748055E+03 -0.10480214040E+03  0.47265913691E+03  0.63890687559E+03  0.25500000920E-02 0.  1.
</event>
<event>
 5   0  0.1186302E-04  0.1700590E+04  0.7818609E-02  0.8761028E-01
        1   -1    0    0  501    0  0.00000000000E+00  0.00000000000E+00  0.57564654469E+03  0.57564654471E+03  0.50400001928E-02 0. -1.
       -1   -1    0    0    0  501  0.00000000000E+00  0.00000000000E+00 -0.12559812220E+04  0.12559812221E+04  0.50400001928E-02 0.  1.
    10030    2    1    2    0    0  0.00000000000E+00  0.00000000000E+00 -0.68033467736E+03  0.18316277668E+04  0.17005896045E+04 0.  0.
        3    1    3    3  502    0  0.60399139109E+03 -0.90634159560E+02  0.29700951025E+03  0.67914270281E+03  0.10100000352E+00 0. -1.
       -3    1    3    3    0  502 -0.60399139109E+03  0.90634159560E+02 -0.97734418761E+03  0.11524850640E+04  0.10100000352E+00 0.  1.
</event>
<event>
 5   0  0.1126958E-04  0.1697117E+04  0.7818609E-02  0.8763010E-01
       -1   -1    0    0    0  501  0.00000000000E+00  0.00000000000E+00  0.94808678352E+03  0.94808678353E+03  0.50400001928E-02 0. -1.
        1   -1    0    0  501    0  0.00000000000E+00  0.00000000000E+00 -0.75947867353E+03  0.75947867354E+03  0.50400001928E-02 0.  1.
    10030    2    1    2    0    0  0.00000000000E+00  0.00000000000E+00  0.18860810999E+03  0.17075654571E+04  0.16971171943E+04 0.  0.
        4    1    3    3  502    0 -0.55140736787E+03  0.13312251681E+03 -0.54067426675E+03  0.78364658198E+03  0.12699999809E+01 0.  1.
       -4    1    3    3    0  502  0.55140736787E+03 -0.13312251681E+03  0.72928237674E+03  0.92391887509E+03  0.12699999809E+01 0. -1.
</event>
<event>
 5   0  0.1215233E-04  0.1654315E+04  0.7818609E-02  0.8787858E-01
       -1   -1    0    0    0  501  0.00000000000E+00  0.00000000000E+00  0.39651468810E+03  0.39651468814E+03  0.50400001928E-02 0. -1.
        1   -1    0    0  501    0  0.00000000000E+00  0.00000000000E+00 -0.17255092241E+04  0.17255092241E+04  0.50400001928E-02 0.  1.
    10030    2    1    2    0    0  0.00000000000E+00  0.00000000000E+00 -0.13289945360E+04  0.21220239122E+04  0.16543152684E+04 0.  0.
        2    1    3    3  502    0  0.37438182407E+03  0.57836820564E+02 -0.16076962301E+04  0.16517245582E+04  0.25500000920E-02 0.  1.
       -2    1    3    3    0  502 -0.37438182407E+03 -0.57836820564E+02  0.27870169415E+03  0.47029935396E+03  0.25500000920E-02 0. -1.
</event>
<event>
 5   0  0.1234158E-04  0.1766543E+04  0.7818609E-02  0.8724296E-01
       -1   -1    0    0    0  501  0.00000000000E+00  0.00000000000E+00  0.90701829611E+03  0.90701829612E+03  0.50400001928E-02 0. -1.
        1   -1    0    0  501    0  0.00000000000E+00  0.00000000000E+00 -0.86014673085E+03  0.86014673087E+03  0.50400001928E-02 0.  1.
    10030    2    1    2    0    0  0.00000000000E+00  0.00000000000E+00  0.46871565255E+02  0.17671650270E+04  0.17665433165E+04 0.  0.
        5    1    3    3  502    0  0.46219654525E+03  0.67731342546E+03  0.35183108936E+03  0.89229273683E+03  0.46999998093E+01 0. -1.
       -5    1    3    3    0  502 -0.46219654525E+03 -0.67731342546E+03 -0.30495952411E+03  0.87487229016E+03  0.46999998093E+01 0.  1.
</event>
<event>
 5   0  0.2234723E-04  0.1710713E+04  0.7818609E-02  0.8755278E-01
       -2   -1    0    0    0  501  0.00000000000E+00  0.00000000000E+00  0.21172557146E+04  0.21172557146E+04  0.25500000920E-02 0.  1.
        2   -1    0    0  501    0  0.00000000000E+00  0.00000000000E+00 -0.34555805412E+03  0.34555805413E+03  0.25500000920E-02 0. -1.
    10030    2    1    2    0    0  0.00000000000E+00  0.00000000000E+00  0.17716976605E+04  0.24628137687E+04  0.17107130266E+04 0.  0.
        1    1    3    3  502    0  0.71639158967E+03 -0.46051990289E+03  0.77122519568E+03  0.11489489950E+04  0.50400001928E-02 0. -1.
       -1    1    3    3    0  502 -0.71639158967E+03  0.46051990289E+03  0.10004724648E+04  0.13138647737E+04  0.50400001928E-02 0.  1.
</event>
<event>
 5   0  0.2242967E-04  0.1684072E+04  0.7818609E-02  0.8770501E-01
        2   -1    0    0  501    0  0.00000000000E+00  0.00000000000E+00  0.74429619161E+03  0.74429619161E+03  0.25500000920E-02 0. -1.
       -2   -1    0    0    0  501  0.00000000000E+00  0.00000000000E+00 -0.95261100417E+03  0.95261100417E+03  0.25500000920E-02 0.  1.
    10030    2    1    2    0    0  0.00000000000E+00  0.00000000000E+00 -0.20831481256E+03  0.16969071958E+04  0.16840721392E+04 0.  0.
        4    1    3    3  502    0 -0.60634431069E+02 -0.33708268621E+03  0.67093986216E+03  0.75330152205E+03  0.12699999809E+01 0. -1.
       -4    1    3    3    0  502  0.60634431069E+02  0.33708268621E+03 -0.87925467473E+03  0.94360567373E+03  0.12699999809E+01 0.  1.
</event>
<event>
 5   0  0.2288806E-04  0.1695059E+04  0.7818609E-02  0.8764187E-01
       -2   -1    0    0    0  501  0.00000000000E+00  0.00000000000E+00  0.13488957445E+04  0.13488957445E+04  0.25500000920E-02 0.  1.
        2   -1    0    0  501    0  0.00000000000E+00  0.00000000000E+00 -0.53251432430E+03  0.53251432430E+03  0.25500000920E-02 0. -1.
    10030    2    1    2    0    0  0.00000000000E+00  0.00000000000E+00  0.81638142024E+03  0.18814100688E+04  0.16950590620E+04 0.  0.
        3    1    3    3  502    0 -0.35942708957E+03  0.14728876167E+02 -0.44357463723E+03  0.57110703157E+03  0.10100000352E+00 0. -1.
       -3    1    3    3    0  502  0.35942708957E+03 -0.14728876167E+02  0.12599560575E+04  0.13103030373E+04  0.10100000352E+00 0.  1.
</event>
<event>
 5   0  0.1215233E-04  0.1692777E+04  0.7818609E-02  0.8765495E-01
       -1   -1    0    0    0  501  0.00000000000E+00  0.00000000000E+00  0.62901245182E+03  0.62901245184E+03  0.50400001928E-02 0.  1.
        1   -1    0    0  501    0  0.00000000000E+00  0.00000000000E+00 -0.11388863226E+04  0.11388863226E+04  0.50400001928E-02 0. -1.
    10030    2    1    2    0    0  0.00000000000E+00  0.00000000000E+00 -0.50987387078E+03  0.17678987744E+04  0.16927772188E+04 0.  0.
        2    1    3    3  502    0  0.70164339081E+01  0.81878854361E+03 -0.31162669456E+02  0.81941138719E+03  0.25500000920E-02 0.  1.
       -2    1    3    3    0  502 -0.70164339081E+01 -0.81878854361E+03 -0.47871120132E+03  0.94848738725E+03  0.25500000920E-02 0. -1.
</event>
<event>
 5   0  0.8372750E-05  0.1708632E+04  0.7818609E-02  0.8756457E-01
        4   -1    0    0  501    0  0.00000000000E+00  0.00000000000E+00  0.88473912337E+03  0.88474003488E+03  0.12699999809E+01 0. -1.
       -4   -1    0    0    0  501  0.00000000000E+00  0.00000000000E+00 -0.82493680505E+03  0.82493778264E+03  0.12699999809E+01 0.  1.
    10030    2    1    2    0    0  0.00000000000E+00  0.00000000000E+00  0.59802318324E+02  0.17096778175E+04  0.17086315935E+04 0.  0.
        3    1    3    3  502    0  0.33128436054E+03 -0.76867395935E+03  0.20102191851E+03  0.86082449155E+03  0.10100000352E+00 0.  1.
       -3    1    3    3    0  502 -0.33128436054E+03  0.76867395935E+03 -0.14121960019E+03  0.84885332597E+03  0.10100000352E+00 0. -1.
</event>
<event>
 5   0  0.8372750E-05  0.1686964E+04  0.7818609E-02  0.8768834E-01
        3   -1    0    0  501    0  0.00000000000E+00  0.00000000000E+00  0.10412706605E+04  0.10412706654E+04  0.10100000352E+00 0.  1.
       -3   -1    0    0    0  501  0.00000000000E+00  0.00000000000E+00 -0.68326309186E+03  0.68326309933E+03  0.10100000352E+00 0. -1.
    10030    2    1    2    0    0  0.00000000000E+00  0.00000000000E+00  0.35800756867E+03  0.17245337648E+04  0.16869639257E+04 0.  0.
        3    1    3    3  502    0 -0.38463126159E+03 -0.71196608723E+03  0.42226317235E+03  0.91276673564E+03  0.10100000352E+00 0.  1.
       -3    1    3    3    0  502  0.38463126159E+03  0.71196608723E+03 -0.64255603675E+02  0.81176702912E+03  0.10100000352E+00 0. -1.
</event>
<event>
 5   0  0.8372750E-05  0.1698936E+04  0.7818609E-02  0.8761971E-01
        3   -1    0    0  501    0  0.00000000000E+00  0.00000000000E+00  0.35065644153E+03  0.35065645607E+03  0.10100000352E+00 0. -1.
       -3   -1    0    0    0  501  0.00000000000E+00  0.00000000000E+00 -0.20578427597E+04  0.20578427622E+04  0.10100000352E+00 0.  1.
    10030    2    1    2    0    0  0.00000000000E+00  0.00000000000E+00 -0.17071863182E+04  0.24084992183E+04  0.16989359492E+04 0.  0.
        4    1    3    3  502    0  0.53308429390E+03 -0.26588495473E+03  0.49005742030E+01  0.59573425458E+03  0.12699999809E+01 0. -1.
       -4    1    3    3    0  502 -0.53308429390E+03  0.26588495473E+03 -0.17120868924E+04  0.18127649637E+04  0.12699999809E+01 0.  1.
</event>
<event>
 5   0  0.1126958E-04  0.1696363E+04  0.7818609E-02  0.8763441E-01
        1   -1    0    0  501    0  0.00000000000E+00  0.00000000000E+00  0.99401363851E+03  0.99401363852E+03  0.50400001928E-02 0.  1.
       -1   -1    0    0    0  501  0.00000000000E+00  0.00000000000E+00 -0.72374428711E+03  0.72374428712E+03  0.50400001928E-02 0. -1.
    10030    2    1    2    0    0  0.00000000000E+00  0.00000000000E+00  0.27026935140E+03  0.17177579256E+04  0.16963628058E+04 0.  0.
        4    1    3    3  502    0  0.79030090059E+02  0.15100028257E+03 -0.70622568714E+03  0.72650063630E+03  0.12699999809E+01 0. -1.
       -4    1    3    3    0  502 -0.79030090059E+02 -0.15100028257E+03  0.97649503854E+03  0.99125728934E+03  0.12699999809E+01 0.  1.
</event>
<event>
 5   0  0.1204741E-04  0.1597054E+04  0.7818609E-02  0.8822360E-01
       -1   -1    0    0    0  501  0.00000000000E+00  0.00000000000E+00  0.10673800083E+04  0.10673800083E+04  0.50400001928E-02 0. -1.
        1   -1    0    0  501    0  0.00000000000E+00  0.00000000000E+00 -0.59739332474E+03  0.59739332476E+03  0.50400001928E-02 0.  1.
    10030    2    1    2    0    0  0.00000000000E+00  0.00000000000E+00  0.46998668353E+03  0.16647733330E+04  0.15970544035E+04 0.  0.
        1    1    3    3  502    0  0.28595248599E+03 -0.45177889229E+03 -0.38325999100E+03  0.65784588810E+03  0.50400001928E-02 0.  1.
       -1    1    3    3    0  502 -0.28595248599E+03  0.45177889229E+03  0.85324667453E+03  0.10069274449E+04  0.50400001928E-02 0. -1.
</event>
<event>
 5   0  0.2242967E-04  0.1702775E+04  0.7818609E-02  0.8759783E-01
       -2   -1    0    0    0  501  0.00000000000E+00  0.00000000000E+00  0.21096201579E+04  0.21096201579E+04  0.25500000920E-02 0. -1.
        2   -1    0    0  501    0  0.00000000000E+00  0.00000000000E+00 -0.34359787636E+03  0.34359787637E+03  0.25500000920E-02 0.  1.
    10030    2    1    2    0    0  0.00000000000E+00  0.00000000000E+00  0.17660222815E+04  0.24532180342E+04  0.17027753888E+04 0.  0.
        4    1    3    3  502    0  0.55398990957E+02 -0.68560801109E+03  0.16058608281E+04  0.17469739567E+04  0.12699999809E+01 0. -1.
       -4    1    3    3    0  502 -0.55398990957E+02  0.68560801109E+03  0.16016145341E+03  0.70624407759E+03  0.12699999809E+01 0.  1.
</event>
<event>
 5   0  0.2356829E-04  0.1725049E+04  0.7818609E-02  0.8747206E-01
       -2   -1    0    0    0  501  0.00000000000E+00  0.00000000000E+00  0.77360354865E+03  0.77360354866E+03  0.25500000920E-02 0.  1.
        2   -1    0    0  501    0  0.00000000000E+00  0.00000000000E+00 -0.96166593720E+03  0.96166593720E+03  0.25500000920E-02 0. -1.
    10030    2    1    2    0    0  0.00000000000E+00  0.00000000000E+00 -0.18806238855E+03  0.17352694859E+04  0.17250486157E+04 0.  0.
        5    1    3    3  502    0  0.45479145830E+02  0.47368171903E+03 -0.81765657152E+03  0.94605870991E+03  0.46999998093E+01 0. -1.
       -5    1    3    3    0  502 -0.45479145830E+02 -0.47368171903E+03  0.62959418297E+03  0.78921077595E+03  0.46999998093E+01 0.  1.
</event>
<event>
 5   0  0.1234158E-04  0.1705235E+04  0.7818609E-02  0.8758384E-01
        1   -1    0    0  501    0  0.00000000000E+00  0.00000000000E+00  0.20825759410E+04  0.20825759410E+04  0.50400001928E-02 0. -1.
       -1   -1    0    0    0  501  0.00000000000E+00  0.00000000000E+00 -0.34906613276E+03  0.34906613280E+03  0.50400001928E-02 0.  1.
    10030    2    1    2    0    0  0.00000000000E+00  0.00000000000E+00  0.17335098082E+04  0.24316420738E+04  0.17052351509E+04 0.  0.
        5    1    3    3  502    0 -0.84832600215E+03  0.78666549732E+02  0.81969286079E+03  0.11822706577E+04  0.46999998093E+01 0. -1.
       -5    1    3    3    0  502  0.84832600215E+03 -0.78666549732E+02  0.91381694743E+03  0.12493714161E+04  0.46999998093E+01 0.  1.
</event>
<event>
 5   0  0.2234723E-04  0.1709217E+04  0.7818609E-02  0.8756125E-01
        2   -1    0    0  501    0  0.00000000000E+00  0.00000000000E+00  0.15968410243E+04  0.15968410243E+04  0.25500000920E-02 0.  1.
       -2   -1    0    0    0  501  0.00000000000E+00  0.00000000000E+00 -0.45737550348E+03  0.45737550349E+03  0.25500000920E-02 0. -1.
    10030    2    1    2    0    0  0.00000000000E+00  0.00000000000E+00  0.11394655208E+04  0.20542165278E+04  0.17092173267E+04 0.  0.
        1    1    3    3  502    0  0.95791044681E+02 -0.17572806924E+03  0.15682780591E+04  0.15809972641E+04  0.50400001928E-02 0.  1.
       -1    1    3    3    0  502 -0.95791044681E+02  0.17572806924E+03 -0.42881253823E+03  0.47321926369E+03  0.50400001928E-02 0. -1.
</event>
<event>
 5   0  0.2224454E-04  0.1698515E+04  0.7818609E-02  0.8762212E-01
       -2   -1    0    0    0  501  0.00000000000E+00  0.00000000000E+00  0.11436636294E+04  0.11436636294E+04  0.25500000920E-02 0. -1.
        2   -1    0    0  501    0  0.00000000000E+00  0.00000000000E+00 -0.63063865169E+03  0.63063865170E+03  0.25500000920E-02 0.  1.
    10030    2    1    2    0    0  0.00000000000E+00  0.00000000000E+00  0.51302497766E+03  0.17743022811E+04  0.16985152213E+04 0.  0.
        2    1    3    3  502    0  0.64669205651E+03 -0.54387548454E+03  0.34531947411E+03  0.91282895322E+03  0.25500000920E-02 0.  1.
       -2    1    3    3    0  502 -0.64669205651E+03  0.54387548454E+03  0.16770550356E+03  0.86147332783E+03  0.25500000920E-02 0. -1.
</event>
<event>
 5   0  0.2224454E-04  0.1708082E+04  0.7818609E-02  0.8756769E-01
        2   -1    0    0  501    0  0.00000000000E+00  0.00000000000E+00  0.84330881117E+03  0.84330881118E+03  0.25500000920E-02 0. -1.
       -2   -1    0    0    0  501  0.00000000000E+00  0.00000000000E+00 -0.86490930581E+03  0.86490930581E+03  0.25500000920E-02 0.  1.
    10030    2    1    2    0    0  0.00000000000E+00  0.00000000000E+00 -0.21600494634E+02  0.17082181170E+04  0.17080815419E+04 0.  0.
        2    1    3    3  502    0 -0.43357570865E+03  0.65081381684E+03 -0.35410472484E+03  0.85845015899E+03  0.25500000920E-02 0. -1.
       -2    1    3    3    0  502  0.43357570865E+03 -0.65081381684E+03  0.33250423021E+03  0.84976795799E+03  0.25500000920E-02 0.  1.
</event>
<event>
 5   0  0.1126958E-04  0.1625712E+04  0.7818609E-02  0.8804906E-01
       -1   -1    0    0    0  501  0.00000000000E+00  0.00000000000E+00  0.74307970447E+03  0.74307970449E+03  0.50400001928E-02 0. -1.
        1   -1    0    0  501    0  0.00000000000E+00  0.00000000000E+00 -0.88918453808E+03  0.88918453809E+03  0.50400001928E-02 0.  1.
    10030    2    1    2    0    0  0.00000000000E+00  0.00000000000E+00 -0.14610483361E+03  0.16322642426E+04  0.16257121317E+04 0.  0.
        4    1    3    3  502    0 -0.74825764023E+03  0.29151146966E+03 -0.19951615261E+03  0.82745195701E+03  0.12699999809E+01 0. -1.
       -4    1    3    3    0  502  0.74825764023E+03 -0.29151146966E+03  0.53411319003E+02  0.80481228557E+03  0.12699999809E+01 0.  1.
</event>
<event>
 5   0  0.1204741E-04  0.1709685E+04  0.7818609E-02  0.8755860E-01
        1   -1    0    0  501    0  0.00000000000E+00  0.00000000000E+00  0.18463073950E+04  0.18463073950E+04  0.50400001928E-02 0. -1.
       -1   -1    0    0    0  501  0.00000000000E+00  0.00000000000E+00 -0.39579309275E+03  0.39579309278E+03  0.50400001928E-02 0.  1.
    10030    2    1    2    0    0  0.00000000000E+00  0.00000000000E+00  0.14505143022E+04  0.22421004878E+04  0.17096850167E+04 0.  0.
        1    1    3    3  502    0  0.25156094429E+03  0.81250671765E+03  0.83734746244E+03  0.11935664405E+04  0.50400001928E-02 0.  1.
       -1    1    3    3    0  502 -0.25156094429E+03 -0.81250671765E+03  0.61316683977E+03  0.10485340473E+04  0.50400001928E-02 0. -1.
</event>
<event>
 5   0  0.2356829E-04  0.1707776E+04  0.7818609E-02  0.8756942E-01
       -2   -1    0    0    0  501  0.00000000000E+00  0.00000000000E+00  0.33852155950E+03  0.33852155950E+03  0.25500000920E-02 0.  1.
        2   -1    0    0  501    0  0.00000000000E+00  0.00000000000E+00 -0.21538492748E+04  0.21538492748E+04  0.25500000920E-02 0. -1.
    10030    2    1    2    0    0  0.00000000000E+00  0.00000000000E+00 -0.18153277153E+04  0.24923708343E+04  0.17077756474E+04 0.  0.
        5    1    3    3  502    0  0.49694097917E+02  0.73512955323E+03 -0.27787941344E+03  0.78747953739E+03  0.46999998093E+01 0.  1.
       -5    1    3    3    0  502 -0.49694097917E+02 -0.73512955323E+03 -0.15374483019E+04  0.17048912969E+04  0.46999998093E+01 0. -1.
</event>
<event>
 5   0  0.1234158E-04  0.1692535E+04  0.7818609E-02  0.8765634E-01
        1   -1    0    0  501    0  0.00000000000E+00  0.00000000000E+00  0.90650452918E+03  0.90650452920E+03  0.50400001928E-02 0. -1.
       -1   -1    0    0    0  501  0.00000000000E+00  0.00000000000E+00 -0.79003285420E+03  0.79003285421E+03  0.50400001928E-02 0.  1.
    10030    2    1    2    0    0  0.00000000000E+00  0.00000000000E+00  0.11647167498E+03  0.16965373834E+04  0.16925346207E+04 0.  0.
        5    1    3    3  502    0 -0.85838818364E+02  0.60396883290E+03 -0.52966604692E+03  0.80790770828E+03  0.46999998093E+01 0.  1.
       -5    1    3    3    0  502  0.85838818364E+02 -0.60396883290E+03  0.64613772190E+03  0.88862967512E+03  0.46999998093E+01 0. -1.
</event>
<event>
 5   0  0.2224454E-04  0.1715547E+04  0.7818609E-02  0.8752546E-01
        2   -1    0    0  501    0  0.00000000000E+00  0.00000000000E+00  0.23306941002E+04  0.23306941002E+04  0.25500000920E-02 0. -1.
       -2   -1    0    0    0  501  0.00000000000E+00  0.00000000000E+00 -0.31568954085E+03  0.31568954086E+03  0.25500000920E-02 0.  1.
    10030    2    1    2    0    0  0.00000000000E+00  0.00000000000E+00  0.20150045593E+04  0.26463836410E+04  0.17155474349E+04 0.  0.
        2    1    3    3  502    0 -0.26160944314E+03 -0.23788955996E+03  0.22130376689E+04  0.22411083569E+04  0.25500000920E-02 0. -1.
       -2    1    3    3    0  502  0.26160944314E+03  0.23788955996E+03 -0.19803310952E+03  0.40527528416E+03  0.25500000920E-02 0.  1.
</event>
<event>
 5   0  0.2242967E-04  0.1697972E+04  0.7818609E-02  0.8762522E-01
       -2   -1    0    0    0  501  0.00000000000E+00  0.00000000000E+00  0.38661621158E+03  0.38661621159E+03  0.25500000920E-02 0. -1.
        2   -1    0    0  501    0  0.00000000000E+00  0.00000000000E+00 -0.18643213325E+04  0.18643213325E+04  0.25500000920E-02 0.  1.
    10030    2    1    2    0    0  0.00000000000E+00  0.00000000000E+00 -0.14777051209E+04  0.22509375441E+04  0.16979715554E+04 0.  0.
        4    1    3    3  502    0  0.47644692886E+03  0.43416928127E+02 -0.16686029803E+04  0.17358353103E+04  0.12699999809E+01 0.  1.
       -4    1    3    3    0  502 -0.47644692886E+03 -0.43416928127E+02  0.19089785938E+03  0.51510223382E+03  0.12699999809E+01 0. -1.
</event>
<event>
 5   0  0.1126958E-04  0.1684768E+04  0.7818609E-02  0.8770100E-01
       -1   -1    0    0    0  501  0.00000000000E+00  0.00000000000E+00  0.18966333257E+04  0.18966333257E+04  0.50400001928E-02 0.  1.
        1   -1    0    0  501    0  0.00000000000E+00  0.00000000000E+00 -0.37414242920E+03  0.37414242924E+03  0.50400001928E-02 0. -1.
    10030    2    1    2    0    0  0.00000000000E+00  0.00000000000E+00  0.15224908965E+04  0.22707757549E+04  0.16847682331E+04 0.  0.
        4    1    3    3  502    0  0.85866013421E+01 -0.69338663527E+03  0.11660844064E+03  0.70317700263E+03  0.12699999809E+01 0. -1.
       -4    1    3    3    0  502 -0.85866013421E+01  0.69338663527E+03  0.14058824558E+04  0.15675987523E+04  0.12699999809E+01 0.  1.
</event>
<event>
 5   0  0.2356829E-04  0.1699727E+04  0.7818609E-02  0.8761520E-01
       -2   -1    0    0    0  501  0.00000000000E+00  0.00000000000E+00  0.40705088352E+03  0.40705088353E+03  0.25500000920E-02 0.  1.
        2   -1    0    0  501    0  0.00000000000E+00  0.00000000000E+00 -0.17743913252E+04  0.17743913252E+04  0.25500000920E-02 0. -1.
    10030    2    1    2    0    0  0.00000000000E+00  0.00000000000E+00 -0.13673404417E+04  0.21814422087E+04  0.16997265152E+04 0.  0.
        5    1    3    3  502    0 -0.63188279855E+03  0.56345853169E+03 -0.58862801705E+03  0.10311481079E+04  0.46999998093E+01 0.  1.
       -5    1    3    3    0  502  0.63188279855E+03 -0.56345853169E+03 -0.77871242460E+03  0.11502941008E+04  0.46999998093E+01 0. -1.
</event>
<event>
 5   0  0.2288806E-04  0.1691918E+04  0.7818609E-02  0.8765988E-01
        2   -1    0    0  501    0  0.00000000000E+00  0.00000000000E+00  0.12051845382E+04  0.12051845382E+04  0.25500000920E-02 0.  1.
       -2   -1    0    0    0  501  0.00000000000E+00  0.00000000000E+00 -0.59380636906E+03  0.59380636907E+03  0.25500000920E-02 0. -1.
    10030    2    1    2    0    0  0.00000000000E+00  0.00000000000E+00  0.61137816918E+03  0.17989909073E+04  0.16919175567E+04 0.  0.
        3    1    3    3  502    0 -0.24120939339E+03  0.62159066517E+03  0.85930169455E+03  0.10876379632E+04  0.10100000352E+00 0.  1.
       -3    1    3    3    0  502  0.24120939339E+03 -0.62159066517E+03 -0.24792352537E+03  0.71135294413E+03  0.10100000352E+00 0. -1.
</event>
<event>
 5   0  0.2242967E-04  0.1575705E+04  0.7818609E-02  0.8835614E-01
        2   -1    0    0  501    0  0.00000000000E+00  0.00000000000E+00  0.74688893966E+03  0.74688893966E+03  0.25500000920E-02 0. -1.
       -2   -1    0    0    0  501  0.00000000000E+00  0.00000000000E+00 -0.83106267280E+03  0.83106267281E+03  0.25500000920E-02 0.  1.
    10030    2    1    2    0    0  0.00000000000E+00  0.00000000000E+00 -0.84173733145E+02  0.15779516125E+04  0.15757049451E+04 0.  0.
        4    1    3    3  502    0  0.35033910057E+02  0.61406248626E+03  0.45096642737E+03  0.76267453308E+03  0.12699999809E+01 0. -1.
       -4    1    3    3    0  502 -0.35033910057E+02 -0.61406248626E+03 -0.53514016051E+03  0.81527707939E+03  0.12699999809E+01 0.  1.
</event>
<event>
 5   0  0.1215233E-04  0.1696790E+04  0.7818609E-02  0.8763197E-01
       -1   -1    0    0    0  501  0.00000000000E+00  0.00000000000E+00  0.52326021321E+03  0.52326021324E+03  0.50400001928E-02 0.  1.
        1   -1    0    0  501    0  0.00000000000E+00  0.00000000000E+00 -0.13755570341E+04  0.13755570341E+04  0.50400001928E-02 0. -1.
    10030    2    1    2    0    0  0.00000000000E+00  0.00000000000E+00 -0.85229682087E+03  0.18988172473E+04  0.16967902251E+04 0.  0.
        2    1    3    3  502    0  0.55479104599E+03 -0.49211391238E+03  0.34988969171E+02  0.74242402671E+03  0.25500000920E-02 0.  1.
       -2    1    3    3    0  502 -0.55479104599E+03  0.49211391238E+03 -0.88728579004E+03  0.11563932206E+04  0.25500000920E-02 0. -1.
</event>
<event>
 5   0  0.2288806E-04  0.1734979E+04  0.7818609E-02  0.8741662E-01
        2   -1    0    0  501    0  0.00000000000E+00  0.00000000000E+00  0.84046355538E+03  0.84046355538E+03  0.25500000920E-02 0.  1.
       -2   -1    0    0    0  501  0.00000000000E+00  0.00000000000E+00 -0.89538444124E+03  0.89538444125E+03  0.25500000920E-02 0. -1.
    10030    2    1    2    0    0  0.00000000000E+00  0.00000000000E+00 -0.54920885863E+02  0.17358479966E+04  0.17349789519E+04 0.  0.
        3    1    3    3  502    0 -0.52473947686E+03  0.30879138466E+03 -0.64569741820E+03  0.88748453727E+03  0.10100000352E+00 0. -1.
       -3    1    3    3    0  502  0.52473947686E+03 -0.30879138466E+03  0.59077653234E+03  0.84836345936E+03  0.10100000352E+00 0.  1.
</event>
<event>
 5   0  0.1234158E-04  0.1696960E+04  0.7818609E-02  0.8763100E-01
        1   -1    0    0  501    0  0.00000000000E+00  0.00000000000E+00  0.99140592577E+03  0.99140592578E+03  0.50400001928E-02 0. -1.
       -1   -1    0    0    0  501  0.00000000000E+00  0.00000000000E+00 -0.72615935308E+03  0.72615935309E+03  0.50400001928E-02 0.  1.
    10030    2    1    2    0    0  0.00000000000E+00  0.00000000000E+00  0.26524657269E+03  0.17175652789E+04  0.16969604423E+04 0.  0.
        5    1    3    3  502    0  0.59710354540E+03 -0.48827986664E+03  0.49039332649E+03  0.91403368470E+03  0.46999998093E+01 0. -1.
       -5    1    3    3    0  502 -0.59710354540E+03  0.48827986664E+03 -0.22514675380E+03  0.80353159418E+03  0.46999998093E+01 0.  1.
</event>
<event>
 5   0  0.2242967E-04  0.1707688E+04  0.7818609E-02  0.8756992E-01
        2   -1    0    0  501    0  0.00000000000E+00  0.00000000000E+00  0.65314708275E+03  0.65314708275E+03  0.25500000920E-02 0.  1.
       -2   -1    0    0    0  501  0.00000000000E+00  0.00000000000E+00 -0.11162101345E+04  0.11162101345E+04  0.25500000920E-02 0. -1.
    10030    2    1    2    0    0  0.00000000000E+00  0.00000000000E+00 -0.46306305180E+03  0.17693572173E+04  0.17076877854E+04 0.  0.
        4    1    3    3  502    0  0.18500628707E+03  0.48307835489E+03  0.47230545885E+03  0.70047561169E+03  0.12699999809E+01 0.  1.
       -4    1    3    3    0  502 -0.18500628707E+03 -0.48307835489E+03 -0.93536851064E+03  0.10688816056E+04  0.12699999809E+01 0. -1.
</event>
<event>
 5   0  0.1204741E-04  0.1698669E+04  0.7818609E-02  0.8762124E-01
       -1   -1    0    0    0  501  0.00000000000E+00  0.00000000000E+00  0.11038620162E+04  0.11038620162E+04  0.50400001928E-02 0.  1.
        1   -1    0    0  501    0  0.00000000000E+00  0.00000000000E+00 -0.65349546713E+03  0.65349546715E+03  0.50400001928E-02 0. -1.
    10030    2    1    2    0    0  0.00000000000E+00  0.00000000000E+00  0.45036654908E+03  0.17573574834E+04  0.16986686834E+04 0.  0.
        1    1    3    3  502    0  0.51747369387E+03 -0.48504866377E+03  0.70857120558E+03  0.10025589177E+04  0.50400001928E-02 0.  1.
       -1    1    3    3    0  502 -0.51747369387E+03  0.48504866377E+03 -0.25820465650E+03  0.75479856567E+03  0.50400001928E-02 0. -1.
</event>
<event>
 5   0  0.2356829E-04  0.1675530E+04  0.7818609E-02  0.8775445E-01
        2   -1    0    0  501    0  0.00000000000E+00  0.00000000000E+00  0.20090363384E+04  0.20090363384E+04  0.25500000920E-02 0.  1.
       -2   -1    0    0    0  501  0.00000000000E+00  0.00000000000E+00 -0.34934679200E+03  0.34934679200E+03  0.25500000920E-02 0. -1.
    10030    2    1    2    0    0  0.00000000000E+00  0.00000000000E+00  0.16596895464E+04  0.23583831304E+04  0.16755302442E+04 0.  0.
        5    1    3    3  502    0  0.30746065324E+03 -0.12319015036E+03  0.19129411824E+04  0.19414102925E+04  0.46999998093E+01 0.  1.
       -5    1    3    3    0  502 -0.30746065324E+03  0.12319015036E+03 -0.25325163599E+03  0.41697283793E+03  0.46999998093E+01 0. -1.
</event>
<event>
 5   0  0.1234158E-04  0.1687137E+04  0.7818609E-02  0.8768734E-01
       -1   -1    0    0    0  501  0.00000000000E+00  0.00000000000E+00  0.75507716718E+03  0.75507716720E+03  0.50400001928E-02 0. -1.
        1   -1    0    0  501    0  0.00000000000E+00  0.00000000000E+00 -0.94243113486E+03  0.94243113487E+03  0.50400001928E-02 0.  1.
    10030    2    1    2    0    0  0.00000000000E+00  0.00000000000E+00 -0.18735396767E+03  0.16975083021E+04  0.16871374948E+04 0.  0.
        5    1    3    3  502    0 -0.25574999898E+03  0.35510999618E+03  0.63191822464E+03  0.76867021797E+03  0.46999998093E+01 0. -1.
       -5    1    3    3    0  502  0.25574999898E+03 -0.35510999618E+03 -0.81927219232E+03  0.92883808410E+03  0.46999998093E+01 0.  1.
</event>
<event>
 5   0  0.1234158E-04  0.1696509E+04  0.7818609E-02  0.8763358E-01
       -1   -1    0    0    0  501  0.00000000000E+00  0.00000000000E+00  0.62636666614E+03  0.62636666616E+03  0.50400001928E-02 0. -1.
        1   -1    0    0  501    0  0.00000000000E+00  0.00000000000E+00 -0.11487453841E+04  0.11487453841E+04  0.50400001928E-02 0.  1.
    10030    2    1    2    0    0  0.00000000000E+00  0.00000000000E+00 -0.52237871798E+03  0.17751120503E+04  0.16965091412E+04 0.  0.
        5    1    3    3  502    0 -0.17817755840E+02  0.12337038600E+03  0.61671760775E+03  0.62920618423E+03  0.46999998093E+01 0. -1.
       -5    1    3    3    0  502  0.17817755840E+02 -0.12337038600E+03 -0.11390963257E+04  0.11459058661E+04  0.46999998093E+01 0.  1.
</event>
<event>
 5   0  0.2356829E-04  0.1636810E+04  0.7818609E-02  0.8798248E-01
        2   -1    0    0  501    0  0.00000000000E+00  0.00000000000E+00  0.17750877031E+04  0.17750877031E+04  0.25500000920E-02 0.  1.
       -2   -1    0    0    0  501  0.00000000000E+00  0.00000000000E+00 -0.37732583666E+03  0.37732583666E+03  0.25500000920E-02 0. -1.
    10030    2    1    2    0    0  0.00000000000E+00  0.00000000000E+00  0.13977618665E+04  0.21524135398E+04  0.16368096441E+04 0.  0.
        5    1    3    3  502    0 -0.46552715660E+03 -0.61705957561E+03  0.34532708710E+03  0.84661144598E+03  0.46999998093E+01 0. -1.
       -5    1    3    3    0  502  0.46552715660E+03  0.61705957561E+03  0.10524347794E+04  0.13058020938E+04  0.46999998093E+01 0.  1.
</event>
<event>
 5   0  0.1126958E-04  0.1712167E+04  0.7818609E-02  0.8754455E-01
       -1   -1    0    0    0  501  0.00000000000E+00  0.00000000000E+00  0.61963283547E+03  0.61963283549E+03  0.50400001928E-02 0. -1.
        1   -1    0    0  501    0  0.00000000000E+00  0.00000000000E+00 -0.11827634981E+04  0.11827634982E+04  0.50400001928E-02 0.  1.
    10030    2    1    2    0    0  0.00000000000E+00  0.00000000000E+00 -0.56313066267E+03  0.18023963336E+04  0.17121671648E+04 0.  0.
        4    1    3    3  502    0 -0.26830625585E+03 -0.73896080931E+03  0.75152284546E+02  0.78974730350E+03  0.12699999809E+01 0. -1.
       -4    1    3    3    0  502  0.26830625585E+03  0.73896080931E+03 -0.63828294722E+03  0.10126490301E+04  0.12699999809E+01 0.  1.
</event>
<event>
 5   0  0.1126958E-04  0.1697809E+04  0.7818609E-02  0.8762615E-01
       -1   -1    0    0    0  501  0.00000000000E+00  0.00000000000E+00  0.35531027570E+03  0.35531027574E+03  0.50400001928E-02 0.  1.
        1   -1    0    0  501    0  0.00000000000E+00  0.00000000000E+00 -0.20281964776E+04  0.20281964776E+04  0.50400001928E-02 0. -1.
    10030    2    1    2    0    0  0.00000000000E+00  0.00000000000E+00 -0.16728862019E+04  0.23835067533E+04  0.16978092351E+04 0.  0.
        4    1    3    3  502    0 -0.33002799074E+03 -0.77385200010E+03 -0.99571943588E+03  0.13035429416E+04  0.12699999809E+01 0. -1.
       -4    1    3    3    0  502  0.33002799074E+03  0.77385200010E+03 -0.67716676597E+03  0.10799638117E+04  0.12699999809E+01 0.  1.
</event>
<event>
 5   0  0.1234158E-04  0.1702568E+04  0.7818609E-02  0.8759901E-01
        1   -1    0    0  501    0  0.00000000000E+00  0.00000000000E+00  0.14067794007E+04  0.14067794007E+04  0.50400001928E-02 0.  1.
       -1   -1    0    0    0  501  0.00000000000E+00  0.00000000000E+00 -0.51513697867E+03  0.51513697870E+03  0.50400001928E-02 0. -1.
    10030    2    1    2    0    0  0.00000000000E+00  0.00000000000E+00  0.89164242198E+03  0.19219163794E+04  0.17025675789E+04 0.  0.
        5    1    3    3  502    0 -0.41648914839E+03  0.73973928850E+03  0.51707715582E+03  0.99401624772E+03  0.46999998093E+01 0.  1.
       -5    1    3    3    0  502  0.41648914839E+03 -0.73973928850E+03  0.37456526617E+03  0.92790013164E+03  0.46999998093E+01 0. -1.
</event>
<event>
 5   0  0.1126958E-04  0.1693912E+04  0.7818609E-02  0.8764844E-01
       -1   -1    0    0    0  501  0.00000000000E+00  0.00000000000E+00  0.42532611443E+03  0.42532611446E+03  0.50400001928E-02 0.  1.
        1   -1    0    0  501    0  0.00000000000E+00  0.00000000000E+00 -0.16865521453E+04  0.16865521453E+04  0.50400001928E-02 0. -1.
    10030    2    1    2    0    0  0.00000000000E+00  0.00000000000E+00 -0.12612260309E+04  0.21118782598E+04  0.16939122419E+04 0.  0.
        4    1    3    3  502    0 -0.61250695849E+03  0.27677352787E+03  0.11872208752E+02  0.67224320166E+03  0.12699999809E+01 0.  1.
       -4    1    3    3    0  502  0.61250695849E+03 -0.27677352787E+03 -0.12730982396E+04  0.14396350581E+04  0.12699999809E+01 0. -1.
</event>
<event>
 5   0  0.1126958E-04  0.1700569E+04  0.7818609E-02  0.8761040E-01
        1   -1    0    0  501    0  0.00000000000E+00  0.00000000000E+00  0.78208281705E+03  0.78208281706E+03  0.50400001928E-02 0. -1.
       -1   -1    0    0    0  501  0.00000000000E+00  0.00000000000E+00 -0.92443395717E+03  0.92443395718E+03  0.50400001928E-02 0.  1.
    10030    2    1    2    0    0  0.00000000000E+00  0.00000000000E+00 -0.14235114012E+03  0.17065167742E+04  0.17005692146E+04 0.  0.
        4    1    3    3  502    0  0.32593351888E+02  0.64244928387E+03 -0.62915882595E+03  0.89980322855E+03  0.12699999809E+01 0.  1.
       -4    1    3    3    0  502 -0.32593351888E+02 -0.64244928387E+03  0.48680768583E+03  0.80671354570E+03  0.12699999809E+01 0. -1.
</event>
<event>
 5   0  0.1126958E-04  0.1725758E+04  0.7818609E-02  0.8746809E-01
       -1   -1    0    0    0  501  0.00000000000E+00  0.00000000000E+00  0.45719390810E+03  0.45719390813E+03  0.50400001928E-02 0.  1.
        1   -1    0    0  501    0  0.00000000000E+00  0.00000000000E+00 -0.16285425648E+04  0.16285425648E+04  0.50400001928E-02 0. -1.
    10030    2    1    2    0    0  0.00000000000E+00  0.00000000000E+00 -0.11713486567E+04  0.20857364729E+04  0.17257575029E+04 0.  0.
        4    1    3    3  502    0  0.51211855401E+03  0.66148768811E+03 -0.33007285909E+03  0.89932256732E+03  0.12699999809E+01 0. -1.
       -4    1    3    3    0  502 -0.51211855401E+03 -0.66148768811E+03 -0.84127579759E+03  0.11864139056E+04  0.12699999809E+01 0.  1.
</event>
<event>
 5   0  0.1204741E-04  0.1689039E+04  0.7818609E-02  0.8767641E-01
        1   -1    0    0  501    0  0.00000000000E+00  0.00000000000E+00  0.14807464875E+04  0.14807464875E+04  0.50400001928E-02 0.  1.
       -1   -1    0    0    0  501  0.00000000000E+00  0.00000000000E+00 -0.48165773530E+03  0.48165773533E+03  0.50400001928E-02 0. -1.
    10030    2    1    2    0    0  0.00000000000E+00  0.00000000000E+00  0.99908875217E+03  0.19624042228E+04  0.16890387796E+04 0.  0.
        1    1    3    3  502    0  0.63352956496E+03 -0.19648916956E+03 -0.10778626980E+03  0.67200117813E+03  0.50400001928E-02 0. -1.
       -1    1    3    3    0  502 -0.63352956496E+03  0.19648916956E+03  0.11068750220E+04  0.12904030447E+04  0.50400001928E-02 0.  1.
</event>
<event>
 5   0  0.2224454E-04  0.1700348E+04  0.7818609E-02  0.8761166E-01
        2   -1    0    0  501    0  0.00000000000E+00  0.00000000000E+00  0.76879594573E+03  0.76879594573E+03  0.25500000920E-02 0. -1.
       -2   -1    0    0    0  501  0.00000000000E+00  0.00000000000E+00 -0.94016549973E+03  0.94016549973E+03  0.25500000920E-02 0.  1.
    10030    2    1    2    0    0  0.00000000000E+00  0.00000000000E+00 -0.17136955400E+03  0.17089614455E+04  0.17003475227E+04 0.  0.
        2    1    3    3  502    0  0.40295552201E+03 -0.85855133722E+02  0.66175675999E+03  0.77952951586E+03  0.25500000920E-02 0. -1.
       -2    1    3    3    0  502 -0.40295552201E+03  0.85855133722E+02 -0.83312631399E+03  0.92943192961E+03  0.25500000920E-02 0.  1.
</event>
<event>
 5   0  0.1204741E-04  0.1641012E+04  0.7818609E-02  0.8795741E-01
       -1   -1    0    0    0  501  0.00000000000E+00  0.00000000000E+00  0.48668125335E+03  0.48668125338E+03  0.50400001928E-02 0. -1.
        1   -1    0    0  501    0  0.00000000000E+00  0.00000000000E+00 -0.13833083415E+04  0.13833083416E+04  0.50400001928E-02 0.  1.
    10030    2    1    2    0    0  0.00000000000E+00  0.00000000000E+00 -0.89662708819E+03  0.18699895949E+04  0.16410121724E+04 0.  0.
        1    1    3    3  502    0  0.32259535537E+03  0.15363248949E+03  0.39336927410E+03  0.53142270460E+03  0.50400001928E-02 0. -1.
       -1    1    3    3    0  502 -0.32259535537E+03 -0.15363248949E+03 -0.12899963623E+04  0.13385668903E+04  0.50400001928E-02 0.  1.
</event>
<event>
 5   0  0.1126958E-04  0.1695837E+04  0.7818609E-02  0.8763742E-01
       -1   -1    0    0    0  501  0.00000000000E+00  0.00000000000E+00  0.83023739530E+03  0.83023739532E+03  0.50400001928E-02 0.  1.
        1   -1    0    0  501    0  0.00000000000E+00  0.00000000000E+00 -0.86597601577E+03  0.86597601579E+03  0.50400001928E-02 0. -1.
    10030    2    1    2    0    0  0.00000000000E+00  0.00000000000E+00 -0.35738620470E+02  0.16962134111E+04  0.16958368692E+04 0.  0.
        4    1    3    3  502    0 -0.78795893487E+03  0.24155478565E+03  0.18151401208E+03  0.84390576902E+03  0.12699999809E+01 0.  1.
       -4    1    3    3    0  502  0.78795893487E+03 -0.24155478565E+03 -0.21725263255E+03  0.85230764209E+03  0.12699999809E+01 0. -1.
</event>
<event>
 5   0  0.2356829E-04  0.1700731E+04  0.7818609E-02  0.8760947E-01
        2   -1    0    0  501    0  0.00000000000E+00  0.00000000000E+00  0.23750244616E+04  0.23750244616E+04  0.25500000920E-02 0.  1.
       -2   -1    0    0    0  501  0.00000000000E+00  0.00000000000E+00 -0.30446915661E+03  0.30446915662E+03  0.25500000920E-02 0. -1.
    10030    2    1    2    0    0  0.00000000000E+00  0.00000000000E+00  0.20705553049E+04  0.26794936182E+04  0.17007312483E+04 0.  0.
        5    1    3    3  502    0 -0.73352128183E+02  0.30925686597E+02 -0.29856538335E+03  0.30903124588E+03  0.46999998093E+01 0. -1.
       -5    1    3    3    0  502  0.73352128183E+02 -0.30925686597E+02  0.23691206883E+04  0.23704623723E+04  0.46999998093E+01 0.  1.
</event>
<event>
 5   0  0.8372750E-05  0.1687627E+04  0.7818609E-02  0.8768453E-01
       -4   -1    0    0    0  501  0.00000000000E+00  0.00000000000E+00  0.45758956726E+03  0.45759132965E+03  0.12699999809E+01 0. -1.
        4   -1    0    0  501    0  0.00000000000E+00  0.00000000000E+00 -0.15560205245E+04  0.15560210427E+04  0.12699999809E+01 0.  1.
    10030    2    1    2    0    0  0.00000000000E+00  0.00000000000E+00 -0.10984309572E+04  0.20136123724E+04  0.16876268007E+04 0.  0.
        2    1    3    3  502    0 -0.59134455586E+03  0.59760178796E+03 -0.63529510845E+03  0.10537628555E+04  0.25500000920E-02 0.  1.
       -2    1    3    3    0  502  0.59134455586E+03 -0.59760178796E+03 -0.46313584874E+03  0.95984951691E+03  0.25500000920E-02 0. -1.
</event>
<event>
 5   0  0.1186302E-04  0.1695170E+04  0.7818609E-02  0.8764124E-01
        1   -1    0    0  501    0  0.00000000000E+00  0.00000000000E+00  0.89796750949E+03  0.89796750951E+03  0.50400001928E-02 0.  1.
       -1   -1    0    0    0  501  0.00000000000E+00  0.00000000000E+00 -0.80002945738E+03  0.80002945740E+03  0.50400001928E-02 0. -1.
    10030    2    1    2    0    0  0.00000000000E+00  0.00000000000E+00  0.97938052107E+02  0.16979969669E+04  0.16951701500E+04 0.  0.
        3    1    3    3  502    0  0.37342629066E+03  0.37870193289E+03 -0.61208459761E+03  0.81086984983E+03  0.10100000352E+00 0. -1.
       -3    1    3    3    0  502 -0.37342629066E+03 -0.37870193289E+03  0.71002264972E+03  0.88712711707E+03  0.10100000352E+00 0.  1.
</event>
<event>
 5   0  0.1126958E-04  0.1696655E+04  0.7818609E-02  0.8763274E-01
       -1   -1    0    0    0  501  0.00000000000E+00  0.00000000000E+00  0.12941500793E+04  0.12941500794E+04  0.50400001928E-02 0.  1.
        1   -1    0    0  501    0  0.00000000000E+00  0.00000000000E+00 -0.55608680139E+03  0.55608680141E+03  0.50400001928E-02 0. -1.
    10030    2    1    2    0    0  0.00000000000E+00  0.00000000000E+00  0.73806327796E+03  0.18502368808E+04  0.16966552722E+04 0.  0.
        4    1    3    3  502    0 -0.71053916140E+03 -0.35601878254E+03  0.69261104393E+03  0.10541949272E+04  0.12699999809E+01 0.  1.
       -4    1    3    3    0  502  0.71053916140E+03  0.35601878254E+03  0.45452234021E+02  0.79604195359E+03  0.12699999809E+01 0. -1.
</event>
<event>
 5   0  0.1126958E-04  0.1709491E+04  0.7818609E-02  0.8755970E-01
       -1   -1    0    0    0  501  0.00000000000E+00  0.00000000000E+00  0.59048835084E+03  0.59048835086E+03  0.50400001928E-02 0.  1.
        1   -1    0    0  501    0  0.00000000000E+00  0.00000000000E+00 -0.12372633742E+04  0.12372633742E+04  0.50400001928E-02 0. -1.
    10030    2    1    2    0    0  0.00000000000E+00  0.00000000000E+00 -0.64677502337E+03  0.18277517251E+04  0.17094906954E+04 0.  0.
        4    1    3    3  502    0  0.25805176870E+03 -0.78806901485E+03 -0.54495410595E+03  0.99228024166E+03  0.12699999809E+01 0. -1.
       -4    1    3    3    0  502 -0.25805176870E+03  0.78806901485E+03 -0.10182091742E+03  0.83547148342E+03  0.12699999809E+01 0.  1.
</event>
<event>
 5   0  0.2242967E-04  0.1698013E+04  0.7818609E-02  0.8762498E-01
        2   -1    0    0  501    0  0.00000000000E+00  0.00000000000E+00  0.12687829904E+04  0.12687829904E+04  0.25500000920E-02 0.  1.
       -2   -1    0    0    0  501  0.00000000000E+00  0.00000000000E+00 -0.56811315798E+03  0.56811315798E+03  0.25500000920E-02 0. -1.
    10030    2    1    2    0    0  0.00000000000E+00  0.00000000000E+00  0.70066983245E+03  0.18368961484E+04  0.16980133232E+04 0.  0.
        4    1    3    3  502    0 -0.67068025099E+03  0.26112733872E+03  0.83751496067E+03  0.11042791352E+04  0.12699999809E+01 0.  1.
       -4    1    3    3    0  502  0.67068025099E+03 -0.26112733872E+03 -0.13684512822E+03  0.73261701325E+03  0.12699999809E+01 0. -1.
</event>
<event>
 5   0  0.8372750E-05  0.1698826E+04  0.7818609E-02  0.8762034E-01
        3   -1    0    0  501    0  0.00000000000E+00  0.00000000000E+00  0.76510071676E+03  0.76510072343E+03  0.10100000352E+00 0. -1.
       -3   -1    0    0    0  501  0.00000000000E+00  0.00000000000E+00 -0.94301669038E+03  0.94301669579E+03  0.10100000352E+00 0.  1.
    10030    2    1    2    0    0  0.00000000000E+00  0.00000000000E+00 -0.17791597362E+03  0.17081174192E+04  0.16988263667E+04 0.  0.
        1    1    3    3  502    0  0.48855902442E+03  0.10744303904E+03  0.60128672239E+03  0.78216344170E+03  0.50400001928E-02 0. -1.
       -1    1    3    3    0  502 -0.48855902442E+03 -0.10744303904E+03 -0.77920269601E+03  0.92595397752E+03  0.50400001928E-02 0.  1.
</event>
<event>
 5   0  0.1186302E-04  0.1698976E+04  0.7818609E-02  0.8761949E-01
       -1   -1    0    0    0  501  0.00000000000E+00  0.00000000000E+00  0.98981107862E+03  0.98981107863E+03  0.50400001928E-02 0.  1.
        1   -1    0    0  501    0  0.00000000000E+00  0.00000000000E+00 -0.72905803248E+03  0.72905803249E+03  0.50400001928E-02 0. -1.
    10030    2    1    2    0    0  0.00000000000E+00  0.00000000000E+00  0.26075304614E+03  0.17188691111E+04  0.16989758298E+04 0.  0.
        3    1    3    3  502    0 -0.54508723591E+03 -0.41154276789E+03 -0.38065386155E+03  0.78191106724E+03  0.10100000352E+00 0. -1.
       -3    1    3    3    0  502  0.54508723591E+03  0.41154276789E+03  0.64140690769E+03  0.93695804388E+03  0.10100000352E+00 0.  1.
</event>
<event>
 5   0  0.2224454E-04  0.1689258E+04  0.7818609E-02  0.8767515E-01
        2   -1    0    0  501    0  0.00000000000E+00  0.00000000000E+00  0.50613173292E+03  0.50613173292E+03  0.25500000920E-02 0.  1.
       -2   -1    0    0    0  501  0.00000000000E+00  0.00000000000E+00 -0.14095106010E+04  0.14095106010E+04  0.25500000920E-02 0. -1.
    10030    2    1    2    0    0  0.00000000000E+00  0.00000000000E+00 -0.90337886809E+03  0.19156423339E+04  0.16892578762E+04 0.  0.
        2    1    3    3  502    0  0.47764400887E+03 -0.65059134830E+03 -0.16935602541E+03  0.82467834035E+03  0.25500000920E-02 0.  1.
       -2    1    3    3    0  502 -0.47764400887E+03  0.65059134830E+03 -0.73402284269E+03  0.10909639936E+04  0.25500000920E-02 0. -1.
</event>
<event>
 5   0  0.2356829E-04  0.1698506E+04  0.7818609E-02  0.8762217E-01
        2   -1    0    0  501    0  0.00000000000E+00  0.00000000000E+00  0.18976348869E+04  0.18976348869E+04  0.25500000920E-02 0.  1.
       -2   -1    0    0    0  501  0.00000000000E+00  0.00000000000E+00 -0.38006807688E+03  0.38006807688E+03  0.25500000920E-02 0. -1.
    10030    2    1    2    0    0  0.00000000000E+00  0.00000000000E+00  0.15175668100E+04  0.22777029638E+04  0.16985057457E+04 0.  0.
        5    1    3    3  502    0 -0.68794947577E+03 -0.67719334139E+02  0.97261965656E+02  0.69809911143E+03  0.46999998093E+01 0. -1.
       -5    1    3    3    0  502  0.68794947577E+03  0.67719334139E+02  0.14203048444E+04  0.15796038523E+04  0.46999998093E+01 0.  1.
</event>
<event>
 5   0  0.2288806E-04  0.1695500E+04  0.7818609E-02  0.8763935E-01
       -2   -1    0    0    0  501  0.00000000000E+00  0.00000000000E+00  0.28411820850E+03  0.28411820851E+03  0.25500000920E-02 0.  1.
        2   -1    0    0  501    0  0.00000000000E+00  0.00000000000E+00 -0.25295100046E+04  0.25295100046E+04  0.25500000920E-02 0. -1.
    10030    2    1    2    0    0  0.00000000000E+00  0.00000000000E+00 -0.22453917961E+04  0.28136282131E+04  0.16954997504E+04 0.  0.
        3    1    3    3  502    0 -0.32532850850E+03  0.59546889198E+03 -0.19660226408E+04  0.20798237604E+04  0.10100000352E+00 0. -1.
       -3    1    3    3    0  502  0.32532850850E+03 -0.59546889198E+03 -0.27936915528E+03  0.73380445275E+03  0.10100000352E+00 0.  1.
</event>
<event>
 5   0  0.1215233E-04  0.1700207E+04  0.7818609E-02  0.8761246E-01
        1   -1    0    0  501    0  0.00000000000E+00  0.00000000000E+00  0.14533295373E+04  0.14533295373E+04  0.50400001928E-02 0.  1.
       -1   -1    0    0    0  501  0.00000000000E+00  0.00000000000E+00 -0.49725547165E+03  0.49725547167E+03  0.50400001928E-02 0. -1.
    10030    2    1    2    0    0  0.00000000000E+00  0.00000000000E+00  0.95607406562E+03  0.19505850089E+04  0.17002071221E+04 0.  0.
        2    1    3    3  502    0  0.22813910544E+03  0.19318863938E+03  0.13910356376E+04  0.14227963477E+04  0.25500000920E-02 0.  1.
       -2    1    3    3    0  502 -0.22813910544E+03 -0.19318863938E+03 -0.43496157201E+03  0.52778866126E+03  0.25500000920E-02 0. -1.
</event>
<event>
 5   0  0.2288806E-04  0.1726731E+04  0.7818609E-02  0.8746264E-01
       -2   -1    0    0    0  501  0.00000000000E+00  0.00000000000E+00  0.26540228045E+03  0.26540228046E+03  0.25500000920E-02 0.  1.
        2   -1    0    0  501    0  0.00000000000E+00  0.00000000000E+00 -0.28085670679E+04  0.28085670679E+04  0.25500000920E-02 0. -1.
    10030    2    1    2    0    0  0.00000000000E+00  0.00000000000E+00 -0.25431647874E+04  0.30739693484E+04  0.17267311367E+04 0.  0.
        3    1    3    3  502    0 -0.62241166382E+03  0.52751632949E+03 -0.76890817336E+03  0.11211108538E+04  0.10100000352E+00 0.  1.
       -3    1    3    3    0  502  0.62241166382E+03 -0.52751632949E+03 -0.17742566141E+04  0.19528584946E+04  0.10100000352E+00 0. -1.
</event>
<event>
 5   0  0.1234158E-04  0.1698233E+04  0.7818609E-02  0.8762373E-01
        1   -1    0    0  501    0  0.00000000000E+00  0.00000000000E+00  0.10410352890E+04  0.10410352891E+04  0.50400001928E-02 0. -1.
       -1   -1    0    0    0  501  0.00000000000E+00  0.00000000000E+00 -0.69257872944E+03  0.69257872946E+03  0.50400001928E-02 0.  1.
    10030    2    1    2    0    0  0.00000000000E+00  0.00000000000E+00  0.34845655960E+03  0.17336140185E+04  0.16982330792E+04 0.  0.
        5    1    3    3  502    0 -0.31258402395E+03 -0.71509132412E+03  0.51573109228E+03  0.93544910252E+03  0.46999998093E+01 0. -1.
       -5    1    3    3    0  502  0.31258402395E+03  0.71509132412E+03 -0.16727453268E+03  0.79816491600E+03  0.46999998093E+01 0.  1.
</event>
<event>
 5   0  0.1186302E-04  0.1699649E+04  0.7818609E-02  0.8761564E-01
        1   -1    0    0  501    0  0.00000000000E+00  0.00000000000E+00  0.78444116458E+03  0.78444116460E+03  0.50400001928E-02 0.  1.
       -1   -1    0    0    0  501  0.00000000000E+00  0.00000000000E+00 -0.92065771891E+03  0.92065771892E+03  0.50400001928E-02 0. -1.
    10030    2    1    2    0    0  0.00000000000E+00  0.00000000000E+00 -0.13621655432E+03  0.17050988835E+04  0.16996491558E+04 0.  0.
        3    1    3    3  502    0  0.62583254929E+03  0.20834909852E+03 -0.60566785636E+03  0.89549387995E+03  0.10100000352E+00 0. -1.
       -3    1    3    3    0  502 -0.62583254929E+03 -0.20834909852E+03  0.46945130204E+03  0.80960500356E+03  0.10100000352E+00 0.  1.
</event>
<event>
 5   0  0.1126958E-04  0.1700900E+04  0.7818609E-02  0.8760851E-01
       -1   -1    0    0    0  501  0.00000000000E+00  0.00000000000E+00  0.63730712187E+03  0.63730712189E+03  0.50400001928E-02 0.  1.
        1   -1    0    0  501    0  0.00000000000E+00  0.00000000000E+00 -0.11348772173E+04  0.11348772173E+04  0.50400001928E-02 0. -1.
    10030    2    1    2    0    0  0.00000000000E+00  0.00000000000E+00 -0.49757009539E+03  0.17721843392E+04  0.17009001535E+04 0.  0.
        4    1    3    3  502    0 -0.95204995689E+02  0.37757084630E+03 -0.10365404199E+04  0.11072675332E+04  0.12699999809E+01 0. -1.
       -4    1    3    3    0  502  0.95204995689E+02 -0.37757084630E+03  0.53897032451E+03  0.66491680592E+03  0.12699999809E+01 0.  1.
</event>
<event>
 5   0  0.2242967E-04  0.1693040E+04  0.7818609E-02  0.8765344E-01
        2   -1    0    0  501    0  0.00000000000E+00  0.00000000000E+00  0.20570761208E+04  0.20570761208E+04  0.25500000920E-02 0. -1.
       -2   -1    0    0    0  501  0.00000000000E+00  0.00000000000E+00 -0.34835650531E+03  0.34835650532E+03  0.25500000920E-02 0.  1.
    10030    2    1    2    0    0  0.00000000000E+00  0.00000000000E+00  0.17087196155E+04  0.24054326261E+04  0.16930396907E+04 0.  0.
        4    1    3    3  502    0  0.58353033353E+03  0.40431529446E+03  0.19923544275E+03  0.73734312368E+03  0.12699999809E+01 0.  1.
       -4    1    3    3    0  502 -0.58353033353E+03 -0.40431529446E+03  0.15094841727E+04  0.16680895024E+04  0.12699999809E+01 0. -1.
</event>
<event>
 5   0  0.1126958E-04  0.1789946E+04  0.7818609E-02  0.8711665E-01
       -1   -1    0    0    0  501  0.00000000000E+00  0.00000000000E+00  0.91050840917E+03  0.91050840918E+03  0.50400001928E-02 0.  1.
        1   -1    0    0  501    0  0.00000000000E+00  0.00000000000E+00 -0.87970237360E+03  0.87970237361E+03  0.50400001928E-02 0. -1.
    10030    2    1    2    0    0  0.00000000000E+00  0.00000000000E+00  0.30806035569E+02  0.17902107828E+04  0.17899457073E+04 0.  0.
        4    1    3    3  502    0  0.11260228200E+03  0.84197419834E+03  0.29718038114E+03  0.89995423018E+03  0.12699999809E+01 0. -1.
       -4    1    3    3    0  502 -0.11260228200E+03 -0.84197419834E+03 -0.26637434557E+03  0.89025655261E+03  0.12699999809E+01 0.  1.
</event>
<event>
 5   0  0.2356829E-04  0.1698141E+04  0.7818609E-02  0.8762425E-01
       -2   -1    0    0    0  501  0.00000000000E+00  0.00000000000E+00  0.34330089660E+03  0.34330089661E+03  0.25500000920E-02 0. -1.
        2   -1    0    0  501    0  0.00000000000E+00  0.00000000000E+00 -0.20999667246E+04  0.20999667246E+04  0.25500000920E-02 0.  1.
    10030    2    1    2    0    0  0.00000000000E+00  0.00000000000E+00 -0.17566658280E+04  0.24432676212E+04  0.16981407002E+04 0.  0.
        5    1    3    3  502    0  0.67051416925E+03 -0.39840782728E+03 -0.13610899483E+04  0.15687275052E+04  0.46999998093E+01 0. -1.
       -5    1    3    3    0  502 -0.67051416925E+03  0.39840782728E+03 -0.39557587967E+03  0.87454011605E+03  0.46999998093E+01 0.  1.
</event>
<event>
 5   0  0.1186302E-04  0.1697381E+04  0.7818609E-02  0.8762860E-01
       -1   -1    0    0    0  501  0.00000000000E+00  0.00000000000E+00  0.66213646400E+03  0.66213646402E+03  0.50400001928E-02 0. -1.
        1   -1    0    0  501    0  0.00000000000E+00  0.00000000000E+00 -0.10878047486E+04  0.10878047486E+04  0.50400001928E-02 0.  1.
    10030    2    1    2    0    0  0.00000000000E+00  0.00000000000E+00 -0.42566828457E+03  0.17499412126E+04  0.16973805581E+04 0.  0.
        3    1    3    3  502    0  0.65618046280E+03 -0.13256436309E+03 -0.75064764797E+03  0.10057922309E+04  0.10100000352E+00 0.  1.
       -3    1    3    3    0  502 -0.65618046280E+03  0.13256436309E+03  0.32497936340E+03  0.74414898170E+03  0.10100000352E+00 0. -1.
</event>
<event>
 5   0  0.2224454E-04  0.1708999E+04  0.7818609E-02  0.8756249E-01
        2   -1    0    0  501    0  0.00000000000E+00  0.00000000000E+00  0.16446359326E+04  0.16446359326E+04  0.25500000920E-02 0.  1.
       -2   -1    0    0    0  501  0.00000000000E+00  0.00000000000E+00 -0.44397019593E+03  0.44397019593E+03  0.25500000920E-02 0. -1.
    10030    2    1    2    0    0  0.00000000000E+00  0.00000000000E+00  0.12006657366E+04  0.20886061285E+04  0.17089989318E+04 0.  0.
        2    1    3    3  502    0 -0.48324239178E+03  0.34846332409E+03  0.13489459674E+04  0.14746542376E+04  0.25500000920E-02 0.  1.
       -2    1    3    3    0  502  0.48324239178E+03 -0.34846332409E+03 -0.14828023081E+03  0.61395189087E+03  0.25500000920E-02 0. -1.
</event>
<event>
 5   0  0.2242967E-04  0.1634877E+04  0.7818609E-02  0.8799404E-01
       -2   -1    0    0    0  501  0.00000000000E+00  0.00000000000E+00  0.63394767271E+03  0.63394767271E+03  0.25500000920E-02 0.  1.
        2   -1    0    0  501    0  0.00000000000E+00  0.00000000000E+00 -0.10540389630E+04  0.10540389630E+04  0.25500000920E-02 0. -1.
    10030    2    1    2    0    0  0.00000000000E+00  0.00000000000E+00 -0.42009129025E+03  0.16879866357E+04  0.16348768119E+04 0.  0.
        4    1    3    3  502    0  0.53217194342E+03 -0.51161860358E+03 -0.57251036203E+03  0.93420035347E+03  0.12699999809E+01 0. -1.
       -4    1    3    3    0  502 -0.53217194342E+03  0.51161860358E+03  0.15241907178E+03  0.75378628220E+03  0.12699999809E+01 0.  1.
</event>
<event>
 5   0  0.2224454E-04  0.1711948E+04  0.7818609E-02  0.8754579E-01
       -2   -1    0    0    0  501  0.00000000000E+00  0.00000000000E+00  0.50621683794E+03  0.50621683795E+03  0.25500000920E-02 0.  1.
        2   -1    0    0  501    0  0.00000000000E+00  0.00000000000E+00 -0.14473859841E+04  0.14473859841E+04  0.25500000920E-02 0. -1.
    10030    2    1    2    0    0  0.00000000000E+00  0.00000000000E+00 -0.94116914619E+03  0.19536028221E+04  0.17119476116E+04 0.  0.
        2    1    3    3  502    0 -0.53267770809E+03 -0.23050607411E+03 -0.11885286089E+04  0.13226786628E+04  0.25500000920E-02 0. -1.
       -2    1    3    3    0  502  0.53267770809E+03  0.23050607411E+03  0.24735946274E+03  0.63092415924E+03  0.25500000920E-02 0.  1.
</event>
<event>
 5   0  0.1126958E-04  0.1697402E+04  0.7818609E-02  0.8762848E-01
       -1   -1    0    0    0  501  0.00000000000E+00  0.00000000000E+00  0.35338973464E+03  0.35338973467E+03  0.50400001928E-02 0.  1.
        1   -1    0    0  501    0  0.00000000000E+00  0.00000000000E+00 -0.20382405709E+04  0.20382405709E+04  0.50400001928E-02 0. -1.
    10030    2    1    2    0    0  0.00000000000E+00  0.00000000000E+00 -0.16848508363E+04  0.23916303056E+04  0.16974018906E+04 0.  0.
        4    1    3    3  502    0  0.74231943725E+03  0.41140073586E+03 -0.83999750517E+03  0.11941047416E+04  0.12699999809E+01 0.  1.
       -4    1    3    3    0  502 -0.74231943725E+03 -0.41140073586E+03 -0.84485333113E+03  0.11975255640E+04  0.12699999809E+01 0. -1.
</event>
<event>
 5   0  0.2356829E-04  0.1694336E+04  0.7818609E-02  0.8764601E-01
        2   -1    0    0  501    0  0.00000000000E+00  0.00000000000E+00  0.10701355551E+04  0.10701355551E+04  0.25500000920E-02 0. -1.
       -2   -1    0    0    0  501  0.00000000000E+00  0.00000000000E+00 -0.67065677932E+03  0.67065677932E+03  0.25500000920E-02 0.  1.
    10030    2    1    2    0    0  0.00000000000E+00  0.00000000000E+00  0.39947877575E+03  0.17407923344E+04  0.16943360526E+04 0.  0.
        5    1    3    3  502    0  0.11739742961E+03 -0.38836418058E+03 -0.56433315082E+03  0.69505603253E+03  0.46999998093E+01 0.  1.
       -5    1    3    3    0  502 -0.11739742961E+03  0.38836418058E+03  0.96381192657E+03  0.10457363019E+04  0.46999998093E+01 0. -1.
</event>
<event>
 5   0  0.1215233E-04  0.1700003E+04  0.7818609E-02  0.8761363E-01
       -1   -1    0    0    0  501  0.00000000000E+00  0.00000000000E+00  0.51777302971E+03  0.51777302973E+03  0.50400001928E-02 0.  1.
        1   -1    0    0  501    0  0.00000000000E+00  0.00000000000E+00 -0.13954033188E+04  0.13954033188E+04  0.50400001928E-02 0. -1.
    10030    2    1    2    0    0  0.00000000000E+00  0.00000000000E+00 -0.87763028906E+03  0.19131763485E+04  0.17000025930E+04 0.  0.
        2    1    3    3  502    0  0.16580534830E+03  0.56144996374E+03 -0.11323593831E+04  0.12747373250E+04  0.25500000920E-02 0. -1.
       -2    1    3    3    0  502 -0.16580534830E+03 -0.56144996374E+03  0.25472909406E+03  0.63843902346E+03  0.25500000920E-02 0.  1.
</event>
<event>
 5   0  0.1204741E-04  0.1701508E+04  0.7818609E-02  0.8760505E-01
        1   -1    0    0  501    0  0.00000000000E+00  0.00000000000E+00  0.10142305332E+04  0.10142305332E+04  0.50400001928E-02 0.  1.
       -1   -1    0    0    0  501  0.00000000000E+00  0.00000000000E+00 -0.71362712628E+03  0.71362712630E+03  0.50400001928E-02 0. -1.
    10030    2    1    2    0    0  0.00000000000E+00  0.00000000000E+00  0.30060340688E+03  0.17278576595E+04  0.17015080615E+04 0.  0.
        1    1    3    3  502    0 -0.63869179690E+01  0.34291826364E+03  0.94091395105E+03  0.10014753075E+04  0.50400001928E-02 0.  1.
       -1    1    3    3    0  502  0.63869179690E+01 -0.34291826364E+03 -0.64031054416E+03  0.72638235197E+03  0.50400001928E-02 0. -1.
</event>
<event>
 5   0  0.1234158E-04  0.1658603E+04  0.7818609E-02  0.8785334E-01
       -1   -1    0    0    0  501  0.00000000000E+00  0.00000000000E+00  0.10730113157E+04  0.10730113157E+04  0.50400001928E-02 0.  1.
        1   -1    0    0  501    0  0.00000000000E+00  0.00000000000E+00 -0.64094439155E+03  0.64094439157E+03  0.50400001928E-02 0. -1.
    10030    2    1    2    0    0  0.00000000000E+00  0.00000000000E+00  0.43206692414E+03  0.17139557073E+04  0.16586025261E+04 0.  0.
        5    1    3    3  502    0  0.34142477521E+03  0.72586524729E+03  0.43345301348E+03  0.91178661936E+03  0.46999998093E+01 0.  1.
       -5    1    3    3    0  502 -0.34142477521E+03 -0.72586524729E+03 -0.13860893381E+01  0.80216908791E+03  0.46999998093E+01 0. -1.
</event>
<event>
 5   0  0.1126958E-04  0.1708379E+04  0.7818609E-02  0.8756600E-01
        1   -1    0    0  501    0  0.00000000000E+00  0.00000000000E+00  0.12030110081E+04  0.12030110081E+04  0.50400001928E-02 0.  1.
       -1   -1    0    0    0  501  0.00000000000E+00  0.00000000000E+00 -0.60651158105E+03  0.60651158107E+03  0.50400001928E-02 0. -1.
    10030    2    1    2    0    0  0.00000000000E+00  0.00000000000E+00  0.59649942702E+03  0.18095225892E+04  0.17083794761E+04 0.  0.
        4    1    3    3  502    0 -0.70048003668E+02 -0.85118777568E+03  0.28285865858E+03  0.89968771577E+03  0.12699999809E+01 0.  1.
       -4    1    3    3    0  502  0.70048003668E+02  0.85118777568E+03  0.31364076844E+03  0.90983487338E+03  0.12699999809E+01 0. -1.
</event>
<event>
 5   0  0.2234723E-04  0.1697473E+04  0.7818609E-02  0.8762807E-01
       -2   -1    0    0    0  501  0.00000000000E+00  0.00000000000E+00  0.59401096666E+03  0.59401096666E+03  0.25500000920E-02 0. -1.
        2   -1    0    0  501    0  0.00000000000E+00  0.00000000000E+00 -0.12126936560E+04  0.12126936560E+04  0.25500000920E-02 0.  1.
    10030    2    1    2    0    0  0.00000000000E+00  0.00000000000E+00 -0.61868268936E+03  0.18067046227E+04  0.16974726282E+04 0.  0.
        1    1    3    3  502    0  0.29792239488E+03 -0.76625413912E+03 -0.53374043782E+03  0.98019488577E+03  0.50400001928E-02 0.  1.
       -1    1    3    3    0  502 -0.29792239488E+03  0.76625413912E+03 -0.84942251537E+02  0.82650973691E+03  0.50400001928E-02 0. -1.
</event>
<event>
 5   0  0.1204741E-04  0.1511263E+04  0.7818609E-02  0.8876998E-01
        1   -1    0    0  501    0  0.00000000000E+00  0.00000000000E+00  0.12737748074E+04  0.12737748074E+04  0.50400001928E-02 0.  1.
       -1   -1    0    0    0  501  0.00000000000E+00  0.00000000000E+00 -0.44825731237E+03  0.44825731240E+03  0.50400001928E-02 0. -1.
    10030    2    1    2    0    0  0.00000000000E+00  0.00000000000E+00  0.82551749507E+03  0.17220321198E+04  0.15112628782E+04 0.  0.
        1    1    3    3  502    0  0.50908826993E+03 -0.32504824530E+03  0.93012087483E+03  0.11090320420E+04  0.50400001928E-02 0.  1.
       -1    1    3    3    0  502 -0.50908826993E+03  0.32504824530E+03 -0.10460337976E+03  0.61300007785E+03  0.50400001928E-02 0. -1.
</event>
<event>
 5   0  0.2288806E-04  0.1694826E+04  0.7818609E-02  0.8764321E-01
       -2   -1    0    0    0  501  0.00000000000E+00  0.00000000000E+00  0.35584941115E+03  0.35584941116E+03  0.25500000920E-02 0.  1.
        2   -1    0    0  501    0  0.00000000000E+00  0.00000000000E+00 -0.20180124675E+04  0.20180124675E+04  0.25500000920E-02 0. -1.
    10030    2    1    2    0    0  0.00000000000E+00  0.00000000000E+00 -0.16621630564E+04  0.23738618787E+04  0.16948257117E+04 0.  0.
        3    1    3    3  502    0  0.27591660913E+03  0.29102981398E+03 -0.18766854724E+04  0.19190562004E+04  0.10100000352E+00 0. -1.
       -3    1    3    3    0  502 -0.27591660913E+03 -0.29102981398E+03  0.21452241601E+03  0.45480567828E+03  0.10100000352E+00 0.  1.
</event>
<event>
 5   0  0.2234723E-04  0.1699588E+04  0.7818609E-02  0.8761599E-01
        2   -1    0    0  501    0  0.00000000000E+00  0.00000000000E+00  0.18246064139E+04  0.18246064139E+04  0.25500000920E-02 0.  1.
       -2   -1    0    0    0  501  0.00000000000E+00  0.00000000000E+00 -0.39578386790E+03  0.39578386791E+03  0.25500000920E-02 0. -1.
    10030    2    1    2    0    0  0.00000000000E+00  0.00000000000E+00  0.14288225460E+04  0.22203902818E+04  0.16995879311E+04 0.  0.
        1    1    3    3  502    0 -0.80196183937E+03  0.68144716946E+02  0.10706695607E+04  0.13394475736E+04  0.50400001928E-02 0.  1.
       -1    1    3    3    0  502  0.80196183937E+03 -0.68144716946E+02  0.35815298535E+03  0.88094270824E+03  0.50400001928E-02 0. -1.
</event>
<event>
 5   0  0.2234723E-04  0.1699727E+04  0.7818609E-02  0.8761520E-01
       -2   -1    0    0    0  501  0.00000000000E+00  0.00000000000E+00  0.48494252000E+03  0.48494252001E+03  0.25500000920E-02 0.  1.
        2   -1    0    0  501    0  0.00000000000E+00  0.00000000000E+00 -0.14893890367E+04  0.14893890367E+04  0.25500000920E-02 0. -1.
    10030    2    1    2    0    0  0.00000000000E+00  0.00000000000E+00 -0.10044465167E+04  0.19743315567E+04  0.16997271225E+04 0.  0.
        1    1    3    3  502    0 -0.28196537959E+03 -0.78555298984E+03 -0.68832680192E+03  0.10818464593E+04  0.50400001928E-02 0.  1.
       -1    1    3    3    0  502  0.28196537959E+03  0.78555298984E+03 -0.31611971482E+03  0.89248509750E+03  0.50400001928E-02 0. -1.
</event>
<event>
 5   0  0.2356829E-04  0.1710982E+04  0.7818609E-02  0.8755126E-01
        2   -1    0    0  501    0  0.00000000000E+00  0.00000000000E+00  0.23555893613E+04  0.23555893613E+04  0.25500000920E-02 0.  1.
       -2   -1    0    0    0  501  0.00000000000E+00  0.00000000000E+00 -0.31069280724E+03  0.31069280725E+03  0.25500000920E-02 0. -1.
    10030    2    1    2    0    0  0.00000000000E+00  0.00000000000E+00  0.20448965541E+04  0.26662821686E+04  0.17109817899E+04 0.  0.
        5    1    3    3  502    0  0.42342836629E+03  0.24238240167E+03 -0.72609522094E+02  0.49329001887E+03  0.46999998093E+01 0. -1.
       -5    1    3    3    0  502 -0.42342836629E+03 -0.24238240167E+03  0.21175060762E+04  0.21729921497E+04  0.46999998093E+01 0.  1.
</event>
<event>
 5   0  0.1234158E-04  0.1696747E+04  0.7818609E-02  0.8763222E-01
        1   -1    0    0  501    0  0.00000000000E+00  0.00000000000E+00  0.12130671148E+04  0.12130671148E+04  0.50400001928E-02 0. -1.
       -1   -1    0    0    0  501  0.00000000000E+00  0.00000000000E+00 -0.59332083321E+03  0.59332083323E+03  0.50400001928E-02 0.  1.
    10030    2    1    2    0    0  0.00000000000E+00  0.00000000000E+00  0.61974628162E+03  0.18063879481E+04  0.16967474666E+04 0.  0.
        5    1    3    3  502    0 -0.63627938797E+03  0.55112899011E+03  0.19760121640E+03  0.86467505690E+03  0.46999998093E+01 0. -1.
       -5    1    3    3    0  502  0.63627938797E+03 -0.55112899011E+03  0.42214506523E+03  0.94171289117E+03  0.46999998093E+01 0.  1.
</event>
<event>
 5   0  0.2288806E-04  0.1834708E+04  0.7818609E-02  0.8688057E-01
       -2   -1    0    0    0  501  0.00000000000E+00  0.00000000000E+00  0.37527895233E+03  0.37527895234E+03  0.25500000920E-02 0.  1.
        2   -1    0    0  501    0  0.00000000000E+00  0.00000000000E+00 -0.22424346085E+04  0.22424346085E+04  0.25500000920E-02 0. -1.
    10030    2    1    2    0    0  0.00000000000E+00  0.00000000000E+00 -0.18671556562E+04  0.26177135608E+04  0.18347081627E+04 0.  0.
        3    1    3    3  502    0 -0.47132026300E+03  0.55691533295E+03 -0.14015684901E+03  0.74292760813E+03  0.10100000352E+00 0.  1.
       -3    1    3    3    0  502  0.47132026300E+03 -0.55691533295E+03 -0.17269988071E+04  0.18747859527E+04  0.10100000352E+00 0. -1.
</event>
<event>
 5   0  0.1215233E-04  0.1668841E+04  0.7818609E-02  0.8779338E-01
        1   -1    0    0  501    0  0.00000000000E+00  0.00000000000E+00  0.14822409015E+04  0.14822409015E+04  0.50400001928E-02 0. -1.
       -1   -1    0    0    0  501  0.00000000000E+00  0.00000000000E+00 -0.46973292266E+03  0.46973292269E+03  0.50400001928E-02 0.  1.
    10030    2    1    2    0    0  0.00000000000E+00  0.00000000000E+00  0.10125079788E+04  0.19519738242E+04  0.16688407363E+04 0.  0.
        2    1    3    3  502    0 -0.45380248934E+03 -0.40998684314E+03  0.11702157275E+04  0.13203903816E+04  0.25500000920E-02 0. -1.
       -2    1    3    3    0  502  0.45380248934E+03  0.40998684314E+03 -0.15770774874E+03  0.63158344254E+03  0.25500000920E-02 0.  1.
</event>
<event>
 5   0  0.1204741E-04  0.1700581E+04  0.7818609E-02  0.8761033E-01
        1   -1    0    0  501    0  0.00000000000E+00  0.00000000000E+00  0.11211805586E+04  0.11211805586E+04  0.50400001928E-02 0. -1.
       -1   -1    0    0    0  501  0.00000000000E+00  0.00000000000E+00 -0.64485043857E+03  0.64485043859E+03  0.50400001928E-02 0.  1.
    10030    2    1    2    0    0  0.00000000000E+00  0.00000000000E+00  0.47633012005E+03  0.17660309972E+04  0.17005808125E+04 0.  0.
        1    1    3    3  502    0  0.36454995341E+03 -0.55827428996E+02  0.10337981721E+04  0.10976119674E+04  0.50400001928E-02 0. -1.
       -1    1    3    3    0  502 -0.36454995341E+03  0.55827428996E+02 -0.55746805203E+03  0.66841902982E+03  0.50400001928E-02 0.  1.
</event>
<event>
 5   0  0.1186302E-04  0.1700539E+04  0.7818609E-02  0.8761057E-01
        1   -1    0    0  501    0  0.00000000000E+00  0.00000000000E+00  0.91716388431E+03  0.91716388432E+03  0.50400001928E-02 0.  1.
       -1   -1    0    0    0  501  0.00000000000E+00  0.00000000000E+00 -0.78825427358E+03  0.78825427360E+03  0.50400001928E-02 0. -1.
    10030    2    1    2    0    0  0.00000000000E+00  0.00000000000E+00  0.12890961073E+03  0.17054181579E+04  0.17005391515E+04 0.  0.
        3    1    3    3  502    0 -0.41528109713E+03 -0.73895103377E+03 -0.24548383524E+01  0.84765149465E+03  0.10100000352E+00 0. -1.
       -3    1    3    3    0  502  0.41528109713E+03  0.73895103377E+03  0.13136444908E+03  0.85776666327E+03  0.10100000352E+00 0.  1.
</event>
<event>
 5   0  0.1186302E-04  0.1696089E+04  0.7818609E-02  0.8763598E-01
        1   -1    0    0  501    0  0.00000000000E+00  0.00000000000E+00  0.10472013073E+04  0.10472013073E+04  0.50400001928E-02 0.  1.
       -1   -1    0    0    0  501  0.00000000000E+00  0.00000000000E+00 -0.68676294484E+03  0.68676294485E+03  0.50400001928E-02 0. -1.
    10030    2    1    2    0    0  0.00000000000E+00  0.00000000000E+00  0.36043836250E+03  0.17339642522E+04  0.16960885044E+04 0.  0.
        3    1    3    3  502    0 -0.16662042148E+03 -0.82773787448E+03  0.26114940247E+03  0.88380505447E+03  0.10100000352E+00 0. -1.
       -3    1    3    3    0  502  0.16662042148E+03  0.82773787448E+03  0.99288960022E+02  0.85015919773E+03  0.10100000352E+00 0.  1.
</event>
<event>
 5   0  0.2224454E-04  0.1703952E+04  0.7818609E-02  0.8759114E-01
        2   -1    0    0  501    0  0.00000000000E+00  0.00000000000E+00  0.14725254529E+04  0.14725254529E+04  0.25500000920E-02 0. -1.
       -2   -1    0    0    0  501  0.00000000000E+00  0.00000000000E+00 -0.49293730002E+03  0.49293730002E+03  0.25500000920E-02 0.  1.
    10030    2    1    2    0    0  0.00000000000E+00  0.00000000000E+00  0.97958815287E+03  0.19654627529E+04  0.17039515497E+04 0.  0.
        2    1    3    3  502    0 -0.64202905679E+03  0.51027369858E+03  0.75604952420E+03  0.11154332971E+04  0.25500000920E-02 0.  1.
       -2    1    3    3    0  502  0.64202905679E+03 -0.51027369858E+03  0.22353862866E+03  0.85002945581E+03  0.25500000920E-02 0. -1.
</event>
<event>
 5   0  0.1234158E-04  0.1696939E+04  0.7818609E-02  0.8763112E-01
        1   -1    0    0  501    0  0.00000000000E+00  0.00000000000E+00  0.58330944169E+03  0.58330944172E+03  0.50400001928E-02 0.  1.
       -1   -1    0    0    0  501  0.00000000000E+00  0.00000000000E+00 -0.12341661744E+04  0.12341661744E+04  0.50400001928E-02 0. -1.
    10030    2    1    2    0    0  0.00000000000E+00  0.00000000000E+00 -0.65085673271E+03  0.18174756161E+04  0.16969393415E+04 0.  0.
        5    1    3    3  502    0  0.15131032498E+03  0.79513207709E+03 -0.52895847544E+02  0.81114110681E+03  0.46999998093E+01 0.  1.
       -5    1    3    3    0  502 -0.15131032498E+03 -0.79513207709E+03 -0.59796088517E+03  0.10063345093E+04  0.46999998093E+01 0. -1.
</event>
<event>
 5   0  0.2356829E-04  0.1696788E+04  0.7818609E-02  0.8763198E-01
        2   -1    0    0  501    0  0.00000000000E+00  0.00000000000E+00  0.10283231948E+04  0.10283231948E+04  0.25500000920E-02 0. -1.
       -2   -1    0    0    0  501  0.00000000000E+00  0.00000000000E+00 -0.69994768230E+03  0.69994768231E+03  0.25500000920E-02 0.  1.
    10030    2    1    2    0    0  0.00000000000E+00  0.00000000000E+00  0.32837551246E+03  0.17282708771E+04  0.16967880679E+04 0.  0.
        5    1    3    3  502    0  0.26485655112E+03 -0.48640534246E+03  0.81877136064E+03  0.98850785573E+03  0.46999998093E+01 0. -1.
       -5    1    3    3    0  502 -0.26485655112E+03  0.48640534246E+03 -0.49039584818E+03  0.73976302135E+03  0.46999998093E+01 0.  1.
</event>
<event>
 5   0  0.1215233E-04  0.1669820E+04  0.7818609E-02  0.8778767E-01
       -1   -1    0    0    0  501  0.00000000000E+00  0.00000000000E+00  0.42763865550E+03  0.42763865553E+03  0.50400001928E-02 0.  1.
        1   -1    0    0  501    0  0.00000000000E+00  0.00000000000E+00 -0.16300557131E+04  0.16300557131E+04  0.50400001928E-02 0. -1.
    10030    2    1    2    0    0  0.00000000000E+00  0.00000000000E+00 -0.12024170576E+04  0.20576943687E+04  0.16698201503E+04 0.  0.
        2    1    3    3  502    0  0.61544835952E+03  0.43156820401E+03 -0.10489996720E+04  0.12905146686E+04  0.25500000920E-02 0. -1.
       -2    1    3    3    0  502 -0.61544835952E+03 -0.43156820401E+03 -0.15341738557E+03  0.76717970004E+03  0.25500000920E-02 0.  1.
</event>
<event>
 5   0  0.8372750E-05  0.1699307E+04  0.7818609E-02  0.8761760E-01
        4   -1    0    0  501    0  0.00000000000E+00  0.00000000000E+00  0.99292892934E+03  0.99292974154E+03  0.12699999809E+01 0.  1.
       -4   -1    0    0    0  501  0.00000000000E+00  0.00000000000E+00 -0.72705023742E+03  0.72705134662E+03  0.12699999809E+01 0. -1.
    10030    2    1    2    0    0  0.00000000000E+00  0.00000000000E+00  0.26587869193E+03  0.17199810882E+04  0.16993067601E+04 0.  0.
        4    1    3    3  502    0 -0.47377623355E+02 -0.15872231349E+03 -0.71054923428E+03  0.72960211021E+03  0.12699999809E+01 0. -1.
       -4    1    3    3    0  502  0.47377623355E+02  0.15872231349E+03  0.97642792620E+03  0.99037897795E+03  0.12699999809E+01 0.  1.
</event>
<event>
 5   0  0.1204741E-04  0.1709844E+04  0.7818609E-02  0.8755770E-01
       -1   -1    0    0    0  501  0.00000000000E+00  0.00000000000E+00  0.65086909503E+03  0.65086909505E+03  0.50400001928E-02 0.  1.
        1   -1    0    0  501    0  0.00000000000E+00  0.00000000000E+00 -0.11229472934E+04  0.11229472935E+04  0.50400001928E-02 0. -1.
    10030    2    1    2    0    0  0.00000000000E+00  0.00000000000E+00 -0.47207819842E+03  0.17738163885E+04  0.17098440732E+04 0.  0.
        1    1    3    3  502    0  0.64789511420E+03  0.57554462901E+01  0.34258366993E+03  0.73291525779E+03  0.50400001928E-02 0.  1.
       -1    1    3    3    0  502 -0.64789511420E+03 -0.57554462901E+01 -0.81466186835E+03  0.10409011307E+04  0.50400001928E-02 0. -1.
</event>
<event>
 5   0  0.1215233E-04  0.1735369E+04  0.7818609E-02  0.8741445E-01
       -1   -1    0    0    0  501  0.00000000000E+00  0.00000000000E+00  0.62503384035E+03  0.62503384037E+03  0.50400001928E-02 0.  1.
        1   -1    0    0  501    0  0.00000000000E+00  0.00000000000E+00 -0.12045375073E+04  0.12045375073E+04  0.50400001928E-02 0. -1.
    10030    2    1    2    0    0  0.00000000000E+00  0.00000000000E+00 -0.57950366691E+03  0.18295713476E+04  0.17353693601E+04 0.  0.
        2    1    3    3  502    0 -0.47090547226E+03  0.37813285908E+03  0.36707635558E+03  0.70674003265E+03  0.25500000920E-02 0.  1.
       -2    1    3    3    0  502  0.47090547226E+03 -0.37813285908E+03 -0.94658002249E+03  0.11228313150E+04  0.25500000920E-02 0. -1.
</event>
<event>
 5   0  0.2234723E-04  0.1709203E+04  0.7818609E-02  0.8756133E-01
       -2   -1    0    0    0  501  0.00000000000E+00  0.00000000000E+00  0.77417293729E+03  0.77417293730E+03  0.25500000920E-02 0. -1.
        2   -1    0    0  501    0  0.00000000000E+00  0.00000000000E+00 -0.94338539946E+03  0.94338539946E+03  0.25500000920E-02 0.  1.
    10030    2    1    2    0    0  0.00000000000E+00  0.00000000000E+00 -0.16921246217E+03  0.17175583368E+04  0.17092026746E+04 0.  0.
        1    1    3    3  502    0 -0.84205558188E+02  0.60220526259E+03 -0.68804306035E+03  0.91822927814E+03  0.50400001928E-02 0.  1.
       -1    1    3    3    0  502  0.84205558188E+02 -0.60220526259E+03  0.51883059818E+03  0.79932905862E+03  0.50400001928E-02 0. -1.
</event>
<event>
 5   0  0.2234723E-04  0.1660110E+04  0.7818609E-02  0.8784448E-01
        2   -1    0    0  501    0  0.00000000000E+00  0.00000000000E+00  0.13957692014E+04  0.13957692014E+04  0.25500000920E-02 0. -1.
       -2   -1    0    0    0  501  0.00000000000E+00  0.00000000000E+00 -0.49362835762E+03  0.49362835763E+03  0.25500000920E-02 0.  1.
    10030    2    1    2    0    0  0.00000000000E+00  0.00000000000E+00  0.90214084380E+03  0.18893975590E+04  0.16601099464E+04 0.  0.
        1    1    3    3  502    0  0.39429523226E+03  0.53121734055E+03 -0.11949997974E+03  0.67226545223E+03  0.50400001928E-02 0.  1.
       -1    1    3    3    0  502 -0.39429523226E+03 -0.53121734055E+03  0.10216408235E+04  0.12171321068E+04  0.50400001928E-02 0. -1.
</event>
<event>
 5   0  0.8372750E-05  0.1698210E+04  0.7818609E-02  0.8762386E-01
        3   -1    0    0  501    0  0.00000000000E+00  0.00000000000E+00  0.69945932022E+03  0.69945932751E+03  0.10100000352E+00 0. -1.
       -3   -1    0    0    0  501  0.00000000000E+00  0.00000000000E+00 -0.10307670610E+04  0.10307670659E+04  0.10100000352E+00 0.  1.
    10030    2    1    2    0    0  0.00000000000E+00  0.00000000000E+00 -0.33130774077E+03  0.17302263934E+04  0.16982103973E+04 0.  0.
        3    1    3    3  502    0  0.50050663222E+03  0.14273131034E+03 -0.84919742213E+03  0.99599969267E+03  0.10100000352E+00 0.  1.
       -3    1    3    3    0  502 -0.50050663222E+03 -0.14273131034E+03  0.51788968136E+03  0.73422670076E+03  0.10100000352E+00 0. -1.
</event>
<event>
 5   0  0.1126958E-04  0.1597889E+04  0.7818609E-02  0.8821846E-01
        1   -1    0    0  501    0  0.00000000000E+00  0.00000000000E+00  0.12741308273E+04  0.12741308273E+04  0.50400001928E-02 0.  1.
       -1   -1    0    0    0  501  0.00000000000E+00  0.00000000000E+00 -0.50097890389E+03  0.50097890392E+03  0.50400001928E-02 0. -1.
    10030    2    1    2    0    0  0.00000000000E+00  0.00000000000E+00  0.77315192342E+03  0.17751097312E+04  0.15978894396E+04 0.  0.
        4    1    3    3  502    0  0.14447842601E+03  0.77842400890E+03  0.26747999446E+03  0.83568242386E+03  0.12699999809E+01 0.  1.
       -4    1    3    3    0  502 -0.14447842601E+03 -0.77842400890E+03  0.50567192895E+03  0.93942730737E+03  0.12699999809E+01 0. -1.
</event>
<event>
 5   0  0.2356829E-04  0.1694760E+04  0.7818609E-02  0.8764359E-01
       -2   -1    0    0    0  501  0.00000000000E+00  0.00000000000E+00  0.43475795835E+03  0.43475795835E+03  0.25500000920E-02 0.  1.
        2   -1    0    0  501    0  0.00000000000E+00  0.00000000000E+00 -0.16516149386E+04  0.16516149386E+04  0.25500000920E-02 0. -1.
    10030    2    1    2    0    0  0.00000000000E+00  0.00000000000E+00 -0.12168569802E+04  0.20863728969E+04  0.16947598516E+04 0.  0.
        5    1    3    3  502    0  0.72460849888E+03 -0.34169375387E+03 -0.94829948916E+03  0.12414129487E+04  0.46999998093E+01 0. -1.
       -5    1    3    3    0  502 -0.72460849888E+03  0.34169375387E+03 -0.26855749106E+03  0.84495994821E+03  0.46999998093E+01 0.  1.
</event>
<event>
 5   0  0.1234158E-04  0.1694427E+04  0.7818609E-02  0.8764549E-01
        1   -1    0    0  501    0  0.00000000000E+00  0.00000000000E+00  0.10657111717E+04  0.10657111718E+04  0.50400001928E-02 0. -1.
       -1   -1    0    0    0  501  0.00000000000E+00  0.00000000000E+00 -0.67351351716E+03  0.67351351718E+03  0.50400001928E-02 0.  1.
    10030    2    1    2    0    0  0.00000000000E+00  0.00000000000E+00  0.39219765458E+03  0.17392246889E+04  0.16944271948E+04 0.  0.
        5    1    3    3  502    0 -0.49677601363E+03  0.63909496812E+03 -0.60551767972E+02  0.81173726821E+03  0.46999998093E+01 0.  1.
       -5    1    3    3    0  502  0.49677601363E+03 -0.63909496812E+03  0.45274942255E+03  0.92748742073E+03  0.46999998093E+01 0. -1.
</event>
<event>
 5   0  0.1215233E-04  0.1695567E+04  0.7818609E-02  0.8763897E-01
        1   -1    0    0  501    0  0.00000000000E+00  0.00000000000E+00  0.14393589889E+04  0.14393589889E+04  0.50400001928E-02 0.  1.
       -1   -1    0    0    0  501  0.00000000000E+00  0.00000000000E+00 -0.49934512583E+03  0.49934512586E+03  0.50400001928E-02 0. -1.
    10030    2    1    2    0    0  0.00000000000E+00  0.00000000000E+00  0.94001386303E+03  0.19387041147E+04  0.16955670384E+04 0.  0.
        2    1    3    3  502    0  0.92203275356E+02  0.31731796496E+03 -0.42268039264E+03  0.53651733355E+03  0.25500000920E-02 0. -1.
       -2    1    3    3    0  502 -0.92203275356E+02 -0.31731796496E+03  0.13626942557E+04  0.14021867812E+04  0.25500000920E-02 0.  1.
</event>
<event>
 5   0  0.2356829E-04  0.1698233E+04  0.7818609E-02  0.8762373E-01
        2   -1    0    0  501    0  0.00000000000E+00  0.00000000000E+00  0.19786380771E+04  0.19786380771E+04  0.25500000920E-02 0.  1.
       -2   -1    0    0    0  501  0.00000000000E+00  0.00000000000E+00 -0.36439130364E+03  0.36439130365E+03  0.25500000920E-02 0. -1.
    10030    2    1    2    0    0  0.00000000000E+00  0.00000000000E+00  0.16142467734E+04  0.23430293807E+04  0.16982326205E+04 0.  0.
        5    1    3    3  502    0 -0.67717719030E+03 -0.22566406720E+03  0.17264257509E+03  0.73438461791E+03  0.46999998093E+01 0. -1.
       -5    1    3    3    0  502  0.67717719030E+03  0.22566406720E+03  0.14416041983E+04  0.16086447628E+04  0.46999998093E+01 0.  1.
</event>
<event>
 5   0  0.2234723E-04  0.1672768E+04  0.7818609E-02  0.8777050E-01
        2   -1    0    0  501    0  0.00000000000E+00  0.00000000000E+00  0.14687509395E+04  0.14687509395E+04  0.25500000920E-02 0.  1.
       -2   -1    0    0    0  501  0.00000000000E+00  0.00000000000E+00 -0.47628087870E+03  0.47628087871E+03  0.25500000920E-02 0. -1.
    10030    2    1    2    0    0  0.00000000000E+00  0.00000000000E+00  0.99247006084E+03  0.19450318183E+04  0.16727677521E+04 0.  0.
        1    1    3    3  502    0  0.26617703775E+03  0.25236131879E+03  0.13702439756E+04  0.14184868711E+04  0.50400001928E-02 0.  1.
       -1    1    3    3    0  502 -0.26617703775E+03 -0.25236131879E+03 -0.37777391481E+03  0.52654494716E+03  0.50400001928E-02 0. -1.
</event>
<event>
 5   0  0.1215233E-04  0.1695011E+04  0.7818609E-02  0.8764215E-01
       -1   -1    0    0    0  501  0.00000000000E+00  0.00000000000E+00  0.76133752467E+03  0.76133752468E+03  0.50400001928E-02 0. -1.
        1   -1    0    0  501    0  0.00000000000E+00  0.00000000000E+00 -0.94342639684E+03  0.94342639686E+03  0.50400001928E-02 0.  1.
    10030    2    1    2    0    0  0.00000000000E+00  0.00000000000E+00 -0.18208887218E+03  0.17047639215E+04  0.16950114073E+04 0.  0.
        2    1    3    3  502    0 -0.32372724645E+03  0.36920310982E+03 -0.78578339947E+03  0.92658826740E+03  0.25500000920E-02 0.  1.
       -2    1    3    3    0  502  0.32372724645E+03 -0.36920310982E+03  0.60369452730E+03  0.77817565414E+03  0.25500000920E-02 0. -1.
</event>
<event>
 5   0  0.1234158E-04  0.1575375E+04  0.7818609E-02  0.8835821E-01
       -1   -1    0    0    0  501  0.00000000000E+00  0.00000000000E+00  0.11561147228E+04  0.11561147228E+04  0.50400001928E-02 0.  1.
        1   -1    0    0  501    0  0.00000000000E+00  0.00000000000E+00 -0.53666939650E+03  0.53666939652E+03  0.50400001928E-02 0. -1.
    10030    2    1    2    0    0  0.00000000000E+00  0.00000000000E+00  0.61944532632E+03  0.16927841194E+04  0.15753747371E+04 0.  0.
        5    1    3    3  502    0 -0.26848915308E+03  0.73936406462E+03  0.35381308788E+03  0.86252619469E+03  0.46999998093E+01 0.  1.
       -5    1    3    3    0  502  0.26848915308E+03 -0.73936406462E+03  0.26563223844E+03  0.83025792466E+03  0.46999998093E+01 0. -1.
</event>
<event>
 5   0  0.1186302E-04  0.1714370E+04  0.7818609E-02  0.8753211E-01
        1   -1    0    0  501    0  0.00000000000E+00  0.00000000000E+00  0.83978390732E+03  0.83978390734E+03  0.50400001928E-02 0.  1.
       -1   -1    0    0    0  501  0.00000000000E+00  0.00000000000E+00 -0.87494654633E+03  0.87494654634E+03  0.50400001928E-02 0. -1.
    10030    2    1    2    0    0  0.00000000000E+00  0.00000000000E+00 -0.35162639006E+02  0.17147304537E+04  0.17143698894E+04 0.  0.
        3    1    3    3  502    0  0.30209354487E+02  0.85585773231E+03  0.19317578451E+02  0.85660856994E+03  0.10100000352E+00 0.  1.
       -3    1    3    3    0  502 -0.30209354487E+02 -0.85585773231E+03 -0.54480217457E+02  0.85812188374E+03  0.10100000352E+00 0. -1.
</event>
<event>
 5   0  0.1186302E-04  0.1698941E+04  0.7818609E-02  0.8761968E-01
        1   -1    0    0  501    0  0.00000000000E+00  0.00000000000E+00  0.14085658608E+04  0.14085658608E+04  0.50400001928E-02 0.  1.
       -1   -1    0    0    0  501  0.00000000000E+00  0.00000000000E+00 -0.51229439541E+03  0.51229439544E+03  0.50400001928E-02 0. -1.
    10030    2    1    2    0    0  0.00000000000E+00  0.00000000000E+00  0.89627146540E+03  0.19208602563E+04  0.16989413128E+04 0.  0.
        3    1    3    3  502    0 -0.42486878441E+03  0.46369280980E+02 -0.38187997260E+03  0.57314563408E+03  0.10100000352E+00 0. -1.
       -3    1    3    3    0  502  0.42486878441E+03 -0.46369280980E+02  0.12781514380E+04  0.13477146222E+04  0.10100000352E+00 0.  1.
</event>
<event>
 5   0  0.1234158E-04  0.1695955E+04  0.7818609E-02  0.8763674E-01
        1   -1    0    0  501    0  0.00000000000E+00  0.00000000000E+00  0.71811664158E+03  0.71811664160E+03  0.50400001928E-02 0. -1.
       -1   -1    0    0    0  501  0.00000000000E+00  0.00000000000E+00 -0.10013222732E+04  0.10013222732E+04  0.50400001928E-02 0.  1.
    10030    2    1    2    0    0  0.00000000000E+00  0.00000000000E+00 -0.28320563162E+03  0.17194389148E+04  0.16959554098E+04 0.  0.
        5    1    3    3  502    0 -0.34932032471E+03  0.32022217747E+03  0.57132480808E+03  0.74229445540E+03  0.46999998093E+01 0. -1.
       -5    1    3    3    0  502  0.34932032471E+03 -0.32022217747E+03 -0.85453043969E+03  0.97714445941E+03  0.46999998093E+01 0.  1.
</event>
<event>
 5   0  0.1126958E-04  0.1694593E+04  0.7818609E-02  0.8764454E-01
        1   -1    0    0  501    0  0.00000000000E+00  0.00000000000E+00  0.55342052869E+03  0.55342052871E+03  0.50400001928E-02 0. -1.
       -1   -1    0    0    0  501  0.00000000000E+00  0.00000000000E+00 -0.12972256469E+04  0.12972256469E+04  0.50400001928E-02 0.  1.
    10030    2    1    2    0    0  0.00000000000E+00  0.00000000000E+00 -0.74380511818E+03  0.18506461756E+04  0.16945929344E+04 0.  0.
        4    1    3    3  502    0  0.82808542996E+03 -0.77189531824E+02 -0.54876024010E+03  0.99640509691E+03  0.12699999809E+01 0.  1.
       -4    1    3    3    0  502 -0.82808542996E+03  0.77189531824E+02 -0.19504487808E+03  0.85424107868E+03  0.12699999809E+01 0. -1.
</event>
<event>
 5   0  0.1234158E-04  0.1701489E+04  0.7818609E-02  0.8760516E-01
        1   -1    0    0  501    0  0.00000000000E+00  0.00000000000E+00  0.83371432609E+03  0.83371432611E+03  0.50400001928E-02 0. -1.
       -1   -1    0    0    0  501  0.00000000000E+00  0.00000000000E+00 -0.86812206271E+03  0.86812206273E+03  0.50400001928E-02 0.  1.
    10030    2    1    2    0    0  0.00000000000E+00  0.00000000000E+00 -0.34407736619E+02  0.17018363888E+04  0.17014885254E+04 0.  0.
        5    1    3    3  502    0 -0.20399260800E+03  0.81039528816E+03 -0.17657948204E+03  0.85414045137E+03  0.46999998093E+01 0.  1.
       -5    1    3    3    0  502  0.20399260800E+03 -0.81039528816E+03  0.14217174542E+03  0.84769593746E+03  0.46999998093E+01 0. -1.
</event>
<event>
 5   0  0.2242967E-04  0.1693731E+04  0.7818609E-02  0.8764948E-01
       -2   -1    0    0    0  501  0.00000000000E+00  0.00000000000E+00  0.62145678852E+03  0.62145678853E+03  0.25500000920E-02 0. -1.
        2   -1    0    0  501    0  0.00000000000E+00  0.00000000000E+00 -0.11540327499E+04  0.11540327499E+04  0.25500000920E-02 0.  1.
    10030    2    1    2    0    0  0.00000000000E+00  0.00000000000E+00 -0.53257596139E+03  0.17754895384E+04  0.16937313679E+04 0.  0.
        4    1    3    3  502    0 -0.37512802106E+02 -0.22915955779E+03 -0.11200071222E+04  0.11438264203E+04  0.12699999809E+01 0.  1.
       -4    1    3    3    0  502  0.37512802106E+02  0.22915955779E+03  0.58743116077E+03  0.63166311812E+03  0.12699999809E+01 0. -1.
</event>
<event>
 5   0  0.1234158E-04  0.1673433E+04  0.7818609E-02  0.8776663E-01
       -1   -1    0    0    0  501  0.00000000000E+00  0.00000000000E+00  0.29620203106E+03  0.29620203110E+03  0.50400001928E-02 0.  1.
        1   -1    0    0  501    0  0.00000000000E+00  0.00000000000E+00 -0.23635717398E+04  0.23635717398E+04  0.50400001928E-02 0. -1.
    10030    2    1    2    0    0  0.00000000000E+00  0.00000000000E+00 -0.20673697087E+04  0.26597737709E+04  0.16734332971E+04 0.  0.
        5    1    3    3  502    0  0.60333339423E+03  0.53414293464E+03 -0.67561620389E+03  0.10515698760E+04  0.46999998093E+01 0.  1.
       -5    1    3    3    0  502 -0.60333339423E+03 -0.53414293464E+03 -0.13917535048E+04  0.16082038949E+04  0.46999998093E+01 0. -1.
</event>
<event>
 5   0  0.2288806E-04  0.1700622E+04  0.7818609E-02  0.8761010E-01
       -2   -1    0    0    0  501  0.00000000000E+00  0.00000000000E+00  0.11367990836E+04  0.11367990836E+04  0.25500000920E-02 0.  1.
        2   -1    0    0  501    0  0.00000000000E+00  0.00000000000E+00 -0.63602179591E+03  0.63602179592E+03  0.25500000920E-02 0. -1.
    10030    2    1    2    0    0  0.00000000000E+00  0.00000000000E+00  0.50077728765E+03  0.17728208795E+04  0.17006222329E+04 0.  0.
        3    1    3    3  502    0  0.53078196973E+02  0.43113322652E+03 -0.51162746827E+03  0.67116006325E+03  0.10100000352E+00 0. -1.
       -3    1    3    3    0  502 -0.53078196973E+02 -0.43113322652E+03  0.10124047559E+04  0.11016608162E+04  0.10100000352E+00 0.  1.
</event>
<event>
 5   0  0.2288806E-04  0.1702128E+04  0.7818609E-02  0.8760152E-01
       -2   -1    0    0    0  501  0.00000000000E+00  0.00000000000E+00  0.42091203556E+03  0.42091203557E+03  0.25500000920E-02 0.  1.
        2   -1    0    0  501    0  0.00000000000E+00  0.00000000000E+00 -0.17208109732E+04  0.17208109732E+04  0.25500000920E-02 0. -1.
    10030    2    1    2    0    0  0.00000000000E+00  0.00000000000E+00 -0.12998989377E+04  0.21417230088E+04  0.17021281380E+04 0.  0.
        3    1    3    3  502    0 -0.54157455878E+03  0.32180606180E+03  0.70066540370E+02  0.63385445838E+03  0.10100000352E+00 0.  1.
       -3    1    3    3    0  502  0.54157455878E+03 -0.32180606180E+03 -0.13699654781E+04  0.15078685504E+04  0.10100000352E+00 0. -1.
</event>
<event>
 5   0  0.8372750E-05  0.1699446E+04  0.7818609E-02  0.8761680E-01
       -4   -1    0    0    0  501  0.00000000000E+00  0.00000000000E+00  0.64194544550E+03  0.64194670176E+03  0.12699999809E+01 0. -1.
        4   -1    0    0  501    0  0.00000000000E+00  0.00000000000E+00 -0.11247494611E+04  0.11247501781E+04  0.12699999809E+01 0.  1.
    10030    2    1    2    0    0  0.00000000000E+00  0.00000000000E+00 -0.48280401560E+03  0.17666968799E+04  0.16994464239E+04 0.  0.
        1    1    3    3  502    0  0.73711645914E+03  0.41562211366E+02  0.19591250734E+03  0.76383885886E+03  0.50400001928E-02 0. -1.
       -1    1    3    3    0  502 -0.73711645914E+03 -0.41562211366E+02 -0.67871652295E+03  0.10028580210E+04  0.50400001928E-02 0.  1.
</event>
<event>
 5   0  0.2356829E-04  0.1686910E+04  0.7818609E-02  0.8768866E-01
       -2   -1    0    0    0  501  0.00000000000E+00  0.00000000000E+00  0.63731354982E+03  0.63731354983E+03  0.25500000920E-02 0.  1.
        2   -1    0    0  501    0  0.00000000000E+00  0.00000000000E+00 -0.11162731719E+04  0.11162731719E+04  0.25500000920E-02 0. -1.
    10030    2    1    2    0    0  0.00000000000E+00  0.00000000000E+00 -0.47895962208E+03  0.17535867217E+04  0.16869096215E+04 0.  0.
        5    1    3    3  502    0 -0.21488457508E+03 -0.67750163744E+03  0.23257277018E+03  0.74786097155E+03  0.46999998093E+01 0.  1.
       -5    1    3    3    0  502  0.21488457508E+03  0.67750163744E+03 -0.71153239226E+03  0.10057257502E+04  0.46999998093E+01 0. -1.
</event>
<event>
 5   0  0.1234158E-04  0.1675389E+04  0.7818609E-02  0.8775527E-01
        1   -1    0    0  501    0  0.00000000000E+00  0.00000000000E+00  0.15493016043E+04  0.15493016043E+04  0.50400001928E-02 0. -1.
       -1   -1    0    0    0  501  0.00000000000E+00  0.00000000000E+00 -0.45293461072E+03  0.45293461075E+03  0.50400001928E-02 0.  1.
    10030    2    1    2    0    0  0.00000000000E+00  0.00000000000E+00  0.10963669936E+04  0.20022362150E+04  0.16753892909E+04 0.  0.
        5    1    3    3  502    0  0.37287537536E+03  0.36316573118E+03  0.13325694008E+04  0.14306252800E+04  0.46999998093E+01 0. -1.
       -5    1    3    3    0  502 -0.37287537536E+03 -0.36316573118E+03 -0.23620240724E+03  0.57161093502E+03  0.46999998093E+01 0.  1.
</event>
<event>
 5   0  0.1215233E-04  0.1706135E+04  0.7818609E-02  0.8757873E-01
        1   -1    0    0  501    0  0.00000000000E+00  0.00000000000E+00  0.85866115643E+03  0.85866115644E+03  0.50400001928E-02 0.  1.
       -1   -1    0    0    0  501  0.00000000000E+00  0.00000000000E+00 -0.84751015442E+03  0.84751015443E+03  0.50400001928E-02 0. -1.
    10030    2    1    2    0    0  0.00000000000E+00  0.00000000000E+00  0.11151002006E+02  0.17061713109E+04  0.17061348708E+04 0.  0.
        2    1    3    3  502    0 -0.30097066325E+03  0.39334417146E+03  0.70015571922E+03  0.85762521448E+03  0.25500000920E-02 0.  1.
       -2    1    3    3    0  502  0.30097066325E+03 -0.39334417146E+03 -0.68900471721E+03  0.84854609639E+03  0.25500000920E-02 0. -1.
</event>
<event>
 5   0  0.2356829E-04  0.1697182E+04  0.7818609E-02  0.8762973E-01
        2   -1    0    0  501    0  0.00000000000E+00  0.00000000000E+00  0.27261833129E+03  0.27261833130E+03  0.25500000920E-02 0.  1.
       -2   -1    0    0    0  501  0.00000000000E+00  0.00000000000E+00 -0.26414461898E+04  0.26414461898E+04  0.25500000920E-02 0. -1.
    10030    2    1    2    0    0  0.00000000000E+00  0.00000000000E+00 -0.23688278585E+04  0.29140645211E+04  0.16971819613E+04 0.  0.
        5    1    3    3  502    0  0.15482470081E+03 -0.50279104932E+03 -0.23276264877E+04  0.23863437899E+04  0.46999998093E+01 0. -1.
       -5    1    3    3    0  502 -0.15482470081E+03  0.50279104932E+03 -0.41201370864E+02  0.52772073127E+03  0.46999998093E+01 0.  1.
</event>
<event>
 5   0  0.2234723E-04  0.1671628E+04  0.7818609E-02  0.8777714E-01
        2   -1    0    0  501    0  0.00000000000E+00  0.00000000000E+00  0.18575402416E+04  0.18575402416E+04  0.25500000920E-02 0. -1.
       -2   -1    0    0    0  501  0.00000000000E+00  0.00000000000E+00 -0.37608049538E+03  0.37608049538E+03  0.25500000920E-02 0.  1.
    10030    2    1    2    0    0  0.00000000000E+00  0.00000000000E+00  0.14814597463E+04  0.22336207370E+04  0.16716275354E+04 0.  0.
        1    1    3    3  502    0 -0.36428063028E+03 -0.98421866407E+01  0.17458004411E+04  0.17834282790E+04  0.50400001928E-02 0. -1.
       -1    1    3    3    0  502  0.36428063028E+03  0.98421866407E+01 -0.26434069487E+03  0.45019245798E+03  0.50400001928E-02 0.  1.
</event>
<event>
 5   0  0.1215233E-04  0.1700685E+04  0.7818609E-02  0.8760974E-01
       -1   -1    0    0    0  501  0.00000000000E+00  0.00000000000E+00  0.10872346809E+04  0.10872346809E+04  0.50400001928E-02 0.  1.
        1   -1    0    0  501    0  0.00000000000E+00  0.00000000000E+00 -0.66506554974E+03  0.66506554976E+03  0.50400001928E-02 0. -1.
    10030    2    1    2    0    0  0.00000000000E+00  0.00000000000E+00  0.42216913117E+03  0.17523002307E+04  0.17006849570E+04 0.  0.
        2    1    3    3  502    0  0.75694191855E+02 -0.81002742764E+03 -0.43827128338E+02  0.81473606855E+03  0.25500000920E-02 0. -1.
       -2    1    3    3    0  502 -0.75694191855E+02  0.81002742764E+03  0.46599625951E+03  0.93756416212E+03  0.25500000920E-02 0.  1.
</event>
<event>
 5   0  0.2234723E-04  0.1684521E+04  0.7818609E-02  0.8770242E-01
       -2   -1    0    0    0  501  0.00000000000E+00  0.00000000000E+00  0.37445652551E+03  0.37445652552E+03  0.25500000920E-02 0. -1.
        2   -1    0    0  501    0  0.00000000000E+00  0.00000000000E+00 -0.18944856134E+04  0.18944856134E+04  0.25500000920E-02 0.  1.
    10030    2    1    2    0    0  0.00000000000E+00  0.00000000000E+00 -0.15200290879E+04  0.22689421389E+04  0.16845207038E+04 0.  0.
        1    1    3    3  502    0  0.37744064799E+03 -0.72300675003E+02 -0.17695104555E+04  0.18107611887E+04  0.50400001928E-02 0.  1.
       -1    1    3    3    0  502 -0.37744064799E+03  0.72300675003E+02  0.24948136759E+03  0.45818095024E+03  0.50400001928E-02 0. -1.
</event>
<event>
 5   0  0.1126958E-04  0.1701318E+04  0.7818609E-02  0.8760613E-01
        1   -1    0    0  501    0  0.00000000000E+00  0.00000000000E+00  0.17450602727E+04  0.17450602727E+04  0.50400001928E-02 0. -1.
       -1   -1    0    0    0  501  0.00000000000E+00  0.00000000000E+00 -0.41466817046E+03  0.41466817049E+03  0.50400001928E-02 0.  1.
    10030    2    1    2    0    0  0.00000000000E+00  0.00000000000E+00  0.13303921022E+04  0.21597284432E+04  0.17013182544E+04 0.  0.
        4    1    3    3  502    0 -0.58647776391E+03  0.60810455648E+03  0.53906658177E+03  0.10021685046E+04  0.12699999809E+01 0.  1.
       -4    1    3    3    0  502  0.58647776391E+03 -0.60810455648E+03  0.79132552048E+03  0.11575599386E+04  0.12699999809E+01 0. -1.
</event>
<event>
 5   0  0.2288806E-04  0.1702934E+04  0.7818609E-02  0.8759693E-01
        2   -1    0    0  501    0  0.00000000000E+00  0.00000000000E+00  0.13722610397E+04  0.13722610397E+04  0.25500000920E-02 0.  1.
       -2   -1    0    0    0  501  0.00000000000E+00  0.00000000000E+00 -0.52832221817E+03  0.52832221818E+03  0.25500000920E-02 0. -1.
    10030    2    1    2    0    0  0.00000000000E+00  0.00000000000E+00  0.84393882150E+03  0.19005832579E+04  0.17029339346E+04 0.  0.
        3    1    3    3  502    0  0.65199832491E+02  0.48818285915E+02 -0.52396428756E+03  0.53025732247E+03  0.10100000352E+00 0. -1.
       -3    1    3    3    0  502 -0.65199832491E+02 -0.48818285915E+02  0.13679031091E+04  0.13703259354E+04  0.10100000352E+00 0.  1.
</event>
<event>
 5   0  0.1126958E-04  0.1670119E+04  0.7818609E-02  0.8778592E-01
        1   -1    0    0  501    0  0.00000000000E+00  0.00000000000E+00  0.17520691115E+04  0.17520691115E+04  0.50400001928E-02 0.  1.
       -1   -1    0    0    0  501  0.00000000000E+00  0.00000000000E+00 -0.39800055577E+03  0.39800055580E+03  0.50400001928E-02 0. -1.
    10030    2    1    2    0    0  0.00000000000E+00  0.00000000000E+00  0.13540685558E+04  0.21500696673E+04  0.16701191337E+04 0.  0.
        4    1    3    3  502    0  0.72277513001E+02 -0.50744936622E+03 -0.17165150783E+03  0.54055041504E+03  0.12699999809E+01 0. -1.
       -4    1    3    3    0  502 -0.72277513001E+02  0.50744936622E+03  0.15257200636E+04  0.16095192523E+04  0.12699999809E+01 0.  1.
</event>
<event>
 5   0  0.2288806E-04  0.1696580E+04  0.7818609E-02  0.8763317E-01
       -2   -1    0    0    0  501  0.00000000000E+00  0.00000000000E+00  0.30281842614E+03  0.30281842615E+03  0.25500000920E-02 0.  1.
        2   -1    0    0  501    0  0.00000000000E+00  0.00000000000E+00 -0.23763272005E+04  0.23763272005E+04  0.25500000920E-02 0. -1.
    10030    2    1    2    0    0  0.00000000000E+00  0.00000000000E+00 -0.20735087744E+04  0.26791456267E+04  0.16965796921E+04 0.  0.
        3    1    3    3  502    0  0.38794431900E+03  0.49141382201E+03 -0.13289920863E+03  0.64003949016E+03  0.10100000352E+00 0.  1.
       -3    1    3    3    0  502 -0.38794431900E+03 -0.49141382201E+03 -0.19406095657E+04  0.20391061365E+04  0.10100000352E+00 0. -1.
</event>
<event>
 5   0  0.2242967E-04  0.1701409E+04  0.7818609E-02  0.8760561E-01
       -2   -1    0    0    0  501  0.00000000000E+00  0.00000000000E+00  0.11870398081E+04  0.11870398081E+04  0.25500000920E-02 0.  1.
        2   -1    0    0  501    0  0.00000000000E+00  0.00000000000E+00 -0.60966621084E+03  0.60966621084E+03  0.25500000920E-02 0. -1.
    10030    2    1    2    0    0  0.00000000000E+00  0.00000000000E+00  0.57737359726E+03  0.17967060189E+04  0.17014089008E+04 0.  0.
        4    1    3    3  502    0 -0.30844188536E+03  0.78440419529E+03  0.16703862404E+03  0.85926122516E+03  0.12699999809E+01 0. -1.
       -4    1    3    3    0  502  0.30844188536E+03 -0.78440419529E+03  0.41033497321E+03  0.93744479378E+03  0.12699999809E+01 0.  1.
</event>
<event>
 5   0  0.2224454E-04  0.1703076E+04  0.7818609E-02  0.8759612E-01
       -2   -1    0    0    0  501  0.00000000000E+00  0.00000000000E+00  0.13980763565E+04  0.13980763565E+04  0.25500000920E-02 0. -1.
        2   -1    0    0  501    0  0.00000000000E+00  0.00000000000E+00 -0.51865345108E+03  0.51865345109E+03  0.25500000920E-02 0.  1.
    10030    2    1    2    0    0  0.00000000000E+00  0.00000000000E+00  0.87942290541E+03  0.19167298076E+04  0.17030761899E+04 0.  0.
        2    1    3    3  502    0 -0.78214888678E+03  0.16683294100E+03  0.11057310918E+03  0.80735154907E+03  0.25500000920E-02 0.  1.
       -2    1    3    3    0  502  0.78214888678E+03 -0.16683294100E+03  0.76884979623E+03  0.11093782585E+04  0.25500000920E-02 0. -1.
</event>
<event>
 5   0  0.2224454E-04  0.1702254E+04  0.7818609E-02  0.8760080E-01
        2   -1    0    0  501    0  0.00000000000E+00  0.00000000000E+00  0.26229645671E+04  0.26229645671E+04  0.25500000920E-02 0. -1.
       -2   -1    0    0    0  501  0.00000000000E+00  0.00000000000E+00 -0.27618256168E+03  0.27618256169E+03  0.25500000920E-02 0.  1.
    10030    2    1    2    0    0  0.00000000000E+00  0.00000000000E+00  0.23467820055E+04  0.28991471288E+04  0.17022538863E+04 0.  0.
        2    1    3    3  502    0  0.84587604165E+03  0.82780115303E+02  0.12506581317E+04  0.15121192373E+04  0.25500000920E-02 0. -1.
       -2    1    3    3    0  502 -0.84587604165E+03 -0.82780115303E+02  0.10961238737E+04  0.13870278915E+04  0.25500000920E-02 0.  1.
</event>
<event>
 5   0  0.1126958E-04  0.1695438E+04  0.7818609E-02  0.8763970E-01
       -1   -1    0    0    0  501  0.00000000000E+00  0.00000000000E+00  0.37374012747E+03  0.37374012750E+03  0.50400001928E-02 0. -1.
        1   -1    0    0  501    0  0.00000000000E+00  0.00000000000E+00 -0.19228002631E+04  0.19228002631E+04  0.50400001928E-02 0.  1.
    10030    2    1    2    0    0  0.00000000000E+00  0.00000000000E+00 -0.15490601356E+04  0.22965403906E+04  0.16954381327E+04 0.  0.
        4    1    3    3  502    0  0.74591109719E+03 -0.96493168615E+02 -0.24481673045E+03  0.79096848288E+03  0.12699999809E+01 0.  1.
       -4    1    3    3    0  502 -0.74591109719E+03  0.96493168615E+02 -0.13042434052E+04  0.15055719077E+04  0.12699999809E+01 0. -1.
</event>
<event>
 5   0  0.2224454E-04  0.1700925E+04  0.7818609E-02  0.8760837E-01
        2   -1    0    0  501    0  0.00000000000E+00  0.00000000000E+00  0.15278720243E+04  0.15278720243E+04  0.25500000920E-02 0. -1.
       -2   -1    0    0    0  501  0.00000000000E+00  0.00000000000E+00 -0.47339481037E+03  0.47339481038E+03  0.25500000920E-02 0.  1.
    10030    2    1    2    0    0  0.00000000000E+00  0.00000000000E+00  0.10544772139E+04  0.20012668347E+04  0.17009252626E+04 0.  0.
        2    1    3    3  502    0 -0.25868708132E+03  0.67333240947E+03 -0.28620178664E+01  0.72132082379E+03  0.25500000920E-02 0.  1.
       -2    1    3    3    0  502  0.25868708132E+03 -0.67333240947E+03  0.10573392318E+04  0.12799460109E+04  0.25500000920E-02 0. -1.
</event>
<event>
 5   0  0.2356829E-04  0.1713290E+04  0.7818609E-02  0.8753821E-01
       -2   -1    0    0    0  501  0.00000000000E+00  0.00000000000E+00  0.70876450776E+03  0.70876450776E+03  0.25500000920E-02 0.  1.
        2   -1    0    0  501    0  0.00000000000E+00  0.00000000000E+00 -0.10353803556E+04  0.10353803556E+04  0.25500000920E-02 0. -1.
    10030    2    1    2    0    0  0.00000000000E+00  0.00000000000E+00 -0.32661584780E+03  0.17441448633E+04  0.17132902242E+04 0.  0.
        5    1    3    3  502    0 -0.52101844232E+03 -0.22505191780E+03 -0.81650978973E+03  0.99439373976E+03  0.46999998093E+01 0. -1.
       -5    1    3    3    0  502  0.52101844232E+03  0.22505191780E+03  0.48989394193E+03  0.74975112356E+03  0.46999998093E+01 0.  1.
</event>
<event>
 5   0  0.2356829E-04  0.1705404E+04  0.7818609E-02  0.8758288E-01
       -2   -1    0    0    0  501  0.00000000000E+00  0.00000000000E+00  0.70596429490E+03  0.70596429490E+03  0.25500000920E-02 0. -1.
        2   -1    0    0  501    0  0.00000000000E+00  0.00000000000E+00 -0.10299392500E+04  0.10299392500E+04  0.25500000920E-02 0.  1.
    10030    2    1    2    0    0  0.00000000000E+00  0.00000000000E+00 -0.32397495515E+03  0.17359035449E+04  0.17054035727E+04 0.  0.
        5    1    3    3  502    0 -0.37372347901E+03  0.72891802523E+03  0.79076068618E+02  0.82296162784E+03  0.46999998093E+01 0. -1.
       -5    1    3    3    0  502  0.37372347901E+03 -0.72891802523E+03 -0.40305102376E+03  0.91294191711E+03  0.46999998093E+01 0.  1.
</event>
<event>
 5   0  0.2288806E-04  0.1705782E+04  0.7818609E-02  0.8758074E-01
        2   -1    0    0  501    0  0.00000000000E+00  0.00000000000E+00  0.14790658758E+04  0.14790658758E+04  0.25500000920E-02 0. -1.
       -2   -1    0    0    0  501  0.00000000000E+00  0.00000000000E+00 -0.49181234250E+03  0.49181234251E+03  0.25500000920E-02 0.  1.
    10030    2    1    2    0    0  0.00000000000E+00  0.00000000000E+00  0.98725353331E+03  0.19708782183E+04  0.17057817599E+04 0.  0.
        3    1    3    3  502    0 -0.83252101590E+03 -0.18477897162E+03  0.50948296635E+03  0.99338180649E+03  0.10100000352E+00 0. -1.
       -3    1    3    3    0  502  0.83252101590E+03  0.18477897162E+03  0.47777056696E+03  0.97749641183E+03  0.10100000352E+00 0.  1.
</event>
<event>
 5   0  0.1234158E-04  0.1669106E+04  0.7818609E-02  0.8779183E-01
       -1   -1    0    0    0  501  0.00000000000E+00  0.00000000000E+00  0.10863615408E+04  0.10863615408E+04  0.50400001928E-02 0.  1.
        1   -1    0    0  501    0  0.00000000000E+00  0.00000000000E+00 -0.64111153874E+03  0.64111153876E+03  0.50400001928E-02 0. -1.
    10030    2    1    2    0    0  0.00000000000E+00  0.00000000000E+00  0.44525000210E+03  0.17274730796E+04  0.16691062508E+04 0.  0.
        5    1    3    3  502    0  0.14840361400E+03 -0.56176469931E+03  0.84261683573E+03  0.10235372157E+04  0.46999998093E+01 0.  1.
       -5    1    3    3    0  502 -0.14840361400E+03  0.56176469931E+03 -0.39736683363E+03  0.70393586392E+03  0.46999998093E+01 0. -1.
</event>
<event>
 5   0  0.1204741E-04  0.1721847E+04  0.7818609E-02  0.8749001E-01
        1   -1    0    0  501    0  0.00000000000E+00  0.00000000000E+00  0.20481498012E+04  0.20481498012E+04  0.50400001928E-02 0.  1.
       -1   -1    0    0    0  501  0.00000000000E+00  0.00000000000E+00 -0.36188232903E+03  0.36188232907E+03  0.50400001928E-02 0. -1.
    10030    2    1    2    0    0  0.00000000000E+00  0.00000000000E+00  0.16862674722E+04  0.24100321303E+04  0.17218469390E+04 0.  0.
        1    1    3    3  502    0 -0.35255306589E+03  0.66038386697E+02 -0.25231879361E+03  0.43854247961E+03  0.50400001928E-02 0. -1.
       -1    1    3    3    0  502  0.35255306589E+03 -0.66038386697E+02  0.19385862658E+04  0.19714896507E+04  0.50400001928E-02 0.  1.
</event>
<event>
 5   0  0.2288806E-04  0.1705068E+04  0.7818609E-02  0.8758479E-01
       -2   -1    0    0    0  501  0.00000000000E+00  0.00000000000E+00  0.53085530603E+03  0.53085530603E+03  0.25500000920E-02 0. -1.
        2   -1    0    0  501    0  0.00000000000E+00  0.00000000000E+00 -0.13691375994E+04  0.13691375994E+04  0.25500000920E-02 0.  1.
    10030    2    1    2    0    0  0.00000000000E+00  0.00000000000E+00 -0.83828229334E+03  0.18999929054E+04  0.17050676929E+04 0.  0.
        3    1    3    3  502    0  0.55584405976E+03 -0.76527182853E+01  0.30112136613E+03  0.63221457608E+03  0.10100000352E+00 0. -1.
       -3    1    3    3    0  502 -0.55584405976E+03  0.76527182853E+01 -0.11394036595E+04  0.12677783293E+04  0.10100000352E+00 0.  1.
</event>
<event>
 5   0  0.1215233E-04  0.1709691E+04  0.7818609E-02  0.8755856E-01
        1   -1    0    0  501    0  0.00000000000E+00  0.00000000000E+00  0.80501283780E+03  0.80501283781E+03  0.50400001928E-02 0. -1.
       -1   -1    0    0    0  501  0.00000000000E+00  0.00000000000E+00 -0.90776309811E+03  0.90776309812E+03  0.50400001928E-02 0.  1.
    10030    2    1    2    0    0  0.00000000000E+00  0.00000000000E+00 -0.10275026031E+03  0.17127759359E+04  0.17096911390E+04 0.  0.
        2    1    3    3  502    0 -0.29849818485E+03 -0.44963427261E+03  0.61276052834E+03  0.81654614724E+03  0.25500000920E-02 0. -1.
       -2    1    3    3    0  502  0.29849818485E+03  0.44963427261E+03 -0.71551078865E+03  0.89622978870E+03  0.25500000920E-02 0.  1.
</event>
<event>
 5   0  0.2242967E-04  0.1692691E+04  0.7818609E-02  0.8765544E-01
        2   -1    0    0  501    0  0.00000000000E+00  0.00000000000E+00  0.13947835325E+04  0.13947835325E+04  0.25500000920E-02 0. -1.
       -2   -1    0    0    0  501  0.00000000000E+00  0.00000000000E+00 -0.51355692036E+03  0.51355692036E+03  0.25500000920E-02 0.  1.
    10030    2    1    2    0    0  0.00000000000E+00  0.00000000000E+00  0.88122661216E+03  0.19083404529E+04  0.16926910356E+04 0.  0.
        4    1    3    3  502    0  0.48643721877E+03 -0.14933454935E+03  0.12030703711E+04  0.13062549162E+04  0.12699999809E+01 0. -1.
       -4    1    3    3    0  502 -0.48643721877E+03  0.14933454935E+03 -0.32184375891E+03  0.60208553668E+03  0.12699999809E+01 0.  1.
</event>
<event>
 5   0  0.1126958E-04  0.1673820E+04  0.7818609E-02  0.8776438E-01
       -1   -1    0    0    0  501  0.00000000000E+00  0.00000000000E+00  0.39520277021E+03  0.39520277025E+03  0.50400001928E-02 0. -1.
        1   -1    0    0  501    0  0.00000000000E+00  0.00000000000E+00 -0.17723006929E+04  0.17723006929E+04  0.50400001928E-02 0.  1.
    10030    2    1    2    0    0  0.00000000000E+00  0.00000000000E+00 -0.13770979227E+04  0.21675034632E+04  0.16738197556E+04 0.  0.
        4    1    3    3  502    0  0.51758345743E+03  0.81821656302E+01 -0.15401232685E+04  0.16247894874E+04  0.12699999809E+01 0.  1.
       -4    1    3    3    0  502 -0.51758345743E+03 -0.81821656302E+01  0.16302534580E+03  0.54271397578E+03  0.12699999809E+01 0. -1.
</event>
<event>
 5   0  0.2242967E-04  0.1696613E+04  0.7818609E-02  0.8763299E-01
       -2   -1    0    0    0  501  0.00000000000E+00  0.00000000000E+00  0.56502935391E+03  0.56502935391E+03  0.25500000920E-02 0.  1.
        2   -1    0    0  501    0  0.00000000000E+00  0.00000000000E+00 -0.12736041413E+04  0.12736041413E+04  0.25500000920E-02 0. -1.
    10030    2    1    2    0    0  0.00000000000E+00  0.00000000000E+00 -0.70857478738E+03  0.18386334952E+04  0.16966127727E+04 0.  0.
        4    1    3    3  502    0  0.64966544632E+03  0.41579983594E+03  0.28351326404E+02  0.77185497752E+03  0.12699999809E+01 0.  1.
       -4    1    3    3    0  502 -0.64966544632E+03 -0.41579983594E+03 -0.73692611378E+03  0.10667785177E+04  0.12699999809E+01 0. -1.
</event>
<event>
 5   0  0.2234723E-04  0.1714966E+04  0.7818609E-02  0.8752874E-01
       -2   -1    0    0    0  501  0.00000000000E+00  0.00000000000E+00  0.94932196637E+03  0.94932196638E+03  0.25500000920E-02 0.  1.
        2   -1    0    0  501    0  0.00000000000E+00  0.00000000000E+00 -0.77452905982E+03  0.77452905982E+03  0.25500000920E-02 0. -1.
    10030    2    1    2    0    0  0.00000000000E+00  0.00000000000E+00  0.17479290656E+03  0.17238510262E+04  0.17149664138E+04 0.  0.
        1    1    3    3  502    0  0.84927650514E+03 -0.11819335949E+03  0.81265868745E+02  0.86130389170E+03  0.50400001928E-02 0.  1.
       -1    1    3    3    0  502 -0.84927650514E+03  0.11819335949E+03  0.93527037813E+02  0.86254713450E+03  0.50400001928E-02 0. -1.
</event>
<event>
 5   0  0.2224454E-04  0.1709783E+04  0.7818609E-02  0.8755804E-01
       -2   -1    0    0    0  501  0.00000000000E+00  0.00000000000E+00  0.68082242301E+03  0.68082242302E+03  0.25500000920E-02 0.  1.
        2   -1    0    0  501    0  0.00000000000E+00  0.00000000000E+00 -0.10734658424E+04  0.10734658424E+04  0.25500000920E-02 0. -1.
    10030    2    1    2    0    0  0.00000000000E+00  0.00000000000E+00 -0.39264341935E+03  0.17542882654E+04  0.17097831627E+04 0.  0.
        2    1    3    3  502    0  0.67767043184E+02  0.53872656593E+03 -0.87382840473E+03  0.10287831481E+04  0.25500000920E-02 0. -1.
       -2    1    3    3    0  502 -0.67767043184E+02 -0.53872656593E+03  0.48118498538E+03  0.72550511724E+03  0.25500000920E-02 0.  1.
</event>
<event>
 5   0  0.1186302E-04  0.1691570E+04  0.7818609E-02  0.8766187E-01
       -1   -1    0    0    0  501  0.00000000000E+00  0.00000000000E+00  0.36024219292E+03  0.36024219296E+03  0.50400001928E-02 0. -1.
        1   -1    0    0  501    0  0.00000000000E+00  0.00000000000E+00 -0.19857539632E+04  0.19857539632E+04  0.50400001928E-02 0.  1.
    10030    2    1    2    0    0  0.00000000000E+00  0.00000000000E+00 -0.16255117703E+04  0.23459961562E+04  0.16915701137E+04 0.  0.
        3    1    3    3  502    0 -0.20268999941E+03  0.21776318666E+03  0.28528502892E+03  0.41217908639E+03  0.10100000352E+00 0. -1.
       -3    1    3    3    0  502  0.20268999941E+03 -0.21776318666E+03 -0.19107967992E+04  0.19338170698E+04  0.10100000352E+00 0.  1.
</event>
<event>
 5   0  0.1204741E-04  0.1698699E+04  0.7818609E-02  0.8762106E-01
        1   -1    0    0  501    0  0.00000000000E+00  0.00000000000E+00  0.77000103629E+03  0.77000103631E+03  0.50400001928E-02 0.  1.
       -1   -1    0    0    0  501  0.00000000000E+00  0.00000000000E+00 -0.93687528317E+03  0.93687528318E+03  0.50400001928E-02 0. -1.
    10030    2    1    2    0    0  0.00000000000E+00  0.00000000000E+00 -0.16687424687E+03  0.17068763195E+04  0.16986994307E+04 0.  0.
        1    1    3    3  502    0 -0.28139265818E+03 -0.25153458343E+03 -0.84798306926E+03  0.92818465863E+03  0.50400001928E-02 0. -1.
       -1    1    3    3    0  502  0.28139265818E+03  0.25153458343E+03  0.68110882238E+03  0.77869166086E+03  0.50400001928E-02 0.  1.
</event>
<event>
 5   0  0.1215233E-04  0.1684993E+04  0.7818609E-02  0.8769970E-01
       -1   -1    0    0    0  501  0.00000000000E+00  0.00000000000E+00  0.61579500195E+03  0.61579500197E+03  0.50400001928E-02 0. -1.
        1   -1    0    0  501    0  0.00000000000E+00  0.00000000000E+00 -0.11526571216E+04  0.11526571216E+04  0.50400001928E-02 0.  1.
    10030    2    1    2    0    0  0.00000000000E+00  0.00000000000E+00 -0.53686211963E+03  0.17684521236E+04  0.16849931685E+04 0.  0.
        2    1    3    3  502    0  0.34281698541E+03  0.67977181415E+03 -0.64711723913E+03  0.99918663221E+03  0.25500000920E-02 0.  1.
       -2    1    3    3    0  502 -0.34281698541E+03 -0.67977181415E+03  0.11025511950E+03  0.76926549135E+03  0.25500000920E-02 0. -1.
</event>
<event>
 5   0  0.2224454E-04  0.1699043E+04  0.7818609E-02  0.8761910E-01
        2   -1    0    0  501    0  0.00000000000E+00  0.00000000000E+00  0.72761393234E+03  0.72761393234E+03  0.25500000920E-02 0. -1.
       -2   -1    0    0    0  501  0.00000000000E+00  0.00000000000E+00 -0.99185435237E+03  0.99185435237E+03  0.25500000920E-02 0.  1.
    10030    2    1    2    0    0  0.00000000000E+00  0.00000000000E+00 -0.26424042003E+03  0.17194682847E+04  0.16990433139E+04 0.  0.
        2    1    3    3  502    0 -0.73576519582E+03  0.24754652026E+03  0.21707462510E+03  0.80607139631E+03  0.25500000920E-02 0. -1.
       -2    1    3    3    0  502  0.73576519582E+03 -0.24754652026E+03 -0.48131504513E+03  0.91339688841E+03  0.25500000920E-02 0.  1.
</event>
<event>
 5   0  0.2356829E-04  0.1711450E+04  0.7818609E-02  0.8754861E-01
       -2   -1    0    0    0  501  0.00000000000E+00  0.00000000000E+00  0.84659032676E+03  0.84659032676E+03  0.25500000920E-02 0.  1.
        2   -1    0    0  501    0  0.00000000000E+00  0.00000000000E+00 -0.86495803866E+03  0.86495803867E+03  0.25500000920E-02 0. -1.
    10030    2    1    2    0    0  0.00000000000E+00  0.00000000000E+00 -0.18367711905E+02  0.17115483654E+04  0.17114498048E+04 0.  0.
        5    1    3    3  502    0  0.58014963853E+03 -0.83421459533E+02  0.61431838761E+03  0.84908298437E+03  0.46999998093E+01 0.  1.
       -5    1    3    3    0  502 -0.58014963853E+03  0.83421459533E+02 -0.63268609952E+03  0.86246538105E+03  0.46999998093E+01 0. -1.
</event>
<event>
 5   0  0.1204741E-04  0.1638916E+04  0.7818609E-02  0.8796991E-01
       -1   -1    0    0    0  501  0.00000000000E+00  0.00000000000E+00  0.22033607426E+03  0.22033607431E+03  0.50400001928E-02 0. -1.
        1   -1    0    0  501    0  0.00000000000E+00  0.00000000000E+00 -0.30476682873E+04  0.30476682873E+04  0.50400001928E-02 0.  1.
    10030    2    1    2    0    0  0.00000000000E+00  0.00000000000E+00 -0.28273322130E+04  0.32680043616E+04  0.16389158199E+04 0.  0.
        1    1    3    3  502    0  0.18466454292E+03 -0.63216167550E+03 -0.44133234343E+03  0.79278219882E+03  0.50400001928E-02 0. -1.
       -1    1    3    3    0  502 -0.18466454292E+03  0.63216167550E+03 -0.23859998696E+04  0.24752221628E+04  0.50400001928E-02 0.  1.
</event>
<event>
 5   0  0.2234723E-04  0.1703601E+04  0.7818609E-02  0.8759313E-01
        2   -1    0    0  501    0  0.00000000000E+00  0.00000000000E+00  0.15647982525E+04  0.15647982525E+04  0.25500000920E-02 0.  1.
       -2   -1    0    0    0  501  0.00000000000E+00  0.00000000000E+00 -0.46367910715E+03  0.46367910716E+03  0.25500000920E-02 0. -1.
    10030    2    1    2    0    0  0.00000000000E+00  0.00000000000E+00  0.11011191453E+04  0.20284773596E+04  0.17036011935E+04 0.  0.
        1    1    3    3  502    0  0.29073368846E+03  0.75324745196E+03  0.22740698655E+03  0.83882163721E+03  0.50400001928E-02 0. -1.
       -1    1    3    3    0  502 -0.29073368846E+03 -0.75324745196E+03  0.87371215878E+03  0.11896557224E+04  0.50400001928E-02 0.  1.
</event>
<event>
 5   0  0.1204741E-04  0.1699271E+04  0.7818609E-02  0.8761780E-01
       -1   -1    0    0    0  501  0.00000000000E+00  0.00000000000E+00  0.74610575193E+03  0.74610575195E+03  0.50400001928E-02 0.  1.
        1   -1    0    0  501    0  0.00000000000E+00  0.00000000000E+00 -0.96753053828E+03  0.96753053829E+03  0.50400001928E-02 0. -1.
    10030    2    1    2    0    0  0.00000000000E+00  0.00000000000E+00 -0.22142478635E+03  0.17136362902E+04  0.16992705492E+04 0.  0.
        1    1    3    3  502    0  0.24266087810E+03  0.13397158557E+03  0.69922591196E+03  0.75216325587E+03  0.50400001928E-02 0.  1.
       -1    1    3    3    0  502 -0.24266087810E+03 -0.13397158557E+03 -0.92065069831E+03  0.96147303437E+03  0.50400001928E-02 0. -1.
</event>
<event>
 5   0  0.2356829E-04  0.1696290E+04  0.7818609E-02  0.8763483E-01
       -2   -1    0    0    0  501  0.00000000000E+00  0.00000000000E+00  0.56196876783E+03  0.56196876784E+03  0.25500000920E-02 0.  1.
        2   -1    0    0  501    0  0.00000000000E+00  0.00000000000E+00 -0.12800529640E+04  0.12800529640E+04  0.25500000920E-02 0. -1.
    10030    2    1    2    0    0  0.00000000000E+00  0.00000000000E+00 -0.71808419616E+03  0.18420217318E+04  0.16962898183E+04 0.  0.
        5    1    3    3  502    0  0.59076524053E+03 -0.60700185995E+03 -0.31204744382E+03  0.90269071369E+03  0.46999998093E+01 0. -1.
       -5    1    3    3    0  502 -0.59076524053E+03  0.60700185995E+03 -0.40603675235E+03  0.93933101815E+03  0.46999998093E+01 0.  1.
</event>
<event>
 5   0  0.2242967E-04  0.1699645E+04  0.7818609E-02  0.8761567E-01
       -2   -1    0    0    0  501  0.00000000000E+00  0.00000000000E+00  0.73966219143E+03  0.73966219143E+03  0.25500000920E-02 0. -1.
        2   -1    0    0  501    0  0.00000000000E+00  0.00000000000E+00 -0.97638921152E+03  0.97638921153E+03  0.25500000920E-02 0.  1.
    10030    2    1    2    0    0  0.00000000000E+00  0.00000000000E+00 -0.23672702009E+03  0.17160514030E+04  0.16996448851E+04 0.  0.
        4    1    3    3  502    0  0.82306058644E+03  0.12542062229E+03 -0.29041236388E+03  0.88175961318E+03  0.12699999809E+01 0.  1.
       -4    1    3    3    0  502 -0.82306058644E+03 -0.12542062229E+03  0.53685343791E+02  0.83429178977E+03  0.12699999809E+01 0. -1.
</event>
<event>
 5   0  0.2356829E-04  0.1685926E+04  0.7818609E-02  0.8769432E-01
       -2   -1    0    0    0  501  0.00000000000E+00  0.00000000000E+00  0.87199826293E+03  0.87199826293E+03  0.25500000920E-02 0.  1.
        2   -1    0    0  501    0  0.00000000000E+00  0.00000000000E+00 -0.81489433127E+03  0.81489433127E+03  0.25500000920E-02 0. -1.
    10030    2    1    2    0    0  0.00000000000E+00  0.00000000000E+00  0.57103931662E+02  0.16868925942E+04  0.16859257888E+04 0.  0.
        5    1    3    3  502    0  0.61071015430E+03 -0.20656116868E+02  0.60954903998E+03  0.86311394953E+03  0.46999998093E+01 0.  1.
       -5    1    3    3    0  502 -0.61071015430E+03  0.20656116868E+02 -0.55244510831E+03  0.82377864468E+03  0.46999998093E+01 0. -1.
</event>
<event>
 5   0  0.2356829E-04  0.1698533E+04  0.7818609E-02  0.8762201E-01
        2   -1    0    0  501    0  0.00000000000E+00  0.00000000000E+00  0.88556694047E+03  0.88556694047E+03  0.25500000920E-02 0.  1.
       -2   -1    0    0    0  501  0.00000000000E+00  0.00000000000E+00 -0.81445422497E+03  0.81445422498E+03  0.25500000920E-02 0. -1.
    10030    2    1    2    0    0  0.00000000000E+00  0.00000000000E+00  0.71112715499E+02  0.17000211655E+04  0.16985331744E+04 0.  0.
        5    1    3    3  502    0 -0.27551604083E+03  0.45772069928E+02 -0.76716087810E+03  0.81643252877E+03  0.46999998093E+01 0. -1.
       -5    1    3    3    0  502  0.27551604083E+03 -0.45772069928E+02  0.83827359360E+03  0.88358863668E+03  0.46999998093E+01 0.  1.
</event>
<event>
 5   0  0.8372750E-05  0.1569358E+04  0.7818609E-02  0.8839597E-01
       -4   -1    0    0    0  501  0.00000000000E+00  0.00000000000E+00  0.10791132919E+04  0.10791140393E+04  0.12699999809E+01 0. -1.
        4   -1    0    0  501    0  0.00000000000E+00  0.00000000000E+00 -0.57057926549E+03  0.57058067888E+03  0.12699999809E+01 0.  1.
    10030    2    1    2    0    0  0.00000000000E+00  0.00000000000E+00  0.50853402646E+03  0.16496947182E+04  0.15693584062E+04 0.  0.
        1    1    3    3  502    0 -0.36334254558E+03  0.65352459154E+03  0.41604065698E+01  0.74774962801E+03  0.50400001928E-02 0. -1.
       -1    1    3    3    0  502  0.36334254558E+03 -0.65352459154E+03  0.50437361989E+03  0.90194509015E+03  0.50400001928E-02 0.  1.
</event>
<event>
 5   0  0.2234723E-04  0.1730309E+04  0.7818609E-02  0.8744264E-01
        2   -1    0    0  501    0  0.00000000000E+00  0.00000000000E+00  0.13047339168E+04  0.13047339168E+04  0.25500000920E-02 0. -1.
       -2   -1    0    0    0  501  0.00000000000E+00  0.00000000000E+00 -0.57367460346E+03  0.57367460347E+03  0.25500000920E-02 0.  1.
    10030    2    1    2    0    0  0.00000000000E+00  0.00000000000E+00  0.73105931337E+03  0.18784085203E+04  0.17303094664E+04 0.  0.
        1    1    3    3  502    0  0.19631576123E+03 -0.38836027591E+03 -0.44622039584E+03  0.62327860840E+03  0.50400001928E-02 0.  1.
       -1    1    3    3    0  502 -0.19631576123E+03  0.38836027591E+03  0.11772797092E+04  0.12551299119E+04  0.50400001928E-02 0. -1.
</event>
<event>
 5   0  0.1215233E-04  0.1741760E+04  0.7818609E-02  0.8737899E-01
       -1   -1    0    0    0  501  0.00000000000E+00  0.00000000000E+00  0.61600953245E+03  0.61600953247E+03  0.50400001928E-02 0. -1.
        1   -1    0    0  501    0  0.00000000000E+00  0.00000000000E+00 -0.12312021346E+04  0.12312021346E+04  0.50400001928E-02 0.  1.
    10030    2    1    2    0    0  0.00000000000E+00  0.00000000000E+00 -0.61519260219E+03  0.18472116671E+04  0.17417603180E+04 0.  0.
        2    1    3    3  502    0 -0.28139572306E+03  0.62911092981E+03  0.25705508071E+03  0.73555518453E+03  0.25500000920E-02 0. -1.
       -2    1    3    3    0  502  0.28139572306E+03 -0.62911092981E+03 -0.87224768290E+03  0.11116564826E+04  0.25500000920E-02 0.  1.
</event>
<event>
 5   0  0.2242967E-04  0.1644164E+04  0.7818609E-02  0.8793866E-01
       -2   -1    0    0    0  501  0.00000000000E+00  0.00000000000E+00  0.29546535990E+03  0.29546535991E+03  0.25500000920E-02 0. -1.
        2   -1    0    0  501    0  0.00000000000E+00  0.00000000000E+00 -0.22873036289E+04  0.22873036289E+04  0.25500000920E-02 0.  1.
    10030    2    1    2    0    0  0.00000000000E+00  0.00000000000E+00 -0.19918382690E+04  0.25827689888E+04  0.16441642131E+04 0.  0.
        4    1    3    3  502    0  0.24920775729E+03 -0.28269966711E+03  0.15177753679E+03  0.40627778877E+03  0.12699999809E+01 0. -1.
       -4    1    3    3    0  502 -0.24920775729E+03  0.28269966711E+03 -0.21436158058E+04  0.21764912000E+04  0.12699999809E+01 0.  1.
</event>
<event>
 5   0  0.1186302E-04  0.1713425E+04  0.7818609E-02  0.8753744E-01
       -1   -1    0    0    0  501  0.00000000000E+00  0.00000000000E+00  0.47870634437E+03  0.47870634439E+03  0.50400001928E-02 0. -1.
        1   -1    0    0  501    0  0.00000000000E+00  0.00000000000E+00 -0.15332085666E+04  0.15332085667E+04  0.50400001928E-02 0.  1.
    10030    2    1    2    0    0  0.00000000000E+00  0.00000000000E+00 -0.10545022223E+04  0.20119149110E+04  0.17134254208E+04 0.  0.
        3    1    3    3  502    0  0.34758433099E+03 -0.72465203671E+03 -0.17888324640E+03  0.82336788102E+03  0.10100000352E+00 0. -1.
       -3    1    3    3    0  502 -0.34758433099E+03  0.72465203671E+03 -0.87561897588E+03  0.11885470300E+04  0.10100000352E+00 0.  1.
</event>
<event>
 5   0  0.2288806E-04  0.1711371E+04  0.7818609E-02  0.8754906E-01
        2   -1    0    0  501    0  0.00000000000E+00  0.00000000000E+00  0.22012956910E+04  0.22012956910E+04  0.25500000920E-02 0.  1.
       -2   -1    0    0    0  501  0.00000000000E+00  0.00000000000E+00 -0.33262119073E+03  0.33262119074E+03  0.25500000920E-02 0. -1.
    10030    2    1    2    0    0  0.00000000000E+00  0.00000000000E+00  0.18686745003E+04  0.25339168818E+04  0.17113709053E+04 0.  0.
        3    1    3    3  502    0 -0.44355589573E+03  0.30051344618E+03  0.19222080552E+04  0.19954783842E+04  0.10100000352E+00 0.  1.
       -3    1    3    3    0  502  0.44355589573E+03 -0.30051344618E+03 -0.53533554928E+02  0.53843849758E+03  0.10100000352E+00 0. -1.
</event>
<event>
 5   0  0.1126958E-04  0.1702105E+04  0.7818609E-02  0.8760165E-01
       -1   -1    0    0    0  501  0.00000000000E+00  0.00000000000E+00  0.14893898984E+04  0.14893898984E+04  0.50400001928E-02 0. -1.
        1   -1    0    0  501    0  0.00000000000E+00  0.00000000000E+00 -0.48629983290E+03  0.48629983292E+03  0.50400001928E-02 0.  1.
    10030    2    1    2    0    0  0.00000000000E+00  0.00000000000E+00  0.10030900655E+04  0.19756897313E+04  0.17021046486E+04 0.  0.
        4    1    3    3  502    0  0.78529348651E+03 -0.11449853357E+03  0.14473952553E+03  0.80668886027E+03  0.12699999809E+01 0. -1.
       -4    1    3    3    0  502 -0.78529348651E+03  0.11449853357E+03  0.85835053992E+03  0.11690008710E+04  0.12699999809E+01 0.  1.
</event>
<event>
 5   0  0.2234723E-04  0.1670675E+04  0.7818609E-02  0.8778268E-01
       -2   -1    0    0    0  501  0.00000000000E+00  0.00000000000E+00  0.80735692920E+03  0.80735692920E+03  0.25500000920E-02 0.  1.
        2   -1    0    0  501    0  0.00000000000E+00  0.00000000000E+00 -0.86428808324E+03  0.86428808325E+03  0.25500000920E-02 0. -1.
    10030    2    1    2    0    0  0.00000000000E+00  0.00000000000E+00 -0.56931154048E+02  0.16716450124E+04  0.16706752800E+04 0.  0.
        1    1    3    3  502    0 -0.64259433839E+03 -0.43305983472E+03 -0.34060926141E+03  0.84645317245E+03  0.50400001928E-02 0. -1.
       -1    1    3    3    0  502  0.64259433839E+03  0.43305983472E+03  0.28367810737E+03  0.82519183999E+03  0.50400001928E-02 0.  1.
</event>
<event>
 5   0  0.1234158E-04  0.1698993E+04  0.7818609E-02  0.8761939E-01
       -1   -1    0    0    0  501  0.00000000000E+00  0.00000000000E+00  0.54553022757E+03  0.54553022759E+03  0.50400001928E-02 0. -1.
        1   -1    0    0  501    0  0.00000000000E+00  0.00000000000E+00 -0.13228302943E+04  0.13228302943E+04  0.50400001928E-02 0.  1.
    10030    2    1    2    0    0  0.00000000000E+00  0.00000000000E+00 -0.77730006675E+03  0.18683605219E+04  0.16989925386E+04 0.  0.
        5    1    3    3  502    0  0.42632150593E+03 -0.41952529266E+03  0.27469965472E+03  0.65820474618E+03  0.46999998093E+01 0. -1.
       -5    1    3    3    0  502 -0.42632150593E+03  0.41952529266E+03 -0.10519997215E+04  0.12101557757E+04  0.46999998093E+01 0.  1.
</event>
<event>
 5   0  0.1126958E-04  0.1662893E+04  0.7818609E-02  0.8782816E-01
        1   -1    0    0  501    0  0.00000000000E+00  0.00000000000E+00  0.11532914460E+04  0.11532914460E+04  0.50400001928E-02 0.  1.
       -1   -1    0    0    0  501  0.00000000000E+00  0.00000000000E+00 -0.59941735123E+03  0.59941735126E+03  0.50400001928E-02 0. -1.
    10030    2    1    2    0    0  0.00000000000E+00  0.00000000000E+00  0.55387409477E+03  0.17527087973E+04  0.16628925447E+04 0.  0.
        4    1    3    3  502    0  0.44616472440E+03 -0.65575633809E+03  0.53985328287E+03  0.95943864638E+03  0.12699999809E+01 0.  1.
       -4    1    3    3    0  502 -0.44616472440E+03  0.65575633809E+03  0.14020811906E+02  0.79327015090E+03  0.12699999809E+01 0. -1.
</event>
<event>
 5   0  0.2288806E-04  0.1610367E+04  0.7818609E-02  0.8814205E-01
        2   -1    0    0  501    0  0.00000000000E+00  0.00000000000E+00  0.81515847772E+03  0.81515847772E+03  0.25500000920E-02 0. -1.
       -2   -1    0    0    0  501  0.00000000000E+00  0.00000000000E+00 -0.79533025966E+03  0.79533025967E+03  0.25500000920E-02 0.  1.
    10030    2    1    2    0    0  0.00000000000E+00  0.00000000000E+00  0.19828218055E+02  0.16104887374E+04  0.16103666710E+04 0.  0.
        3    1    3    3  502    0 -0.65379695095E+03 -0.36214860275E+03  0.30946666179E+03  0.80893243754E+03  0.10100000352E+00 0. -1.
       -3    1    3    3    0  502  0.65379695095E+03  0.36214860275E+03 -0.28963844374E+03  0.80155629985E+03  0.10100000352E+00 0.  1.
</event>
<event>
 5   0  0.1234158E-04  0.1662856E+04  0.7818609E-02  0.8782837E-01
        1   -1    0    0  501    0  0.00000000000E+00  0.00000000000E+00  0.62920885555E+03  0.62920885557E+03  0.50400001928E-02 0. -1.
       -1   -1    0    0    0  501  0.00000000000E+00  0.00000000000E+00 -0.10986370677E+04  0.10986370677E+04  0.50400001928E-02 0.  1.
    10030    2    1    2    0    0  0.00000000000E+00  0.00000000000E+00 -0.46942821216E+03  0.17278459233E+04  0.16628555825E+04 0.  0.
        5    1    3    3  502    0  0.11209667335E+03 -0.82295209851E+03 -0.19536230243E+03  0.85323170348E+03  0.46999998093E+01 0. -1.
       -5    1    3    3    0  502 -0.11209667335E+03  0.82295209851E+03 -0.27406590973E+03  0.87461421981E+03  0.46999998093E+01 0.  1.
</event>
<event>
 5   0  0.1186302E-04  0.1699973E+04  0.7818609E-02  0.8761380E-01
       -1   -1    0    0    0  501  0.00000000000E+00  0.00000000000E+00  0.60701721707E+03  0.60701721709E+03  0.50400001928E-02 0.  1.
        1   -1    0    0  501    0  0.00000000000E+00  0.00000000000E+00 -0.11902084280E+04  0.11902084280E+04  0.50400001928E-02 0. -1.
    10030    2    1    2    0    0  0.00000000000E+00  0.00000000000E+00 -0.58319121089E+03  0.17972256451E+04  0.16999729500E+04 0.  0.
        3    1    3    3  502    0 -0.23412879265E+03 -0.55191893242E+03 -0.92859870062E+03  0.11053173103E+04  0.10100000352E+00 0. -1.
       -3    1    3    3    0  502  0.23412879265E+03  0.55191893242E+03  0.34540748973E+03  0.69190833474E+03  0.10100000352E+00 0.  1.
</event>
<event>
 5   0  0.1215233E-04  0.1692195E+04  0.7818609E-02  0.8765828E-01
        1   -1    0    0  501    0  0.00000000000E+00  0.00000000000E+00  0.47622650491E+03  0.47622650494E+03  0.50400001928E-02 0.  1.
       -1   -1    0    0    0  501  0.00000000000E+00  0.00000000000E+00 -0.15032368672E+04  0.15032368672E+04  0.50400001928E-02 0. -1.
    10030    2    1    2    0    0  0.00000000000E+00  0.00000000000E+00 -0.10270103623E+04  0.19794633722E+04  0.16921953071E+04 0.  0.
        2    1    3    3  502    0 -0.10592819685E+03 -0.81046458654E+03 -0.76927276579E+03  0.11224322773E+04  0.25500000920E-02 0. -1.
       -2    1    3    3    0  502  0.10592819685E+03  0.81046458654E+03 -0.25773759653E+03  0.85703109488E+03  0.25500000920E-02 0.  1.
</event>
<event>
 5   0  0.2224454E-04  0.1690898E+04  0.7818609E-02  0.8766573E-01
       -2   -1    0    0    0  501  0.00000000000E+00  0.00000000000E+00  0.56508715305E+03  0.56508715306E+03  0.25500000920E-02 0.  1.
        2   -1    0    0  501    0  0.00000000000E+00  0.00000000000E+00 -0.12649086163E+04  0.12649086163E+04  0.25500000920E-02 0. -1.
    10030    2    1    2    0    0  0.00000000000E+00  0.00000000000E+00 -0.69982146325E+03  0.18299957694E+04  0.16908975236E+04 0.  0.
        2    1    3    3  502    0 -0.13635086118E+03 -0.66700733230E+03 -0.89244006764E+03  0.11224703172E+04  0.25500000920E-02 0. -1.
       -2    1    3    3    0  502  0.13635086118E+03  0.66700733230E+03  0.19261860439E+03  0.70752545216E+03  0.25500000920E-02 0.  1.
</event>
<event>
 5   0  0.1215233E-04  0.1701034E+04  0.7818609E-02  0.8760775E-01
        1   -1    0    0  501    0  0.00000000000E+00  0.00000000000E+00  0.15706168265E+04  0.15706168265E+04  0.50400001928E-02 0. -1.
       -1   -1    0    0    0  501  0.00000000000E+00  0.00000000000E+00 -0.46057012234E+03  0.46057012237E+03  0.50400001928E-02 0.  1.
    10030    2    1    2    0    0  0.00000000000E+00  0.00000000000E+00  0.11100467042E+04  0.20311869489E+04  0.17010340196E+04 0.  0.
        2    1    3    3  502    0  0.25279789602E+03 -0.80067038838E+03  0.71699462076E+03  0.11041110149E+04  0.25500000920E-02 0. -1.
       -2    1    3    3    0  502 -0.25279789602E+03  0.80067038838E+03  0.39305208342E+03  0.92707593397E+03  0.25500000920E-02 0.  1.
</event>
<event>
 5   0  0.1215233E-04  0.1681823E+04  0.7818609E-02  0.8771800E-01
       -1   -1    0    0    0  501  0.00000000000E+00  0.00000000000E+00  0.67515123755E+03  0.67515123757E+03  0.50400001928E-02 0. -1.
        1   -1    0    0  501    0  0.00000000000E+00  0.00000000000E+00 -0.10473688988E+04  0.10473688988E+04  0.50400001928E-02 0.  1.
    10030    2    1    2    0    0  0.00000000000E+00  0.00000000000E+00 -0.37221766128E+03  0.17225201364E+04  0.16818233061E+04 0.  0.
        2    1    3    3  502    0  0.33475161826E+03 -0.36002006234E+03  0.51264597065E+03  0.71026683890E+03  0.25500000920E-02 0. -1.
       -2    1    3    3    0  502 -0.33475161826E+03  0.36002006234E+03 -0.88486363193E+03  0.10122532975E+04  0.25500000920E-02 0.  1.
</event>
<event>
 5   0  0.1186302E-04  0.1660229E+04  0.7818609E-02  0.8784378E-01
       -1   -1    0    0    0  501  0.00000000000E+00  0.00000000000E+00  0.55947854444E+03  0.55947854446E+03  0.50400001928E-02 0.  1.
        1   -1    0    0  501    0  0.00000000000E+00  0.00000000000E+00 -0.12316652955E+04  0.12316652955E+04  0.50400001928E-02 0. -1.
    10030    2    1    2    0    0  0.00000000000E+00  0.00000000000E+00 -0.67218675105E+03  0.17911438400E+04  0.16602292695E+04 0.  0.
        3    1    3    3  502    0 -0.34195391570E+03  0.38542771070E+03  0.36607628907E+03  0.63205922211E+03  0.10100000352E+00 0.  1.
       -3    1    3    3    0  502  0.34195391570E+03 -0.38542771070E+03 -0.10382630401E+04  0.11590846178E+04  0.10100000352E+00 0. -1.
</event>
<event>
 5   0  0.2234723E-04  0.1697060E+04  0.7818609E-02  0.8763043E-01
        2   -1    0    0  501    0  0.00000000000E+00  0.00000000000E+00  0.12632294453E+04  0.12632294453E+04  0.25500000920E-02 0. -1.
       -2   -1    0    0    0  501  0.00000000000E+00  0.00000000000E+00 -0.56997029673E+03  0.56997029673E+03  0.25500000920E-02 0.  1.
    10030    2    1    2    0    0  0.00000000000E+00  0.00000000000E+00  0.69325914856E+03  0.18331997420E+04  0.16970601189E+04 0.  0.
        1    1    3    3  502    0 -0.56474403052E+03 -0.37875551411E+03  0.89490067331E+03  0.11239389550E+04  0.50400001928E-02 0. -1.
       -1    1    3    3    0  502  0.56474403052E+03  0.37875551411E+03 -0.20164152475E+03  0.70926078702E+03  0.50400001928E-02 0.  1.
</event>
<event>
 5   0  0.2242967E-04  0.1710048E+04  0.7818609E-02  0.8755654E-01
       -2   -1    0    0    0  501  0.00000000000E+00  0.00000000000E+00  0.10514191301E+04  0.10514191301E+04  0.25500000920E-02 0.  1.
        2   -1    0    0  501    0  0.00000000000E+00  0.00000000000E+00 -0.69531388713E+03  0.69531388713E+03  0.25500000920E-02 0. -1.
    10030    2    1    2    0    0  0.00000000000E+00  0.00000000000E+00  0.35610524298E+03  0.17467330172E+04  0.17100483296E+04 0.  0.
        4    1    3    3  502    0 -0.24659687782E+03  0.69787748088E+03  0.61527925810E+03  0.96250359834E+03  0.12699999809E+01 0.  1.
       -4    1    3    3    0  502  0.24659687782E+03 -0.69787748088E+03 -0.25917401511E+03  0.78422941891E+03  0.12699999809E+01 0. -1.
</event>
<event>
 5   0  0.1204741E-04  0.1720256E+04  0.7818609E-02  0.8749895E-01
        1   -1    0    0  501    0  0.00000000000E+00  0.00000000000E+00  0.67872080013E+03  0.67872080015E+03  0.50400001928E-02 0. -1.
       -1   -1    0    0    0  501  0.00000000000E+00  0.00000000000E+00 -0.10900207931E+04  0.10900207932E+04  0.50400001928E-02 0.  1.
    10030    2    1    2    0    0  0.00000000000E+00  0.00000000000E+00 -0.41129999301E+03  0.17687415933E+04  0.17202555449E+04 0.  0.
        1    1    3    3  502    0 -0.73587586389E+03  0.17973120576E+03 -0.62456859427E+03  0.98178537489E+03  0.50400001928E-02 0.  1.
       -1    1    3    3    0  502  0.73587586389E+03 -0.17973120576E+03  0.21326860126E+03  0.78695621841E+03  0.50400001928E-02 0. -1.
</event>
<event>
 5   0  0.2234723E-04  0.1700017E+04  0.7818609E-02  0.8761355E-01
       -2   -1    0    0    0  501  0.00000000000E+00  0.00000000000E+00  0.37321684291E+03  0.37321684292E+03  0.25500000920E-02 0. -1.
        2   -1    0    0  501    0  0.00000000000E+00  0.00000000000E+00 -0.19359107181E+04  0.19359107181E+04  0.25500000920E-02 0.  1.
    10030    2    1    2    0    0  0.00000000000E+00  0.00000000000E+00 -0.15626938752E+04  0.23091275610E+04  0.17000170427E+04 0.  0.
        1    1    3    3  502    0 -0.24312248264E+03 -0.23117622921E+03 -0.18421788407E+04  0.18724780030E+04  0.50400001928E-02 0.  1.
       -1    1    3    3    0  502  0.24312248264E+03  0.23117622921E+03  0.27948496554E+03  0.43664955800E+03  0.50400001928E-02 0. -1.
</event>
<event>
 5   0  0.2242967E-04  0.1723295E+04  0.7818609E-02  0.8748189E-01
        2   -1    0    0  501    0  0.00000000000E+00  0.00000000000E+00  0.16413124761E+04  0.16413124761E+04  0.25500000920E-02 0. -1.
       -2   -1    0    0    0  501  0.00000000000E+00  0.00000000000E+00 -0.45234326933E+03  0.45234326934E+03  0.25500000920E-02 0.  1.
    10030    2    1    2    0    0  0.00000000000E+00  0.00000000000E+00  0.11889692068E+04  0.20936557455E+04  0.17232952753E+04 0.  0.
        4    1    3    3  502    0 -0.42534018017E+03 -0.13255628431E+03 -0.30155025903E+03  0.53797733130E+03  0.12699999809E+01 0.  1.
       -4    1    3    3    0  502  0.42534018017E+03  0.13255628431E+03  0.14905194658E+04  0.15556784142E+04  0.12699999809E+01 0. -1.
</event>
<event>
 5   0  0.2356829E-04  0.1702692E+04  0.7818609E-02  0.8759830E-01
       -2   -1    0    0    0  501  0.00000000000E+00  0.00000000000E+00  0.69365807234E+03  0.69365807235E+03  0.25500000920E-02 0.  1.
        2   -1    0    0  501    0  0.00000000000E+00  0.00000000000E+00 -0.10448811360E+04  0.10448811360E+04  0.25500000920E-02 0. -1.
    10030    2    1    2    0    0  0.00000000000E+00  0.00000000000E+00 -0.35122306363E+03  0.17385392083E+04  0.17026922618E+04 0.  0.
        5    1    3    3  502    0  0.17846341158E+02  0.15671648189E+03 -0.10298184735E+04  0.10418381477E+04  0.46999998093E+01 0. -1.
       -5    1    3    3    0  502 -0.17846341158E+02 -0.15671648189E+03  0.67859540988E+03  0.69670106064E+03  0.46999998093E+01 0.  1.
</event>
<event>
 5   0  0.2234723E-04  0.1709170E+04  0.7818609E-02  0.8756152E-01
        2   -1    0    0  501    0  0.00000000000E+00  0.00000000000E+00  0.15614881147E+04  0.15614881147E+04  0.25500000920E-02 0. -1.
       -2   -1    0    0    0  501  0.00000000000E+00  0.00000000000E+00 -0.46770489052E+03  0.46770489053E+03  0.25500000920E-02 0.  1.
    10030    2    1    2    0    0  0.00000000000E+00  0.00000000000E+00  0.10937832241E+04  0.20291930052E+04  0.17091701235E+04 0.  0.
        1    1    3    3  502    0 -0.53455591705E+03  0.55960361552E+02 -0.24191578092E+03  0.58941058321E+03  0.50400001928E-02 0.  1.
       -1    1    3    3    0  502  0.53455591705E+03 -0.55960361552E+02  0.13356990051E+04  0.14397824220E+04  0.50400001928E-02 0. -1.
</event>
<event>
 5   0  0.2356829E-04  0.1693100E+04  0.7818609E-02  0.8765310E-01
        2   -1    0    0  501    0  0.00000000000E+00  0.00000000000E+00  0.70992084362E+03  0.70992084363E+03  0.25500000920E-02 0. -1.
       -2   -1    0    0    0  501  0.00000000000E+00  0.00000000000E+00 -0.10094741022E+04  0.10094741022E+04  0.25500000920E-02 0.  1.
    10030    2    1    2    0    0  0.00000000000E+00  0.00000000000E+00 -0.29955325857E+03  0.17193949458E+04  0.16930997682E+04 0.  0.
        5    1    3    3  502    0 -0.45983909648E+03 -0.69581889808E+03 -0.29697144230E+03  0.88534177644E+03  0.46999998093E+01 0.  1.
       -5    1    3    3    0  502  0.45983909648E+03  0.69581889808E+03 -0.25818162719E+01  0.83405316938E+03  0.46999998093E+01 0. -1.
</event>
<event>
 5   0  0.2234723E-04  0.1703314E+04  0.7818609E-02  0.8759476E-01
       -2   -1    0    0    0  501  0.00000000000E+00  0.00000000000E+00  0.52044462825E+03  0.52044462826E+03  0.25500000920E-02 0. -1.
        2   -1    0    0  501    0  0.00000000000E+00  0.00000000000E+00 -0.13936544018E+04  0.13936544018E+04  0.25500000920E-02 0.  1.
    10030    2    1    2    0    0  0.00000000000E+00  0.00000000000E+00 -0.87320977357E+03  0.19140990301E+04  0.17033143539E+04 0.  0.
        1    1    3    3  502    0 -0.45255456461E+03 -0.30728843138E+03  0.29692753863E+03  0.62241286718E+03  0.50400001928E-02 0. -1.
       -1    1    3    3    0  502  0.45255456461E+03  0.30728843138E+03 -0.11701373122E+04  0.12916861629E+04  0.50400001928E-02 0.  1.
</event>
<event>
 5   0  0.1126958E-04  0.1686184E+04  0.7818609E-02  0.8769283E-01
       -1   -1    0    0    0  501  0.00000000000E+00  0.00000000000E+00  0.37152839926E+03  0.37152839930E+03  0.50400001928E-02 0.  1.
        1   -1    0    0  501    0  0.00000000000E+00  0.00000000000E+00 -0.19131902277E+04  0.19131902277E+04  0.50400001928E-02 0. -1.
    10030    2    1    2    0    0  0.00000000000E+00  0.00000000000E+00 -0.15416618285E+04  0.22847186270E+04  0.16861844535E+04 0.  0.
        4    1    3    3  502    0 -0.41573442094E+03 -0.44141616977E+03 -0.15645199321E+04  0.16779176304E+04  0.12699999809E+01 0. -1.
       -4    1    3    3    0  502  0.41573442094E+03  0.44141616977E+03  0.22858103621E+02  0.60680099661E+03  0.12699999809E+01 0.  1.
</event>
<event>
 5   0  0.1186302E-04  0.1705684E+04  0.7818609E-02  0.8758129E-01
       -1   -1    0    0    0  501  0.00000000000E+00  0.00000000000E+00  0.77210921014E+03  0.77210921015E+03  0.50400001928E-02 0. -1.
        1   -1    0    0  501    0  0.00000000000E+00  0.00000000000E+00 -0.94201617535E+03  0.94201617537E+03  0.50400001928E-02 0.  1.
    10030    2    1    2    0    0  0.00000000000E+00  0.00000000000E+00 -0.16990696521E+03  0.17141253855E+04  0.17056838688E+04 0.  0.
        3    1    3    3  502    0  0.34628201312E+03  0.57025849668E+03  0.44893213884E+03  0.80414306011E+03  0.10100000352E+00 0. -1.
       -3    1    3    3    0  502 -0.34628201312E+03 -0.57025849668E+03 -0.61883910406E+03  0.90998232541E+03  0.10100000352E+00 0.  1.
</event>
<event>
 5   0  0.2234723E-04  0.1700712E+04  0.7818609E-02  0.8760958E-01
       -2   -1    0    0    0  501  0.00000000000E+00  0.00000000000E+00  0.48480717462E+03  0.48480717462E+03  0.25500000920E-02 0. -1.
        2   -1    0    0  501    0  0.00000000000E+00  0.00000000000E+00 -0.14915323752E+04  0.14915323752E+04  0.25500000920E-02 0.  1.
    10030    2    1    2    0    0  0.00000000000E+00  0.00000000000E+00 -0.10067252006E+04  0.19763395498E+04  0.17007123175E+04 0.  0.
        1    1    3    3  502    0  0.77411384598E+03 -0.28923177038E+03 -0.27037397068E+03  0.86948798013E+03  0.50400001928E-02 0. -1.
       -1    1    3    3    0  502 -0.77411384598E+03  0.28923177038E+03 -0.73635122992E+03  0.11068515697E+04  0.50400001928E-02 0.  1.
</event>
<event>
 5   0  0.1215233E-04  0.1606861E+04  0.7818609E-02  0.8816344E-01
       -1   -1    0    0    0  501  0.00000000000E+00  0.00000000000E+00  0.44057584223E+03  0.44057584225E+03  0.50400001928E-02 0. -1.
        1   -1    0    0  501    0  0.00000000000E+00  0.00000000000E+00 -0.14651299296E+04  0.14651299296E+04  0.50400001928E-02 0.  1.
    10030    2    1    2    0    0  0.00000000000E+00  0.00000000000E+00 -0.10245540873E+04  0.19057057718E+04  0.16068613540E+04 0.  0.
        2    1    3    3  502    0 -0.79114357323E+02 -0.50053326645E+03 -0.12516938305E+04  0.13503814564E+04  0.25500000920E-02 0.  1.
       -2    1    3    3    0  502  0.79114357323E+02  0.50053326645E+03  0.22713974320E+03  0.55532431543E+03  0.25500000920E-02 0. -1.
</event>
<event>
 5   0  0.2224454E-04  0.1716522E+04  0.7818609E-02  0.8751997E-01
        2   -1    0    0  501    0  0.00000000000E+00  0.00000000000E+00  0.17724994176E+04  0.17724994176E+04  0.25500000920E-02 0. -1.
       -2   -1    0    0    0  501  0.00000000000E+00  0.00000000000E+00 -0.41557813033E+03  0.41557813034E+03  0.25500000920E-02 0.  1.
    10030    2    1    2    0    0  0.00000000000E+00  0.00000000000E+00  0.13569212872E+04  0.21880775479E+04  0.17165220581E+04 0.  0.
        2    1    3    3  502    0 -0.11923243932E+03  0.69218875264E+03  0.49739723683E+02  0.70414180673E+03  0.25500000920E-02 0.  1.
       -2    1    3    3    0  502  0.11923243932E+03 -0.69218875264E+03  0.13071815636E+04  0.14839357412E+04  0.25500000920E-02 0. -1.
</event>
<event>
 5   0  0.1126958E-04  0.1704870E+04  0.7818609E-02  0.8758592E-01
       -1   -1    0    0    0  501  0.00000000000E+00  0.00000000000E+00  0.82594630538E+03  0.82594630540E+03  0.50400001928E-02 0.  1.
        1   -1    0    0  501    0  0.00000000000E+00  0.00000000000E+00 -0.87977292561E+03  0.87977292562E+03  0.50400001928E-02 0. -1.
    10030    2    1    2    0    0  0.00000000000E+00  0.00000000000E+00 -0.53826620225E+02  0.17057192310E+04  0.17048697282E+04 0.  0.
        4    1    3    3  502    0 -0.22529317654E+03 -0.27573434741E+03 -0.80180367764E+03  0.87731248488E+03  0.12699999809E+01 0. -1.
       -4    1    3    3    0  502  0.22529317654E+03  0.27573434741E+03  0.74797705742E+03  0.82840674615E+03  0.12699999809E+01 0.  1.
</event>
<event>
 5   0  0.2356829E-04  0.1718714E+04  0.7818609E-02  0.8750763E-01
        2   -1    0    0  501    0  0.00000000000E+00  0.00000000000E+00  0.12652219967E+04  0.12652219967E+04  0.25500000920E-02 0. -1.
       -2   -1    0    0    0  501  0.00000000000E+00  0.00000000000E+00 -0.58368732030E+03  0.58368732031E+03  0.25500000920E-02 0.  1.
    10030    2    1    2    0    0  0.00000000000E+00  0.00000000000E+00  0.68153467635E+03  0.18489093170E+04  0.17187135152E+04 0.  0.
        5    1    3    3  502    0  0.19491819255E+03 -0.51248818741E+03 -0.37104778254E+03  0.66206932488E+03  0.46999998093E+01 0.  1.
       -5    1    3    3    0  502 -0.19491819255E+03  0.51248818741E+03  0.10525824589E+04  0.11868399921E+04  0.46999998093E+01 0. -1.
</event>
<event>
 5   0  0.1126958E-04  0.1727739E+04  0.7818609E-02  0.8745700E-01
       -1   -1    0    0    0  501  0.00000000000E+00  0.00000000000E+00  0.50325316998E+03  0.50325317001E+03  0.50400001928E-02 0. -1.
        1   -1    0    0  501    0  0.00000000000E+00  0.00000000000E+00 -0.14828923485E+04  0.14828923485E+04  0.50400001928E-02 0.  1.
    10030    2    1    2    0    0  0.00000000000E+00  0.00000000000E+00 -0.97963917850E+03  0.19861455185E+04  0.17277387246E+04 0.  0.
        4    1    3    3  502    0  0.15081704824E+03 -0.69040877178E+02  0.48477458403E+03  0.51236748041E+03  0.12699999809E+01 0. -1.
       -4    1    3    3    0  502 -0.15081704824E+03  0.69040877178E+02 -0.14644137625E+04  0.14737780381E+04  0.12699999809E+01 0.  1.
</event>
<event>
 5   0  0.2234723E-04  0.1826777E+04  0.7818609E-02  0.8692188E-01
       -2   -1    0    0    0  501  0.00000000000E+00  0.00000000000E+00  0.38757305785E+03  0.38757305785E+03  0.25500000920E-02 0. -1.
        2   -1    0    0  501    0  0.00000000000E+00  0.00000000000E+00 -0.21525711353E+04  0.21525711353E+04  0.25500000920E-02 0.  1.
    10030    2    1    2    0    0  0.00000000000E+00  0.00000000000E+00 -0.17649980775E+04  0.25401441932E+04  0.18267770276E+04 0.  0.
        1    1    3    3  502    0  0.48065833065E+03 -0.48094223989E+03 -0.34472027340E+02  0.68082757701E+03  0.50400001928E-02 0. -1.
       -1    1    3    3    0  502 -0.48065833065E+03  0.48094223989E+03 -0.17305260501E+04  0.18593166162E+04  0.50400001928E-02 0.  1.
</event>
<event>
 5   0  0.1215233E-04  0.1689686E+04  0.7818609E-02  0.8767269E-01
        1   -1    0    0  501    0  0.00000000000E+00  0.00000000000E+00  0.29682899066E+04  0.29682899066E+04  0.50400001928E-02 0. -1.
       -1   -1    0    0    0  501  0.00000000000E+00  0.00000000000E+00 -0.24046160666E+03  0.24046160671E+03  0.50400001928E-02 0.  1.
    10030    2    1    2    0    0  0.00000000000E+00  0.00000000000E+00  0.27278282999E+04  0.32087515133E+04  0.16896860774E+04 0.  0.
        2    1    3    3  502    0 -0.44172032624E+02  0.72880279622E+03  0.21710658114E+04  0.22905526498E+04  0.25500000920E-02 0. -1.
       -2    1    3    3    0  502  0.44172032624E+02 -0.72880279622E+03  0.55676248853E+03  0.91819886347E+03  0.25500000920E-02 0.  1.
</event>
<event>
 5   0  0.1215233E-04  0.1697756E+04  0.7818609E-02  0.8762645E-01
       -1   -1    0    0    0  501  0.00000000000E+00  0.00000000000E+00  0.10384829940E+04  0.10384829941E+04  0.50400001928E-02 0. -1.
        1   -1    0    0  501    0  0.00000000000E+00  0.00000000000E+00 -0.69389085233E+03  0.69389085235E+03  0.50400001928E-02 0.  1.
    10030    2    1    2    0    0  0.00000000000E+00  0.00000000000E+00  0.34459214171E+03  0.17323738464E+04  0.16977559894E+04 0.  0.
        2    1    3    3  502    0  0.26141665972E+03 -0.67481409145E+03  0.62505641884E+03  0.95624696325E+03  0.25500000920E-02 0. -1.
       -2    1    3    3    0  502 -0.26141665972E+03  0.67481409145E+03 -0.28046427713E+03  0.77612688315E+03  0.25500000920E-02 0.  1.
</event>
<event>
 5   0  0.1186302E-04  0.1728770E+04  0.7818609E-02  0.8745124E-01
        1   -1    0    0  501    0  0.00000000000E+00  0.00000000000E+00  0.41213398608E+03  0.41213398611E+03  0.50400001928E-02 0. -1.
       -1   -1    0    0    0  501  0.00000000000E+00  0.00000000000E+00 -0.18129095650E+04  0.18129095650E+04  0.50400001928E-02 0.  1.
    10030    2    1    2    0    0  0.00000000000E+00  0.00000000000E+00 -0.14007755789E+04  0.22250435511E+04  0.17287702513E+04 0.  0.
        3    1    3    3  502    0 -0.11521796602E+02  0.75533172719E+03 -0.15966196015E+03  0.77210797277E+03  0.10100000352E+00 0. -1.
       -3    1    3    3    0  502  0.11521796602E+02 -0.75533172719E+03 -0.12411136187E+04  0.14529355783E+04  0.10100000352E+00 0.  1.
</event>
<event>
 5   0  0.1234158E-04  0.1745601E+04  0.7818609E-02  0.8735776E-01
       -1   -1    0    0    0  501  0.00000000000E+00  0.00000000000E+00  0.41784674693E+03  0.41784674696E+03  0.50400001928E-02 0. -1.
        1   -1    0    0  501    0  0.00000000000E+00  0.00000000000E+00 -0.18231098659E+04  0.18231098660E+04  0.50400001928E-02 0.  1.
    10030    2    1    2    0    0  0.00000000000E+00  0.00000000000E+00 -0.14052631190E+04  0.22409566129E+04  0.17456007869E+04 0.  0.
        5    1    3    3  502    0 -0.75900905129E+03  0.36632868972E+03 -0.99387281567E+03  0.13031103992E+04  0.46999998093E+01 0. -1.
       -5    1    3    3    0  502  0.75900905129E+03 -0.36632868972E+03 -0.41139030335E+03  0.93784621369E+03  0.46999998093E+01 0.  1.
</event>
<event>
 5   0  0.1126958E-04  0.1693649E+04  0.7818609E-02  0.8764995E-01
        1   -1    0    0  501    0  0.00000000000E+00  0.00000000000E+00  0.61984279765E+03  0.61984279767E+03  0.50400001928E-02 0. -1.
       -1   -1    0    0    0  501  0.00000000000E+00  0.00000000000E+00 -0.11569255170E+04  0.11569255171E+04  0.50400001928E-02 0.  1.
    10030    2    1    2    0    0  0.00000000000E+00  0.00000000000E+00 -0.53708271939E+03  0.17767683147E+04  0.16936492543E+04 0.  0.
        4    1    3    3  502    0  0.61978602129E+03 -0.57289208766E+03 -0.19608454114E+03  0.86648186159E+03  0.12699999809E+01 0.  1.
       -4    1    3    3    0  502 -0.61978602129E+03  0.57289208766E+03 -0.34099817825E+03  0.91028645313E+03  0.12699999809E+01 0. -1.
</event>
<event>
 5   0  0.2242967E-04  0.1752053E+04  0.7818609E-02  0.8732221E-01
       -2   -1    0    0    0  501  0.00000000000E+00  0.00000000000E+00  0.47559110055E+03  0.47559110056E+03  0.25500000920E-02 0.  1.
        2   -1    0    0  501    0  0.00000000000E+00  0.00000000000E+00 -0.16136183592E+04  0.16136183592E+04  0.25500000920E-02 0. -1.
    10030    2    1    2    0    0  0.00000000000E+00  0.00000000000E+00 -0.11380272587E+04  0.20892094598E+04  0.17520531172E+04 0.  0.
        4    1    3    3  502    0 -0.18852253283E+03  0.25392366299E+03 -0.15431702240E+04  0.15752440843E+04  0.12699999809E+01 0. -1.
       -4    1    3    3    0  502  0.18852253283E+03 -0.25392366299E+03  0.40514296529E+03  0.51396537552E+03  0.12699999809E+01 0.  1.
</event>
<event>
 5   0  0.2234723E-04  0.1716940E+04  0.7818609E-02  0.8751761E-01
        2   -1    0    0  501    0  0.00000000000E+00  0.00000000000E+00  0.42308850339E+03  0.42308850339E+03  0.25500000920E-02 0.  1.
       -2   -1    0    0    0  501  0.00000000000E+00  0.00000000000E+00 -0.17418833148E+04  0.17418833148E+04  0.25500000920E-02 0. -1.
    10030    2    1    2    0    0  0.00000000000E+00  0.00000000000E+00 -0.13187948114E+04  0.21649718182E+04  0.17169400744E+04 0.  0.
        1    1    3    3  502    0 -0.46332745075E+03  0.46863505961E+03 -0.13531246139E+04  0.15050705520E+04  0.50400001928E-02 0. -1.
       -1    1    3    3    0  502  0.46332745075E+03 -0.46863505961E+03  0.34329802523E+02  0.65990126617E+03  0.50400001928E-02 0.  1.
</event>
<event>
 5   0  0.2356829E-04  0.1693638E+04  0.7818609E-02  0.8765001E-01
        2   -1    0    0  501    0  0.00000000000E+00  0.00000000000E+00  0.10958792500E+04  0.10958792500E+04  0.25500000920E-02 0.  1.
       -2   -1    0    0    0  501  0.00000000000E+00  0.00000000000E+00 -0.65436284190E+03  0.65436284190E+03  0.25500000920E-02 0. -1.
    10030    2    1    2    0    0  0.00000000000E+00  0.00000000000E+00  0.44151640811E+03  0.17502420919E+04  0.16936382854E+04 0.  0.
        5    1    3    3  502    0  0.78509203008E+03  0.15097669290E+03  0.50922370932E+03  0.94788941002E+03  0.46999998093E+01 0.  1.
       -5    1    3    3    0  502 -0.78509203008E+03 -0.15097669290E+03 -0.67707301214E+02  0.80235268189E+03  0.46999998093E+01 0. -1.
</event>
<event>
 5   0  0.2224454E-04  0.1697212E+04  0.7818609E-02  0.8762956E-01
        2   -1    0    0  501    0  0.00000000000E+00  0.00000000000E+00  0.97927325455E+03  0.97927325456E+03  0.25500000920E-02 0. -1.
       -2   -1    0    0    0  501  0.00000000000E+00  0.00000000000E+00 -0.73537382138E+03  0.73537382138E+03  0.25500000920E-02 0.  1.
    10030    2    1    2    0    0  0.00000000000E+00  0.00000000000E+00  0.24389943317E+03  0.17146470759E+04  0.16972117315E+04 0.  0.
        2    1    3    3  502    0 -0.58674606717E+03  0.53527460334E+03 -0.18002231186E+03  0.81436962191E+03  0.25500000920E-02 0.  1.
       -2    1    3    3    0  502  0.58674606717E+03 -0.53527460334E+03  0.42392174503E+03  0.90027745403E+03  0.25500000920E-02 0. -1.
</event>
<event>
 5   0  0.1215233E-04  0.1723313E+04  0.7818609E-02  0.8748179E-01
       -1   -1    0    0    0  501  0.00000000000E+00  0.00000000000E+00  0.45459469355E+03  0.45459469358E+03  0.50400001928E-02 0.  1.
        1   -1    0    0  501    0  0.00000000000E+00  0.00000000000E+00 -0.16332175926E+04  0.16332175926E+04  0.50400001928E-02 0. -1.
    10030    2    1    2    0    0  0.00000000000E+00  0.00000000000E+00 -0.11786228991E+04  0.20878122862E+04  0.17233131475E+04 0.  0.
        2    1    3    3  502    0  0.57674967902E+03  0.64003383458E+03 -0.60504007808E+03  0.10527853522E+04  0.25500000920E-02 0.  1.
       -2    1    3    3    0  502 -0.57674967902E+03 -0.64003383458E+03 -0.57358282099E+03  0.10350269340E+04  0.25500000920E-02 0. -1.
</event>
<event>
 5   0  0.1204741E-04  0.1705913E+04  0.7818609E-02  0.8757999E-01
       -1   -1    0    0    0  501  0.00000000000E+00  0.00000000000E+00  0.66358877682E+03  0.66358877684E+03  0.50400001928E-02 0. -1.
        1   -1    0    0  501    0  0.00000000000E+00  0.00000000000E+00 -0.10963641222E+04  0.10963641222E+04  0.50400001928E-02 0.  1.
    10030    2    1    2    0    0  0.00000000000E+00  0.00000000000E+00 -0.43277534533E+03  0.17599528990E+04  0.17059131593E+04 0.  0.
        1    1    3    3  502    0 -0.52098532943E+03 -0.28514349239E+03  0.41521696253E+03  0.72466381912E+03  0.50400001928E-02 0. -1.
       -1    1    3    3    0  502  0.52098532943E+03  0.28514349239E+03 -0.84799230785E+03  0.10352890799E+04  0.50400001928E-02 0.  1.
</event>
<event>
 5   0  0.2356829E-04  0.1676020E+04  0.7818609E-02  0.8775160E-01
        2   -1    0    0  501    0  0.00000000000E+00  0.00000000000E+00  0.18198672550E+04  0.18198672550E+04  0.25500000920E-02 0.  1.
       -2   -1    0    0    0  501  0.00000000000E+00  0.00000000000E+00 -0.38588576626E+03  0.38588576627E+03  0.25500000920E-02 0. -1.
    10030    2    1    2    0    0  0.00000000000E+00  0.00000000000E+00  0.14339814887E+04  0.22057530212E+04  0.16760201314E+04 0.  0.
        5    1    3    3  502    0 -0.71857369219E+03  0.35300610845E+02  0.15147352254E+03  0.73522826541E+03  0.46999998093E+01 0. -1.
       -5    1    3    3    0  502  0.71857369219E+03 -0.35300610845E+02  0.12825079662E+04  0.14705247558E+04  0.46999998093E+01 0.  1.
</event>
<event>
 5   0  0.2234723E-04  0.1698673E+04  0.7818609E-02  0.8762122E-01
        2   -1    0    0  501    0  0.00000000000E+00  0.00000000000E+00  0.77548996103E+03  0.77548996103E+03  0.25500000920E-02 0. -1.
       -2   -1    0    0    0  501  0.00000000000E+00  0.00000000000E+00 -0.93021512372E+03  0.93021512373E+03  0.25500000920E-02 0.  1.
    10030    2    1    2    0    0  0.00000000000E+00  0.00000000000E+00 -0.15472516269E+03  0.17057050848E+04  0.16986729998E+04 0.  0.
        1    1    3    3  502    0  0.18891280115E+03 -0.10482115823E+03 -0.90216236753E+03  0.92767044745E+03  0.50400001928E-02 0.  1.
       -1    1    3    3    0  502 -0.18891280115E+03  0.10482115823E+03  0.74743720484E+03  0.77803463731E+03  0.50400001928E-02 0. -1.
</event>
<event>
 5   0  0.1234158E-04  0.1683430E+04  0.7818609E-02  0.8770872E-01
       -1   -1    0    0    0  501  0.00000000000E+00  0.00000000000E+00  0.61675220837E+03  0.61675220839E+03  0.50400001928E-02 0.  1.
        1   -1    0    0  501    0  0.00000000000E+00  0.00000000000E+00 -0.11487341732E+04  0.11487341732E+04  0.50400001928E-02 0. -1.
    10030    2    1    2    0    0  0.00000000000E+00  0.00000000000E+00 -0.53198196485E+03  0.17654863816E+04  0.16834302340E+04 0.  0.
        5    1    3    3  502    0 -0.60652879308E+03  0.37475194920E+03  0.20319254781E+03  0.74136731905E+03  0.46999998093E+01 0.  1.
       -5    1    3    3    0  502  0.60652879308E+03 -0.37475194920E+03 -0.73517451266E+03  0.10241190626E+04  0.46999998093E+01 0. -1.
</event>
<event>
 5   0  0.1186302E-04  0.1698181E+04  0.7818609E-02  0.8762403E-01
        1   -1    0    0  501    0  0.00000000000E+00  0.00000000000E+00  0.16691702951E+04  0.16691702951E+04  0.50400001928E-02 0. -1.
       -1   -1    0    0    0  501  0.00000000000E+00  0.00000000000E+00 -0.43192378171E+03  0.43192378174E+03  0.50400001928E-02 0.  1.
    10030    2    1    2    0    0  0.00000000000E+00  0.00000000000E+00  0.12372465134E+04  0.21010940768E+04  0.16981806102E+04 0.  0.
        3    1    3    3  502    0  0.59603599058E+03  0.18351514702E+03  0.13315455407E+04  0.14703571840E+04  0.10100000352E+00 0. -1.
       -3    1    3    3    0  502 -0.59603599058E+03 -0.18351514702E+03 -0.94299027346E+02  0.63073689286E+03  0.10100000352E+00 0.  1.
</event>
<event>
 5   0  0.2356829E-04  0.1698046E+04  0.7818609E-02  0.8762480E-01
        2   -1    0    0  501    0  0.00000000000E+00  0.00000000000E+00  0.16423420205E+04  0.16423420205E+04  0.25500000920E-02 0.  1.
       -2   -1    0    0    0  501  0.00000000000E+00  0.00000000000E+00 -0.43890967056E+03  0.43890967057E+03  0.25500000920E-02 0. -1.
    10030    2    1    2    0    0  0.00000000000E+00  0.00000000000E+00  0.12034323500E+04  0.20812516911E+04  0.16980456945E+04 0.  0.
        5    1    3    3  502    0  0.47058667706E+03  0.45389675448E+03  0.12655563851E+04  0.14244750395E+04  0.46999998093E+01 0.  1.
       -5    1    3    3    0  502 -0.47058667706E+03 -0.45389675448E+03 -0.62124035105E+02  0.65677665160E+03  0.46999998093E+01 0. -1.
</event>
<event>
 5   0  0.1186302E-04  0.1691116E+04  0.7818609E-02  0.8766448E-01
        1   -1    0    0  501    0  0.00000000000E+00  0.00000000000E+00  0.88462759552E+03  0.88462759554E+03  0.50400001928E-02 0. -1.
       -1   -1    0    0    0  501  0.00000000000E+00  0.00000000000E+00 -0.80821357344E+03  0.80821357346E+03  0.50400001928E-02 0.  1.
    10030    2    1    2    0    0  0.00000000000E+00  0.00000000000E+00  0.76414022078E+02  0.16928411690E+04  0.16911156438E+04 0.  0.
        3    1    3    3  502    0 -0.41105395149E+03  0.66151303899E+03 -0.29137529855E+03  0.83154340031E+03  0.10100000352E+00 0. -1.
       -3    1    3    3    0  502  0.41105395149E+03 -0.66151303899E+03  0.36778932062E+03  0.86129776869E+03  0.10100000352E+00 0.  1.
</event>
<event>
 5   0  0.2288806E-04  0.1707312E+04  0.7818609E-02  0.8757205E-01
        2   -1    0    0  501    0  0.00000000000E+00  0.00000000000E+00  0.56797588817E+03  0.56797588818E+03  0.25500000920E-02 0. -1.
       -2   -1    0    0    0  501  0.00000000000E+00  0.00000000000E+00 -0.12830276661E+04  0.12830276661E+04  0.25500000920E-02 0.  1.
    10030    2    1    2    0    0  0.00000000000E+00  0.00000000000E+00 -0.71505177788E+03  0.18510035542E+04  0.17073122482E+04 0.  0.
        3    1    3    3  502    0 -0.28357126569E+03 -0.43614089634E+03 -0.10913181491E+04  0.12089693367E+04  0.10100000352E+00 0.  1.
       -3    1    3    3    0  502  0.28357126569E+03  0.43614089634E+03  0.37626637126E+03  0.64203421756E+03  0.10100000352E+00 0. -1.
</event>
<event>
 5   0  0.1215233E-04  0.1709173E+04  0.7818609E-02  0.8756150E-01
       -1   -1    0    0    0  501  0.00000000000E+00  0.00000000000E+00  0.65940197077E+03  0.65940197079E+03  0.50400001928E-02 0.  1.
        1   -1    0    0  501    0  0.00000000000E+00  0.00000000000E+00 -0.11075467388E+04  0.11075467389E+04  0.50400001928E-02 0. -1.
    10030    2    1    2    0    0  0.00000000000E+00  0.00000000000E+00 -0.44814476807E+03  0.17669487096E+04  0.17091734872E+04 0.  0.
        2    1    3    3  502    0 -0.36770797361E+03  0.43374909323E+03  0.43543485382E+03  0.71620593523E+03  0.25500000920E-02 0.  1.
       -2    1    3    3    0  502  0.36770797361E+03 -0.43374909323E+03 -0.88357962190E+03  0.10507427744E+04  0.25500000920E-02 0. -1.
</event>
<event>
 5   0  0.2234723E-04  0.1698207E+04  0.7818609E-02  0.8762388E-01
       -2   -1    0    0    0  501  0.00000000000E+00  0.00000000000E+00  0.68056749598E+03  0.68056749599E+03  0.25500000920E-02 0. -1.
        2   -1    0    0  501    0  0.00000000000E+00  0.00000000000E+00 -0.10593753098E+04  0.10593753098E+04  0.25500000920E-02 0.  1.
    10030    2    1    2    0    0  0.00000000000E+00  0.00000000000E+00 -0.37880781381E+03  0.17399428058E+04  0.16982065857E+04 0.  0.
        1    1    3    3  502    0  0.67494690020E+03 -0.51498746937E+02 -0.71461409034E+03  0.98431638062E+03  0.50400001928E-02 0.  1.
       -1    1    3    3    0  502 -0.67494690020E+03  0.51498746937E+02  0.33580627652E+03  0.75562642517E+03  0.50400001928E-02 0. -1.
</event>
<event>
 5   0  0.1215233E-04  0.1693273E+04  0.7818609E-02  0.8765210E-01
       -1   -1    0    0    0  501  0.00000000000E+00  0.00000000000E+00  0.82454220901E+03  0.82454220902E+03  0.50400001928E-02 0.  1.
        1   -1    0    0  501    0  0.00000000000E+00  0.00000000000E+00 -0.86932278125E+03  0.86932278126E+03  0.50400001928E-02 0. -1.
    10030    2    1    2    0    0  0.00000000000E+00  0.00000000000E+00 -0.44780572236E+02  0.16938649903E+04  0.16932729566E+04 0.  0.
        2    1    3    3  502    0  0.38418703742E+03 -0.75413944502E+03 -0.44015988715E+02  0.84750421210E+03  0.25500000920E-02 0.  1.
       -2    1    3    3    0  502 -0.38418703742E+03  0.75413944502E+03 -0.76458352130E+00  0.84636077819E+03  0.25500000920E-02 0. -1.
</event>
<event>
 5   0  0.2242967E-04  0.1724812E+04  0.7818609E-02  0.8747338E-01
        2   -1    0    0  501    0  0.00000000000E+00  0.00000000000E+00  0.17711702642E+04  0.17711702642E+04  0.25500000920E-02 0.  1.
       -2   -1    0    0    0  501  0.00000000000E+00  0.00000000000E+00 -0.41991699538E+03  0.41991699538E+03  0.25500000920E-02 0. -1.
    10030    2    1    2    0    0  0.00000000000E+00  0.00000000000E+00  0.13512532688E+04  0.21910872596E+04  0.17248124485E+04 0.  0.
        4    1    3    3  502    0  0.60684008906E+03 -0.59176726758E+03  0.47356973725E+03  0.97093424165E+03  0.12699999809E+01 0.  1.
       -4    1    3    3    0  502 -0.60684008906E+03  0.59176726758E+03  0.87768353157E+03  0.12201530179E+04  0.12699999809E+01 0. -1.
</event>
<event>
 5   0  0.1126958E-04  0.1703758E+04  0.7818609E-02  0.8759224E-01
       -1   -1    0    0    0  501  0.00000000000E+00  0.00000000000E+00  0.74049465317E+03  0.74049465319E+03  0.50400001928E-02 0. -1.
        1   -1    0    0  501    0  0.00000000000E+00  0.00000000000E+00 -0.98001720999E+03  0.98001721000E+03  0.50400001928E-02 0.  1.
    10030    2    1    2    0    0  0.00000000000E+00  0.00000000000E+00 -0.23952255682E+03  0.17205118632E+04  0.17037576166E+04 0.  0.
        4    1    3    3  502    0 -0.75818738484E+03  0.28924862822E+03 -0.38150700230E+03  0.89669509041E+03  0.12699999809E+01 0.  1.
       -4    1    3    3    0  502  0.75818738484E+03 -0.28924862822E+03  0.14198444548E+03  0.82381677278E+03  0.12699999809E+01 0. -1.
</event>
<event>
 5   0  0.8372750E-05  0.1710303E+04  0.7818609E-02  0.8755510E-01
       -4   -1    0    0    0  501  0.00000000000E+00  0.00000000000E+00  0.72815818108E+03  0.72815928860E+03  0.12699999809E+01 0.  1.
        4   -1    0    0  501    0  0.00000000000E+00  0.00000000000E+00 -0.10042905602E+04  0.10042913632E+04  0.12699999809E+01 0. -1.
    10030    2    1    2    0    0  0.00000000000E+00  0.00000000000E+00 -0.27613237911E+03  0.17324506518E+04  0.17103029469E+04 0.  0.
        3    1    3    3  502    0 -0.47653438287E+03 -0.65381362826E+03  0.14251673699E+03  0.82150368781E+03  0.10100000352E+00 0.  1.
       -3    1    3    3    0  502  0.47653438287E+03  0.65381362826E+03 -0.41864911611E+03  0.91094696398E+03  0.10100000352E+00 0. -1.
</event>
<event>
 5   0  0.1234158E-04  0.1702535E+04  0.7818609E-02  0.8759920E-01
        1   -1    0    0  501    0  0.00000000000E+00  0.00000000000E+00  0.67833058128E+03  0.67833058130E+03  0.50400001928E-02 0.  1.
       -1   -1    0    0    0  501  0.00000000000E+00  0.00000000000E+00 -0.10682936636E+04  0.10682936636E+04  0.50400001928E-02 0. -1.
    10030    2    1    2    0    0  0.00000000000E+00  0.00000000000E+00 -0.38996308234E+03  0.17466242449E+04  0.17025348888E+04 0.  0.
        5    1    3    3  502    0 -0.80079796712E+03  0.19086397546E+03 -0.41721950029E+03  0.92293046471E+03  0.46999998093E+01 0. -1.
       -5    1    3    3    0  502  0.80079796712E+03 -0.19086397546E+03  0.27256417943E+02  0.82369378023E+03  0.46999998093E+01 0.  1.
</event>
<event>
 5   0  0.1215233E-04  0.1694922E+04  0.7818609E-02  0.8764266E-01
       -1   -1    0    0    0  501  0.00000000000E+00  0.00000000000E+00  0.76078567979E+03  0.76078567981E+03  0.50400001928E-02 0.  1.
        1   -1    0    0  501    0  0.00000000000E+00  0.00000000000E+00 -0.94401159945E+03  0.94401159946E+03  0.50400001928E-02 0. -1.
    10030    2    1    2    0    0  0.00000000000E+00  0.00000000000E+00 -0.18322591966E+03  0.17047972793E+04  0.16949224247E+04 0.  0.
        2    1    3    3  502    0  0.37821206284E+03 -0.64869548033E+03  0.30353760779E+03  0.80992917594E+03  0.25500000920E-02 0.  1.
       -2    1    3    3    0  502 -0.37821206284E+03  0.64869548033E+03 -0.48676352745E+03  0.89486810332E+03  0.25500000920E-02 0. -1.
</event>
<event>
 5   0  0.1186302E-04  0.1695637E+04  0.7818609E-02  0.8763857E-01
       -1   -1    0    0    0  501  0.00000000000E+00  0.00000000000E+00  0.34212165204E+03  0.34212165207E+03  0.50400001928E-02 0. -1.
        1   -1    0    0  501    0  0.00000000000E+00  0.00000000000E+00 -0.21009949306E+04  0.21009949306E+04  0.50400001928E-02 0.  1.
    10030    2    1    2    0    0  0.00000000000E+00  0.00000000000E+00 -0.17588732786E+04  0.24431165827E+04  0.16956365845E+04 0.  0.
        3    1    3    3  502    0 -0.84772964459E+03  0.59420167674E+01 -0.86398627434E+03  0.12104351079E+04  0.10100000352E+00 0. -1.
       -3    1    3    3    0  502  0.84772964459E+03 -0.59420167674E+01 -0.89488700426E+03  0.12326814749E+04  0.10100000352E+00 0.  1.
</event>
<event>
 5   0  0.1234158E-04  0.1701641E+04  0.7818609E-02  0.8760429E-01
       -1   -1    0    0    0  501  0.00000000000E+00  0.00000000000E+00  0.10115759264E+04  0.10115759265E+04  0.50400001928E-02 0. -1.
        1   -1    0    0  501    0  0.00000000000E+00  0.00000000000E+00 -0.71561205707E+03  0.71561205708E+03  0.50400001928E-02 0.  1.
    10030    2    1    2    0    0  0.00000000000E+00  0.00000000000E+00  0.29596386938E+03  0.17271879835E+04  0.17016414777E+04 0.  0.
        5    1    3    3  502    0  0.24076182179E+03  0.93388176000E+02 -0.67485878151E+03  0.72259537172E+03  0.46999998093E+01 0.  1.
       -5    1    3    3    0  502 -0.24076182179E+03 -0.93388176000E+02  0.97082265089E+03  0.10045926118E+04  0.46999998093E+01 0. -1.
</event>
<event>
 5   0  0.1234158E-04  0.1714112E+04  0.7818609E-02  0.8753356E-01
        1   -1    0    0  501    0  0.00000000000E+00  0.00000000000E+00  0.28832678542E+04  0.28832678542E+04  0.50400001928E-02 0. -1.
       -1   -1    0    0    0  501  0.00000000000E+00  0.00000000000E+00 -0.25476131836E+03  0.25476131841E+03  0.50400001928E-02 0.  1.
    10030    2    1    2    0    0  0.00000000000E+00  0.00000000000E+00  0.26285065358E+04  0.31380291726E+04  0.17141121548E+04 0.  0.
        5    1    3    3  502    0  0.75981404804E+03  0.23584139993E+03  0.18977405778E+04  0.20577609055E+04  0.46999998093E+01 0.  1.
       -5    1    3    3    0  502 -0.75981404804E+03 -0.23584139993E+03  0.73076595801E+03  0.10802682671E+04  0.46999998093E+01 0. -1.
</event>
<event>
 5   0  0.1234158E-04  0.1691823E+04  0.7818609E-02  0.8766042E-01
        1   -1    0    0  501    0  0.00000000000E+00  0.00000000000E+00  0.57496332785E+03  0.57496332787E+03  0.50400001928E-02 0. -1.
       -1   -1    0    0    0  501  0.00000000000E+00  0.00000000000E+00 -0.12445426258E+04  0.12445426258E+04  0.50400001928E-02 0.  1.
    10030    2    1    2    0    0  0.00000000000E+00  0.00000000000E+00 -0.66957929795E+03  0.18195059537E+04  0.16918231229E+04 0.  0.
        5    1    3    3  502    0  0.85009923182E+01 -0.50897943814E+03 -0.10613589187E+04  0.11771309102E+04  0.46999998093E+01 0.  1.
       -5    1    3    3    0  502 -0.85009923182E+01  0.50897943814E+03  0.39177962076E+03  0.64237504354E+03  0.46999998093E+01 0. -1.
</event>
<event>
 5   0  0.2242967E-04  0.1721003E+04  0.7818609E-02  0.8749476E-01
       -2   -1    0    0    0  501  0.00000000000E+00  0.00000000000E+00  0.70413657985E+03  0.70413657986E+03  0.25500000920E-02 0. -1.
        2   -1    0    0  501    0  0.00000000000E+00  0.00000000000E+00 -0.10515895309E+04  0.10515895309E+04  0.25500000920E-02 0.  1.
    10030    2    1    2    0    0  0.00000000000E+00  0.00000000000E+00 -0.34745295105E+03  0.17557261108E+04  0.17210027957E+04 0.  0.
        4    1    3    3  502    0  0.58729743550E+03 -0.33774303700E+03  0.36751753673E+03  0.77075248264E+03  0.12699999809E+01 0. -1.
       -4    1    3    3    0  502 -0.58729743550E+03  0.33774303700E+03 -0.71497048778E+03  0.98497362812E+03  0.12699999809E+01 0.  1.
</event>
<event>
 5   0  0.1126958E-04  0.1701009E+04  0.7818609E-02  0.8760789E-01
       -1   -1    0    0    0  501  0.00000000000E+00  0.00000000000E+00  0.79352036038E+03  0.79352036040E+03  0.50400001928E-02 0. -1.
        1   -1    0    0  501    0  0.00000000000E+00  0.00000000000E+00 -0.91158038118E+03  0.91158038119E+03  0.50400001928E-02 0.  1.
    10030    2    1    2    0    0  0.00000000000E+00  0.00000000000E+00 -0.11806002079E+03  0.17051007416E+04  0.17010086333E+04 0.  0.
        4    1    3    3  502    0 -0.54395695892E+03 -0.65295452700E+03 -0.25525175791E+02  0.85023051873E+03  0.12699999809E+01 0.  1.
       -4    1    3    3    0  502  0.54395695892E+03  0.65295452700E+03 -0.92534845003E+02  0.85487022285E+03  0.12699999809E+01 0. -1.
</event>
<event>
 5   0  0.2288806E-04  0.1699183E+04  0.7818609E-02  0.8761831E-01
       -2   -1    0    0    0  501  0.00000000000E+00  0.00000000000E+00  0.40873380077E+03  0.40873380078E+03  0.25500000920E-02 0. -1.
        2   -1    0    0  501    0  0.00000000000E+00  0.00000000000E+00 -0.17659549073E+04  0.17659549073E+04  0.25500000920E-02 0.  1.
    10030    2    1    2    0    0  0.00000000000E+00  0.00000000000E+00 -0.13572211065E+04  0.21746887081E+04  0.16991826991E+04 0.  0.
        3    1    3    3  502    0  0.49087541087E+03 -0.47385701721E+03 -0.13265533565E+04  0.14917248270E+04  0.10100000352E+00 0.  1.
       -3    1    3    3    0  502 -0.49087541087E+03  0.47385701721E+03 -0.30667750063E+02  0.68296388107E+03  0.10100000352E+00 0. -1.
</event>
<event>
 5   0  0.2234723E-04  0.1699626E+04  0.7818609E-02  0.8761578E-01
       -2   -1    0    0    0  501  0.00000000000E+00  0.00000000000E+00  0.68885903406E+03  0.68885903406E+03  0.25500000920E-02 0. -1.
        2   -1    0    0  501    0  0.00000000000E+00  0.00000000000E+00 -0.10483746668E+04  0.10483746668E+04  0.25500000920E-02 0.  1.
    10030    2    1    2    0    0  0.00000000000E+00  0.00000000000E+00 -0.35951563278E+03  0.17372337009E+04  0.16996262652E+04 0.  0.
        1    1    3    3  502    0  0.70961891363E+03  0.30184086745E+03 -0.54475222643E+03  0.94415141798E+03  0.50400001928E-02 0.  1.
       -1    1    3    3    0  502 -0.70961891363E+03 -0.30184086745E+03  0.18523659365E+03  0.79308228293E+03  0.50400001928E-02 0. -1.
</event>
<event>
 5   0  0.1126958E-04  0.1726059E+04  0.7818609E-02  0.8746640E-01
       -1   -1    0    0    0  501  0.00000000000E+00  0.00000000000E+00  0.65219454628E+03  0.65219454630E+03  0.50400001928E-02 0. -1.
        1   -1    0    0  501    0  0.00000000000E+00  0.00000000000E+00 -0.11420204854E+04  0.11420204854E+04  0.50400001928E-02 0.  1.
    10030    2    1    2    0    0  0.00000000000E+00  0.00000000000E+00 -0.48982593914E+03  0.17942150317E+04  0.17260585533E+04 0.  0.
        4    1    3    3  502    0  0.68083993908E+03  0.46374652307E+03 -0.51239466835E+03  0.97013080014E+03  0.12699999809E+01 0. -1.
       -4    1    3    3    0  502 -0.68083993908E+03 -0.46374652307E+03  0.22568729218E+02  0.82408423159E+03  0.12699999809E+01 0.  1.
</event>
<event>
 5   0  0.2234723E-04  0.1708959E+04  0.7818609E-02  0.8756271E-01
        2   -1    0    0  501    0  0.00000000000E+00  0.00000000000E+00  0.71261665578E+03  0.71261665579E+03  0.25500000920E-02 0.  1.
       -2   -1    0    0    0  501  0.00000000000E+00  0.00000000000E+00 -0.10245839362E+04  0.10245839362E+04  0.25500000920E-02 0. -1.
    10030    2    1    2    0    0  0.00000000000E+00  0.00000000000E+00 -0.31196728039E+03  0.17372005920E+04  0.17089594239E+04 0.  0.
        1    1    3    3  502    0 -0.35701782512E+02  0.18203606395E+03  0.69190078470E+03  0.71633682143E+03  0.50400001928E-02 0.  1.
       -1    1    3    3    0  502  0.35701782512E+02 -0.18203606395E+03 -0.10038680651E+04  0.10208637705E+04  0.50400001928E-02 0. -1.
</event>
<event>
 5   0  0.2234723E-04  0.1874273E+04  0.7818609E-02  0.8667769E-01
       -2   -1    0    0    0  501  0.00000000000E+00  0.00000000000E+00  0.88740116522E+03  0.88740116522E+03  0.25500000920E-02 0.  1.
        2   -1    0    0  501    0  0.00000000000E+00  0.00000000000E+00 -0.98965912082E+03  0.98965912082E+03  0.25500000920E-02 0. -1.
    10030    2    1    2    0    0  0.00000000000E+00  0.00000000000E+00 -0.10225795560E+03  0.18770602860E+04  0.18742728264E+04 0.  0.
        1    1    3    3  502    0 -0.17750710509E+03  0.91599270005E+03 -0.13885638919E+03  0.94330933195E+03  0.50400001928E-02 0. -1.
       -1    1    3    3    0  502  0.17750710509E+03 -0.91599270005E+03  0.36598433589E+02  0.93375095409E+03  0.50400001928E-02 0.  1.
</event>
<event>
 5   0  0.1215233E-04  0.1689961E+04  0.7818609E-02  0.8767111E-01
       -1   -1    0    0    0  501  0.00000000000E+00  0.00000000000E+00  0.62376807402E+03  0.62376807404E+03  0.50400001928E-02 0.  1.
        1   -1    0    0  501    0  0.00000000000E+00  0.00000000000E+00 -0.11446428404E+04  0.11446428404E+04  0.50400001928E-02 0. -1.
    10030    2    1    2    0    0  0.00000000000E+00  0.00000000000E+00 -0.52087476637E+03  0.17684109144E+04  0.16899605439E+04 0.  0.
        2    1    3    3  502    0  0.65314072969E+02  0.82814860785E+02 -0.11377276909E+04  0.11426060248E+04  0.25500000920E-02 0. -1.
       -2    1    3    3    0  502 -0.65314072969E+02 -0.82814860785E+02  0.61685292456E+03  0.62580488959E+03  0.25500000920E-02 0.  1.
</event>
<event>
 5   0  0.2234723E-04  0.1677876E+04  0.7818609E-02  0.8774084E-01
        2   -1    0    0  501    0  0.00000000000E+00  0.00000000000E+00  0.10942582410E+04  0.10942582410E+04  0.25500000920E-02 0.  1.
       -2   -1    0    0    0  501  0.00000000000E+00  0.00000000000E+00 -0.64319129839E+03  0.64319129840E+03  0.25500000920E-02 0. -1.
    10030    2    1    2    0    0  0.00000000000E+00  0.00000000000E+00  0.45106694258E+03  0.17374495394E+04  0.16778764898E+04 0.  0.
        1    1    3    3  502    0  0.76318839283E+03 -0.33980261445E+03  0.14602826772E+03  0.84808407292E+03  0.50400001928E-02 0. -1.
       -1    1    3    3    0  502 -0.76318839283E+03  0.33980261445E+03  0.30503867486E+03  0.88936546646E+03  0.50400001928E-02 0.  1.
</event>
<event>
 5   0  0.1126958E-04  0.1693071E+04  0.7818609E-02  0.8765326E-01
       -1   -1    0    0    0  501  0.00000000000E+00  0.00000000000E+00  0.59421552474E+03  0.59421552476E+03  0.50400001928E-02 0. -1.
        1   -1    0    0  501    0  0.00000000000E+00  0.00000000000E+00 -0.12059968992E+04  0.12059968992E+04  0.50400001928E-02 0.  1.
    10030    2    1    2    0    0  0.00000000000E+00  0.00000000000E+00 -0.61178137450E+03  0.18002124240E+04  0.16930706782E+04 0.  0.
        4    1    3    3  502    0 -0.79566490767E+03 -0.27898999505E+03 -0.22559768662E+03  0.87281956426E+03  0.12699999809E+01 0.  1.
       -4    1    3    3    0  502  0.79566490767E+03  0.27898999505E+03 -0.38618368788E+03  0.92739285976E+03  0.12699999809E+01 0. -1.
</event>
<event>
 5   0  0.1215233E-04  0.1715980E+04  0.7818609E-02  0.8752303E-01
       -1   -1    0    0    0  501  0.00000000000E+00  0.00000000000E+00  0.48249217223E+03  0.48249217225E+03  0.50400001928E-02 0.  1.
        1   -1    0    0  501    0  0.00000000000E+00  0.00000000000E+00 -0.15257175972E+04  0.15257175972E+04  0.50400001928E-02 0. -1.
    10030    2    1    2    0    0  0.00000000000E+00  0.00000000000E+00 -0.10432254249E+04  0.20082097694E+04  0.17159799506E+04 0.  0.
        2    1    3    3  502    0  0.26111398601E+03 -0.80209353404E+03 -0.33801278914E+03  0.90872834041E+03  0.25500000920E-02 0.  1.
       -2    1    3    3    0  502 -0.26111398601E+03  0.80209353404E+03 -0.70521263578E+03  0.10994814290E+04  0.25500000920E-02 0. -1.
</event>
<event>
 5   0  0.1126958E-04  0.1703813E+04  0.7818609E-02  0.8759193E-01
        1   -1    0    0  501    0  0.00000000000E+00  0.00000000000E+00  0.25006358315E+04  0.25006358315E+04  0.50400001928E-02 0.  1.
       -1   -1    0    0    0  501  0.00000000000E+00  0.00000000000E+00 -0.29022398361E+03  0.29022398365E+03  0.50400001928E-02 0. -1.
    10030    2    1    2    0    0  0.00000000000E+00  0.00000000000E+00  0.22104118479E+04  0.27908598152E+04  0.17038127745E+04 0.  0.
        4    1    3    3  502    0 -0.29297231760E+03  0.23237916541E+03  0.23590155984E+04  0.23884700253E+04  0.12699999809E+01 0.  1.
       -4    1    3    3    0  502  0.29297231760E+03 -0.23237916541E+03 -0.14860375052E+03  0.40238978984E+03  0.12699999809E+01 0. -1.
</event>
<event>
 5   0  0.2234723E-04  0.1697273E+04  0.7818609E-02  0.8762921E-01
       -2   -1    0    0    0  501  0.00000000000E+00  0.00000000000E+00  0.12502262181E+04  0.12502262181E+04  0.25500000920E-02 0.  1.
        2   -1    0    0  501    0  0.00000000000E+00  0.00000000000E+00 -0.57604274652E+03  0.57604274652E+03  0.25500000920E-02 0. -1.
    10030    2    1    2    0    0  0.00000000000E+00  0.00000000000E+00  0.67418347160E+03  0.18262689646E+04  0.16972728060E+04 0.  0.
        1    1    3    3  502    0 -0.12104562454E+03  0.80639060502E+03  0.84137659002E+02  0.81975422949E+03  0.50400001928E-02 0.  1.
       -1    1    3    3    0  502  0.12104562454E+03 -0.80639060502E+03  0.59004581260E+03  0.10065147352E+04  0.50400001928E-02 0. -1.
</event>
<event>
 5   0  0.1204741E-04  0.1708944E+04  0.7818609E-02  0.8756280E-01
        1   -1    0    0  501    0  0.00000000000E+00  0.00000000000E+00  0.12339133186E+04  0.12339133186E+04  0.50400001928E-02 0.  1.
       -1   -1    0    0    0  501  0.00000000000E+00  0.00000000000E+00 -0.59171277880E+03  0.59171277882E+03  0.50400001928E-02 0. -1.
    10030    2    1    2    0    0  0.00000000000E+00  0.00000000000E+00  0.64220053978E+03  0.18256260974E+04  0.17089438593E+04 0.  0.
        1    1    3    3  502    0 -0.16269966324E+03  0.50264119031E+03  0.10385206704E+04  0.11651800416E+04  0.50400001928E-02 0.  1.
       -1    1    3    3    0  502  0.16269966324E+03 -0.50264119031E+03 -0.39632013060E+03  0.66044605575E+03  0.50400001928E-02 0. -1.
</event>
<event>
 5   0  0.1126958E-04  0.1705112E+04  0.7818609E-02  0.8758454E-01
       -1   -1    0    0    0  501  0.00000000000E+00  0.00000000000E+00  0.18734593326E+04  0.18734593326E+04  0.50400001928E-02 0. -1.
        1   -1    0    0  501    0  0.00000000000E+00  0.00000000000E+00 -0.38797317809E+03  0.38797317812E+03  0.50400001928E-02 0.  1.
    10030    2    1    2    0    0  0.00000000000E+00  0.00000000000E+00  0.14854861545E+04  0.22614325107E+04  0.17051122794E+04 0.  0.
        4    1    3    3  502    0  0.19399913520E+03  0.80792395545E+03  0.99603411484E+03  0.12970976652E+04  0.12699999809E+01 0.  1.
       -4    1    3    3    0  502 -0.19399913520E+03 -0.80792395545E+03  0.48945203965E+03  0.96433484551E+03  0.12699999809E+01 0. -1.
</event>
<event>
 5   0  0.2224454E-04  0.1700459E+04  0.7818609E-02  0.8761103E-01
        2   -1    0    0  501    0  0.00000000000E+00  0.00000000000E+00  0.14443889074E+04  0.14443889074E+04  0.25500000920E-02 0.  1.
       -2   -1    0    0    0  501  0.00000000000E+00  0.00000000000E+00 -0.50048172149E+03  0.50048172149E+03  0.25500000920E-02 0. -1.
    10030    2    1    2    0    0  0.00000000000E+00  0.00000000000E+00  0.94390718592E+03  0.19448706289E+04  0.17004590520E+04 0.  0.
        2    1    3    3  502    0 -0.36815597878E+03 -0.55830217813E+03 -0.12853341653E+03  0.68099998971E+03  0.25500000920E-02 0. -1.
       -2    1    3    3    0  502  0.36815597878E+03  0.55830217813E+03  0.10724406025E+04  0.12638706392E+04  0.25500000920E-02 0.  1.
</event>
<event>
 5   0  0.2224454E-04  0.1697875E+04  0.7818609E-02  0.8762577E-01
       -2   -1    0    0    0  501  0.00000000000E+00  0.00000000000E+00  0.91167674253E+03  0.91167674254E+03  0.25500000920E-02 0. -1.
        2   -1    0    0  501    0  0.00000000000E+00  0.00000000000E+00 -0.79051578560E+03  0.79051578561E+03  0.25500000920E-02 0.  1.
    10030    2    1    2    0    0  0.00000000000E+00  0.00000000000E+00  0.12116095693E+03  0.17021925281E+04  0.16978749734E+04 0.  0.
        2    1    3    3  502    0  0.40698913608E+03  0.13781162946E+03  0.79460530506E+03  0.90334367377E+03  0.25500000920E-02 0. -1.
       -2    1    3    3    0  502 -0.40698913608E+03 -0.13781162946E+03 -0.67344434813E+03  0.79884885438E+03  0.25500000920E-02 0.  1.
</event>
<event>
 5   0  0.2356829E-04  0.1709694E+04  0.7818609E-02  0.8755855E-01
        2   -1    0    0  501    0  0.00000000000E+00  0.00000000000E+00  0.84576888455E+03  0.84576888455E+03  0.25500000920E-02 0. -1.
       -2   -1    0    0    0  501  0.00000000000E+00  0.00000000000E+00 -0.86402211782E+03  0.86402211782E+03  0.25500000920E-02 0.  1.
    10030    2    1    2    0    0  0.00000000000E+00  0.00000000000E+00 -0.18253233264E+02  0.17097910024E+04  0.17096935665E+04 0.  0.
        5    1    3    3  502    0 -0.14059737803E+03  0.79000164377E+03  0.28562856111E+03  0.85174878033E+03  0.46999998093E+01 0. -1.
       -5    1    3    3    0  502  0.14059737803E+03 -0.79000164377E+03 -0.30388179437E+03  0.85804222205E+03  0.46999998093E+01 0.  1.
</event>
<event>
 5   0  0.2234723E-04  0.1719449E+04  0.7818609E-02  0.8750349E-01
       -2   -1    0    0    0  501  0.00000000000E+00  0.00000000000E+00  0.82600464831E+03  0.82600464832E+03  0.25500000920E-02 0. -1.
        2   -1    0    0  501    0  0.00000000000E+00  0.00000000000E+00 -0.89482102531E+03  0.89482102532E+03  0.25500000920E-02 0.  1.
    10030    2    1    2    0    0  0.00000000000E+00  0.00000000000E+00 -0.68816376997E+02  0.17208256736E+04  0.17194491284E+04 0.  0.
        1    1    3    3  502    0 -0.22316249528E+03  0.35866394606E+03  0.71498029494E+03  0.83044454823E+03  0.50400001928E-02 0. -1.
       -1    1    3    3    0  502  0.22316249528E+03 -0.35866394606E+03 -0.78379667194E+03  0.89038112540E+03  0.50400001928E-02 0.  1.
</event>
<event>
 5   0  0.1186302E-04  0.1702083E+04  0.7818609E-02  0.8760177E-01
        1   -1    0    0  501    0  0.00000000000E+00  0.00000000000E+00  0.16463392186E+04  0.16463392186E+04  0.50400001928E-02 0.  1.
       -1   -1    0    0    0  501  0.00000000000E+00  0.00000000000E+00 -0.43992878334E+03  0.43992878337E+03  0.50400001928E-02 0. -1.
    10030    2    1    2    0    0  0.00000000000E+00  0.00000000000E+00  0.12064104353E+04  0.20862680020E+04  0.17020834403E+04 0.  0.
        3    1    3    3  502    0  0.99800112765E+02 -0.66913110830E+03  0.12360531480E+04  0.14090861924E+04  0.10100000352E+00 0.  1.
       -3    1    3    3    0  502 -0.99800112765E+02  0.66913110830E+03 -0.29642712781E+02  0.67718180958E+03  0.10100000352E+00 0. -1.
</event>
<event>
 5   0  0.2242967E-04  0.1704770E+04  0.7818609E-02  0.8758648E-01
       -2   -1    0    0    0  501  0.00000000000E+00  0.00000000000E+00  0.44871963531E+03  0.44871963532E+03  0.25500000920E-02 0. -1.
        2   -1    0    0  501    0  0.00000000000E+00  0.00000000000E+00 -0.16191858782E+04  0.16191858782E+04  0.25500000920E-02 0.  1.
    10030    2    1    2    0    0  0.00000000000E+00  0.00000000000E+00 -0.11704662428E+04  0.20679055135E+04  0.17047703620E+04 0.  0.
        4    1    3    3  502    0  0.55220054311E+03 -0.36410259510E+03 -0.12374031938E+04  0.14030910222E+04  0.12699999809E+01 0.  1.
       -4    1    3    3    0  502 -0.55220054311E+03  0.36410259510E+03  0.66936950933E+02  0.66481449132E+03  0.12699999809E+01 0. -1.
</event>
<event>
 5   0  0.2356829E-04  0.1694511E+04  0.7818609E-02  0.8764501E-01
       -2   -1    0    0    0  501  0.00000000000E+00  0.00000000000E+00  0.43319073366E+03  0.43319073367E+03  0.25500000920E-02 0. -1.
        2   -1    0    0  501    0  0.00000000000E+00  0.00000000000E+00 -0.16571032551E+04  0.16571032551E+04  0.25500000920E-02 0.  1.
    10030    2    1    2    0    0  0.00000000000E+00  0.00000000000E+00 -0.12239125215E+04  0.20902939888E+04  0.16945108732E+04 0.  0.
        5    1    3    3  502    0  0.20951437845E+03  0.37734131294E+03  0.28739581037E+03  0.51855682721E+03  0.46999998093E+01 0. -1.
       -5    1    3    3    0  502 -0.20951437845E+03 -0.37734131294E+03 -0.15113083318E+04  0.15717371616E+04  0.46999998093E+01 0.  1.
</event>
<event>
 5   0  0.2234723E-04  0.1705867E+04  0.7818609E-02  0.8758025E-01
        2   -1    0    0  501    0  0.00000000000E+00  0.00000000000E+00  0.30288155617E+04  0.30288155617E+04  0.25500000920E-02 0.  1.
       -2   -1    0    0    0  501  0.00000000000E+00  0.00000000000E+00 -0.24019137678E+03  0.24019137680E+03  0.25500000920E-02 0. -1.
    10030    2    1    2    0    0  0.00000000000E+00  0.00000000000E+00  0.27886241849E+04  0.32690069385E+04  0.17058667941E+04 0.  0.
        1    1    3    3  502    0  0.77816112035E+03  0.27779976598E+03  0.17998685058E+04  0.19804630967E+04  0.50400001928E-02 0.  1.
       -1    1    3    3    0  502 -0.77816112035E+03 -0.27779976598E+03  0.98875567909E+03  0.12885438418E+04  0.50400001928E-02 0. -1.
</event>
<event>
 5   0  0.1204741E-04  0.1704317E+04  0.7818609E-02  0.8758906E-01
       -1   -1    0    0    0  501  0.00000000000E+00  0.00000000000E+00  0.53622030459E+03  0.53622030461E+03  0.50400001928E-02 0. -1.
        1   -1    0    0  501    0  0.00000000000E+00  0.00000000000E+00 -0.13542459568E+04  0.13542459568E+04  0.50400001928E-02 0.  1.
    10030    2    1    2    0    0  0.00000000000E+00  0.00000000000E+00 -0.81802565223E+03  0.18904662614E+04  0.17043170826E+04 0.  0.
        1    1    3    3  502    0  0.37672346911E+03  0.17983174324E+03 -0.12330642211E+04  0.13018092800E+04  0.50400001928E-02 0.  1.
       -1    1    3    3    0  502 -0.37672346911E+03 -0.17983174324E+03  0.41503856892E+03  0.58865698142E+03  0.50400001928E-02 0. -1.
</event>
<event>
 5   0  0.8372750E-05  0.1702105E+04  0.7818609E-02  0.8760165E-01
       -4   -1    0    0    0  501  0.00000000000E+00  0.00000000000E+00  0.78841041744E+03  0.78841144032E+03  0.12699999809E+01 0. -1.
        4   -1    0    0  501    0  0.00000000000E+00  0.00000000000E+00 -0.91866966032E+03  0.91867053816E+03  0.12699999809E+01 0.  1.
    10030    2    1    2    0    0  0.00000000000E+00  0.00000000000E+00 -0.13025924288E+03  0.17070819785E+04  0.17021049941E+04 0.  0.
        5    1    3    3  502    0  0.26175880479E+03 -0.79192277893E+03  0.10450661737E+03  0.84059686101E+03  0.46999998093E+01 0. -1.
       -5    1    3    3    0  502 -0.26175880479E+03  0.79192277893E+03 -0.23476586025E+03  0.86648511747E+03  0.46999998093E+01 0.  1.
</event>
<event>
 5   0  0.1215233E-04  0.1685184E+04  0.7818609E-02  0.8769860E-01
       -1   -1    0    0    0  501  0.00000000000E+00  0.00000000000E+00  0.65679321558E+03  0.65679321560E+03  0.50400001928E-02 0.  1.
        1   -1    0    0  501    0  0.00000000000E+00  0.00000000000E+00 -0.10809504589E+04  0.10809504590E+04  0.50400001928E-02 0. -1.
    10030    2    1    2    0    0  0.00000000000E+00  0.00000000000E+00 -0.42415724337E+03  0.17377436746E+04  0.16851835839E+04 0.  0.
        2    1    3    3  502    0 -0.38666858717E+03 -0.25137527300E+03  0.51508096967E+03  0.69138305555E+03  0.25500000920E-02 0.  1.
       -2    1    3    3    0  502  0.38666858717E+03  0.25137527300E+03 -0.93923821304E+03  0.10463606190E+04  0.25500000920E-02 0. -1.
</event>
<event>
 5   0  0.2224454E-04  0.1704420E+04  0.7818609E-02  0.8758847E-01
       -2   -1    0    0    0  501  0.00000000000E+00  0.00000000000E+00  0.34097412101E+03  0.34097412102E+03  0.25500000920E-02 0. -1.
        2   -1    0    0  501    0  0.00000000000E+00  0.00000000000E+00 -0.21299619872E+04  0.21299619872E+04  0.25500000920E-02 0.  1.
    10030    2    1    2    0    0  0.00000000000E+00  0.00000000000E+00 -0.17889878662E+04  0.24709361082E+04  0.17044200379E+04 0.  0.
        2    1    3    3  502    0  0.38622985587E+03  0.47623617087E+03 -0.36474311589E+02  0.61425138780E+03  0.25500000920E-02 0. -1.
       -2    1    3    3    0  502 -0.38622985587E+03 -0.47623617087E+03 -0.17525135546E+04  0.18566847204E+04  0.25500000920E-02 0.  1.
</event>
<event>
 5   0  0.2242967E-04  0.1707035E+04  0.7818609E-02  0.8757362E-01
       -2   -1    0    0    0  501  0.00000000000E+00  0.00000000000E+00  0.13140165717E+04  0.13140165717E+04  0.25500000920E-02 0. -1.
        2   -1    0    0  501    0  0.00000000000E+00  0.00000000000E+00 -0.55440128420E+03  0.55440128421E+03  0.25500000920E-02 0.  1.
    10030    2    1    2    0    0  0.00000000000E+00  0.00000000000E+00  0.75961528753E+03  0.18684178559E+04  0.17070354125E+04 0.  0.
        4    1    3    3  502    0  0.31114367172E+02 -0.65734987452E+03  0.97471171620E+03  0.11760703652E+04  0.12699999809E+01 0. -1.
       -4    1    3    3    0  502 -0.31114367172E+02  0.65734987452E+03 -0.21509642866E+03  0.69234749072E+03  0.12699999809E+01 0.  1.
</event>
<event>
 5   0  0.2356829E-04  0.1702624E+04  0.7818609E-02  0.8759869E-01
        2   -1    0    0  501    0  0.00000000000E+00  0.00000000000E+00  0.61946410952E+03  0.61946410953E+03  0.25500000920E-02 0.  1.
       -2   -1    0    0    0  501  0.00000000000E+00  0.00000000000E+00 -0.11699334712E+04  0.11699334712E+04  0.25500000920E-02 0. -1.
    10030    2    1    2    0    0  0.00000000000E+00  0.00000000000E+00 -0.55046936164E+03  0.17893975807E+04  0.17026236177E+04 0.  0.
        5    1    3    3  502    0  0.62474021226E+03 -0.68128470179E+01 -0.88294592496E+03  0.10816479761E+04  0.46999998093E+01 0. -1.
       -5    1    3    3    0  502 -0.62474021226E+03  0.68128470179E+01  0.33247656333E+03  0.70774960464E+03  0.46999998093E+01 0.  1.
</event>
<event>
 5   0  0.1126958E-04  0.1703618E+04  0.7818609E-02  0.8759304E-01
        1   -1    0    0  501    0  0.00000000000E+00  0.00000000000E+00  0.46720465350E+03  0.46720465353E+03  0.50400001928E-02 0. -1.
       -1   -1    0    0    0  501  0.00000000000E+00  0.00000000000E+00 -0.15530208059E+04  0.15530208059E+04  0.50400001928E-02 0.  1.
    10030    2    1    2    0    0  0.00000000000E+00  0.00000000000E+00 -0.10858161524E+04  0.20202254594E+04  0.17036179707E+04 0.  0.
        4    1    3    3  502    0 -0.78104569082E+03 -0.18230848909E+03 -0.20269647255E+03  0.82725826030E+03  0.12699999809E+01 0. -1.
       -4    1    3    3    0  502  0.78104569082E+03  0.18230848909E+03 -0.88311967981E+03  0.11929671991E+04  0.12699999809E+01 0.  1.
</event>
<event>
 5   0  0.1126958E-04  0.1700254E+04  0.7818609E-02  0.8761219E-01
       -1   -1    0    0    0  501  0.00000000000E+00  0.00000000000E+00  0.34777645606E+03  0.34777645610E+03  0.50400001928E-02 0. -1.
        1   -1    0    0  501    0  0.00000000000E+00  0.00000000000E+00 -0.20781050448E+04  0.20781050448E+04  0.50400001928E-02 0.  1.
    10030    2    1    2    0    0  0.00000000000E+00  0.00000000000E+00 -0.17303285887E+04  0.24258815009E+04  0.17002541079E+04 0.  0.
        4    1    3    3  502    0  0.93788023209E+02 -0.79396852877E+03 -0.45279848444E+03  0.91880917408E+03  0.12699999809E+01 0. -1.
       -4    1    3    3    0  502 -0.93788023209E+02  0.79396852877E+03 -0.12775301043E+04  0.15070723268E+04  0.12699999809E+01 0.  1.
</event>
<event>
 5   0  0.2224454E-04  0.1698869E+04  0.7818609E-02  0.8762010E-01
       -2   -1    0    0    0  501  0.00000000000E+00  0.00000000000E+00  0.39998686335E+03  0.39998686336E+03  0.25500000920E-02 0. -1.
        2   -1    0    0  501    0  0.00000000000E+00  0.00000000000E+00 -0.18039071943E+04  0.18039071943E+04  0.25500000920E-02 0.  1.
    10030    2    1    2    0    0  0.00000000000E+00  0.00000000000E+00 -0.14039203310E+04  0.22038940577E+04  0.16988692480E+04 0.  0.
        2    1    3    3  502    0  0.10499829814E+03  0.15877375270E+03 -0.17758824303E+04  0.17860549134E+04  0.25500000920E-02 0.  1.
       -2    1    3    3    0  502 -0.10499829814E+03 -0.15877375270E+03  0.37196209936E+03  0.41783914432E+03  0.25500000920E-02 0. -1.
</event>
<event>
 5   0  0.2234723E-04  0.1699494E+04  0.7818609E-02  0.8761653E-01
       -2   -1    0    0    0  501  0.00000000000E+00  0.00000000000E+00  0.41705808996E+03  0.41705808997E+03  0.25500000920E-02 0.  1.
        2   -1    0    0  501    0  0.00000000000E+00  0.00000000000E+00 -0.17313419049E+04  0.17313419049E+04  0.25500000920E-02 0. -1.
    10030    2    1    2    0    0  0.00000000000E+00  0.00000000000E+00 -0.13142838149E+04  0.21483999949E+04  0.16994942164E+04 0.  0.
        1    1    3    3  502    0 -0.14878243067E+02  0.84821369344E+03 -0.59544049019E+03  0.10364541520E+04  0.50400001928E-02 0. -1.
       -1    1    3    3    0  502  0.14878243067E+02 -0.84821369344E+03 -0.71884332474E+03  0.11119458428E+04  0.50400001928E-02 0.  1.
</event>
<event>
 5   0  0.2234723E-04  0.1694131E+04  0.7818609E-02  0.8764719E-01
        2   -1    0    0  501    0  0.00000000000E+00  0.00000000000E+00  0.58412039938E+03  0.58412039938E+03  0.25500000920E-02 0.  1.
       -2   -1    0    0    0  501  0.00000000000E+00  0.00000000000E+00 -0.12283763992E+04  0.12283763992E+04  0.25500000920E-02 0. -1.
    10030    2    1    2    0    0  0.00000000000E+00  0.00000000000E+00 -0.64425599982E+03  0.18124967986E+04  0.16941307068E+04 0.  0.
        1    1    3    3  502    0  0.50290511295E+03  0.51719943589E+03  0.15286330376E+03  0.73741168880E+03  0.50400001928E-02 0.  1.
       -1    1    3    3    0  502 -0.50290511295E+03 -0.51719943589E+03 -0.79711930358E+03  0.10750851098E+04  0.50400001928E-02 0. -1.
</event>
<event>
 5   0  0.1215233E-04  0.1707433E+04  0.7818609E-02  0.8757136E-01
       -1   -1    0    0    0  501  0.00000000000E+00  0.00000000000E+00  0.67295266545E+03  0.67295266547E+03  0.50400001928E-02 0. -1.
        1   -1    0    0  501    0  0.00000000000E+00  0.00000000000E+00 -0.10830362918E+04  0.10830362918E+04  0.50400001928E-02 0.  1.
    10030    2    1    2    0    0  0.00000000000E+00  0.00000000000E+00 -0.41008362631E+03  0.17559889572E+04  0.17074333479E+04 0.  0.
        2    1    3    3  502    0  0.29917330498E+03  0.41545098209E+03  0.49756108543E+03  0.71391261277E+03  0.25500000920E-02 0. -1.
       -2    1    3    3    0  502 -0.29917330498E+03 -0.41545098209E+03 -0.90764471174E+03  0.10420763445E+04  0.25500000920E-02 0.  1.
</event>
<event>
 5   0  0.2356829E-04  0.1690014E+04  0.7818609E-02  0.8767080E-01
        2   -1    0    0  501    0  0.00000000000E+00  0.00000000000E+00  0.41952715763E+03  0.41952715764E+03  0.25500000920E-02 0.  1.
       -2   -1    0    0    0  501  0.00000000000E+00  0.00000000000E+00 -0.17020035660E+04  0.17020035660E+04  0.25500000920E-02 0. -1.
    10030    2    1    2    0    0  0.00000000000E+00  0.00000000000E+00 -0.12824764084E+04  0.21215307237E+04  0.16900138678E+04 0.  0.
        5    1    3    3  502    0 -0.44306042631E+03  0.13223514450E+03 -0.15290934552E+04  0.15974785005E+04  0.46999998093E+01 0. -1.
       -5    1    3    3    0  502  0.44306042631E+03 -0.13223514450E+03  0.24661704683E+03  0.52405222315E+03  0.46999998093E+01 0.  1.
</event>
<event>
 5   0  0.1126958E-04  0.1690289E+04  0.7818609E-02  0.8766922E-01
        1   -1    0    0  501    0  0.00000000000E+00  0.00000000000E+00  0.68783095058E+03  0.68783095060E+03  0.50400001928E-02 0.  1.
       -1   -1    0    0    0  501  0.00000000000E+00  0.00000000000E+00 -0.10384377484E+04  0.10384377484E+04  0.50400001928E-02 0. -1.
    10030    2    1    2    0    0  0.00000000000E+00  0.00000000000E+00 -0.35060679779E+03  0.17262686990E+04  0.16902894706E+04 0.  0.
        4    1    3    3  502    0  0.21030624324E+03 -0.79899213356E+03 -0.35699719698E+03  0.90003653092E+03  0.12699999809E+01 0. -1.
       -4    1    3    3    0  502 -0.21030624324E+03  0.79899213356E+03  0.63903991923E+01  0.82623216806E+03  0.12699999809E+01 0.  1.
</event>
<event>
 5   0  0.1204741E-04  0.1693583E+04  0.7818609E-02  0.8765033E-01
        1   -1    0    0  501    0  0.00000000000E+00  0.00000000000E+00  0.52620809803E+03  0.52620809805E+03  0.50400001928E-02 0.  1.
       -1   -1    0    0    0  501  0.00000000000E+00  0.00000000000E+00 -0.13626842911E+04  0.13626842911E+04  0.50400001928E-02 0. -1.
    10030    2    1    2    0    0  0.00000000000E+00  0.00000000000E+00 -0.83647619306E+03  0.18888923891E+04  0.16935826039E+04 0.  0.
        1    1    3    3  502    0 -0.72208121472E+03 -0.12904234532E+02 -0.91136711690E+03  0.11628232117E+04  0.50400001928E-02 0. -1.
       -1    1    3    3    0  502  0.72208121472E+03  0.12904234532E+02  0.74890923845E+02  0.72606917743E+03  0.50400001928E-02 0.  1.
</event>
<event>
 5   0  0.1204741E-04  0.1708530E+04  0.7818609E-02  0.8756514E-01
       -1   -1    0    0    0  501  0.00000000000E+00  0.00000000000E+00  0.69200658488E+03  0.69200658490E+03  0.50400001928E-02 0.  1.
        1   -1    0    0  501    0  0.00000000000E+00  0.00000000000E+00 -0.10545690303E+04  0.10545690303E+04  0.50400001928E-02 0. -1.
    10030    2    1    2    0    0  0.00000000000E+00  0.00000000000E+00 -0.36256244540E+03  0.17465756152E+04  0.17085300269E+04 0.  0.
        1    1    3    3  502    0  0.59097616698E+03 -0.27785890592E+03  0.38171873769E+03  0.75641760706E+03  0.50400001928E-02 0.  1.
       -1    1    3    3    0  502 -0.59097616698E+03  0.27785890592E+03 -0.74428118310E+03  0.99015800813E+03  0.50400001928E-02 0. -1.
</event>
<event>
 5   0  0.1215233E-04  0.1715802E+04  0.7818609E-02  0.8752403E-01
        1   -1    0    0  501    0  0.00000000000E+00  0.00000000000E+00  0.12655777059E+04  0.12655777059E+04  0.50400001928E-02 0.  1.
       -1   -1    0    0    0  501  0.00000000000E+00  0.00000000000E+00 -0.58154765948E+03  0.58154765951E+03  0.50400001928E-02 0. -1.
    10030    2    1    2    0    0  0.00000000000E+00  0.00000000000E+00  0.68403004639E+03  0.18471253654E+04  0.17158015652E+04 0.  0.
        2    1    3    3  502    0 -0.51601007305E+03 -0.18086149353E+02 -0.39555111533E+03  0.65042615964E+03  0.25500000920E-02 0. -1.
       -2    1    3    3    0  502  0.51601007305E+03  0.18086149353E+02  0.10795811617E+04  0.11966992057E+04  0.25500000920E-02 0.  1.
</event>
<event>
 5   0  0.1204741E-04  0.1693100E+04  0.7818609E-02  0.8765309E-01
       -1   -1    0    0    0  501  0.00000000000E+00  0.00000000000E+00  0.12912253181E+04  0.12912253181E+04  0.50400001928E-02 0. -1.
        1   -1    0    0  501    0  0.00000000000E+00  0.00000000000E+00 -0.55501330393E+03  0.55501330395E+03  0.50400001928E-02 0.  1.
    10030    2    1    2    0    0  0.00000000000E+00  0.00000000000E+00  0.73621201417E+03  0.18462386221E+04  0.16931003868E+04 0.  0.
        1    1    3    3  502    0  0.38150606727E+03  0.47313595049E+02 -0.45434208735E+03  0.59515728006E+03  0.50400001928E-02 0.  1.
       -1    1    3    3    0  502 -0.38150606727E+03 -0.47313595049E+02  0.11905541015E+04  0.12510813420E+04  0.50400001928E-02 0. -1.
</event>
<event>
 5   0  0.2234723E-04  0.1707099E+04  0.7818609E-02  0.8757326E-01
        2   -1    0    0  501    0  0.00000000000E+00  0.00000000000E+00  0.74717436147E+03  0.74717436147E+03  0.25500000920E-02 0.  1.
       -2   -1    0    0    0  501  0.00000000000E+00  0.00000000000E+00 -0.97506890192E+03  0.97506890192E+03  0.25500000920E-02 0. -1.
    10030    2    1    2    0    0  0.00000000000E+00  0.00000000000E+00 -0.22789454045E+03  0.17222432634E+04  0.17070986898E+04 0.  0.
        1    1    3    3  502    0  0.61813272481E+03  0.78424311655E+02 -0.70248183527E+03  0.93899902399E+03  0.50400001928E-02 0. -1.
       -1    1    3    3    0  502 -0.61813272481E+03 -0.78424311655E+02  0.47458729482E+03  0.78324423941E+03  0.50400001928E-02 0.  1.
</event>
<event>
 5   0  0.1186302E-04  0.1691037E+04  0.7818609E-02  0.8766493E-01
       -1   -1    0    0    0  501  0.00000000000E+00  0.00000000000E+00  0.88926028335E+03  0.88926028336E+03  0.50400001928E-02 0. -1.
        1   -1    0    0  501    0  0.00000000000E+00  0.00000000000E+00 -0.80392837326E+03  0.80392837327E+03  0.50400001928E-02 0.  1.
    10030    2    1    2    0    0  0.00000000000E+00  0.00000000000E+00  0.85331910089E+02  0.16931886566E+04  0.16910370463E+04 0.  0.
        3    1    3    3  502    0 -0.78675125120E+03  0.25584793968E+03 -0.13210086049E+03  0.83778657607E+03  0.10100000352E+00 0.  1.
       -3    1    3    3    0  502  0.78675125120E+03 -0.25584793968E+03  0.21743277058E+03  0.85540208056E+03  0.10100000352E+00 0. -1.
</event>
<event>
 5   0  0.2242967E-04  0.1698965E+04  0.7818609E-02  0.8761955E-01
        2   -1    0    0  501    0  0.00000000000E+00  0.00000000000E+00  0.16922872066E+04  0.16922872066E+04  0.25500000920E-02 0. -1.
       -2   -1    0    0    0  501  0.00000000000E+00  0.00000000000E+00 -0.42641718649E+03  0.42641718650E+03  0.25500000920E-02 0.  1.
    10030    2    1    2    0    0  0.00000000000E+00  0.00000000000E+00  0.12658700201E+04  0.21187043931E+04  0.16989648017E+04 0.  0.
        4    1    3    3  502    0 -0.23537132946E+01 -0.23913166706E+03 -0.38357194535E+03  0.45201608856E+03  0.12699999809E+01 0.  1.
       -4    1    3    3    0  502  0.23537132946E+01  0.23913166706E+03  0.16494419654E+04  0.16666883045E+04  0.12699999809E+01 0. -1.
</event>
<event>
 5   0  0.2288806E-04  0.1739270E+04  0.7818609E-02  0.8739279E-01
       -2   -1    0    0    0  501  0.00000000000E+00  0.00000000000E+00  0.51863025355E+03  0.51863025356E+03  0.25500000920E-02 0. -1.
        2   -1    0    0  501    0  0.00000000000E+00  0.00000000000E+00 -0.14581963184E+04  0.14581963184E+04  0.25500000920E-02 0.  1.
    10030    2    1    2    0    0  0.00000000000E+00  0.00000000000E+00 -0.93956606487E+03  0.19768265720E+04  0.17392696471E+04 0.  0.
        3    1    3    3  502    0  0.52889771861E+03  0.52989612105E+03  0.33073024275E+02  0.74941078922E+03  0.10100000352E+00 0. -1.
       -3    1    3    3    0  502 -0.52889771861E+03 -0.52989612105E+03 -0.97263908914E+03  0.12274157828E+04  0.10100000352E+00 0.  1.
</event>
<event>
 5   0  0.2224454E-04  0.1689822E+04  0.7818609E-02  0.8767191E-01
       -2   -1    0    0    0  501  0.00000000000E+00  0.00000000000E+00  0.53806599046E+03  0.53806599047E+03  0.25500000920E-02 0.  1.
        2   -1    0    0  501    0  0.00000000000E+00  0.00000000000E+00 -0.13267409807E+04  0.13267409807E+04  0.25500000920E-02 0. -1.
    10030    2    1    2    0    0  0.00000000000E+00  0.00000000000E+00 -0.78867499021E+03  0.18648069712E+04  0.16898215289E+04 0.  0.
        2    1    3    3  502    0  0.73663444252E+03 -0.35101323643E+03 -0.63619838140E+03  0.10346926957E+04  0.25500000920E-02 0. -1.
       -2    1    3    3    0  502 -0.73663444252E+03  0.35101323643E+03 -0.15247660881E+03  0.83011427544E+03  0.25500000920E-02 0.  1.
</event>
<event>
 5   0  0.1234158E-04  0.1733740E+04  0.7818609E-02  0.8742351E-01
       -1   -1    0    0    0  501  0.00000000000E+00  0.00000000000E+00  0.19189626421E+04  0.19189626421E+04  0.50400001928E-02 0. -1.
        1   -1    0    0  501    0  0.00000000000E+00  0.00000000000E+00 -0.39159908603E+03  0.39159908606E+03  0.50400001928E-02 0.  1.
    10030    2    1    2    0    0  0.00000000000E+00  0.00000000000E+00  0.15273635561E+04  0.23105617282E+04  0.17337404844E+04 0.  0.
        5    1    3    3  502    0 -0.82417127114E+03 -0.26417301616E+03  0.82891975293E+03  0.11984054879E+04  0.46999998093E+01 0. -1.
       -5    1    3    3    0  502  0.82417127114E+03  0.26417301616E+03  0.69844380313E+03  0.11121562403E+04  0.46999998093E+01 0.  1.
</event>
<event>
 5   0  0.1204741E-04  0.1698766E+04  0.7818609E-02  0.8762068E-01
       -1   -1    0    0    0  501  0.00000000000E+00  0.00000000000E+00  0.95379345759E+03  0.95379345760E+03  0.50400001928E-02 0.  1.
        1   -1    0    0  501    0  0.00000000000E+00  0.00000000000E+00 -0.75640259849E+03  0.75640259851E+03  0.50400001928E-02 0. -1.
    10030    2    1    2    0    0  0.00000000000E+00  0.00000000000E+00  0.19739085910E+03  0.17101960561E+04  0.16987664345E+04 0.  0.
        1    1    3    3  502    0 -0.20344361481E+03  0.79667230364E+03 -0.11575371076E+03  0.83034630448E+03  0.50400001928E-02 0. -1.
       -1    1    3    3    0  502  0.20344361481E+03 -0.79667230364E+03  0.31314456986E+03  0.87984975163E+03  0.50400001928E-02 0.  1.
</event>
<event>
 5   0  0.2242967E-04  0.1702849E+04  0.7818609E-02  0.8759741E-01
       -2   -1    0    0    0  501  0.00000000000E+00  0.00000000000E+00  0.67423078202E+03  0.67423078203E+03  0.25500000920E-02 0. -1.
        2   -1    0    0  501    0  0.00000000000E+00  0.00000000000E+00 -0.10751864587E+04  0.10751864588E+04  0.25500000920E-02 0.  1.
    10030    2    1    2    0    0  0.00000000000E+00  0.00000000000E+00 -0.40095567673E+03  0.17494172408E+04  0.17028491500E+04 0.  0.
        4    1    3    3  502    0  0.68934087999E+03 -0.57729421187E+01  0.31288540865E+03  0.75704892017E+03  0.12699999809E+01 0. -1.
       -4    1    3    3    0  502 -0.68934087999E+03  0.57729421187E+01 -0.71384108537E+03  0.99236832061E+03  0.12699999809E+01 0.  1.
</event>
<event>
 5   0  0.2242967E-04  0.1712202E+04  0.7818609E-02  0.8754435E-01
        2   -1    0    0  501    0  0.00000000000E+00  0.00000000000E+00  0.10010922833E+04  0.10010922833E+04  0.25500000920E-02 0.  1.
       -2   -1    0    0    0  501  0.00000000000E+00  0.00000000000E+00 -0.73210945084E+03  0.73210945084E+03  0.25500000920E-02 0. -1.
    10030    2    1    2    0    0  0.00000000000E+00  0.00000000000E+00  0.26898283244E+03  0.17332017341E+04  0.17122022331E+04 0.  0.
        4    1    3    3  502    0 -0.53658349295E+02  0.70800111542E+03  0.61864892649E+03  0.94173929780E+03  0.12699999809E+01 0.  1.
       -4    1    3    3    0  502  0.53658349295E+02 -0.70800111542E+03 -0.34966609405E+03  0.79146243632E+03  0.12699999809E+01 0. -1.
</event>
<event>
 5   0  0.2356829E-04  0.1699867E+04  0.7818609E-02  0.8761440E-01
       -2   -1    0    0    0  501  0.00000000000E+00  0.00000000000E+00  0.32963837072E+03  0.32963837073E+03  0.25500000920E-02 0.  1.
        2   -1    0    0  501    0  0.00000000000E+00  0.00000000000E+00 -0.21914528384E+04  0.21914528384E+04  0.25500000920E-02 0. -1.
    10030    2    1    2    0    0  0.00000000000E+00  0.00000000000E+00 -0.18618144677E+04  0.25210912091E+04  0.16998669868E+04 0.  0.
        5    1    3    3  502    0  0.54424698517E+03  0.56248563928E+03 -0.43952957483E+03  0.89766542343E+03  0.46999998093E+01 0.  1.
       -5    1    3    3    0  502 -0.54424698517E+03 -0.56248563928E+03 -0.14222848928E+04  0.16234257857E+04  0.46999998093E+01 0. -1.
</event>
<event>
 5   0  0.2288806E-04  0.1708663E+04  0.7818609E-02  0.8756439E-01
       -2   -1    0    0    0  501  0.00000000000E+00  0.00000000000E+00  0.73766244890E+03  0.73766244890E+03  0.25500000920E-02 0.  1.
        2   -1    0    0  501    0  0.00000000000E+00  0.00000000000E+00 -0.98945341721E+03  0.98945341721E+03  0.25500000920E-02 0. -1.
    10030    2    1    2    0    0  0.00000000000E+00  0.00000000000E+00 -0.25179096831E+03  0.17271158661E+04  0.17086633733E+04 0.  0.
        3    1    3    3  502    0 -0.25399541542E+03 -0.79323716880E+03 -0.31806368765E+03  0.89157355088E+03  0.10100000352E+00 0. -1.
       -3    1    3    3    0  502  0.25399541542E+03  0.79323716880E+03  0.66272719338E+02  0.83554231524E+03  0.10100000352E+00 0.  1.
</event>
<event>
 5   0  0.2242967E-04  0.1661576E+04  0.7818609E-02  0.8783588E-01
       -2   -1    0    0    0  501  0.00000000000E+00  0.00000000000E+00  0.58201857579E+03  0.58201857580E+03  0.25500000920E-02 0. -1.
        2   -1    0    0  501    0  0.00000000000E+00  0.00000000000E+00 -0.11858877735E+04  0.11858877735E+04  0.25500000920E-02 0.  1.
    10030    2    1    2    0    0  0.00000000000E+00  0.00000000000E+00 -0.60386919769E+03  0.17679063493E+04  0.16615760145E+04 0.  0.
        4    1    3    3  502    0 -0.10020211933E+03  0.82463294600E+03 -0.28902823151E+03  0.87954470714E+03  0.12699999809E+01 0.  1.
       -4    1    3    3    0  502  0.10020211933E+03 -0.82463294600E+03 -0.31484096618E+03  0.88836164214E+03  0.12699999809E+01 0. -1.
</event>
<event>
 5   0  0.1234158E-04  0.1697996E+04  0.7818609E-02  0.8762508E-01
       -1   -1    0    0    0  501  0.00000000000E+00  0.00000000000E+00  0.70122521352E+03  0.70122521354E+03  0.50400001928E-02 0. -1.
        1   -1    0    0  501    0  0.00000000000E+00  0.00000000000E+00 -0.10279116535E+04  0.10279116535E+04  0.50400001928E-02 0.  1.
    10030    2    1    2    0    0  0.00000000000E+00  0.00000000000E+00 -0.32668644002E+03  0.17291368671E+04  0.16979959585E+04 0.  0.
        5    1    3    3  502    0 -0.25446612232E+03 -0.52182427012E+03 -0.79415676903E+03  0.98374826052E+03  0.46999998093E+01 0.  1.
       -5    1    3    3    0  502  0.25446612232E+03  0.52182427012E+03  0.46747032901E+03  0.74538860656E+03  0.46999998093E+01 0. -1.
</event>
<event>
 5   0  0.1215233E-04  0.1720446E+04  0.7818609E-02  0.8749788E-01
       -1   -1    0    0    0  501  0.00000000000E+00  0.00000000000E+00  0.13810664186E+04  0.13810664186E+04  0.50400001928E-02 0. -1.
        1   -1    0    0  501    0  0.00000000000E+00  0.00000000000E+00 -0.53580616955E+03  0.53580616957E+03  0.50400001928E-02 0.  1.
    10030    2    1    2    0    0  0.00000000000E+00  0.00000000000E+00  0.84526024901E+03  0.19168725881E+04  0.17204463463E+04 0.  0.
        2    1    3    3  502    0  0.23846963414E+03  0.65015950701E+03 -0.14593459263E+03  0.70772314947E+03  0.25500000920E-02 0.  1.
       -2    1    3    3    0  502 -0.23846963414E+03 -0.65015950701E+03  0.99119484163E+03  0.12091494387E+04  0.25500000920E-02 0. -1.
</event>
<event>
 5   0  0.2242967E-04  0.1702087E+04  0.7818609E-02  0.8760175E-01
       -2   -1    0    0    0  501  0.00000000000E+00  0.00000000000E+00  0.11210809576E+04  0.11210809577E+04  0.25500000920E-02 0.  1.
        2   -1    0    0  501    0  0.00000000000E+00  0.00000000000E+00 -0.64605051097E+03  0.64605051097E+03  0.25500000920E-02 0. -1.
    10030    2    1    2    0    0  0.00000000000E+00  0.00000000000E+00  0.47503044668E+03  0.17671314686E+04  0.17020868668E+04 0.  0.
        4    1    3    3  502    0 -0.46786339940E+03 -0.65839535965E+03 -0.40859337408E+02  0.80873463414E+03  0.12699999809E+01 0. -1.
       -4    1    3    3    0  502  0.46786339940E+03  0.65839535965E+03  0.51588978409E+03  0.95839683448E+03  0.12699999809E+01 0.  1.
</event>
<event>
 5   0  0.2288806E-04  0.1691628E+04  0.7818609E-02  0.8766154E-01
        2   -1    0    0  501    0  0.00000000000E+00  0.00000000000E+00  0.99226212215E+03  0.99226212215E+03  0.25500000920E-02 0. -1.
       -2   -1    0    0    0  501  0.00000000000E+00  0.00000000000E+00 -0.72098031886E+03  0.72098031887E+03  0.25500000920E-02 0.  1.
    10030    2    1    2    0    0  0.00000000000E+00  0.00000000000E+00  0.27128180329E+03  0.17132424410E+04  0.16916281639E+04 0.  0.
        3    1    3    3  502    0 -0.15450896479E+03 -0.54931215138E+03  0.76794536961E+03  0.95674289167E+03  0.10100000352E+00 0. -1.
       -3    1    3    3    0  502  0.15450896479E+03  0.54931215138E+03 -0.49666356632E+03  0.75649954935E+03  0.10100000352E+00 0.  1.
</event>
<event>
 5   0  0.8372750E-05  0.1703057E+04  0.7818609E-02  0.8759623E-01
       -3   -1    0    0    0  501  0.00000000000E+00  0.00000000000E+00  0.44647299616E+03  0.44647300759E+03  0.10100000352E+00 0.  1.
        3   -1    0    0  501    0  0.00000000000E+00  0.00000000000E+00 -0.16240649559E+04  0.16240649590E+04  0.10100000352E+00 0. -1.
    10030    2    1    2    0    0  0.00000000000E+00  0.00000000000E+00 -0.11775919597E+04  0.20705379666E+04  0.17030574411E+04 0.  0.
        1    1    3    3  502    0  0.29072555000E+03 -0.26621573149E+03 -0.15064531084E+04  0.15571747266E+04  0.50400001928E-02 0. -1.
       -1    1    3    3    0  502 -0.29072555000E+03  0.26621573149E+03  0.32886114869E+03  0.51336324008E+03  0.50400001928E-02 0.  1.
</event>
<event>
 5   0  0.2224454E-04  0.1703521E+04  0.7818609E-02  0.8759359E-01
       -2   -1    0    0    0  501  0.00000000000E+00  0.00000000000E+00  0.46631981724E+03  0.46631981725E+03  0.25500000920E-02 0. -1.
        2   -1    0    0  501    0  0.00000000000E+00  0.00000000000E+00 -0.15557906009E+04  0.15557906009E+04  0.25500000920E-02 0.  1.
    10030    2    1    2    0    0  0.00000000000E+00  0.00000000000E+00 -0.10894707836E+04  0.20221104181E+04  0.17035210462E+04 0.  0.
        2    1    3    3  502    0 -0.13617310743E+03  0.23409689323E+02 -0.15423991649E+04  0.15485755754E+04  0.25500000920E-02 0.  1.
       -2    1    3    3    0  502  0.13617310743E+03 -0.23409689323E+02  0.45292838127E+03  0.47353484276E+03  0.25500000920E-02 0. -1.
</event>
<event>
 5   0  0.2242967E-04  0.1701673E+04  0.7818609E-02  0.8760411E-01
       -2   -1    0    0    0  501  0.00000000000E+00  0.00000000000E+00  0.27304248049E+03  0.27304248050E+03  0.25500000920E-02 0. -1.
        2   -1    0    0  501    0  0.00000000000E+00  0.00000000000E+00 -0.26513187613E+04  0.26513187613E+04  0.25500000920E-02 0.  1.
    10030    2    1    2    0    0  0.00000000000E+00  0.00000000000E+00 -0.23782762808E+04  0.29243612418E+04  0.17016728841E+04 0.  0.
        4    1    3    3  502    0 -0.52680591990E+03 -0.10367765917E+03 -0.54852181996E+02  0.53970724381E+03  0.12699999809E+01 0. -1.
       -4    1    3    3    0  502  0.52680591990E+03  0.10367765917E+03 -0.23234240988E+04  0.23846539979E+04  0.12699999809E+01 0.  1.
</event>
<event>
 5   0  0.1204741E-04  0.1698261E+04  0.7818609E-02  0.8762357E-01
        1   -1    0    0  501    0  0.00000000000E+00  0.00000000000E+00  0.12667010658E+04  0.12667010658E+04  0.50400001928E-02 0.  1.
       -1   -1    0    0    0  501  0.00000000000E+00  0.00000000000E+00 -0.56921302593E+03  0.56921302595E+03  0.50400001928E-02 0. -1.
    10030    2    1    2    0    0  0.00000000000E+00  0.00000000000E+00  0.69748803988E+03  0.18359140918E+04  0.16982611656E+04 0.  0.
        1    1    3    3  502    0 -0.81891340788E+03 -0.19811202853E+03  0.46292311063E+03  0.96133519224E+03  0.50400001928E-02 0. -1.
       -1    1    3    3    0  502  0.81891340788E+03  0.19811202853E+03  0.23456492924E+03  0.87457889953E+03  0.50400001928E-02 0.  1.
</event>
<event>
 5   0  0.2224454E-04  0.1693449E+04  0.7818609E-02  0.8765110E-01
        2   -1    0    0  501    0  0.00000000000E+00  0.00000000000E+00  0.45112938192E+03  0.45112938193E+03  0.25500000920E-02 0. -1.
       -2   -1    0    0    0  501  0.00000000000E+00  0.00000000000E+00 -0.15892163264E+04  0.15892163264E+04  0.25500000920E-02 0.  1.
    10030    2    1    2    0    0  0.00000000000E+00  0.00000000000E+00 -0.11380869445E+04  0.20403457083E+04  0.16934487640E+04 0.  0.
        2    1    3    3  502    0 -0.41128541067E+03  0.25189056987E+03  0.26946181221E+03  0.55246195929E+03  0.25500000920E-02 0. -1.
       -2    1    3    3    0  502  0.41128541067E+03 -0.25189056987E+03 -0.14075487567E+04  0.14878837491E+04  0.25500000920E-02 0.  1.
</event>
<event>
 5   0  0.1234158E-04  0.1704039E+04  0.7818609E-02  0.8759064E-01
       -1   -1    0    0    0  501  0.00000000000E+00  0.00000000000E+00  0.62092114554E+03  0.62092114556E+03  0.50400001928E-02 0.  1.
        1   -1    0    0  501    0  0.00000000000E+00  0.00000000000E+00 -0.11691294073E+04  0.11691294073E+04  0.50400001928E-02 0. -1.
    10030    2    1    2    0    0  0.00000000000E+00  0.00000000000E+00 -0.54820826172E+03  0.17900505528E+04  0.17040389325E+04 0.  0.
        5    1    3    3  502    0  0.74325470152E+03 -0.41651597766E+03 -0.27262975708E+03  0.89457374510E+03  0.46999998093E+01 0.  1.
       -5    1    3    3    0  502 -0.74325470152E+03  0.41651597766E+03 -0.27557850464E+03  0.89547680774E+03  0.46999998093E+01 0. -1.
</event>
<event>
 5   0  0.1186302E-04  0.1703195E+04  0.7818609E-02  0.8759544E-01
       -1   -1    0    0    0  501  0.00000000000E+00  0.00000000000E+00  0.74464400736E+03  0.74464400738E+03  0.50400001928E-02 0. -1.
        1   -1    0    0  501    0  0.00000000000E+00  0.00000000000E+00 -0.97391255387E+03  0.97391255388E+03  0.50400001928E-02 0.  1.
    10030    2    1    2    0    0  0.00000000000E+00  0.00000000000E+00 -0.22926854651E+03  0.17185565613E+04  0.17031948179E+04 0.  0.
        3    1    3    3  502    0  0.38844802205E+03 -0.53090877071E+03 -0.66030962358E+03  0.93207553226E+03  0.10100000352E+00 0.  1.
       -3    1    3    3    0  502 -0.38844802205E+03  0.53090877071E+03  0.43104107708E+03  0.78648102900E+03  0.10100000352E+00 0. -1.
</event>
<event>
 5   0  0.2356829E-04  0.1694823E+04  0.7818609E-02  0.8764323E-01
       -2   -1    0    0    0  501  0.00000000000E+00  0.00000000000E+00  0.42764662201E+03  0.42764662201E+03  0.25500000920E-02 0. -1.
        2   -1    0    0  501    0  0.00000000000E+00  0.00000000000E+00 -0.16792045524E+04  0.16792045524E+04  0.25500000920E-02 0.  1.
    10030    2    1    2    0    0  0.00000000000E+00  0.00000000000E+00 -0.12515579304E+04  0.21068511744E+04  0.16948228869E+04 0.  0.
        5    1    3    3  502    0  0.18148085608E+03 -0.76413073880E+03 -0.23021798910E+03  0.81844578294E+03  0.46999998093E+01 0. -1.
       -5    1    3    3    0  502 -0.18148085608E+03  0.76413073880E+03 -0.10213399413E+04  0.12884053915E+04  0.46999998093E+01 0.  1.
</event>
<event>
 5   0  0.1234158E-04  0.1719207E+04  0.7818609E-02  0.8750485E-01
        1   -1    0    0  501    0  0.00000000000E+00  0.00000000000E+00  0.73144597100E+03  0.73144597102E+03  0.50400001928E-02 0. -1.
       -1   -1    0    0    0  501  0.00000000000E+00  0.00000000000E+00 -0.10102154003E+04  0.10102154003E+04  0.50400001928E-02 0.  1.
    10030    2    1    2    0    0  0.00000000000E+00  0.00000000000E+00 -0.27876942927E+03  0.17416613713E+04  0.17192067757E+04 0.  0.
        5    1    3    3  502    0  0.13231063450E+03 -0.28325006614E+03 -0.95056715596E+03  0.10006681328E+04  0.46999998093E+01 0.  1.
       -5    1    3    3    0  502 -0.13231063450E+03  0.28325006614E+03  0.67179772668E+03  0.74099323853E+03  0.46999998093E+01 0. -1.
</event>
<event>
 5   0  0.2288806E-04  0.1698617E+04  0.7818609E-02  0.8762153E-01
        2   -1    0    0  501    0  0.00000000000E+00  0.00000000000E+00  0.11197915075E+04  0.11197915075E+04  0.25500000920E-02 0.  1.
       -2   -1    0    0    0  501  0.00000000000E+00  0.00000000000E+00 -0.64416007465E+03  0.64416007466E+03  0.25500000920E-02 0. -1.
    10030    2    1    2    0    0  0.00000000000E+00  0.00000000000E+00  0.47563143288E+03  0.17639515822E+04  0.16986170623E+04 0.  0.
        3    1    3    3  502    0  0.66592378501E+02 -0.96002669934E+02  0.11114059526E+04  0.11175304287E+04  0.10100000352E+00 0.  1.
       -3    1    3    3    0  502 -0.66592378501E+02  0.96002669934E+02 -0.63577451971E+03  0.64642115345E+03  0.10100000352E+00 0. -1.
</event>
<event>
 5   0  0.1204741E-04  0.1702115E+04  0.7818609E-02  0.8760159E-01
        1   -1    0    0  501    0  0.00000000000E+00  0.00000000000E+00  0.13644353804E+04  0.13644353804E+04  0.50400001928E-02 0. -1.
       -1   -1    0    0    0  501  0.00000000000E+00  0.00000000000E+00 -0.53084168705E+03  0.53084168707E+03  0.50400001928E-02 0.  1.
    10030    2    1    2    0    0  0.00000000000E+00  0.00000000000E+00  0.83359369334E+03  0.18952770675E+04  0.17021153653E+04 0.  0.
        1    1    3    3  502    0  0.56515407846E+03 -0.40129660567E+03 -0.13306674299E+03  0.70579377741E+03  0.50400001928E-02 0.  1.
       -1    1    3    3    0  502 -0.56515407846E+03  0.40129660567E+03  0.96666043633E+03  0.11894832901E+04  0.50400001928E-02 0. -1.
</event>
<event>
 5   0  0.1234158E-04  0.1713393E+04  0.7818609E-02  0.8753763E-01
       -1   -1    0    0    0  501  0.00000000000E+00  0.00000000000E+00  0.10467333128E+04  0.10467333128E+04  0.50400001928E-02 0.  1.
        1   -1    0    0  501    0  0.00000000000E+00  0.00000000000E+00 -0.70116124010E+03  0.70116124012E+03  0.50400001928E-02 0. -1.
    10030    2    1    2    0    0  0.00000000000E+00  0.00000000000E+00  0.34557207271E+03  0.17478945529E+04  0.17133929236E+04 0.  0.
        5    1    3    3  502    0  0.28837945968E+03 -0.67910160705E+03  0.61694391945E+03  0.96176067460E+03  0.46999998093E+01 0.  1.
       -5    1    3    3    0  502 -0.28837945968E+03  0.67910160705E+03 -0.27137184674E+03  0.78613387834E+03  0.46999998093E+01 0. -1.
</event>
<event>
 5   0  0.2288806E-04  0.1744075E+04  0.7818609E-02  0.8736619E-01
       -2   -1    0    0    0  501  0.00000000000E+00  0.00000000000E+00  0.89605902044E+03  0.89605902044E+03  0.25500000920E-02 0.  1.
        2   -1    0    0  501    0  0.00000000000E+00  0.00000000000E+00 -0.84865975365E+03  0.84865975366E+03  0.25500000920E-02 0. -1.
    10030    2    1    2    0    0  0.00000000000E+00  0.00000000000E+00  0.47399266783E+02  0.17447187741E+04  0.17440748006E+04 0.  0.
        3    1    3    3  502    0  0.21352655766E+03 -0.52380913468E+03  0.68763107412E+03  0.89039659967E+03  0.10100000352E+00 0.  1.
       -3    1    3    3    0  502 -0.21352655766E+03  0.52380913468E+03 -0.64023180734E+03  0.85432217443E+03  0.10100000352E+00 0. -1.
</event>
<event>
 5   0  0.2356829E-04  0.1699003E+04  0.7818609E-02  0.8761933E-01
        2   -1    0    0  501    0  0.00000000000E+00  0.00000000000E+00  0.45839477103E+03  0.45839477103E+03  0.25500000920E-02 0. -1.
       -2   -1    0    0    0  501  0.00000000000E+00  0.00000000000E+00 -0.15743042652E+04  0.15743042652E+04  0.25500000920E-02 0.  1.
    10030    2    1    2    0    0  0.00000000000E+00  0.00000000000E+00 -0.11159094942E+04  0.20326990363E+04  0.16990030526E+04 0.  0.
        5    1    3    3  502    0  0.82336168299E+02  0.19306813238E+03  0.42686782737E+03  0.47570240739E+03  0.46999998093E+01 0. -1.
       -5    1    3    3    0  502 -0.82336168299E+02 -0.19306813238E+03 -0.15427773216E+04  0.15569966289E+04  0.46999998093E+01 0.  1.
</event>
<event>
 5   0  0.2356829E-04  0.1678708E+04  0.7818609E-02  0.8773602E-01
       -2   -1    0    0    0  501  0.00000000000E+00  0.00000000000E+00  0.25891913249E+03  0.25891913250E+03  0.25500000920E-02 0. -1.
        2   -1    0    0  501    0  0.00000000000E+00  0.00000000000E+00 -0.27209842960E+04  0.27209842960E+04  0.25500000920E-02 0.  1.
    10030    2    1    2    0    0  0.00000000000E+00  0.00000000000E+00 -0.24620651635E+04  0.29799034285E+04  0.16787077095E+04 0.  0.
        5    1    3    3  502    0 -0.27804285673E+03 -0.78947880314E+03 -0.13420050095E+04  0.15816397018E+04  0.46999998093E+01 0. -1.
       -5    1    3    3    0  502  0.27804285673E+03  0.78947880314E+03 -0.11200601540E+04  0.13982637267E+04  0.46999998093E+01 0.  1.
</event>
<event>
 5   0  0.1126958E-04  0.1619889E+04  0.7818609E-02  0.8808422E-01
       -1   -1    0    0    0  501  0.00000000000E+00  0.00000000000E+00  0.88167001465E+03  0.88167001466E+03  0.50400001928E-02 0. -1.
        1   -1    0    0  501    0  0.00000000000E+00  0.00000000000E+00 -0.74405415904E+03  0.74405415906E+03  0.50400001928E-02 0.  1.
    10030    2    1    2    0    0  0.00000000000E+00  0.00000000000E+00  0.13761585561E+03  0.16257241737E+04  0.16198891830E+04 0.  0.
        4    1    3    3  502    0 -0.32079874377E+03  0.16692707937E+03 -0.65853162774E+03  0.75129355213E+03  0.12699999809E+01 0.  1.
       -4    1    3    3    0  502  0.32079874377E+03 -0.16692707937E+03  0.79614748335E+03  0.87443062159E+03  0.12699999809E+01 0. -1.
</event>
<event>
 5   0  0.8372750E-05  0.1699328E+04  0.7818609E-02  0.8761747E-01
       -3   -1    0    0    0  501  0.00000000000E+00  0.00000000000E+00  0.99763070573E+03  0.99763071085E+03  0.10100000352E+00 0. -1.
        3   -1    0    0  501    0  0.00000000000E+00  0.00000000000E+00 -0.72364382695E+03  0.72364383400E+03  0.10100000352E+00 0.  1.
    10030    2    1    2    0    0  0.00000000000E+00  0.00000000000E+00  0.27398687878E+03  0.17212745448E+04  0.16993284700E+04 0.  0.
        2    1    3    3  502    0  0.41891373959E+01 -0.38544864511E+03 -0.62997828341E+03  0.73855321031E+03  0.25500000920E-02 0.  1.
       -2    1    3    3    0  502 -0.41891373959E+01  0.38544864511E+03  0.90396516219E+03  0.98272133453E+03  0.25500000920E-02 0. -1.
</event>
<event>
 5   0  0.1126958E-04  0.1694558E+04  0.7818609E-02  0.8764474E-01
       -1   -1    0    0    0  501  0.00000000000E+00  0.00000000000E+00  0.12088701422E+04  0.12088701422E+04  0.50400001928E-02 0.  1.
        1   -1    0    0  501    0  0.00000000000E+00  0.00000000000E+00 -0.59384500418E+03  0.59384500420E+03  0.50400001928E-02 0. -1.
    10030    2    1    2    0    0  0.00000000000E+00  0.00000000000E+00  0.61502513803E+03  0.18027151464E+04  0.16945577531E+04 0.  0.
        4    1    3    3  502    0 -0.93826730107E+02 -0.43065600244E+03 -0.46228309324E+03  0.63872945675E+03  0.12699999809E+01 0. -1.
       -4    1    3    3    0  502  0.93826730107E+02  0.43065600244E+03  0.10773082313E+04  0.11639856897E+04  0.12699999809E+01 0.  1.
</event>
<event>
 5   0  0.1186302E-04  0.1726746E+04  0.7818609E-02  0.8746256E-01
       -1   -1    0    0    0  501  0.00000000000E+00  0.00000000000E+00  0.86946056173E+03  0.86946056175E+03  0.50400001928E-02 0.  1.
        1   -1    0    0  501    0  0.00000000000E+00  0.00000000000E+00 -0.85732798765E+03  0.85732798766E+03  0.50400001928E-02 0. -1.
    10030    2    1    2    0    0  0.00000000000E+00  0.00000000000E+00  0.12132574085E+02  0.17267885494E+04  0.17267459266E+04 0.  0.
        3    1    3    3  502    0 -0.70447110480E+03  0.92462330214E+02  0.49657206763E+03  0.86684061313E+03  0.10100000352E+00 0.  1.
       -3    1    3    3    0  502  0.70447110480E+03 -0.92462330214E+02 -0.48443949355E+03  0.85994793629E+03  0.10100000352E+00 0. -1.
</event>
<event>
 5   0  0.1126958E-04  0.1701620E+04  0.7818609E-02  0.8760441E-01
        1   -1    0    0  501    0  0.00000000000E+00  0.00000000000E+00  0.53053579687E+03  0.53053579689E+03  0.50400001928E-02 0. -1.
       -1   -1    0    0    0  501  0.00000000000E+00  0.00000000000E+00 -0.13644274785E+04  0.13644274785E+04  0.50400001928E-02 0.  1.
    10030    2    1    2    0    0  0.00000000000E+00  0.00000000000E+00 -0.83389168158E+03  0.18949632754E+04  0.17016199571E+04 0.  0.
        4    1    3    3  502    0  0.79597500394E+03 -0.22908860898E+03 -0.63351105842E+03  0.10427826579E+04  0.12699999809E+01 0.  1.
       -4    1    3    3    0  502 -0.79597500394E+03  0.22908860898E+03 -0.20038062316E+03  0.85218061742E+03  0.12699999809E+01 0. -1.
</event>
<event>
 5   0  0.2288806E-04  0.1701119E+04  0.7818609E-02  0.8760726E-01
        2   -1    0    0  501    0  0.00000000000E+00  0.00000000000E+00  0.10841972922E+04  0.10841972922E+04  0.25500000920E-02 0.  1.
       -2   -1    0    0    0  501  0.00000000000E+00  0.00000000000E+00 -0.66726920176E+03  0.66726920176E+03  0.25500000920E-02 0. -1.
    10030    2    1    2    0    0  0.00000000000E+00  0.00000000000E+00  0.41692809041E+03  0.17514664939E+04  0.17011189984E+04 0.  0.
        3    1    3    3  502    0 -0.47338762234E+03 -0.52401365709E+03  0.69658985148E+03  0.99192922388E+03  0.10100000352E+00 0.  1.
       -3    1    3    3    0  502  0.47338762234E+03  0.52401365709E+03 -0.27966176106E+03  0.75953727006E+03  0.10100000352E+00 0. -1.
</event>
<event>
 5   0  0.2356829E-04  0.1702472E+04  0.7818609E-02  0.8759956E-01
        2   -1    0    0  501    0  0.00000000000E+00  0.00000000000E+00  0.28596877363E+04  0.28596877363E+04  0.25500000920E-02 0. -1.
       -2   -1    0    0    0  501  0.00000000000E+00  0.00000000000E+00 -0.25338538117E+03  0.25338538118E+03  0.25500000920E-02 0.  1.
    10030    2    1    2    0    0  0.00000000000E+00  0.00000000000E+00  0.26063023551E+04  0.31130731175E+04  0.17024723987E+04 0.  0.
        5    1    3    3  502    0  0.75016297303E+03  0.39619834528E+03  0.11756313993E+04  0.14497754626E+04  0.46999998093E+01 0.  1.
       -5    1    3    3    0  502 -0.75016297303E+03 -0.39619834528E+03  0.14306709558E+04  0.16632976549E+04  0.46999998093E+01 0. -1.
</event>
<event>
 5   0  0.2356829E-04  0.1696735E+04  0.7818609E-02  0.8763229E-01
       -2   -1    0    0    0  501  0.00000000000E+00  0.00000000000E+00  0.50941133100E+03  0.50941133100E+03  0.25500000920E-02 0. -1.
        2   -1    0    0  501    0  0.00000000000E+00  0.00000000000E+00 -0.14128608044E+04  0.14128608044E+04  0.25500000920E-02 0.  1.
    10030    2    1    2    0    0  0.00000000000E+00  0.00000000000E+00 -0.90344947342E+03  0.19222721354E+04  0.16967348678E+04 0.  0.
        5    1    3    3  502    0 -0.45979024396E+03  0.52990416022E+03 -0.99209485407E+03  0.12151048419E+04  0.46999998093E+01 0. -1.
       -5    1    3    3    0  502  0.45979024396E+03 -0.52990416022E+03  0.88645380646E+02  0.70716729348E+03  0.46999998093E+01 0.  1.
</event>
<event>
 5   0  0.1204741E-04  0.1696587E+04  0.7818609E-02  0.8763313E-01
       -1   -1    0    0    0  501  0.00000000000E+00  0.00000000000E+00  0.81328782418E+03  0.81328782420E+03  0.50400001928E-02 0.  1.
        1   -1    0    0  501    0  0.00000000000E+00  0.00000000000E+00 -0.88480623576E+03  0.88480623578E+03  0.50400001928E-02 0. -1.
    10030    2    1    2    0    0  0.00000000000E+00  0.00000000000E+00 -0.71518411582E+02  0.16980940600E+04  0.16965873256E+04 0.  0.
        1    1    3    3  502    0  0.30005276331E+03  0.64025496767E+03 -0.50483740574E+03  0.86880313688E+03  0.50400001928E-02 0. -1.
       -1    1    3    3    0  502 -0.30005276331E+03 -0.64025496767E+03  0.43331899416E+03  0.82929092309E+03  0.50400001928E-02 0.  1.
</event>
<event>
 5   0  0.2234723E-04  0.1697445E+04  0.7818609E-02  0.8762823E-01
        2   -1    0    0  501    0  0.00000000000E+00  0.00000000000E+00  0.18564059742E+04  0.18564059742E+04  0.25500000920E-02 0. -1.
       -2   -1    0    0    0  501  0.00000000000E+00  0.00000000000E+00 -0.38802406634E+03  0.38802406634E+03  0.25500000920E-02 0.  1.
    10030    2    1    2    0    0  0.00000000000E+00  0.00000000000E+00  0.14683819078E+04  0.22444300405E+04  0.16974453686E+04 0.  0.
        1    1    3    3  502    0 -0.75558884159E+03 -0.37928803802E+03  0.63563056947E+03  0.10577334892E+04  0.50400001928E-02 0.  1.
       -1    1    3    3    0  502  0.75558884159E+03  0.37928803802E+03  0.83275133835E+03  0.11866965513E+04  0.50400001928E-02 0. -1.
</event>
<event>
 5   0  0.2234723E-04  0.1689290E+04  0.7818609E-02  0.8767496E-01
       -2   -1    0    0    0  501  0.00000000000E+00  0.00000000000E+00  0.11909264536E+04  0.11909264536E+04  0.25500000920E-02 0.  1.
        2   -1    0    0  501    0  0.00000000000E+00  0.00000000000E+00 -0.59905074175E+03  0.59905074175E+03  0.25500000920E-02 0. -1.
    10030    2    1    2    0    0  0.00000000000E+00  0.00000000000E+00  0.59187571185E+03  0.17899771953E+04  0.16892902360E+04 0.  0.
        1    1    3    3  502    0 -0.28659620996E+03  0.74239268300E+02  0.11341478943E+04  0.11721519964E+04  0.50400001928E-02 0.  1.
       -1    1    3    3    0  502  0.28659620996E+03 -0.74239268300E+02 -0.54227218247E+03  0.61782519892E+03  0.50400001928E-02 0. -1.
</event>
<event>
 5   0  0.1186302E-04  0.1695598E+04  0.7818609E-02  0.8763879E-01
       -1   -1    0    0    0  501  0.00000000000E+00  0.00000000000E+00  0.17203511968E+04  0.17203511968E+04  0.50400001928E-02 0. -1.
        1   -1    0    0  501    0  0.00000000000E+00  0.00000000000E+00 -0.41780023390E+03  0.41780023393E+03  0.50400001928E-02 0.  1.
    10030    2    1    2    0    0  0.00000000000E+00  0.00000000000E+00  0.13025509629E+04  0.21381514307E+04  0.16955979859E+04 0.  0.
        3    1    3    3  502    0 -0.45110921234E+03  0.69686546809E+03  0.86838066865E+03  0.12013350898E+04  0.10100000352E+00 0. -1.
       -3    1    3    3    0  502  0.45110921234E+03 -0.69686546809E+03  0.43417029424E+03  0.93681634095E+03  0.10100000352E+00 0.  1.
</event>
<event>
 5   0  0.2242967E-04  0.1665972E+04  0.7818609E-02  0.8781013E-01
        2   -1    0    0  501    0  0.00000000000E+00  0.00000000000E+00  0.10143437327E+04  0.10143437328E+04  0.25500000920E-02 0.  1.
       -2   -1    0    0    0  501  0.00000000000E+00  0.00000000000E+00 -0.68405400457E+03  0.68405400458E+03  0.25500000920E-02 0. -1.
    10030    2    1    2    0    0  0.00000000000E+00  0.00000000000E+00  0.33028972818E+03  0.16983977373E+04  0.16659722596E+04 0.  0.
        4    1    3    3  502    0  0.79508511650E+03 -0.24840243127E+03  0.16472555532E+03  0.84911732512E+03  0.12699999809E+01 0. -1.
       -4    1    3    3    0  502 -0.79508511650E+03  0.24840243127E+03  0.16556417286E+03  0.84928041221E+03  0.12699999809E+01 0.  1.
</event>
<event>
 5   0  0.1215233E-04  0.1689965E+04  0.7818609E-02  0.8767108E-01
       -1   -1    0    0    0  501  0.00000000000E+00  0.00000000000E+00  0.41587837671E+03  0.41587837674E+03  0.50400001928E-02 0. -1.
        1   -1    0    0  501    0  0.00000000000E+00  0.00000000000E+00 -0.17168372096E+04  0.17168372096E+04  0.50400001928E-02 0.  1.
    10030    2    1    2    0    0  0.00000000000E+00  0.00000000000E+00 -0.13009588329E+04  0.21327155863E+04  0.16899650551E+04 0.  0.
        2    1    3    3  502    0 -0.41560158752E+03  0.67544696415E+03 -0.28245855417E+03  0.84186466594E+03  0.25500000920E-02 0. -1.
       -2    1    3    3    0  502  0.41560158752E+03 -0.67544696415E+03 -0.10185002787E+04  0.12908509204E+04  0.25500000920E-02 0.  1.
</event>
<event>
 5   0  0.2224454E-04  0.1710843E+04  0.7818609E-02  0.8755204E-01
       -2   -1    0    0    0  501  0.00000000000E+00  0.00000000000E+00  0.51966938077E+03  0.51966938078E+03  0.25500000920E-02 0. -1.
        2   -1    0    0  501    0  0.00000000000E+00  0.00000000000E+00 -0.14080997402E+04  0.14080997402E+04  0.25500000920E-02 0.  1.
    10030    2    1    2    0    0  0.00000000000E+00  0.00000000000E+00 -0.88843035944E+03  0.19277691210E+04  0.17108434412E+04 0.  0.
        2    1    3    3  502    0 -0.10591505414E+02 -0.18386339654E+03 -0.13854956927E+04  0.13976824544E+04  0.25500000920E-02 0.  1.
       -2    1    3    3    0  502  0.10591505414E+02  0.18386339654E+03  0.49706533331E+03  0.53008666665E+03  0.25500000920E-02 0. -1.
</event>
<event>
 5   0  0.1204741E-04  0.1663398E+04  0.7818609E-02  0.8782520E-01
        1   -1    0    0  501    0  0.00000000000E+00  0.00000000000E+00  0.76143215986E+03  0.76143215988E+03  0.50400001928E-02 0. -1.
       -1   -1    0    0    0  501  0.00000000000E+00  0.00000000000E+00 -0.90845000945E+03  0.90845000947E+03  0.50400001928E-02 0.  1.
    10030    2    1    2    0    0  0.00000000000E+00  0.00000000000E+00 -0.14701784959E+03  0.16698821693E+04  0.16633977911E+04 0.  0.
        1    1    3    3  502    0 -0.38724407621E+03 -0.64423686091E+03 -0.43087971275E+03  0.86640431347E+03  0.50400001928E-02 0.  1.
       -1    1    3    3    0  502  0.38724407621E+03  0.64423686091E+03  0.28386186316E+03  0.80347785588E+03  0.50400001928E-02 0. -1.
</event>
<event>
 5   0  0.2224454E-04  0.1702983E+04  0.7818609E-02  0.8759665E-01
        2   -1    0    0  501    0  0.00000000000E+00  0.00000000000E+00  0.10704305813E+04  0.10704305813E+04  0.25500000920E-02 0.  1.
       -2   -1    0    0    0  501  0.00000000000E+00  0.00000000000E+00 -0.67733315485E+03  0.67733315485E+03  0.25500000920E-02 0. -1.
    10030    2    1    2    0    0  0.00000000000E+00  0.00000000000E+00  0.39309742643E+03  0.17477637361E+04  0.17029834088E+04 0.  0.
        2    1    3    3  502    0  0.62889532615E+03  0.19762828397E+03 -0.35657761969E+03  0.74947572926E+03  0.25500000920E-02 0. -1.
       -2    1    3    3    0  502 -0.62889532615E+03 -0.19762828397E+03  0.74967504613E+03  0.99828800687E+03  0.25500000920E-02 0.  1.
</event>
<event>
 5   0  0.2356829E-04  0.1690912E+04  0.7818609E-02  0.8766565E-01
        2   -1    0    0  501    0  0.00000000000E+00  0.00000000000E+00  0.15957401636E+04  0.15957401636E+04  0.25500000920E-02 0.  1.
       -2   -1    0    0    0  501  0.00000000000E+00  0.00000000000E+00 -0.44793981997E+03  0.44793981998E+03  0.25500000920E-02 0. -1.
    10030    2    1    2    0    0  0.00000000000E+00  0.00000000000E+00  0.11478003436E+04  0.20436799836E+04  0.16909116613E+04 0.  0.
        5    1    3    3  502    0 -0.36954424292E+03 -0.23959215287E+03 -0.29832780666E+03  0.53196702662E+03  0.46999998093E+01 0. -1.
       -5    1    3    3    0  502  0.36954424292E+03  0.23959215287E+03  0.14461281503E+04  0.15117129570E+04  0.46999998093E+01 0.  1.
</event>
<event>
 5   0  0.2356829E-04  0.1706214E+04  0.7818609E-02  0.8757828E-01
       -2   -1    0    0    0  501  0.00000000000E+00  0.00000000000E+00  0.84707673865E+03  0.84707673865E+03  0.25500000920E-02 0. -1.
        2   -1    0    0  501    0  0.00000000000E+00  0.00000000000E+00 -0.85918061710E+03  0.85918061711E+03  0.25500000920E-02 0.  1.
    10030    2    1    2    0    0  0.00000000000E+00  0.00000000000E+00 -0.12103878457E+02  0.17062573558E+04  0.17062144239E+04 0.  0.
        5    1    3    3  502    0 -0.15610361011E+03  0.33034878677E+03 -0.77696119045E+03  0.85859736749E+03  0.46999998093E+01 0.  1.
       -5    1    3    3    0  502  0.15610361011E+03 -0.33034878677E+03  0.76485731199E+03  0.84765998827E+03  0.46999998093E+01 0. -1.
</event>
<event>
 5   0  0.2356829E-04  0.1732817E+04  0.7818609E-02  0.8742866E-01
       -2   -1    0    0    0  501  0.00000000000E+00  0.00000000000E+00  0.77425050834E+03  0.77425050834E+03  0.25500000920E-02 0. -1.
        2   -1    0    0  501    0  0.00000000000E+00  0.00000000000E+00 -0.96953634579E+03  0.96953634579E+03  0.25500000920E-02 0.  1.
    10030    2    1    2    0    0  0.00000000000E+00  0.00000000000E+00 -0.19528583745E+03  0.17437868541E+04  0.17328173690E+04 0.  0.
        5    1    3    3  502    0  0.91578767377E+02  0.14349356463E+03  0.75724342914E+03  0.77615512283E+03  0.46999998093E+01 0. -1.
       -5    1    3    3    0  502 -0.91578767377E+02 -0.14349356463E+03 -0.95252926659E+03  0.96763173131E+03  0.46999998093E+01 0.  1.
</event>
<event>
 5   0  0.1204741E-04  0.1715024E+04  0.7818609E-02  0.8752842E-01
       -1   -1    0    0    0  501  0.00000000000E+00  0.00000000000E+00  0.45229385950E+03  0.45229385952E+03  0.50400001928E-02 0. -1.
        1   -1    0    0  501    0  0.00000000000E+00  0.00000000000E+00 -0.16257715826E+04  0.16257715826E+04  0.50400001928E-02 0.  1.
    10030    2    1    2    0    0  0.00000000000E+00  0.00000000000E+00 -0.11734777231E+04  0.20780654421E+04  0.17150236194E+04 0.  0.
        1    1    3    3  502    0 -0.32861041804E+03  0.19009626699E+03 -0.15184004768E+04  0.15651394205E+04  0.50400001928E-02 0.  1.
       -1    1    3    3    0  502  0.32861041804E+03 -0.19009626699E+03  0.34492275374E+03  0.51292602161E+03  0.50400001928E-02 0. -1.
</event>
<event>
 5   0  0.1186302E-04  0.1703273E+04  0.7818609E-02  0.8759500E-01
       -1   -1    0    0    0  501  0.00000000000E+00  0.00000000000E+00  0.54409576128E+03  0.54409576130E+03  0.50400001928E-02 0.  1.
        1   -1    0    0  501    0  0.00000000000E+00  0.00000000000E+00 -0.13330099002E+04  0.13330099002E+04  0.50400001928E-02 0. -1.
    10030    2    1    2    0    0  0.00000000000E+00  0.00000000000E+00 -0.78891413888E+03  0.18771056615E+04  0.17032733620E+04 0.  0.
        3    1    3    3  502    0  0.82539370022E+03  0.55966417544E+02 -0.61727458264E+03  0.10321990703E+04  0.10100000352E+00 0. -1.
       -3    1    3    3    0  502 -0.82539370022E+03 -0.55966417544E+02 -0.17163955623E+03  0.84490659112E+03  0.10100000352E+00 0.  1.
</event>
<event>
 5   0  0.1186302E-04  0.1675386E+04  0.7818609E-02  0.8775528E-01
       -1   -1    0    0    0  501  0.00000000000E+00  0.00000000000E+00  0.45262671827E+03  0.45262671830E+03  0.50400001928E-02 0.  1.
        1   -1    0    0  501    0  0.00000000000E+00  0.00000000000E+00 -0.15503500196E+04  0.15503500196E+04  0.50400001928E-02 0. -1.
    10030    2    1    2    0    0  0.00000000000E+00  0.00000000000E+00 -0.10977233013E+04  0.20029767379E+04  0.16753863335E+04 0.  0.
        3    1    3    3  502    0  0.34850668560E+03  0.58576323940E+03 -0.11310673916E+04  0.13205638709E+04  0.10100000352E+00 0. -1.
       -3    1    3    3    0  502 -0.34850668560E+03 -0.58576323940E+03  0.33344090265E+02  0.68241286703E+03  0.10100000352E+00 0.  1.
</event>
<event>
 5   0  0.2234723E-04  0.1701414E+04  0.7818609E-02  0.8760558E-01
       -2   -1    0    0    0  501  0.00000000000E+00  0.00000000000E+00  0.45841557695E+03  0.45841557695E+03  0.25500000920E-02 0. -1.
        2   -1    0    0  501    0  0.00000000000E+00  0.00000000000E+00 -0.15787041514E+04  0.15787041514E+04  0.25500000920E-02 0.  1.
    10030    2    1    2    0    0  0.00000000000E+00  0.00000000000E+00 -0.11202885744E+04  0.20371197283E+04  0.17014142052E+04 0.  0.
        1    1    3    3  502    0 -0.83622195555E+03 -0.15371347050E+03 -0.52611910487E+03  0.99984813972E+03  0.50400001928E-02 0. -1.
       -1    1    3    3    0  502  0.83622195555E+03  0.15371347050E+03 -0.59416946954E+03  0.10372715886E+04  0.50400001928E-02 0.  1.
</event>
<event>
 5   0  0.1234158E-04  0.1709068E+04  0.7818609E-02  0.8756210E-01
        1   -1    0    0  501    0  0.00000000000E+00  0.00000000000E+00  0.59007733035E+03  0.59007733037E+03  0.50400001928E-02 0.  1.
       -1   -1    0    0    0  501  0.00000000000E+00  0.00000000000E+00 -0.12375126738E+04  0.12375126738E+04  0.50400001928E-02 0. -1.
    10030    2    1    2    0    0  0.00000000000E+00  0.00000000000E+00 -0.64743534347E+03  0.18275900042E+04  0.17090677867E+04 0.  0.
        5    1    3    3  502    0  0.66251267391E+03 -0.18053669073E+03 -0.86760497947E+03  0.11064705284E+04  0.46999998093E+01 0. -1.
       -5    1    3    3    0  502 -0.66251267391E+03  0.18053669073E+03  0.22016963600E+03  0.72111947582E+03  0.46999998093E+01 0.  1.
</event>
<event>
 5   0  0.2234723E-04  0.1673116E+04  0.7818609E-02  0.8776848E-01
       -2   -1    0    0    0  501  0.00000000000E+00  0.00000000000E+00  0.14198969270E+04  0.14198969270E+04  0.25500000920E-02 0. -1.
        2   -1    0    0  501    0  0.00000000000E+00  0.00000000000E+00 -0.49287327429E+03  0.49287327430E+03  0.25500000920E-02 0.  1.
    10030    2    1    2    0    0  0.00000000000E+00  0.00000000000E+00  0.92702365271E+03  0.19127702013E+04  0.16731159524E+04 0.  0.
        1    1    3    3  502    0 -0.34605745087E+03 -0.10989191832E+03 -0.39809647692E+03  0.53880682807E+03  0.50400001928E-02 0.  1.
       -1    1    3    3    0  502  0.34605745087E+03  0.10989191832E+03  0.13251201296E+04  0.13739633732E+04  0.50400001928E-02 0. -1.
</event>
<event>
 5   0  0.2288806E-04  0.1715423E+04  0.7818609E-02  0.8752617E-01
        2   -1    0    0  501    0  0.00000000000E+00  0.00000000000E+00  0.10959943109E+04  0.10959943109E+04  0.25500000920E-02 0. -1.
       -2   -1    0    0    0  501  0.00000000000E+00  0.00000000000E+00 -0.67123409442E+03  0.67123409442E+03  0.25500000920E-02 0.  1.
    10030    2    1    2    0    0  0.00000000000E+00  0.00000000000E+00  0.42476021646E+03  0.17672284053E+04  0.17154226870E+04 0.  0.
        3    1    3    3  502    0 -0.54898819264E+03  0.27532827426E+03  0.82918952805E+03  0.10318667443E+04  0.10100000352E+00 0. -1.
       -3    1    3    3    0  502  0.54898819264E+03 -0.27532827426E+03 -0.40442931159E+03  0.73536166105E+03  0.10100000352E+00 0.  1.
</event>
<event>
 5   0  0.2224454E-04  0.1702705E+04  0.7818609E-02  0.8759823E-01
        2   -1    0    0  501    0  0.00000000000E+00  0.00000000000E+00  0.81091994230E+03  0.81091994230E+03  0.25500000920E-02 0.  1.
       -2   -1    0    0    0  501  0.00000000000E+00  0.00000000000E+00 -0.89380154461E+03  0.89380154461E+03  0.25500000920E-02 0. -1.
    10030    2    1    2    0    0  0.00000000000E+00  0.00000000000E+00 -0.82881602311E+02  0.17047214869E+04  0.17027054907E+04 0.  0.
        2    1    3    3  502    0  0.12913985630E+03 -0.66265343795E+03  0.47783967954E+03  0.82711392243E+03  0.25500000920E-02 0.  1.
       -2    1    3    3    0  502 -0.12913985630E+03  0.66265343795E+03 -0.56072128185E+03  0.87760756449E+03  0.25500000920E-02 0. -1.
</event>
<event>
 5   0  0.1215233E-04  0.1687420E+04  0.7818609E-02  0.8768572E-01
        1   -1    0    0  501    0  0.00000000000E+00  0.00000000000E+00  0.60060615741E+03  0.60060615743E+03  0.50400001928E-02 0. -1.
       -1   -1    0    0    0  501  0.00000000000E+00  0.00000000000E+00 -0.11852141849E+04  0.11852141849E+04  0.50400001928E-02 0.  1.
    10030    2    1    2    0    0  0.00000000000E+00  0.00000000000E+00 -0.58460802745E+03  0.17858203423E+04  0.16874204423E+04 0.  0.
        2    1    3    3  502    0  0.49438683145E+03  0.69761104201E+02 -0.10120834408E+04  0.11285379222E+04  0.25500000920E-02 0.  1.
       -2    1    3    3    0  502 -0.49438683145E+03 -0.69761104201E+02  0.42747541332E+03  0.65728242010E+03  0.25500000920E-02 0. -1.
</event>
<event>
 5   0  0.2356829E-04  0.1600226E+04  0.7818609E-02  0.8820409E-01
        2   -1    0    0  501    0  0.00000000000E+00  0.00000000000E+00  0.13868754193E+04  0.13868754193E+04  0.25500000920E-02 0. -1.
       -2   -1    0    0    0  501  0.00000000000E+00  0.00000000000E+00 -0.46159943513E+03  0.46159943513E+03  0.25500000920E-02 0.  1.
    10030    2    1    2    0    0  0.00000000000E+00  0.00000000000E+00  0.92527598414E+03  0.18484748544E+04  0.16002261217E+04 0.  0.
        5    1    3    3  502    0 -0.52856978783E+03  0.43428350218E+03  0.94194274721E+03  0.11641590999E+04  0.46999998093E+01 0. -1.
       -5    1    3    3    0  502  0.52856978783E+03 -0.43428350218E+03 -0.16666763067E+02  0.68431575450E+03  0.46999998093E+01 0.  1.
</event>
<event>
 5   0  0.8372750E-05  0.1707269E+04  0.7818609E-02  0.8757230E-01
        3   -1    0    0  501    0  0.00000000000E+00  0.00000000000E+00  0.81645887111E+03  0.81645887735E+03  0.10100000352E+00 0. -1.
       -3   -1    0    0    0  501  0.00000000000E+00  0.00000000000E+00 -0.89250245525E+03  0.89250246096E+03  0.10100000352E+00 0.  1.
    10030    2    1    2    0    0  0.00000000000E+00  0.00000000000E+00 -0.76043584140E+02  0.17089613383E+04  0.17072686459E+04 0.  0.
        3    1    3    3  502    0 -0.32615135793E+03 -0.10896205279E+03 -0.82010565876E+03  0.88928102361E+03  0.10100000352E+00 0.  1.
       -3    1    3    3    0  502  0.32615135793E+03  0.10896205279E+03  0.74406207462E+03  0.81968031470E+03  0.10100000352E+00 0. -1.
</event>
<event>
 5   0  0.2356829E-04  0.1640152E+04  0.7818609E-02  0.8796254E-01
       -2   -1    0    0    0  501  0.00000000000E+00  0.00000000000E+00  0.71923413129E+03  0.71923413129E+03  0.25500000920E-02 0.  1.
        2   -1    0    0  501    0  0.00000000000E+00  0.00000000000E+00 -0.93505634259E+03  0.93505634260E+03  0.25500000920E-02 0. -1.
    10030    2    1    2    0    0  0.00000000000E+00  0.00000000000E+00 -0.21582221131E+03  0.16542904739E+04  0.16401517445E+04 0.  0.
        5    1    3    3  502    0  0.64279362740E+02 -0.70674118864E+03 -0.52241285357E+03  0.88122200595E+03  0.46999998093E+01 0.  1.
       -5    1    3    3    0  502 -0.64279362740E+02  0.70674118864E+03  0.30659064226E+03  0.77306846794E+03  0.46999998093E+01 0. -1.
</event>
<event>
 5   0  0.2234723E-04  0.1695558E+04  0.7818609E-02  0.8763902E-01
       -2   -1    0    0    0  501  0.00000000000E+00  0.00000000000E+00  0.74256908943E+03  0.74256908944E+03  0.25500000920E-02 0. -1.
        2   -1    0    0  501    0  0.00000000000E+00  0.00000000000E+00 -0.96789596028E+03  0.96789596028E+03  0.25500000920E-02 0.  1.
    10030    2    1    2    0    0  0.00000000000E+00  0.00000000000E+00 -0.22532687084E+03  0.17104650497E+04  0.16955584589E+04 0.  0.
        1    1    3    3  502    0  0.75016234002E+03 -0.23140980696E+03 -0.43553282038E+03  0.89776548875E+03  0.50400001928E-02 0.  1.
       -1    1    3    3    0  502 -0.75016234002E+03  0.23140980696E+03  0.21020594954E+03  0.81269956096E+03  0.50400001928E-02 0. -1.
</event>
<event>
 5   0  0.2242967E-04  0.1702802E+04  0.7818609E-02  0.8759768E-01
        2   -1    0    0  501    0  0.00000000000E+00  0.00000000000E+00  0.13807471851E+04  0.13807471851E+04  0.25500000920E-02 0.  1.
       -2   -1    0    0    0  501  0.00000000000E+00  0.00000000000E+00 -0.52499395200E+03  0.52499395200E+03  0.25500000920E-02 0. -1.
    10030    2    1    2    0    0  0.00000000000E+00  0.00000000000E+00  0.85575323314E+03  0.19057411371E+04  0.17028023038E+04 0.  0.
        4    1    3    3  502    0  0.77818548113E+03  0.77468375664E+02  0.51146298147E+02  0.78370373802E+03  0.12699999809E+01 0. -1.
       -4    1    3    3    0  502 -0.77818548113E+03 -0.77468375664E+02  0.80460693499E+03  0.11220373991E+04  0.12699999809E+01 0.  1.
</event>
<event>
 5   0  0.1215233E-04  0.1697342E+04  0.7818609E-02  0.8762882E-01
        1   -1    0    0  501    0  0.00000000000E+00  0.00000000000E+00  0.25476154897E+04  0.25476154897E+04  0.50400001928E-02 0. -1.
       -1   -1    0    0    0  501  0.00000000000E+00  0.00000000000E+00 -0.28271228686E+03  0.28271228691E+03  0.50400001928E-02 0.  1.
    10030    2    1    2    0    0  0.00000000000E+00  0.00000000000E+00  0.22649032028E+04  0.28303277766E+04  0.16973416877E+04 0.  0.
        2    1    3    3  502    0 -0.51542139062E+03  0.67110143858E+03  0.12405935939E+04  0.15017019731E+04  0.25500000920E-02 0. -1.
       -2    1    3    3    0  502  0.51542139062E+03 -0.67110143858E+03  0.10243096089E+04  0.13286258035E+04  0.25500000920E-02 0.  1.
</event>
<event>
 5   0  0.1215233E-04  0.1689668E+04  0.7818609E-02  0.8767279E-01
       -1   -1    0    0    0  501  0.00000000000E+00  0.00000000000E+00  0.27245087232E+03  0.27245087237E+03  0.50400001928E-02 0. -1.
        1   -1    0    0  501    0  0.00000000000E+00  0.00000000000E+00 -0.26197176166E+04  0.26197176166E+04  0.50400001928E-02 0.  1.
    10030    2    1    2    0    0  0.00000000000E+00  0.00000000000E+00 -0.23472667443E+04  0.28921684890E+04  0.16896678371E+04 0.  0.
        2    1    3    3  502    0  0.23895173993E+03  0.37830432487E+03  0.52975539374E+02  0.45057574725E+03  0.25500000920E-02 0. -1.
       -2    1    3    3    0  502 -0.23895173993E+03 -0.37830432487E+03 -0.24002422837E+04  0.24415927417E+04  0.25500000920E-02 0.  1.
</event>
<event>
 5   0  0.2356829E-04  0.1686870E+04  0.7818609E-02  0.8768889E-01
       -2   -1    0    0    0  501  0.00000000000E+00  0.00000000000E+00  0.68704711634E+03  0.68704711634E+03  0.25500000920E-02 0.  1.
        2   -1    0    0  501    0  0.00000000000E+00  0.00000000000E+00 -0.10354198906E+04  0.10354198906E+04  0.25500000920E-02 0. -1.
    10030    2    1    2    0    0  0.00000000000E+00  0.00000000000E+00 -0.34837277428E+03  0.17224670070E+04  0.16868695860E+04 0.  0.
        5    1    3    3  502    0 -0.58597707908E+02  0.11084631340E+03  0.67746437787E+03  0.68898524646E+03  0.46999998093E+01 0.  1.
       -5    1    3    3    0  502  0.58597707908E+02 -0.11084631340E+03 -0.10258371521E+04  0.10334817605E+04  0.46999998093E+01 0. -1.
</event>
<event>
 5   0  0.2288806E-04  0.1696440E+04  0.7818609E-02  0.8763398E-01
        2   -1    0    0  501    0  0.00000000000E+00  0.00000000000E+00  0.60846070368E+03  0.60846070369E+03  0.25500000920E-02 0. -1.
       -2   -1    0    0    0  501  0.00000000000E+00  0.00000000000E+00 -0.11824539921E+04  0.11824539921E+04  0.25500000920E-02 0.  1.
    10030    2    1    2    0    0  0.00000000000E+00  0.00000000000E+00 -0.57399328840E+03  0.17909146958E+04  0.16964395517E+04 0.  0.
        3    1    3    3  502    0 -0.14801775986E+03 -0.83266242344E+03 -0.21824851561E+03  0.87342337581E+03  0.10100000352E+00 0.  1.
       -3    1    3    3    0  502  0.14801775986E+03  0.83266242344E+03 -0.35574477280E+03  0.91749131997E+03  0.10100000352E+00 0. -1.
</event>
<event>
 5   0  0.1215233E-04  0.1650668E+04  0.7818609E-02  0.8790011E-01
        1   -1    0    0  501    0  0.00000000000E+00  0.00000000000E+00  0.77853870133E+03  0.77853870135E+03  0.50400001928E-02 0. -1.
       -1   -1    0    0    0  501  0.00000000000E+00  0.00000000000E+00 -0.87494190507E+03  0.87494190509E+03  0.50400001928E-02 0.  1.
    10030    2    1    2    0    0  0.00000000000E+00  0.00000000000E+00 -0.96403203740E+02  0.16534806064E+04  0.16506679067E+04 0.  0.
        2    1    3    3  502    0  0.12930159678E+03 -0.41708364885E+03  0.65334774180E+03  0.78583773439E+03  0.25500000920E-02 0.  1.
       -2    1    3    3    0  502 -0.12930159678E+03  0.41708364885E+03 -0.74975094554E+03  0.86764287204E+03  0.25500000920E-02 0. -1.
</event>
<event>
 5   0  0.2224454E-04  0.1683142E+04  0.7818609E-02  0.8771038E-01
       -2   -1    0    0    0  501  0.00000000000E+00  0.00000000000E+00  0.75134979958E+03  0.75134979959E+03  0.25500000920E-02 0.  1.
        2   -1    0    0  501    0  0.00000000000E+00  0.00000000000E+00 -0.94262620044E+03  0.94262620044E+03  0.25500000920E-02 0. -1.
    10030    2    1    2    0    0  0.00000000000E+00  0.00000000000E+00 -0.19127640085E+03  0.16939760000E+04  0.16831423075E+04 0.  0.
        2    1    3    3  502    0  0.36425157011E+03 -0.68161722517E+03  0.23961360511E+03  0.80913282453E+03  0.25500000920E-02 0.  1.
       -2    1    3    3    0  502 -0.36425157011E+03  0.68161722517E+03 -0.43089000596E+03  0.88484317549E+03  0.25500000920E-02 0. -1.
</event>
<event>
 5   0  0.1126958E-04  0.1680433E+04  0.7818609E-02  0.8772603E-01
        1   -1    0    0  501    0  0.00000000000E+00  0.00000000000E+00  0.10063500221E+04  0.10063500221E+04  0.50400001928E-02 0. -1.
       -1   -1    0    0    0  501  0.00000000000E+00  0.00000000000E+00 -0.70150956311E+03  0.70150956313E+03  0.50400001928E-02 0.  1.
    10030    2    1    2    0    0  0.00000000000E+00  0.00000000000E+00  0.30484045894E+03  0.17078595852E+04  0.16804334731E+04 0.  0.
        4    1    3    3  502    0 -0.32022701487E+03  0.45553590693E+02  0.94053893566E+03  0.99460322394E+03  0.12699999809E+01 0. -1.
       -4    1    3    3    0  502  0.32022701487E+03 -0.45553590693E+02 -0.63569847672E+03  0.71325636126E+03  0.12699999809E+01 0.  1.
</event>
<event>
 5   0  0.1186302E-04  0.1692464E+04  0.7818609E-02  0.8765674E-01
        1   -1    0    0  501    0  0.00000000000E+00  0.00000000000E+00  0.57055273497E+03  0.57055273499E+03  0.50400001928E-02 0.  1.
       -1   -1    0    0    0  501  0.00000000000E+00  0.00000000000E+00 -0.12551140257E+04  0.12551140257E+04  0.50400001928E-02 0. -1.
    10030    2    1    2    0    0  0.00000000000E+00  0.00000000000E+00 -0.68456129069E+03  0.18256667607E+04  0.16924641681E+04 0.  0.
        3    1    3    3  502    0  0.52311761666E+03 -0.30806909325E+03 -0.97821274746E+03  0.11512857146E+04  0.10100000352E+00 0. -1.
       -3    1    3    3    0  502 -0.52311761666E+03  0.30806909325E+03  0.29365145677E+03  0.67438104610E+03  0.10100000352E+00 0.  1.
</event>
<event>
 5   0  0.2234723E-04  0.1655709E+04  0.7818609E-02  0.8787036E-01
        2   -1    0    0  501    0  0.00000000000E+00  0.00000000000E+00  0.91369389052E+03  0.91369389052E+03  0.25500000920E-02 0. -1.
       -2   -1    0    0    0  501  0.00000000000E+00  0.00000000000E+00 -0.75007959481E+03  0.75007959482E+03  0.25500000920E-02 0.  1.
    10030    2    1    2    0    0  0.00000000000E+00  0.00000000000E+00  0.16361429571E+03  0.16637734853E+04  0.16557090846E+04 0.  0.
        1    1    3    3  502    0  0.64034193541E+02  0.12231972694E+03  0.90204303641E+03  0.91254815386E+03  0.50400001928E-02 0. -1.
       -1    1    3    3    0  502 -0.64034193541E+02 -0.12231972694E+03 -0.73842874070E+03  0.75122533149E+03  0.50400001928E-02 0.  1.
</event>
<event>
 5   0  0.1215233E-04  0.1725244E+04  0.7818609E-02  0.8747096E-01
        1   -1    0    0  501    0  0.00000000000E+00  0.00000000000E+00  0.10038879921E+04  0.10038879922E+04  0.50400001928E-02 0. -1.
       -1   -1    0    0    0  501  0.00000000000E+00  0.00000000000E+00 -0.74123499348E+03  0.74123499349E+03  0.50400001928E-02 0.  1.
    10030    2    1    2    0    0  0.00000000000E+00  0.00000000000E+00  0.26265299867E+03  0.17451229856E+04  0.17252442254E+04 0.  0.
        2    1    3    3  502    0 -0.96977244980E+01  0.12904327215E+03 -0.73136070596E+03  0.74272114160E+03  0.25500000920E-02 0.  1.
       -2    1    3    3    0  502  0.96977244980E+01 -0.12904327215E+03  0.99401370463E+03  0.10024018440E+04  0.25500000920E-02 0. -1.
</event>
<event>
 5   0  0.2234723E-04  0.1695403E+04  0.7818609E-02  0.8763990E-01
        2   -1    0    0  501    0  0.00000000000E+00  0.00000000000E+00  0.71650022806E+03  0.71650022807E+03  0.25500000920E-02 0. -1.
       -2   -1    0    0    0  501  0.00000000000E+00  0.00000000000E+00 -0.10029276779E+04  0.10029276779E+04  0.25500000920E-02 0.  1.
    10030    2    1    2    0    0  0.00000000000E+00  0.00000000000E+00 -0.28642744987E+03  0.17194279060E+04  0.16954030907E+04 0.  0.
        1    1    3    3  502    0  0.57141750386E+03 -0.18201358794E+03  0.46440141168E+03  0.75849560388E+03  0.50400001928E-02 0. -1.
       -1    1    3    3    0  502 -0.57141750386E+03  0.18201358794E+03 -0.75082886154E+03  0.96093230212E+03  0.50400001928E-02 0.  1.
</event>
<event>
 5   0  0.2288806E-04  0.1706071E+04  0.7818609E-02  0.8757910E-01
        2   -1    0    0  501    0  0.00000000000E+00  0.00000000000E+00  0.17693898442E+04  0.17693898442E+04  0.25500000920E-02 0. -1.
       -2   -1    0    0    0  501  0.00000000000E+00  0.00000000000E+00 -0.41125432894E+03  0.41125432895E+03  0.25500000920E-02 0.  1.
    10030    2    1    2    0    0  0.00000000000E+00  0.00000000000E+00  0.13581355153E+04  0.21806441732E+04  0.17060706117E+04 0.  0.
        3    1    3    3  502    0  0.32844666474E+03 -0.52569324064E+03  0.14281204573E+04  0.15568425243E+04  0.10100000352E+00 0. -1.
       -3    1    3    3    0  502 -0.32844666474E+03  0.52569324064E+03 -0.69984941974E+02  0.62380164887E+03  0.10100000352E+00 0.  1.
</event>
<event>
 5   0  0.1204741E-04  0.1714975E+04  0.7818609E-02  0.8752869E-01
        1   -1    0    0  501    0  0.00000000000E+00  0.00000000000E+00  0.67706152336E+03  0.67706152338E+03  0.50400001928E-02 0.  1.
       -1   -1    0    0    0  501  0.00000000000E+00  0.00000000000E+00 -0.10859944086E+04  0.10859944087E+04  0.50400001928E-02 0. -1.
    10030    2    1    2    0    0  0.00000000000E+00  0.00000000000E+00 -0.40893288528E+03  0.17630559320E+04  0.17149752519E+04 0.  0.
        1    1    3    3  502    0 -0.63811257320E+03 -0.29133630969E+03 -0.71146689377E+03  0.99912443789E+03  0.50400001928E-02 0. -1.
       -1    1    3    3    0  502  0.63811257320E+03  0.29133630969E+03  0.30253400849E+03  0.76393149414E+03  0.50400001928E-02 0.  1.
</event>
<event>
 5   0  0.1204741E-04  0.1634060E+04  0.7818609E-02  0.8799893E-01
        1   -1    0    0  501    0  0.00000000000E+00  0.00000000000E+00  0.11846681450E+04  0.11846681450E+04  0.50400001928E-02 0.  1.
       -1   -1    0    0    0  501  0.00000000000E+00  0.00000000000E+00 -0.56348093324E+03  0.56348093326E+03  0.50400001928E-02 0. -1.
    10030    2    1    2    0    0  0.00000000000E+00  0.00000000000E+00  0.62118721173E+03  0.17481490782E+04  0.16340598666E+04 0.  0.
        1    1    3    3  502    0 -0.13075993162E+03  0.80592528156E+03  0.27807051761E+03  0.86251778646E+03  0.50400001928E-02 0. -1.
       -1    1    3    3    0  502  0.13075993162E+03 -0.80592528156E+03  0.34311669412E+03  0.88563129178E+03  0.50400001928E-02 0.  1.
</event>
<event>
 5   0  0.2234723E-04  0.1656590E+04  0.7818609E-02  0.8786518E-01
        2   -1    0    0  501    0  0.00000000000E+00  0.00000000000E+00  0.54838878240E+03  0.54838878240E+03  0.25500000920E-02 0.  1.
       -2   -1    0    0    0  501  0.00000000000E+00  0.00000000000E+00 -0.12510689916E+04  0.12510689916E+04  0.25500000920E-02 0. -1.
    10030    2    1    2    0    0  0.00000000000E+00  0.00000000000E+00 -0.70268020916E+03  0.17994577740E+04  0.16565895098E+04 0.  0.
        1    1    3    3  502    0  0.21882340296E+03 -0.79691984607E+03 -0.29078973148E+03  0.87608423722E+03  0.50400001928E-02 0.  1.
       -1    1    3    3    0  502 -0.21882340296E+03  0.79691984607E+03 -0.41189047768E+03  0.92337353675E+03  0.50400001928E-02 0. -1.
</event>
<event>
 5   0  0.1215233E-04  0.1655123E+04  0.7818609E-02  0.8787381E-01
        1   -1    0    0  501    0  0.00000000000E+00  0.00000000000E+00  0.10450828601E+04  0.10450828601E+04  0.50400001928E-02 0.  1.
       -1   -1    0    0    0  501  0.00000000000E+00  0.00000000000E+00 -0.65531490813E+03  0.65531490815E+03  0.50400001928E-02 0. -1.
    10030    2    1    2    0    0  0.00000000000E+00  0.00000000000E+00  0.38976795197E+03  0.17003977683E+04  0.16551234135E+04 0.  0.
        2    1    3    3  502    0  0.18908948182E+02 -0.37120997894E+03 -0.56473579965E+03  0.67607759924E+03  0.25500000920E-02 0. -1.
       -2    1    3    3    0  502 -0.18908948182E+02  0.37120997894E+03  0.95450375163E+03  0.10243201690E+04  0.25500000920E-02 0.  1.
</event>
<event>
 5   0  0.1204741E-04  0.1701631E+04  0.7818609E-02  0.8760435E-01
        1   -1    0    0  501    0  0.00000000000E+00  0.00000000000E+00  0.18424284085E+04  0.18424284085E+04  0.50400001928E-02 0. -1.
       -1   -1    0    0    0  501  0.00000000000E+00  0.00000000000E+00 -0.39289843144E+03  0.39289843148E+03  0.50400001928E-02 0.  1.
    10030    2    1    2    0    0  0.00000000000E+00  0.00000000000E+00  0.14495299771E+04  0.22353268400E+04  0.17016312548E+04 0.  0.
        1    1    3    3  502    0 -0.32853958557E+03  0.41259940167E+02 -0.30478385698E+03  0.45003760004E+03  0.50400001928E-02 0.  1.
       -1    1    3    3    0  502  0.32853958557E+03 -0.41259940167E+02  0.17543138340E+04  0.17852892400E+04  0.50400001928E-02 0. -1.
</event>
<event>
 5   0  0.2288806E-04  0.1696598E+04  0.7818609E-02  0.8763307E-01
        2   -1    0    0  501    0  0.00000000000E+00  0.00000000000E+00  0.15395098924E+04  0.15395098924E+04  0.25500000920E-02 0. -1.
       -2   -1    0    0    0  501  0.00000000000E+00  0.00000000000E+00 -0.46742902379E+03  0.46742902379E+03  0.25500000920E-02 0.  1.
    10030    2    1    2    0    0  0.00000000000E+00  0.00000000000E+00  0.10720808686E+04  0.20069389162E+04  0.16965984865E+04 0.  0.
        3    1    3    3  502    0  0.81992557804E+03  0.10745359857E+03  0.75981975425E+03  0.11230094828E+04  0.10100000352E+00 0. -1.
       -3    1    3    3    0  502 -0.81992557804E+03 -0.10745359857E+03  0.31226111433E+03  0.88392943332E+03  0.10100000352E+00 0.  1.
</event>
<event>
 5   0  0.1126958E-04  0.1678346E+04  0.7818609E-02  0.8773812E-01
        1   -1    0    0  501    0  0.00000000000E+00  0.00000000000E+00  0.14808550723E+04  0.14808550723E+04  0.50400001928E-02 0.  1.
       -1   -1    0    0    0  501  0.00000000000E+00  0.00000000000E+00 -0.47554376902E+03  0.47554376905E+03  0.50400001928E-02 0. -1.
    10030    2    1    2    0    0  0.00000000000E+00  0.00000000000E+00  0.10053113033E+04  0.19563988414E+04  0.16783460936E+04 0.  0.
        4    1    3    3  502    0 -0.22664448638E+03  0.62081677202E+03  0.11054647545E+04  0.12879577338E+04  0.12699999809E+01 0.  1.
       -4    1    3    3    0  502  0.22664448638E+03 -0.62081677202E+03 -0.10015345122E+03  0.66844110759E+03  0.12699999809E+01 0. -1.
</event>
<event>
 5   0  0.1126958E-04  0.1706462E+04  0.7818609E-02  0.8757687E-01
       -1   -1    0    0    0  501  0.00000000000E+00  0.00000000000E+00  0.74408828670E+03  0.74408828672E+03  0.50400001928E-02 0. -1.
        1   -1    0    0  501    0  0.00000000000E+00  0.00000000000E+00 -0.97838295972E+03  0.97838295973E+03  0.50400001928E-02 0.  1.
    10030    2    1    2    0    0  0.00000000000E+00  0.00000000000E+00 -0.23429467302E+03  0.17224712465E+04  0.17064621886E+04 0.  0.
        4    1    3    3  502    0  0.64076603213E+03  0.39709036046E+03 -0.52057150580E+03  0.91611034699E+03  0.12699999809E+01 0.  1.
       -4    1    3    3    0  502 -0.64076603213E+03 -0.39709036046E+03  0.28627683278E+03  0.80636089947E+03  0.12699999809E+01 0. -1.
</event>
<event>
 5   0  0.1126958E-04  0.1691238E+04  0.7818609E-02  0.8766378E-01
        1   -1    0    0  501    0  0.00000000000E+00  0.00000000000E+00  0.56676190516E+03  0.56676190519E+03  0.50400001928E-02 0. -1.
       -1   -1    0    0    0  501  0.00000000000E+00  0.00000000000E+00 -0.12616786639E+04  0.12616786639E+04  0.50400001928E-02 0.  1.
    10030    2    1    2    0    0  0.00000000000E+00  0.00000000000E+00 -0.69491675874E+03  0.18284405691E+04  0.16912378937E+04 0.  0.
        4    1    3    3  502    0 -0.29914561723E+03  0.76160307456E+03 -0.57817789339E+03  0.10019074971E+04  0.12699999809E+01 0.  1.
       -4    1    3    3    0  502  0.29914561723E+03 -0.76160307456E+03 -0.11673886535E+03  0.82653307198E+03  0.12699999809E+01 0. -1.
</event>
<event>
 5   0  0.2224454E-04  0.1698328E+04  0.7818609E-02  0.8762319E-01
       -2   -1    0    0    0  501  0.00000000000E+00  0.00000000000E+00  0.48813714605E+03  0.48813714606E+03  0.25500000920E-02 0.  1.
        2   -1    0    0  501    0  0.00000000000E+00  0.00000000000E+00 -0.14772068598E+04  0.14772068598E+04  0.25500000920E-02 0. -1.
    10030    2    1    2    0    0  0.00000000000E+00  0.00000000000E+00 -0.98906971379E+03  0.19653440059E+04  0.16983280492E+04 0.  0.
        2    1    3    3  502    0 -0.69095606189E+03  0.31258042641E+02  0.75545338980E+02  0.69577614427E+03  0.25500000920E-02 0.  1.
       -2    1    3    3    0  502  0.69095606189E+03 -0.31258042641E+02 -0.10646150528E+04  0.12695678616E+04  0.25500000920E-02 0. -1.
</event>
<event>
 5   0  0.2242967E-04  0.1695573E+04  0.7818609E-02  0.8763893E-01
       -2   -1    0    0    0  501  0.00000000000E+00  0.00000000000E+00  0.52868551385E+03  0.52868551385E+03  0.25500000920E-02 0.  1.
        2   -1    0    0  501    0  0.00000000000E+00  0.00000000000E+00 -0.13594885169E+04  0.13594885169E+04  0.25500000920E-02 0. -1.
    10030    2    1    2    0    0  0.00000000000E+00  0.00000000000E+00 -0.83080300305E+03  0.18881740308E+04  0.16955729240E+04 0.  0.
        4    1    3    3  502    0  0.55527889408E+03  0.54556561748E+03 -0.78934876405E+03  0.11086250842E+04  0.12699999809E+01 0. -1.
       -4    1    3    3    0  502 -0.55527889408E+03 -0.54556561748E+03 -0.41454238996E+02  0.77954894652E+03  0.12699999809E+01 0.  1.
</event>
<event>
 5   0  0.2288806E-04  0.1716603E+04  0.7818609E-02  0.8751952E-01
        2   -1    0    0  501    0  0.00000000000E+00  0.00000000000E+00  0.20226590563E+04  0.20226590563E+04  0.25500000920E-02 0.  1.
       -2   -1    0    0    0  501  0.00000000000E+00  0.00000000000E+00 -0.36421415164E+03  0.36421415165E+03  0.25500000920E-02 0. -1.
    10030    2    1    2    0    0  0.00000000000E+00  0.00000000000E+00  0.16584449047E+04  0.23868732080E+04  0.17166025192E+04 0.  0.
        3    1    3    3  502    0  0.12711015940E+03 -0.49595117751E+03  0.17870858049E+04  0.18589782805E+04  0.10100000352E+00 0.  1.
       -3    1    3    3    0  502 -0.12711015940E+03  0.49595117751E+03 -0.12864090017E+03  0.52789492751E+03  0.10100000352E+00 0. -1.
</event>
<event>
 5   0  0.1186302E-04  0.1705512E+04  0.7818609E-02  0.8758227E-01
       -1   -1    0    0    0  501  0.00000000000E+00  0.00000000000E+00  0.10495603793E+04  0.10495603793E+04  0.50400001928E-02 0. -1.
        1   -1    0    0  501    0  0.00000000000E+00  0.00000000000E+00 -0.69285435470E+03  0.69285435472E+03  0.50400001928E-02 0.  1.
    10030    2    1    2    0    0  0.00000000000E+00  0.00000000000E+00  0.35670602458E+03  0.17424147340E+04  0.17055116292E+04 0.  0.
        3    1    3    3  502    0 -0.39143718766E+03 -0.71561925476E+03 -0.75742192990E+02  0.81918915988E+03  0.10100000352E+00 0.  1.
       -3    1    3    3    0  502  0.39143718766E+03  0.71561925476E+03  0.43244821757E+03  0.92322557414E+03  0.10100000352E+00 0. -1.
</event>
<event>
 5   0  0.2288806E-04  0.1701612E+04  0.7818609E-02  0.8760446E-01
        2   -1    0    0  501    0  0.00000000000E+00  0.00000000000E+00  0.13034949976E+04  0.13034949976E+04  0.25500000920E-02 0. -1.
       -2   -1    0    0    0  501  0.00000000000E+00  0.00000000000E+00 -0.55533062663E+03  0.55533062664E+03  0.25500000920E-02 0.  1.
    10030    2    1    2    0    0  0.00000000000E+00  0.00000000000E+00  0.74816437096E+03  0.18588256242E+04  0.17016118169E+04 0.  0.
        3    1    3    3  502    0  0.22870671568E+02  0.19012495130E+03  0.12796474817E+04  0.12938965385E+04  0.10100000352E+00 0. -1.
       -3    1    3    3    0  502 -0.22870671568E+02 -0.19012495130E+03 -0.53148311073E+03  0.56492908574E+03  0.10100000352E+00 0.  1.
</event>
<event>
 5   0  0.2224454E-04  0.1682958E+04  0.7818609E-02  0.8771144E-01
       -2   -1    0    0    0  501  0.00000000000E+00  0.00000000000E+00  0.47607108938E+03  0.47607108938E+03  0.25500000920E-02 0.  1.
        2   -1    0    0  501    0  0.00000000000E+00  0.00000000000E+00 -0.14873562488E+04  0.14873562488E+04  0.25500000920E-02 0. -1.
    10030    2    1    2    0    0  0.00000000000E+00  0.00000000000E+00 -0.10112851594E+04  0.19634273381E+04  0.16829584780E+04 0.  0.
        2    1    3    3  502    0 -0.66203117685E+03 -0.38443013333E+03 -0.98122568066E+02  0.77181593978E+03  0.25500000920E-02 0. -1.
       -2    1    3    3    0  502  0.66203117685E+03  0.38443013333E+03 -0.91316259131E+03  0.11916113984E+04  0.25500000920E-02 0.  1.
</event>
<event>
 5   0  0.1186302E-04  0.1701731E+04  0.7818609E-02  0.8760378E-01
        1   -1    0    0  501    0  0.00000000000E+00  0.00000000000E+00  0.56136581631E+03  0.56136581633E+03  0.50400001928E-02 0. -1.
       -1   -1    0    0    0  501  0.00000000000E+00  0.00000000000E+00 -0.12896614497E+04  0.12896614497E+04  0.50400001928E-02 0.  1.
    10030    2    1    2    0    0  0.00000000000E+00  0.00000000000E+00 -0.72829563341E+03  0.18510272661E+04  0.17017307102E+04 0.  0.
        3    1    3    3  502    0  0.24811631336E+03 -0.75085838525E+03 -0.70574044663E+03  0.10599149060E+04  0.10100000352E+00 0.  1.
       -3    1    3    3    0  502 -0.24811631336E+03  0.75085838525E+03 -0.22555186779E+02  0.79111236010E+03  0.10100000352E+00 0. -1.
</event>
<event>
 5   0  0.2356829E-04  0.1696180E+04  0.7818609E-02  0.8763546E-01
       -2   -1    0    0    0  501  0.00000000000E+00  0.00000000000E+00  0.41572981610E+03  0.41572981611E+03  0.25500000920E-02 0. -1.
        2   -1    0    0  501    0  0.00000000000E+00  0.00000000000E+00 -0.17301057147E+04  0.17301057147E+04  0.25500000920E-02 0.  1.
    10030    2    1    2    0    0  0.00000000000E+00  0.00000000000E+00 -0.13143758986E+04  0.21458355308E+04  0.16961798615E+04 0.  0.
        5    1    3    3  502    0  0.16782141310E+03 -0.77918440336E+03 -0.10237220547E+04  0.12974287250E+04  0.46999998093E+01 0.  1.
       -5    1    3    3    0  502 -0.16782141310E+03  0.77918440336E+03 -0.29065384383E+03  0.84840680577E+03  0.46999998093E+01 0. -1.
</event>
<event>
 5   0  0.8372750E-05  0.1716629E+04  0.7818609E-02  0.8751937E-01
       -3   -1    0    0    0  501  0.00000000000E+00  0.00000000000E+00  0.60789221493E+03  0.60789222332E+03  0.10100000352E+00 0.  1.
        3   -1    0    0  501    0  0.00000000000E+00  0.00000000000E+00 -0.12118980344E+04  0.12118980386E+04  0.10100000352E+00 0. -1.
    10030    2    1    2    0    0  0.00000000000E+00  0.00000000000E+00 -0.60400581943E+03  0.18197902619E+04  0.17166285467E+04 0.  0.
        4    1    3    3  502    0 -0.63535521124E+03 -0.23901336302E+03 -0.85882877164E+03  0.10947109683E+04  0.12699999809E+01 0. -1.
       -4    1    3    3    0  502  0.63535521124E+03  0.23901336302E+03  0.25482295221E+03  0.72507929362E+03  0.12699999809E+01 0.  1.
</event>
<event>
 5   0  0.2356829E-04  0.1699010E+04  0.7818609E-02  0.8761929E-01
       -2   -1    0    0    0  501  0.00000000000E+00  0.00000000000E+00  0.44444779347E+03  0.44444779347E+03  0.25500000920E-02 0. -1.
        2   -1    0    0  501    0  0.00000000000E+00  0.00000000000E+00 -0.16237205572E+04  0.16237205572E+04  0.25500000920E-02 0.  1.
    10030    2    1    2    0    0  0.00000000000E+00  0.00000000000E+00 -0.11792727638E+04  0.20681683507E+04  0.16990103224E+04 0.  0.
        5    1    3    3  502    0  0.57192114988E+03  0.48238048293E+03 -0.99914883425E+02  0.75484422626E+03  0.46999998093E+01 0. -1.
       -5    1    3    3    0  502 -0.57192114988E+03 -0.48238048293E+03 -0.10793578803E+04  0.13133241244E+04  0.46999998093E+01 0.  1.
</event>
<event>
 5   0  0.2234723E-04  0.1697209E+04  0.7818609E-02  0.8762958E-01
        2   -1    0    0  501    0  0.00000000000E+00  0.00000000000E+00  0.75938995080E+03  0.75938995081E+03  0.25500000920E-02 0.  1.
       -2   -1    0    0    0  501  0.00000000000E+00  0.00000000000E+00 -0.94829971337E+03  0.94829971338E+03  0.25500000920E-02 0. -1.
    10030    2    1    2    0    0  0.00000000000E+00  0.00000000000E+00 -0.18890976257E+03  0.17076896642E+04  0.16972086173E+04 0.  0.
        1    1    3    3  502    0  0.11545215646E+03  0.38993255176E+03  0.65496191956E+03  0.77094209345E+03  0.50400001928E-02 0.  1.
       -1    1    3    3    0  502 -0.11545215646E+03 -0.38993255176E+03 -0.84387168213E+03  0.93674757074E+03  0.50400001928E-02 0. -1.
</event>
<event>
 5   0  0.2242967E-04  0.1632057E+04  0.7818609E-02  0.8801092E-01
       -2   -1    0    0    0  501  0.00000000000E+00  0.00000000000E+00  0.69909649713E+03  0.69909649713E+03  0.25500000920E-02 0.  1.
        2   -1    0    0  501    0  0.00000000000E+00  0.00000000000E+00 -0.95251918618E+03  0.95251918618E+03  0.25500000920E-02 0. -1.
    10030    2    1    2    0    0  0.00000000000E+00  0.00000000000E+00 -0.25342268905E+03  0.16516156833E+04  0.16320573844E+04 0.  0.
        4    1    3    3  502    0  0.45616662558E+03 -0.51958033664E+02  0.55599426843E+03  0.72105399728E+03  0.12699999809E+01 0.  1.
       -4    1    3    3    0  502 -0.45616662558E+03  0.51958033664E+02 -0.80941695748E+03  0.93056168603E+03  0.12699999809E+01 0. -1.
</event>
<event>
 5   0  0.1186302E-04  0.1703090E+04  0.7818609E-02  0.8759604E-01
        1   -1    0    0  501    0  0.00000000000E+00  0.00000000000E+00  0.65896046950E+03  0.65896046952E+03  0.50400001928E-02 0.  1.
       -1   -1    0    0    0  501  0.00000000000E+00  0.00000000000E+00 -0.11004136757E+04  0.11004136758E+04  0.50400001928E-02 0. -1.
    10030    2    1    2    0    0  0.00000000000E+00  0.00000000000E+00 -0.44145320624E+03  0.17593741453E+04  0.17030902647E+04 0.  0.
        3    1    3    3  502    0 -0.43072531128E+03  0.22152756382E+03  0.50279829262E+03  0.69814388816E+03  0.10100000352E+00 0.  1.
       -3    1    3    3    0  502  0.43072531128E+03 -0.22152756382E+03 -0.94425149886E+03  0.10612302571E+04  0.10100000352E+00 0. -1.
</event>
<event>
 5   0  0.1126958E-04  0.1709140E+04  0.7818609E-02  0.8756169E-01
        1   -1    0    0  501    0  0.00000000000E+00  0.00000000000E+00  0.10139148692E+04  0.10139148692E+04  0.50400001928E-02 0. -1.
       -1   -1    0    0    0  501  0.00000000000E+00  0.00000000000E+00 -0.72026723932E+03  0.72026723934E+03  0.50400001928E-02 0.  1.
    10030    2    1    2    0    0  0.00000000000E+00  0.00000000000E+00  0.29364762990E+03  0.17341821086E+04  0.17091397413E+04 0.  0.
        4    1    3    3  502    0  0.40289287481E+03  0.39515763451E+03  0.79795522381E+03  0.97734660013E+03  0.12699999809E+01 0. -1.
       -4    1    3    3    0  502 -0.40289287481E+03 -0.39515763451E+03 -0.50430759391E+03  0.75683550845E+03  0.12699999809E+01 0.  1.
</event>
<event>
 5   0  0.2234723E-04  0.1691581E+04  0.7818609E-02  0.8766180E-01
       -2   -1    0    0    0  501  0.00000000000E+00  0.00000000000E+00  0.50715112385E+03  0.50715112386E+03  0.25500000920E-02 0. -1.
        2   -1    0    0  501    0  0.00000000000E+00  0.00000000000E+00 -0.14105498899E+04  0.14105498899E+04  0.25500000920E-02 0.  1.
    10030    2    1    2    0    0  0.00000000000E+00  0.00000000000E+00 -0.90339876609E+03  0.19177010138E+04  0.16915814635E+04 0.  0.
        1    1    3    3  502    0  0.38036577728E+03  0.28504847946E+03  0.34141131260E+03  0.58522854046E+03  0.50400001928E-02 0. -1.
       -1    1    3    3    0  502 -0.38036577728E+03 -0.28504847946E+03 -0.12448100787E+04  0.13324724733E+04  0.50400001928E-02 0.  1.
</event>
<event>
 5   0  0.1204741E-04  0.1695535E+04  0.7818609E-02  0.8763915E-01
       -1   -1    0    0    0  501  0.00000000000E+00  0.00000000000E+00  0.34068984453E+03  0.34068984456E+03  0.50400001928E-02 0. -1.
        1   -1    0    0  501    0  0.00000000000E+00  0.00000000000E+00 -0.21095718763E+04  0.21095718763E+04  0.50400001928E-02 0.  1.
    10030    2    1    2    0    0  0.00000000000E+00  0.00000000000E+00 -0.17688820318E+04  0.24502617209E+04  0.16955349771E+04 0.  0.
        1    1    3    3  502    0 -0.53944770047E+03 -0.57093752847E+03 -0.13453801118E+04  0.15578899602E+04  0.50400001928E-02 0.  1.
       -1    1    3    3    0  502  0.53944770047E+03  0.57093752847E+03 -0.42350192002E+03  0.89237176068E+03  0.50400001928E-02 0. -1.
</event>
<event>
 5   0  0.2242967E-04  0.1702761E+04  0.7818609E-02  0.8759791E-01
       -2   -1    0    0    0  501  0.00000000000E+00  0.00000000000E+00  0.88848814563E+03  0.88848814563E+03  0.25500000920E-02 0.  1.
        2   -1    0    0  501    0  0.00000000000E+00  0.00000000000E+00 -0.81582277795E+03  0.81582277796E+03  0.25500000920E-02 0. -1.
    10030    2    1    2    0    0  0.00000000000E+00  0.00000000000E+00  0.72665367678E+02  0.17043109236E+04  0.17027611308E+04 0.  0.
        4    1    3    3  502    0 -0.11748956964E+02 -0.37409872100E+03 -0.72905891664E+03  0.81952206064E+03  0.12699999809E+01 0. -1.
       -4    1    3    3    0  502  0.11748956964E+02  0.37409872100E+03  0.80172428431E+03  0.88478886295E+03  0.12699999809E+01 0.  1.
</event>
<event>
 5   0  0.2356829E-04  0.1705830E+04  0.7818609E-02  0.8758046E-01
        2   -1    0    0  501    0  0.00000000000E+00  0.00000000000E+00  0.99209476250E+03  0.99209476250E+03  0.25500000920E-02 0.  1.
       -2   -1    0    0    0  501  0.00000000000E+00  0.00000000000E+00 -0.73326101196E+03  0.73326101197E+03  0.25500000920E-02 0. -1.
    10030    2    1    2    0    0  0.00000000000E+00  0.00000000000E+00  0.25883375054E+03  0.17253557745E+04  0.17058304834E+04 0.  0.
        5    1    3    3  502    0 -0.22648186883E+02  0.74693311440E+03 -0.28640968622E+03  0.80029658010E+03  0.46999998093E+01 0. -1.
       -5    1    3    3    0  502  0.22648186883E+02 -0.74693311440E+03  0.54524343675E+03  0.92505919437E+03  0.46999998093E+01 0.  1.
</event>
<event>
 5   0  0.2356829E-04  0.1692895E+04  0.7818609E-02  0.8765427E-01
        2   -1    0    0  501    0  0.00000000000E+00  0.00000000000E+00  0.12254311299E+04  0.12254311300E+04  0.25500000920E-02 0.  1.
       -2   -1    0    0    0  501  0.00000000000E+00  0.00000000000E+00 -0.58467079240E+03  0.58467079241E+03  0.25500000920E-02 0. -1.
    10030    2    1    2    0    0  0.00000000000E+00  0.00000000000E+00  0.64076033755E+03  0.18101019224E+04  0.16928954956E+04 0.  0.
        5    1    3    3  502    0 -0.20284969907E+03  0.80298000659E+03  0.13356437886E+03  0.83891979634E+03  0.46999998093E+01 0. -1.
       -5    1    3    3    0  502  0.20284969907E+03 -0.80298000659E+03  0.50719595868E+03  0.97118212602E+03  0.46999998093E+01 0.  1.
</event>
<event>
 5   0  0.1126958E-04  0.1699386E+04  0.7818609E-02  0.8761714E-01
        1   -1    0    0  501    0  0.00000000000E+00  0.00000000000E+00  0.64315407299E+03  0.64315407301E+03  0.50400001928E-02 0.  1.
       -1   -1    0    0    0  501  0.00000000000E+00  0.00000000000E+00 -0.11225591249E+04  0.11225591249E+04  0.50400001928E-02 0. -1.
    10030    2    1    2    0    0  0.00000000000E+00  0.00000000000E+00 -0.47940505191E+03  0.17657131979E+04  0.16993863285E+04 0.  0.
        4    1    3    3  502    0 -0.56710068337E+03  0.58916416626E+03 -0.47948951232E+03  0.94796065594E+03  0.12699999809E+01 0. -1.
       -4    1    3    3    0  502  0.56710068337E+03 -0.58916416626E+03  0.84460405776E-01  0.81775254198E+03  0.12699999809E+01 0.  1.
</event>
<event>
 5   0  0.1126958E-04  0.1758867E+04  0.7818609E-02  0.8728485E-01
        1   -1    0    0  501    0  0.00000000000E+00  0.00000000000E+00  0.76225358726E+03  0.76225358727E+03  0.50400001928E-02 0.  1.
       -1   -1    0    0    0  501  0.00000000000E+00  0.00000000000E+00 -0.10146267992E+04  0.10146267992E+04  0.50400001928E-02 0. -1.
    10030    2    1    2    0    0  0.00000000000E+00  0.00000000000E+00 -0.25237321198E+03  0.17768803865E+04  0.17588665867E+04 0.  0.
        4    1    3    3  502    0  0.29056005255E+03  0.32636365563E+03 -0.89719558931E+03  0.99794785346E+03  0.12699999809E+01 0. -1.
       -4    1    3    3    0  502 -0.29056005255E+03 -0.32636365563E+03  0.64482237733E+03  0.77893253306E+03  0.12699999809E+01 0.  1.
</event>
<event>
 5   0  0.1204741E-04  0.1709955E+04  0.7818609E-02  0.8755707E-01
        1   -1    0    0  501    0  0.00000000000E+00  0.00000000000E+00  0.86207613743E+03  0.86207613745E+03  0.50400001928E-02 0. -1.
       -1   -1    0    0    0  501  0.00000000000E+00  0.00000000000E+00 -0.84793747059E+03  0.84793747061E+03  0.50400001928E-02 0.  1.
    10030    2    1    2    0    0  0.00000000000E+00  0.00000000000E+00  0.14138666842E+02  0.17100136081E+04  0.17099551567E+04 0.  0.
        1    1    3    3  502    0 -0.20087862959E+03  0.30781787986E+03  0.77903003659E+03  0.86138949896E+03  0.50400001928E-02 0. -1.
       -1    1    3    3    0  502  0.20087862959E+03 -0.30781787986E+03 -0.76489136975E+03  0.84862410909E+03  0.50400001928E-02 0.  1.
</event>
<event>
 5   0  0.2356829E-04  0.1674809E+04  0.7818609E-02  0.8775863E-01
       -2   -1    0    0    0  501  0.00000000000E+00  0.00000000000E+00  0.33628989252E+03  0.33628989253E+03  0.25500000920E-02 0. -1.
        2   -1    0    0  501    0  0.00000000000E+00  0.00000000000E+00 -0.20852437485E+04  0.20852437485E+04  0.25500000920E-02 0.  1.
    10030    2    1    2    0    0  0.00000000000E+00  0.00000000000E+00 -0.17489538560E+04  0.24215336411E+04  0.16748091188E+04 0.  0.
        5    1    3    3  502    0 -0.41582330289E+01 -0.28445666677E+03  0.26425914101E+03  0.38831413801E+03  0.46999998093E+01 0. -1.
       -5    1    3    3    0  502  0.41582330289E+01  0.28445666677E+03 -0.20132129970E+04  0.20332195031E+04  0.46999998093E+01 0.  1.
</event>
<event>
 5   0  0.2242967E-04  0.1606547E+04  0.7818609E-02  0.8816536E-01
       -2   -1    0    0    0  501  0.00000000000E+00  0.00000000000E+00  0.36150401494E+03  0.36150401495E+03  0.25500000920E-02 0.  1.
        2   -1    0    0  501    0  0.00000000000E+00  0.00000000000E+00 -0.17848988626E+04  0.17848988626E+04  0.25500000920E-02 0. -1.
    10030    2    1    2    0    0  0.00000000000E+00  0.00000000000E+00 -0.14233948477E+04  0.21464028776E+04  0.16065467377E+04 0.  0.
        4    1    3    3  502    0 -0.22496658031E+03 -0.46256930181E+03  0.11261153355E+03  0.52655796606E+03  0.12699999809E+01 0.  1.
       -4    1    3    3    0  502  0.22496658031E+03  0.46256930181E+03 -0.15360063813E+04  0.16198449115E+04  0.12699999809E+01 0. -1.
</event>
<event>
 5   0  0.2234723E-04  0.1706880E+04  0.7818609E-02  0.8757450E-01
        2   -1    0    0  501    0  0.00000000000E+00  0.00000000000E+00  0.62712332269E+03  0.62712332269E+03  0.25500000920E-02 0.  1.
       -2   -1    0    0    0  501  0.00000000000E+00  0.00000000000E+00 -0.11614304953E+04  0.11614304953E+04  0.25500000920E-02 0. -1.
    10030    2    1    2    0    0  0.00000000000E+00  0.00000000000E+00 -0.53430717262E+03  0.17885538180E+04  0.17068803723E+04 0.  0.
        1    1    3    3  502    0 -0.10182259836E+03 -0.13439775609E+03  0.60949612435E+03  0.63238921876E+03  0.50400001928E-02 0.  1.
       -1    1    3    3    0  502  0.10182259836E+03  0.13439775609E+03 -0.11438032970E+04  0.11561645992E+04  0.50400001928E-02 0. -1.
</event>
<event>
 5   0  0.2234723E-04  0.1708462E+04  0.7818609E-02  0.8756553E-01
        2   -1    0    0  501    0  0.00000000000E+00  0.00000000000E+00  0.71122675784E+03  0.71122675785E+03  0.25500000920E-02 0. -1.
       -2   -1    0    0    0  501  0.00000000000E+00  0.00000000000E+00 -0.10259892561E+04  0.10259892561E+04  0.25500000920E-02 0.  1.
    10030    2    1    2    0    0  0.00000000000E+00  0.00000000000E+00 -0.31476249826E+03  0.17372160140E+04  0.17084624810E+04 0.  0.
        1    1    3    3  502    0 -0.55479636853E+03 -0.46950223394E+03 -0.61380052378E+03  0.95130565079E+03  0.50400001928E-02 0.  1.
       -1    1    3    3    0  502  0.55479636853E+03  0.46950223394E+03  0.29903802552E+03  0.78591036317E+03  0.50400001928E-02 0. -1.
</event>
<event>
 5   0  0.1215233E-04  0.1697105E+04  0.7818609E-02  0.8763017E-01
        1   -1    0    0  501    0  0.00000000000E+00  0.00000000000E+00  0.78169224113E+03  0.78169224114E+03  0.50400001928E-02 0. -1.
       -1   -1    0    0    0  501  0.00000000000E+00  0.00000000000E+00 -0.92113190057E+03  0.92113190058E+03  0.50400001928E-02 0.  1.
    10030    2    1    2    0    0  0.00000000000E+00  0.00000000000E+00 -0.13943965944E+03  0.17028241417E+04  0.16971053706E+04 0.  0.
        2    1    3    3  502    0 -0.18549289381E+03 -0.69488831682E+03  0.38209107494E+03  0.81441449893E+03  0.25500000920E-02 0. -1.
       -2    1    3    3    0  502  0.18549289381E+03  0.69488831682E+03 -0.52153073438E+03  0.88840964280E+03  0.25500000920E-02 0.  1.
</event>
<event>
 5   0  0.1234158E-04  0.1682569E+04  0.7818609E-02  0.8771369E-01
        1   -1    0    0  501    0  0.00000000000E+00  0.00000000000E+00  0.12387810961E+04  0.12387810961E+04  0.50400001928E-02 0. -1.
       -1   -1    0    0    0  501  0.00000000000E+00  0.00000000000E+00 -0.57133516558E+03  0.57133516560E+03  0.50400001928E-02 0.  1.
    10030    2    1    2    0    0  0.00000000000E+00  0.00000000000E+00  0.66744593049E+03  0.18101162617E+04  0.16825685159E+04 0.  0.
        5    1    3    3  502    0 -0.34567993937E+03 -0.59861523444E+03 -0.18210557026E+03  0.71485617302E+03  0.46999998093E+01 0.  1.
       -5    1    3    3    0  502  0.34567993937E+03  0.59861523444E+03  0.84955150075E+03  0.10952600887E+04  0.46999998093E+01 0. -1.
</event>
<event>
 5   0  0.2356829E-04  0.1708760E+04  0.7818609E-02  0.8756384E-01
        2   -1    0    0  501    0  0.00000000000E+00  0.00000000000E+00  0.74652767828E+03  0.74652767828E+03  0.25500000920E-02 0.  1.
       -2   -1    0    0    0  501  0.00000000000E+00  0.00000000000E+00 -0.97781347313E+03  0.97781347313E+03  0.25500000920E-02 0. -1.
    10030    2    1    2    0    0  0.00000000000E+00  0.00000000000E+00 -0.23128579485E+03  0.17243411514E+04  0.17087595757E+04 0.  0.
        5    1    3    3  502    0 -0.57779793275E+03 -0.31216862111E+03 -0.66710849543E+03  0.93613862957E+03  0.46999998093E+01 0. -1.
       -5    1    3    3    0  502  0.57779793275E+03  0.31216862111E+03  0.43582270058E+03  0.78820252184E+03  0.46999998093E+01 0.  1.
</event>
<event>
 5   0  0.1126958E-04  0.1705688E+04  0.7818609E-02  0.8758127E-01
        1   -1    0    0  501    0  0.00000000000E+00  0.00000000000E+00  0.21168059316E+04  0.21168059317E+04  0.50400001928E-02 0.  1.
       -1   -1    0    0    0  501  0.00000000000E+00  0.00000000000E+00 -0.34360391027E+03  0.34360391031E+03  0.50400001928E-02 0. -1.
    10030    2    1    2    0    0  0.00000000000E+00  0.00000000000E+00  0.17732020214E+04  0.24604098420E+04  0.17056878911E+04 0.  0.
        4    1    3    3  502    0  0.31103993838E+03  0.65218916253E+03  0.23310371205E+03  0.75923349535E+03  0.12699999809E+01 0. -1.
       -4    1    3    3    0  502 -0.31103993838E+03 -0.65218916253E+03  0.15400983093E+04  0.17011763466E+04  0.12699999809E+01 0.  1.
</event>
<event>
 5   0  0.2224454E-04  0.1690431E+04  0.7818609E-02  0.8766841E-01
       -2   -1    0    0    0  501  0.00000000000E+00  0.00000000000E+00  0.70997396609E+03  0.70997396609E+03  0.25500000920E-02 0.  1.
        2   -1    0    0  501    0  0.00000000000E+00  0.00000000000E+00 -0.10062192255E+04  0.10062192255E+04  0.25500000920E-02 0. -1.
    10030    2    1    2    0    0  0.00000000000E+00  0.00000000000E+00 -0.29624525940E+03  0.17161931916E+04  0.16904312518E+04 0.  0.
        2    1    3    3  502    0 -0.72415096847E+03  0.89679135333E+02  0.28493695338E+03  0.78334286226E+03  0.25500000920E-02 0.  1.
       -2    1    3    3    0  502  0.72415096847E+03 -0.89679135333E+02 -0.58118221278E+03  0.93285032932E+03  0.25500000920E-02 0. -1.
</event>
<event>
 5   0  0.1204741E-04  0.1698191E+04  0.7818609E-02  0.8762397E-01
        1   -1    0    0  501    0  0.00000000000E+00  0.00000000000E+00  0.76045408128E+03  0.76045408129E+03  0.50400001928E-02 0. -1.
       -1   -1    0    0    0  501  0.00000000000E+00  0.00000000000E+00 -0.94806888080E+03  0.94806888082E+03  0.50400001928E-02 0.  1.
    10030    2    1    2    0    0  0.00000000000E+00  0.00000000000E+00 -0.18761479953E+03  0.17085229621E+04  0.16981906251E+04 0.  0.
        1    1    3    3  502    0  0.34257155081E+03 -0.57185533078E+03 -0.62292460356E+03  0.91236442747E+03  0.50400001928E-02 0.  1.
       -1    1    3    3    0  502 -0.34257155081E+03  0.57185533078E+03  0.43530980404E+03  0.79615853464E+03  0.50400001928E-02 0. -1.
</event>
<event>
 5   0  0.2288806E-04  0.1774750E+04  0.7818609E-02  0.8719843E-01
       -2   -1    0    0    0  501  0.00000000000E+00  0.00000000000E+00  0.50124478403E+03  0.50124478404E+03  0.25500000920E-02 0. -1.
        2   -1    0    0  501    0  0.00000000000E+00  0.00000000000E+00 -0.15709580111E+04  0.15709580111E+04  0.25500000920E-02 0.  1.
    10030    2    1    2    0    0  0.00000000000E+00  0.00000000000E+00 -0.10697132271E+04  0.20722027952E+04  0.17747501334E+04 0.  0.
        3    1    3    3  502    0 -0.46636900566E+03 -0.74176505970E+03 -0.37089658579E+03  0.95146189665E+03  0.10100000352E+00 0.  1.
       -3    1    3    3    0  502  0.46636900566E+03  0.74176505970E+03 -0.69881664129E+03  0.11207408985E+04  0.10100000352E+00 0. -1.
</event>
<event>
 5   0  0.2356829E-04  0.1695657E+04  0.7818609E-02  0.8763845E-01
        2   -1    0    0  501    0  0.00000000000E+00  0.00000000000E+00  0.16335052862E+04  0.16335052863E+04  0.25500000920E-02 0.  1.
       -2   -1    0    0    0  501  0.00000000000E+00  0.00000000000E+00 -0.44004333646E+03  0.44004333647E+03  0.25500000920E-02 0. -1.
    10030    2    1    2    0    0  0.00000000000E+00  0.00000000000E+00  0.11934619498E+04  0.20735486227E+04  0.16956569421E+04 0.  0.
        5    1    3    3  502    0 -0.62457087982E+03 -0.23386073710E+03  0.12368497207E+04  0.14052042377E+04  0.46999998093E+01 0. -1.
       -5    1    3    3    0  502  0.62457087982E+03  0.23386073710E+03 -0.43387770871E+02  0.66834438498E+03  0.46999998093E+01 0.  1.
</event>
<event>
 5   0  0.1204741E-04  0.1687684E+04  0.7818609E-02  0.8768420E-01
       -1   -1    0    0    0  501  0.00000000000E+00  0.00000000000E+00  0.36997801498E+03  0.36997801501E+03  0.50400001928E-02 0.  1.
        1   -1    0    0  501    0  0.00000000000E+00  0.00000000000E+00 -0.19246271356E+04  0.19246271356E+04  0.50400001928E-02 0. -1.
    10030    2    1    2    0    0  0.00000000000E+00  0.00000000000E+00 -0.15546491206E+04  0.22946051506E+04  0.16876844815E+04 0.  0.
        1    1    3    3  502    0  0.31860047079E+03  0.77762874491E+03 -0.67327160846E+03  0.10768042458E+04  0.50400001928E-02 0. -1.
       -1    1    3    3    0  502 -0.31860047079E+03 -0.77762874491E+03 -0.88137751217E+03  0.12178009049E+04  0.50400001928E-02 0.  1.
</event>
<event>
 5   0  0.1126958E-04  0.1697955E+04  0.7818609E-02  0.8762532E-01
        1   -1    0    0  501    0  0.00000000000E+00  0.00000000000E+00  0.10598269587E+04  0.10598269587E+04  0.50400001928E-02 0.  1.
       -1   -1    0    0    0  501  0.00000000000E+00  0.00000000000E+00 -0.68007572548E+03  0.68007572550E+03  0.50400001928E-02 0. -1.
    10030    2    1    2    0    0  0.00000000000E+00  0.00000000000E+00  0.37975123319E+03  0.17399026842E+04  0.16979547554E+04 0.  0.
        4    1    3    3  502    0 -0.42045637401E+03  0.72899490899E+03  0.30464181961E+03  0.89500021840E+03  0.12699999809E+01 0.  1.
       -4    1    3    3    0  502  0.42045637401E+03 -0.72899490899E+03  0.75109413583E+02  0.84490246578E+03  0.12699999809E+01 0. -1.
</event>
<event>
 5   0  0.8372750E-05  0.1718736E+04  0.7818609E-02  0.8750750E-01
        3   -1    0    0  501    0  0.00000000000E+00  0.00000000000E+00  0.73431496589E+03  0.73431497283E+03  0.10100000352E+00 0.  1.
       -3   -1    0    0    0  501  0.00000000000E+00  0.00000000000E+00 -0.10057174792E+04  0.10057174843E+04  0.10100000352E+00 0. -1.
    10030    2    1    2    0    0  0.00000000000E+00  0.00000000000E+00 -0.27140251333E+03  0.17400324571E+04  0.17187360552E+04 0.  0.
        2    1    3    3  502    0 -0.32634264473E+03 -0.77070973482E+03 -0.33310548195E+03  0.90080646047E+03  0.25500000920E-02 0.  1.
       -2    1    3    3    0  502  0.32634264473E+03  0.77070973482E+03  0.61702968626E+02  0.83922599665E+03  0.25500000920E-02 0. -1.
</event>
<event>
 5   0  0.1234158E-04  0.1815061E+04  0.7818609E-02  0.8698331E-01
        1   -1    0    0  501    0  0.00000000000E+00  0.00000000000E+00  0.75460534358E+03  0.75460534359E+03  0.50400001928E-02 0. -1.
       -1   -1    0    0    0  501  0.00000000000E+00  0.00000000000E+00 -0.10914465607E+04  0.10914465607E+04  0.50400001928E-02 0.  1.
    10030    2    1    2    0    0  0.00000000000E+00  0.00000000000E+00 -0.33684121710E+03  0.18460519043E+04  0.18150607780E+04 0.  0.
        5    1    3    3  502    0 -0.15107327909E+03  0.27330644259E+03  0.69822574302E+03  0.76489268883E+03  0.46999998093E+01 0. -1.
       -5    1    3    3    0  502  0.15107327909E+03 -0.27330644259E+03 -0.10350669601E+04  0.10811592154E+04  0.46999998093E+01 0.  1.
</event>
<event>
 5   0  0.2356829E-04  0.1808804E+04  0.7818609E-02  0.8701632E-01
        2   -1    0    0  501    0  0.00000000000E+00  0.00000000000E+00  0.21393743517E+04  0.21393743517E+04  0.25500000920E-02 0. -1.
       -2   -1    0    0    0  501  0.00000000000E+00  0.00000000000E+00 -0.38232804240E+03  0.38232804241E+03  0.25500000920E-02 0.  1.
    10030    2    1    2    0    0  0.00000000000E+00  0.00000000000E+00  0.17570463093E+04  0.25217023941E+04  0.18088038123E+04 0.  0.
        5    1    3    3  502    0  0.12484971554E+03 -0.76278809455E+03  0.22389536059E+03  0.80472625852E+03  0.46999998093E+01 0.  1.
       -5    1    3    3    0  502 -0.12484971554E+03  0.76278809455E+03  0.15331509487E+04  0.17169761356E+04  0.46999998093E+01 0. -1.
</event>
<event>
 5   0  0.2356829E-04  0.1698452E+04  0.7818609E-02  0.8762247E-01
       -2   -1    0    0    0  501  0.00000000000E+00  0.00000000000E+00  0.43978258179E+03  0.43978258180E+03  0.25500000920E-02 0. -1.
        2   -1    0    0  501    0  0.00000000000E+00  0.00000000000E+00 -0.16398676224E+04  0.16398676224E+04  0.25500000920E-02 0.  1.
    10030    2    1    2    0    0  0.00000000000E+00  0.00000000000E+00 -0.12000850406E+04  0.20796502042E+04  0.16984524919E+04 0.  0.
        5    1    3    3  502    0  0.49423040353E+03  0.39218820511E+01  0.24551525969E+03  0.55188667828E+03  0.46999998093E+01 0. -1.
       -5    1    3    3    0  502 -0.49423040353E+03 -0.39218820511E+01 -0.14456003003E+04  0.15277635259E+04  0.46999998093E+01 0.  1.
</event>
<event>
 5   0  0.2288806E-04  0.1696116E+04  0.7818609E-02  0.8763583E-01
       -2   -1    0    0    0  501  0.00000000000E+00  0.00000000000E+00  0.11536837040E+04  0.11536837040E+04  0.25500000920E-02 0. -1.
        2   -1    0    0  501    0  0.00000000000E+00  0.00000000000E+00 -0.62339637929E+03  0.62339637930E+03  0.25500000920E-02 0.  1.
    10030    2    1    2    0    0  0.00000000000E+00  0.00000000000E+00  0.53028732473E+03  0.17770800833E+04  0.16961158498E+04 0.  0.
        3    1    3    3  502    0  0.37509959643E+03  0.15566103970E+03 -0.51488942064E+03  0.65577526045E+03  0.10100000352E+00 0.  1.
       -3    1    3    3    0  502 -0.37509959643E+03 -0.15566103970E+03  0.10451767454E+04  0.11213048229E+04  0.10100000352E+00 0. -1.
</event>
<event>
 5   0  0.2356829E-04  0.1706338E+04  0.7818609E-02  0.8757758E-01
       -2   -1    0    0    0  501  0.00000000000E+00  0.00000000000E+00  0.59154611129E+03  0.59154611130E+03  0.25500000920E-02 0. -1.
        2   -1    0    0  501    0  0.00000000000E+00  0.00000000000E+00 -0.12304990364E+04  0.12304990364E+04  0.25500000920E-02 0.  1.
    10030    2    1    2    0    0  0.00000000000E+00  0.00000000000E+00 -0.63895292510E+03  0.18220451477E+04  0.17063375046E+04 0.  0.
        5    1    3    3  502    0  0.15616594262E+03 -0.43818914111E+03  0.44419644131E+03  0.64321854256E+03  0.46999998093E+01 0. -1.
       -5    1    3    3    0  502 -0.15616594262E+03  0.43818914111E+03 -0.10831493664E+04  0.11788266051E+04  0.46999998093E+01 0.  1.
</event>
<event>
 5   0  0.1215233E-04  0.1703859E+04  0.7818609E-02  0.8759167E-01
       -1   -1    0    0    0  501  0.00000000000E+00  0.00000000000E+00  0.73697529353E+03  0.73697529355E+03  0.50400001928E-02 0.  1.
        1   -1    0    0  501    0  0.00000000000E+00  0.00000000000E+00 -0.98481383483E+03  0.98481383484E+03  0.50400001928E-02 0. -1.
    10030    2    1    2    0    0  0.00000000000E+00  0.00000000000E+00 -0.24783854130E+03  0.17217891284E+04  0.17038585212E+04 0.  0.
        2    1    3    3  502    0 -0.69613449849E+03  0.44523273876E+03  0.85500689053E+02  0.83075014263E+03  0.25500000920E-02 0.  1.
       -2    1    3    3    0  502  0.69613449849E+03 -0.44523273876E+03 -0.33333923035E+03  0.89103898576E+03  0.25500000920E-02 0. -1.
</event>
<event>
 5   0  0.2288806E-04  0.1700022E+04  0.7818609E-02  0.8761352E-01
       -2   -1    0    0    0  501  0.00000000000E+00  0.00000000000E+00  0.61565635762E+03  0.61565635763E+03  0.25500000920E-02 0. -1.
        2   -1    0    0  501    0  0.00000000000E+00  0.00000000000E+00 -0.11735745162E+04  0.11735745162E+04  0.25500000920E-02 0.  1.
    10030    2    1    2    0    0  0.00000000000E+00  0.00000000000E+00 -0.55791815854E+03  0.17892308738E+04  0.17000218964E+04 0.  0.
        3    1    3    3  502    0 -0.29150098979E+03 -0.42673604151E+03  0.43131909092E+03  0.67313642344E+03  0.10100000352E+00 0. -1.
       -3    1    3    3    0  502  0.29150098979E+03  0.42673604151E+03 -0.98923724946E+03  0.11160944503E+04  0.10100000352E+00 0.  1.
</event>
<event>
 5   0  0.2224454E-04  0.1696139E+04  0.7818609E-02  0.8763570E-01
        2   -1    0    0  501    0  0.00000000000E+00  0.00000000000E+00  0.19110979527E+04  0.19110979527E+04  0.25500000920E-02 0.  1.
       -2   -1    0    0    0  501  0.00000000000E+00  0.00000000000E+00 -0.37633946318E+03  0.37633946318E+03  0.25500000920E-02 0. -1.
    10030    2    1    2    0    0  0.00000000000E+00  0.00000000000E+00  0.15347584895E+04  0.22874374159E+04  0.16961386472E+04 0.  0.
        2    1    3    3  502    0  0.38530921705E+03  0.74835491121E+03  0.62772558026E+03  0.10500179379E+04  0.25500000920E-02 0. -1.
       -2    1    3    3    0  502 -0.38530921705E+03 -0.74835491121E+03  0.90703290924E+03  0.12374194779E+04  0.25500000920E-02 0.  1.
</event>
<event>
 5   0  0.2288806E-04  0.1712038E+04  0.7818609E-02  0.8754528E-01
        2   -1    0    0  501    0  0.00000000000E+00  0.00000000000E+00  0.13857577678E+04  0.13857577678E+04  0.25500000920E-02 0.  1.
       -2   -1    0    0    0  501  0.00000000000E+00  0.00000000000E+00 -0.52878553810E+03  0.52878553811E+03  0.25500000920E-02 0. -1.
    10030    2    1    2    0    0  0.00000000000E+00  0.00000000000E+00  0.85697222974E+03  0.19145433060E+04  0.17120381619E+04 0.  0.
        3    1    3    3  502    0  0.50315557686E+03  0.65347111991E+02 -0.34250732056E+03  0.61216587165E+03  0.10100000352E+00 0. -1.
       -3    1    3    3    0  502 -0.50315557686E+03 -0.65347111991E+02  0.11994795503E+04  0.13023774343E+04  0.10100000352E+00 0.  1.
</event>
<event>
 5   0  0.1215233E-04  0.1700171E+04  0.7818609E-02  0.8761267E-01
        1   -1    0    0  501    0  0.00000000000E+00  0.00000000000E+00  0.68502732261E+03  0.68502732263E+03  0.50400001928E-02 0.  1.
       -1   -1    0    0    0  501  0.00000000000E+00  0.00000000000E+00 -0.10549151699E+04  0.10549151699E+04  0.50400001928E-02 0. -1.
    10030    2    1    2    0    0  0.00000000000E+00  0.00000000000E+00 -0.36988784728E+03  0.17399424925E+04  0.17001714201E+04 0.  0.
        2    1    3    3  502    0 -0.82708493473E+02  0.78975094448E+03 -0.49552027214E+03  0.93599550710E+03  0.25500000920E-02 0. -1.
       -2    1    3    3    0  502  0.82708493473E+02 -0.78975094448E+03  0.12563242485E+03  0.80394698543E+03  0.25500000920E-02 0.  1.
</event>
<event>
 5   0  0.2224454E-04  0.1715101E+04  0.7818609E-02  0.8752798E-01
        2   -1    0    0  501    0  0.00000000000E+00  0.00000000000E+00  0.96300773129E+03  0.96300773130E+03  0.25500000920E-02 0. -1.
       -2   -1    0    0    0  501  0.00000000000E+00  0.00000000000E+00 -0.76364182695E+03  0.76364182696E+03  0.25500000920E-02 0.  1.
    10030    2    1    2    0    0  0.00000000000E+00  0.00000000000E+00  0.19936590434E+03  0.17266495583E+04  0.17151011437E+04 0.  0.
        2    1    3    3  502    0 -0.18864290343E+03 -0.70953364548E+03  0.54580199045E+03  0.91483547803E+03  0.25500000920E-02 0.  1.
       -2    1    3    3    0  502  0.18864290343E+03  0.70953364548E+03 -0.34643608611E+03  0.81181408022E+03  0.25500000920E-02 0. -1.
</event>
<event>
 5   0  0.1126958E-04  0.1703995E+04  0.7818609E-02  0.8759089E-01
       -1   -1    0    0    0  501  0.00000000000E+00  0.00000000000E+00  0.70927889702E+03  0.70927889704E+03  0.50400001928E-02 0.  1.
        1   -1    0    0  501    0  0.00000000000E+00  0.00000000000E+00 -0.10234334119E+04  0.10234334120E+04  0.50400001928E-02 0. -1.
    10030    2    1    2    0    0  0.00000000000E+00  0.00000000000E+00 -0.31415451493E+03  0.17327123090E+04  0.17039949784E+04 0.  0.
        4    1    3    3  502    0  0.77320055881E+03 -0.21608303377E+03  0.13297926854E+03  0.81376660068E+03  0.12699999809E+01 0.  1.
       -4    1    3    3    0  502 -0.77320055881E+03  0.21608303377E+03 -0.44713378346E+03  0.91894570832E+03  0.12699999809E+01 0. -1.
</event>
<event>
 5   0  0.1126958E-04  0.1699362E+04  0.7818609E-02  0.8761728E-01
       -1   -1    0    0    0  501  0.00000000000E+00  0.00000000000E+00  0.76493418252E+03  0.76493418253E+03  0.50400001928E-02 0. -1.
        1   -1    0    0  501    0  0.00000000000E+00  0.00000000000E+00 -0.94381661751E+03  0.94381661752E+03  0.50400001928E-02 0.  1.
    10030    2    1    2    0    0  0.00000000000E+00  0.00000000000E+00 -0.17888243499E+03  0.17087508001E+04  0.16993617541E+04 0.  0.
        4    1    3    3  502    0 -0.43419512651E+02  0.32884250857E+03 -0.87602492294E+03  0.93671977028E+03  0.12699999809E+01 0.  1.
       -4    1    3    3    0  502  0.43419512651E+02 -0.32884250857E+03  0.69714248795E+03  0.77203102977E+03  0.12699999809E+01 0. -1.
</event>
<event>
 5   0  0.2242967E-04  0.1697265E+04  0.7818609E-02  0.8762926E-01
        2   -1    0    0  501    0  0.00000000000E+00  0.00000000000E+00  0.69061652910E+03  0.69061652910E+03  0.25500000920E-02 0. -1.
       -2   -1    0    0    0  501  0.00000000000E+00  0.00000000000E+00 -0.10428033278E+04  0.10428033278E+04  0.25500000920E-02 0.  1.
    10030    2    1    2    0    0  0.00000000000E+00  0.00000000000E+00 -0.35218679872E+03  0.17334198569E+04  0.16972651116E+04 0.  0.
        4    1    3    3  502    0 -0.38047358805E+03 -0.14201657815E+03 -0.93711519073E+03  0.10213301882E+04  0.12699999809E+01 0.  1.
       -4    1    3    3    0  502  0.38047358805E+03  0.14201657815E+03  0.58492839201E+03  0.71208966875E+03  0.12699999809E+01 0. -1.
</event>
<event>
 5   0  0.1186302E-04  0.1694018E+04  0.7818609E-02  0.8764784E-01
       -1   -1    0    0    0  501  0.00000000000E+00  0.00000000000E+00  0.14499097713E+04  0.14499097713E+04  0.50400001928E-02 0.  1.
        1   -1    0    0  501    0  0.00000000000E+00  0.00000000000E+00 -0.49480600547E+03  0.49480600549E+03  0.50400001928E-02 0. -1.
    10030    2    1    2    0    0  0.00000000000E+00  0.00000000000E+00  0.95510376583E+03  0.19447157768E+04  0.16940177830E+04 0.  0.
        3    1    3    3  502    0  0.43491006732E+03  0.35468510637E+03  0.12058480720E+04  0.13300443129E+04  0.10100000352E+00 0.  1.
       -3    1    3    3    0  502 -0.43491006732E+03 -0.35468510637E+03 -0.25074430612E+03  0.61467146394E+03  0.10100000352E+00 0. -1.
</event>
<event>
 5   0  0.8372750E-05  0.1544215E+04  0.7818609E-02  0.8855571E-01
        4   -1    0    0  501    0  0.00000000000E+00  0.00000000000E+00  0.12916828702E+04  0.12916834946E+04  0.12699999809E+01 0.  1.
       -4   -1    0    0    0  501  0.00000000000E+00  0.00000000000E+00 -0.46152826364E+03  0.46153001099E+03  0.12699999809E+01 0. -1.
    10030    2    1    2    0    0  0.00000000000E+00  0.00000000000E+00  0.83015460657E+03  0.17532135055E+04  0.15442153105E+04 0.  0.
        5    1    3    3  502    0  0.22409207279E+03 -0.17715751009E+03 -0.39930937091E+03  0.49099094102E+03  0.46999998093E+01 0. -1.
       -5    1    3    3    0  502 -0.22409207279E+03  0.17715751009E+03  0.12294639775E+04  0.12622225645E+04  0.46999998093E+01 0.  1.
</event>
<event>
 5   0  0.2234723E-04  0.1665416E+04  0.7818609E-02  0.8781338E-01
       -2   -1    0    0    0  501  0.00000000000E+00  0.00000000000E+00  0.79296402430E+03  0.79296402430E+03  0.25500000920E-02 0.  1.
        2   -1    0    0  501    0  0.00000000000E+00  0.00000000000E+00 -0.87444398932E+03  0.87444398932E+03  0.25500000920E-02 0. -1.
    10030    2    1    2    0    0  0.00000000000E+00  0.00000000000E+00 -0.81479965021E+02  0.16674080136E+04  0.16654160139E+04 0.  0.
        1    1    3    3  502    0  0.43278726359E+03 -0.24243471577E+03 -0.71036222085E+03  0.86642592977E+03  0.50400001928E-02 0. -1.
       -1    1    3    3    0  502 -0.43278726359E+03  0.24243471577E+03  0.62888225583E+03  0.80098208386E+03  0.50400001928E-02 0.  1.
</event>
<event>
 5   0  0.2288806E-04  0.1701216E+04  0.7818609E-02  0.8760671E-01
        2   -1    0    0  501    0  0.00000000000E+00  0.00000000000E+00  0.13161371136E+04  0.13161371136E+04  0.25500000920E-02 0.  1.
       -2   -1    0    0    0  501  0.00000000000E+00  0.00000000000E+00 -0.54974066278E+03  0.54974066278E+03  0.25500000920E-02 0. -1.
    10030    2    1    2    0    0  0.00000000000E+00  0.00000000000E+00  0.76639645084E+03  0.18658777764E+04  0.17012161405E+04 0.  0.
        3    1    3    3  502    0 -0.31173637020E+03 -0.47631264382E+03  0.10764191162E+04  0.12176745965E+04  0.10100000352E+00 0.  1.
       -3    1    3    3    0  502  0.31173637020E+03  0.47631264382E+03 -0.31002266533E+03  0.64820317987E+03  0.10100000352E+00 0. -1.
</event>
<event>
 5   0  0.2224454E-04  0.1700740E+04  0.7818609E-02  0.8760942E-01
        2   -1    0    0  501    0  0.00000000000E+00  0.00000000000E+00  0.19207038632E+04  0.19207038632E+04  0.25500000920E-02 0.  1.
       -2   -1    0    0    0  501  0.00000000000E+00  0.00000000000E+00 -0.37649193725E+03  0.37649193726E+03  0.25500000920E-02 0. -1.
    10030    2    1    2    0    0  0.00000000000E+00  0.00000000000E+00  0.15442119259E+04  0.22971958005E+04  0.17007404486E+04 0.  0.
        2    1    3    3  502    0 -0.28491512712E+03  0.19035014872E+03 -0.27911938833E+03  0.44194732913E+03  0.25500000920E-02 0. -1.
       -2    1    3    3    0  502  0.28491512712E+03 -0.19035014872E+03  0.18233313143E+04  0.18552484713E+04  0.25500000920E-02 0.  1.
</event>
<event>
 5   0  0.1204741E-04  0.1680151E+04  0.7818609E-02  0.8772767E-01
       -1   -1    0    0    0  501  0.00000000000E+00  0.00000000000E+00  0.51113576874E+03  0.51113576876E+03  0.50400001928E-02 0.  1.
        1   -1    0    0  501    0  0.00000000000E+00  0.00000000000E+00 -0.13807025447E+04  0.13807025447E+04  0.50400001928E-02 0. -1.
    10030    2    1    2    0    0  0.00000000000E+00  0.00000000000E+00 -0.86956677591E+03  0.18918383134E+04  0.16801505368E+04 0.  0.
        1    1    3    3  502    0  0.28268549407E+03 -0.73966638007E+03 -0.75068224751E+03  0.10911192781E+04  0.50400001928E-02 0. -1.
       -1    1    3    3    0  502 -0.28268549407E+03  0.73966638007E+03 -0.11888452841E+03  0.80071903529E+03  0.50400001928E-02 0.  1.
</event>
<event>
 5   0  0.2242967E-04  0.1687309E+04  0.7818609E-02  0.8768636E-01
       -2   -1    0    0    0  501  0.00000000000E+00  0.00000000000E+00  0.60726528814E+03  0.60726528815E+03  0.25500000920E-02 0.  1.
        2   -1    0    0  501    0  0.00000000000E+00  0.00000000000E+00 -0.11720624480E+04  0.11720624480E+04  0.25500000920E-02 0. -1.
    10030    2    1    2    0    0  0.00000000000E+00  0.00000000000E+00 -0.56479715982E+03  0.17793277361E+04  0.16873089109E+04 0.  0.
        4    1    3    3  502    0  0.44011880220E+03  0.38018365085E+03 -0.92688052527E+03  0.10942363956E+04  0.12699999809E+01 0. -1.
       -4    1    3    3    0  502 -0.44011880220E+03 -0.38018365085E+03  0.36208336544E+03  0.68509134052E+03  0.12699999809E+01 0.  1.
</event>
<event>
 5   0  0.1186302E-04  0.1694342E+04  0.7818609E-02  0.8764598E-01
        1   -1    0    0  501    0  0.00000000000E+00  0.00000000000E+00  0.62186547018E+03  0.62186547021E+03  0.50400001928E-02 0.  1.
       -1   -1    0    0    0  501  0.00000000000E+00  0.00000000000E+00 -0.11541064133E+04  0.11541064133E+04  0.50400001928E-02 0. -1.
    10030    2    1    2    0    0  0.00000000000E+00  0.00000000000E+00 -0.53224094315E+03  0.17759718835E+04  0.16943422646E+04 0.  0.
        3    1    3    3  502    0  0.35929056284E+03  0.62312259901E+03  0.20302243816E+03  0.74738852181E+03  0.10100000352E+00 0.  1.
       -3    1    3    3    0  502 -0.35929056284E+03 -0.62312259901E+03 -0.73526338131E+03  0.10285833617E+04  0.10100000352E+00 0. -1.
</event>
<event>
 5   0  0.2288806E-04  0.1696715E+04  0.7818609E-02  0.8763240E-01
        2   -1    0    0  501    0  0.00000000000E+00  0.00000000000E+00  0.12158413805E+04  0.12158413805E+04  0.25500000920E-02 0. -1.
       -2   -1    0    0    0  501  0.00000000000E+00  0.00000000000E+00 -0.59194428422E+03  0.59194428422E+03  0.25500000920E-02 0.  1.
    10030    2    1    2    0    0  0.00000000000E+00  0.00000000000E+00  0.62389709627E+03  0.18077856647E+04  0.16967148914E+04 0.  0.
        3    1    3    3  502    0  0.57816015530E+03 -0.95623610440E+02  0.96553587256E+03  0.11294567594E+04  0.10100000352E+00 0. -1.
       -3    1    3    3    0  502 -0.57816015530E+03  0.95623610440E+02 -0.34163877629E+03  0.67832890526E+03  0.10100000352E+00 0.  1.
</event>
<event>
 5   0  0.2288806E-04  0.1660860E+04  0.7818609E-02  0.8784008E-01
        2   -1    0    0  501    0  0.00000000000E+00  0.00000000000E+00  0.35619558345E+03  0.35619558346E+03  0.25500000920E-02 0.  1.
       -2   -1    0    0    0  501  0.00000000000E+00  0.00000000000E+00 -0.19360546206E+04  0.19360546206E+04  0.25500000920E-02 0. -1.
    10030    2    1    2    0    0  0.00000000000E+00  0.00000000000E+00 -0.15798590371E+04  0.22922502040E+04  0.16608601448E+04 0.  0.
        3    1    3    3  502    0  0.12927541638E+03  0.65279936710E+03 -0.14755154412E+04  0.16186429422E+04  0.10100000352E+00 0. -1.
       -3    1    3    3    0  502 -0.12927541638E+03 -0.65279936710E+03 -0.10434359595E+03  0.67360726183E+03  0.10100000352E+00 0.  1.
</event>
<event>
 5   0  0.1126958E-04  0.1644043E+04  0.7818609E-02  0.8793938E-01
       -1   -1    0    0    0  501  0.00000000000E+00  0.00000000000E+00  0.66835045043E+03  0.66835045045E+03  0.50400001928E-02 0. -1.
        1   -1    0    0  501    0  0.00000000000E+00  0.00000000000E+00 -0.10110253989E+04  0.10110253989E+04  0.50400001928E-02 0.  1.
    10030    2    1    2    0    0  0.00000000000E+00  0.00000000000E+00 -0.34267494845E+03  0.16793758493E+04  0.16440429201E+04 0.  0.
        4    1    3    3  502    0 -0.49232549976E+03  0.65735979707E+02  0.49772935349E+03  0.70316551321E+03  0.12699999809E+01 0. -1.
       -4    1    3    3    0  502  0.49232549976E+03 -0.65735979707E+02 -0.84040430193E+03  0.97621033612E+03  0.12699999809E+01 0.  1.
</event>
<event>
 5   0  0.1204741E-04  0.1701994E+04  0.7818609E-02  0.8760228E-01
        1   -1    0    0  501    0  0.00000000000E+00  0.00000000000E+00  0.23181871406E+04  0.23181871406E+04  0.50400001928E-02 0. -1.
       -1   -1    0    0    0  501  0.00000000000E+00  0.00000000000E+00 -0.31239767900E+03  0.31239767904E+03  0.50400001928E-02 0.  1.
    10030    2    1    2    0    0  0.00000000000E+00  0.00000000000E+00  0.20057894616E+04  0.26305848196E+04  0.17019944562E+04 0.  0.
        1    1    3    3  502    0  0.69883013950E+03  0.66602252111E+02  0.17463809063E+04  0.18821917261E+04  0.50400001928E-02 0. -1.
       -1    1    3    3    0  502 -0.69883013950E+03 -0.66602252111E+02  0.25940855528E+03  0.74839309353E+03  0.50400001928E-02 0.  1.
</event>
<event>
 5   0  0.2234723E-04  0.1704306E+04  0.7818609E-02  0.8758912E-01
       -2   -1    0    0    0  501  0.00000000000E+00  0.00000000000E+00  0.68143887552E+03  0.68143887552E+03  0.25500000920E-02 0.  1.
        2   -1    0    0  501    0  0.00000000000E+00  0.00000000000E+00 -0.10656344739E+04  0.10656344739E+04  0.25500000920E-02 0. -1.
    10030    2    1    2    0    0  0.00000000000E+00  0.00000000000E+00 -0.38419559837E+03  0.17470733494E+04  0.17043060260E+04 0.  0.
        1    1    3    3  502    0  0.38740835220E+03 -0.70774600752E+03  0.88963215655E+02  0.81172907813E+03  0.50400001928E-02 0.  1.
       -1    1    3    3    0  502 -0.38740835220E+03  0.70774600752E+03 -0.47315881402E+03  0.93534427128E+03  0.50400001928E-02 0. -1.
</event>
<event>
 5   0  0.1126958E-04  0.1698080E+04  0.7818609E-02  0.8762460E-01
       -1   -1    0    0    0  501  0.00000000000E+00  0.00000000000E+00  0.88180800117E+03  0.88180800118E+03  0.50400001928E-02 0.  1.
        1   -1    0    0  501    0  0.00000000000E+00  0.00000000000E+00 -0.81749005208E+03  0.81749005209E+03  0.50400001928E-02 0. -1.
    10030    2    1    2    0    0  0.00000000000E+00  0.00000000000E+00  0.64317949087E+02  0.16992980533E+04  0.16980804090E+04 0.  0.
        4    1    3    3  502    0 -0.39663018464E+03 -0.60208121023E+03  0.48086690518E+03  0.86663249448E+03  0.12699999809E+01 0.  1.
       -4    1    3    3    0  502  0.39663018464E+03  0.60208121023E+03 -0.41654895610E+03  0.83266555880E+03  0.12699999809E+01 0. -1.
</event>
<event>
 5   0  0.2356829E-04  0.1694672E+04  0.7818609E-02  0.8764409E-01
       -2   -1    0    0    0  501  0.00000000000E+00  0.00000000000E+00  0.56728458328E+03  0.56728458329E+03  0.25500000920E-02 0. -1.
        2   -1    0    0  501    0  0.00000000000E+00  0.00000000000E+00 -0.12656408208E+04  0.12656408208E+04  0.25500000920E-02 0.  1.
    10030    2    1    2    0    0  0.00000000000E+00  0.00000000000E+00 -0.69835623747E+03  0.18329254040E+04  0.16946722699E+04 0.  0.
        5    1    3    3  502    0  0.38610683217E+03  0.61927284865E+03  0.11650386769E+03  0.73903490317E+03  0.46999998093E+01 0. -1.
       -5    1    3    3    0  502 -0.38610683217E+03 -0.61927284865E+03 -0.81486010515E+03  0.10938905009E+04  0.46999998093E+01 0.  1.
</event>
<event>
 5   0  0.1215233E-04  0.1694105E+04  0.7818609E-02  0.8764734E-01
        1   -1    0    0  501    0  0.00000000000E+00  0.00000000000E+00  0.74542896180E+03  0.74542896182E+03  0.50400001928E-02 0.  1.
       -1   -1    0    0    0  501  0.00000000000E+00  0.00000000000E+00 -0.96253047042E+03  0.96253047043E+03  0.50400001928E-02 0. -1.
    10030    2    1    2    0    0  0.00000000000E+00  0.00000000000E+00 -0.21710150862E+03  0.17079594322E+04  0.16941051789E+04 0.  0.
        2    1    3    3  502    0  0.27898894305E+03  0.17985524707E+03 -0.89422824260E+03  0.95384846287E+03  0.25500000920E-02 0. -1.
       -2    1    3    3    0  502 -0.27898894305E+03 -0.17985524707E+03  0.67712673399E+03  0.75411096938E+03  0.25500000920E-02 0.  1.
</event>
<event>
 5   0  0.1234158E-04  0.1792966E+04  0.7818609E-02  0.8710049E-01
       -1   -1    0    0    0  501  0.00000000000E+00  0.00000000000E+00  0.85539288393E+03  0.85539288395E+03  0.50400001928E-02 0. -1.
        1   -1    0    0  501    0  0.00000000000E+00  0.00000000000E+00 -0.93954677670E+03  0.93954677672E+03  0.50400001928E-02 0.  1.
    10030    2    1    2    0    0  0.00000000000E+00  0.00000000000E+00 -0.84153892771E+02  0.17949396607E+04  0.17929658412E+04 0.  0.
        5    1    3    3  502    0  0.37431986346E+03  0.11204979566E+03 -0.84980407573E+03  0.93533928284E+03  0.46999998093E+01 0.  1.
       -5    1    3    3    0  502 -0.37431986346E+03 -0.11204979566E+03  0.76565018296E+03  0.85960037783E+03  0.46999998093E+01 0. -1.
</event>
<event>
 5   0  0.1204741E-04  0.1697697E+04  0.7818609E-02  0.8762679E-01
       -1   -1    0    0    0  501  0.00000000000E+00  0.00000000000E+00  0.45434741891E+03  0.45434741894E+03  0.50400001928E-02 0.  1.
        1   -1    0    0  501    0  0.00000000000E+00  0.00000000000E+00 -0.15858866649E+04  0.15858866649E+04  0.50400001928E-02 0. -1.
    10030    2    1    2    0    0  0.00000000000E+00  0.00000000000E+00 -0.11315392460E+04  0.20402340839E+04  0.16976966902E+04 0.  0.
        1    1    3    3  502    0 -0.23476374928E+03  0.27740474321E+03 -0.14876706792E+04  0.15314148554E+04  0.50400001928E-02 0. -1.
       -1    1    3    3    0  502  0.23476374928E+03 -0.27740474321E+03  0.35613143320E+03  0.50881922848E+03  0.50400001928E-02 0.  1.
</event>
<event>
 5   0  0.2356829E-04  0.1704364E+04  0.7818609E-02  0.8758879E-01
       -2   -1    0    0    0  501  0.00000000000E+00  0.00000000000E+00  0.65786516730E+03  0.65786516731E+03  0.25500000920E-02 0. -1.
        2   -1    0    0  501    0  0.00000000000E+00  0.00000000000E+00 -0.11038957033E+04  0.11038957033E+04  0.25500000920E-02 0.  1.
    10030    2    1    2    0    0  0.00000000000E+00  0.00000000000E+00 -0.44603053602E+03  0.17617608706E+04  0.17043644347E+04 0.  0.
        5    1    3    3  502    0  0.68550820346E+03 -0.35506011175E+03 -0.59600375658E+03  0.97531110310E+03  0.46999998093E+01 0.  1.
       -5    1    3    3    0  502 -0.68550820346E+03  0.35506011175E+03  0.14997322056E+03  0.78644976753E+03  0.46999998093E+01 0. -1.
</event>
<event>
 5   0  0.1215233E-04  0.1698548E+04  0.7818609E-02  0.8762193E-01
        1   -1    0    0  501    0  0.00000000000E+00  0.00000000000E+00  0.10862867765E+04  0.10862867765E+04  0.50400001928E-02 0.  1.
       -1   -1    0    0    0  501  0.00000000000E+00  0.00000000000E+00 -0.66397377850E+03  0.66397377852E+03  0.50400001928E-02 0. -1.
    10030    2    1    2    0    0  0.00000000000E+00  0.00000000000E+00  0.42231299796E+03  0.17502605550E+04  0.16985475390E+04 0.  0.
        2    1    3    3  502    0  0.66577238814E+03  0.14420028708E+03  0.73376540762E+03  0.10012283801E+04  0.25500000920E-02 0.  1.
       -2    1    3    3    0  502 -0.66577238814E+03 -0.14420028708E+03 -0.31145240966E+03  0.74903217494E+03  0.25500000920E-02 0. -1.
</event>
<event>
 5   0  0.1186302E-04  0.1707024E+04  0.7818609E-02  0.8757369E-01
       -1   -1    0    0    0  501  0.00000000000E+00  0.00000000000E+00  0.43414093439E+03  0.43414093442E+03  0.50400001928E-02 0. -1.
        1   -1    0    0  501    0  0.00000000000E+00  0.00000000000E+00 -0.16779864121E+04  0.16779864121E+04  0.50400001928E-02 0.  1.
    10030    2    1    2    0    0  0.00000000000E+00  0.00000000000E+00 -0.12438454777E+04  0.21121273465E+04  0.17070238298E+04 0.  0.
        3    1    3    3  502    0  0.60808743155E+03  0.28981478684E+03 -0.12704457237E+04  0.14379830605E+04  0.10100000352E+00 0.  1.
       -3    1    3    3    0  502 -0.60808743155E+03 -0.28981478684E+03  0.26600246053E+02  0.67414428601E+03  0.10100000352E+00 0. -1.
</event>
<event>
 5   0  0.2288806E-04  0.1650413E+04  0.7818609E-02  0.8790162E-01
        2   -1    0    0  501    0  0.00000000000E+00  0.00000000000E+00  0.46521958667E+03  0.46521958668E+03  0.25500000920E-02 0.  1.
       -2   -1    0    0    0  501  0.00000000000E+00  0.00000000000E+00 -0.14637509749E+04  0.14637509749E+04  0.25500000920E-02 0. -1.
    10030    2    1    2    0    0  0.00000000000E+00  0.00000000000E+00 -0.99853138825E+03  0.19289705616E+04  0.16504128254E+04 0.  0.
        3    1    3    3  502    0  0.77101233828E+03  0.28040263765E+03 -0.39551411969E+03  0.91077829029E+03  0.10100000352E+00 0.  1.
       -3    1    3    3    0  502 -0.77101233828E+03 -0.28040263765E+03 -0.60301726856E+03  0.10181922713E+04  0.10100000352E+00 0. -1.
</event>
<event>
 5   0  0.2356829E-04  0.1689532E+04  0.7818609E-02  0.8767357E-01
       -2   -1    0    0    0  501  0.00000000000E+00  0.00000000000E+00  0.63238557941E+03  0.63238557942E+03  0.25500000920E-02 0.  1.
        2   -1    0    0  501    0  0.00000000000E+00  0.00000000000E+00 -0.11284717889E+04  0.11284717889E+04  0.25500000920E-02 0. -1.
    10030    2    1    2    0    0  0.00000000000E+00  0.00000000000E+00 -0.49608620952E+03  0.17608573684E+04  0.16895316346E+04 0.  0.
        5    1    3    3  502    0  0.64295344878E+03 -0.54750310744E+03 -0.22572881490E+03  0.87414208103E+03  0.46999998093E+01 0.  1.
       -5    1    3    3    0  502 -0.64295344878E+03  0.54750310744E+03 -0.27035739462E+03  0.88671528733E+03  0.46999998093E+01 0. -1.
</event>
<event>
 5   0  0.2234723E-04  0.1691516E+04  0.7818609E-02  0.8766218E-01
        2   -1    0    0  501    0  0.00000000000E+00  0.00000000000E+00  0.65989816398E+03  0.65989816399E+03  0.25500000920E-02 0. -1.
       -2   -1    0    0    0  501  0.00000000000E+00  0.00000000000E+00 -0.10839657455E+04  0.10839657455E+04  0.25500000920E-02 0.  1.
    10030    2    1    2    0    0  0.00000000000E+00  0.00000000000E+00 -0.42406758149E+03  0.17438639095E+04  0.16915164856E+04 0.  0.
        1    1    3    3  502    0 -0.32973316174E+03 -0.77870002654E+03 -0.19711830128E+03  0.86830485085E+03  0.50400001928E-02 0. -1.
       -1    1    3    3    0  502  0.32973316174E+03  0.77870002654E+03 -0.22694928021E+03  0.87555905860E+03  0.50400001928E-02 0.  1.
</event>
<event>
 5   0  0.1126958E-04  0.1712331E+04  0.7818609E-02  0.8754363E-01
       -1   -1    0    0    0  501  0.00000000000E+00  0.00000000000E+00  0.54303252709E+03  0.54303252712E+03  0.50400001928E-02 0.  1.
        1   -1    0    0  501    0  0.00000000000E+00  0.00000000000E+00 -0.13498621269E+04  0.13498621269E+04  0.50400001928E-02 0. -1.
    10030    2    1    2    0    0  0.00000000000E+00  0.00000000000E+00 -0.80682959982E+03  0.18928946540E+04  0.17123306247E+04 0.  0.
        4    1    3    3  502    0  0.77928291284E+03  0.24586659041E+03 -0.12096182132E+03  0.82605424376E+03  0.12699999809E+01 0.  1.
       -4    1    3    3    0  502 -0.77928291284E+03 -0.24586659041E+03 -0.68586777850E+03  0.10668404103E+04  0.12699999809E+01 0. -1.
</event>
<event>
 5   0  0.1186302E-04  0.1705544E+04  0.7818609E-02  0.8758209E-01
       -1   -1    0    0    0  501  0.00000000000E+00  0.00000000000E+00  0.26505728824E+03  0.26505728828E+03  0.50400001928E-02 0. -1.
        1   -1    0    0  501    0  0.00000000000E+00  0.00000000000E+00 -0.27436345189E+04  0.27436345189E+04  0.50400001928E-02 0.  1.
    10030    2    1    2    0    0  0.00000000000E+00  0.00000000000E+00 -0.24785772306E+04  0.30086918072E+04  0.17055442833E+04 0.  0.
        3    1    3    3  502    0 -0.25525475214E+03 -0.23807222169E+02 -0.26740482486E+04  0.26863089581E+04  0.10100000352E+00 0.  1.
       -3    1    3    3    0  502  0.25525475214E+03  0.23807222169E+02  0.19547101795E+03  0.32238284907E+03  0.10100000352E+00 0. -1.
</event>
<event>
 5   0  0.1204741E-04  0.1697095E+04  0.7818609E-02  0.8763023E-01
       -1   -1    0    0    0  501  0.00000000000E+00  0.00000000000E+00  0.66005346912E+03  0.66005346914E+03  0.50400001928E-02 0. -1.
        1   -1    0    0  501    0  0.00000000000E+00  0.00000000000E+00 -0.10908707693E+04  0.10908707693E+04  0.50400001928E-02 0.  1.
    10030    2    1    2    0    0  0.00000000000E+00  0.00000000000E+00 -0.43081730016E+03  0.17509242384E+04  0.16970952073E+04 0.  0.
        1    1    3    3  502    0 -0.69747040604E+03  0.17247483758E+03 -0.68119319882E+03  0.99006904357E+03  0.50400001928E-02 0.  1.
       -1    1    3    3    0  502  0.69747040604E+03 -0.17247483758E+03  0.25037589866E+03  0.76085519487E+03  0.50400001928E-02 0. -1.
</event>
<event>
 5   0  0.2224454E-04  0.1696321E+04  0.7818609E-02  0.8763465E-01
        2   -1    0    0  501    0  0.00000000000E+00  0.00000000000E+00  0.42592624573E+03  0.42592624574E+03  0.25500000920E-02 0.  1.
       -2   -1    0    0    0  501  0.00000000000E+00  0.00000000000E+00 -0.16889691230E+04  0.16889691230E+04  0.25500000920E-02 0. -1.
    10030    2    1    2    0    0  0.00000000000E+00  0.00000000000E+00 -0.12630428773E+04  0.21148953687E+04  0.16963210518E+04 0.  0.
        2    1    3    3  502    0 -0.42687036741E+03 -0.17781712410E+03 -0.15179794779E+04  0.15868518946E+04  0.25500000920E-02 0. -1.
       -2    1    3    3    0  502  0.42687036741E+03  0.17781712410E+03  0.25493660062E+03  0.52804347410E+03  0.25500000920E-02 0.  1.
</event>
<event>
 5   0  0.1204741E-04  0.1707396E+04  0.7818609E-02  0.8757158E-01
        1   -1    0    0  501    0  0.00000000000E+00  0.00000000000E+00  0.10782643686E+04  0.10782643686E+04  0.50400001928E-02 0. -1.
       -1   -1    0    0    0  501  0.00000000000E+00  0.00000000000E+00 -0.67590108166E+03  0.67590108167E+03  0.50400001928E-02 0.  1.
    10030    2    1    2    0    0  0.00000000000E+00  0.00000000000E+00  0.40236328694E+03  0.17541654503E+04  0.17073957398E+04 0.  0.
        1    1    3    3  502    0  0.63384116811E+02 -0.84301421306E+03  0.79144273743E+02  0.84909029307E+03  0.50400001928E-02 0.  1.
       -1    1    3    3    0  502 -0.63384116811E+02  0.84301421306E+03  0.32321901319E+03  0.90507515721E+03  0.50400001928E-02 0. -1.
</event>
<event>
 5   0  0.8372750E-05  0.1679120E+04  0.7818609E-02  0.8773363E-01
       -4   -1    0    0    0  501  0.00000000000E+00  0.00000000000E+00  0.11239987916E+04  0.11239995091E+04  0.12699999809E+01 0.  1.
        4   -1    0    0  501    0  0.00000000000E+00  0.00000000000E+00 -0.62709971032E+03  0.62710099632E+03  0.12699999809E+01 0. -1.
    10030    2    1    2    0    0  0.00000000000E+00  0.00000000000E+00  0.49689908132E+03  0.17511005054E+04  0.16791200919E+04 0.  0.
        3    1    3    3  502    0 -0.12530516500E+02  0.63444468569E+03  0.82172722813E+03  0.10382257561E+04  0.10100000352E+00 0.  1.
       -3    1    3    3    0  502  0.12530516500E+02 -0.63444468569E+03 -0.32482814681E+03  0.71287474931E+03  0.10100000352E+00 0. -1.
</event>
<event>
 5   0  0.1126958E-04  0.1683674E+04  0.7818609E-02  0.8770731E-01
        1   -1    0    0  501    0  0.00000000000E+00  0.00000000000E+00  0.87368675412E+03  0.87368675414E+03  0.50400001928E-02 0. -1.
       -1   -1    0    0    0  501  0.00000000000E+00  0.00000000000E+00 -0.81114875589E+03  0.81114875591E+03  0.50400001928E-02 0.  1.
    10030    2    1    2    0    0  0.00000000000E+00  0.00000000000E+00  0.62537998228E+02  0.16848355100E+04  0.16836744622E+04 0.  0.
        4    1    3    3  502    0  0.64995711865E+03  0.49289124449E+01 -0.50409503230E+03  0.82254602591E+03  0.12699999809E+01 0.  1.
       -4    1    3    3    0  502 -0.64995711865E+03 -0.49289124449E+01  0.56663303053E+03  0.86228948413E+03  0.12699999809E+01 0. -1.
</event>
<event>
 5   0  0.2234723E-04  0.1702935E+04  0.7818609E-02  0.8759692E-01
        2   -1    0    0  501    0  0.00000000000E+00  0.00000000000E+00  0.60499366261E+03  0.60499366262E+03  0.25500000920E-02 0. -1.
       -2   -1    0    0    0  501  0.00000000000E+00  0.00000000000E+00 -0.11983551088E+04  0.11983551088E+04  0.25500000920E-02 0.  1.
    10030    2    1    2    0    0  0.00000000000E+00  0.00000000000E+00 -0.59336144617E+03  0.18033487714E+04  0.17029354026E+04 0.  0.
        1    1    3    3  502    0 -0.30627773262E+03 -0.54715198185E+03  0.31331972518E+03  0.70096404398E+03  0.50400001928E-02 0.  1.
       -1    1    3    3    0  502  0.30627773262E+03  0.54715198185E+03 -0.90668117135E+03  0.11023847274E+04  0.50400001928E-02 0. -1.
</event>
<event>
 5   0  0.2288806E-04  0.1708313E+04  0.7818609E-02  0.8756637E-01
       -2   -1    0    0    0  501  0.00000000000E+00  0.00000000000E+00  0.11807116626E+04  0.11807116626E+04  0.25500000920E-02 0. -1.
        2   -1    0    0  501    0  0.00000000000E+00  0.00000000000E+00 -0.61791835702E+03  0.61791835703E+03  0.25500000920E-02 0.  1.
    10030    2    1    2    0    0  0.00000000000E+00  0.00000000000E+00  0.56279330553E+03  0.17986300196E+04  0.17083130985E+04 0.  0.
        3    1    3    3  502    0  0.10887499192E+03  0.68544825351E+03  0.80560527275E+03  0.10633404618E+04  0.10100000352E+00 0. -1.
       -3    1    3    3    0  502 -0.10887499192E+03 -0.68544825351E+03 -0.24281196722E+03  0.73528955775E+03  0.10100000352E+00 0.  1.
</event>
<event>
 5   0  0.1215233E-04  0.1708566E+04  0.7818609E-02  0.8756494E-01
       -1   -1    0    0    0  501  0.00000000000E+00  0.00000000000E+00  0.43032301642E+03  0.43032301645E+03  0.50400001928E-02 0.  1.
        1   -1    0    0  501    0  0.00000000000E+00  0.00000000000E+00 -0.16959347891E+04  0.16959347891E+04  0.50400001928E-02 0. -1.
    10030    2    1    2    0    0  0.00000000000E+00  0.00000000000E+00 -0.12656117727E+04  0.21262578056E+04  0.17085663863E+04 0.  0.
        2    1    3    3  502    0 -0.70356272237E+03  0.37611545874E+02 -0.31604187277E+02  0.70527580233E+03  0.25500000920E-02 0.  1.
       -2    1    3    3    0  502  0.70356272237E+03 -0.37611545874E+02 -0.12340075854E+04  0.14209820032E+04  0.25500000920E-02 0. -1.
</event>
<event>
 5   0  0.1234158E-04  0.1672226E+04  0.7818609E-02  0.8777365E-01
       -1   -1    0    0    0  501  0.00000000000E+00  0.00000000000E+00  0.32706327205E+03  0.32706327209E+03  0.50400001928E-02 0.  1.
        1   -1    0    0  501    0  0.00000000000E+00  0.00000000000E+00 -0.21374617608E+04  0.21374617608E+04  0.50400001928E-02 0. -1.
    10030    2    1    2    0    0  0.00000000000E+00  0.00000000000E+00 -0.18103984888E+04  0.24645250329E+04  0.16722263452E+04 0.  0.
        5    1    3    3  502    0  0.53633019454E+03  0.24461135957E+03 -0.17790740850E+04  0.18741962236E+04  0.46999998093E+01 0. -1.
       -5    1    3    3    0  502 -0.53633019454E+03 -0.24461135957E+03 -0.31324403800E+02  0.59032880929E+03  0.46999998093E+01 0.  1.
</event>
<event>
 5   0  0.2356829E-04  0.1716234E+04  0.7818609E-02  0.8752160E-01
        2   -1    0    0  501    0  0.00000000000E+00  0.00000000000E+00  0.20388608004E+04  0.20388608004E+04  0.25500000920E-02 0. -1.
       -2   -1    0    0    0  501  0.00000000000E+00  0.00000000000E+00 -0.36116465356E+03  0.36116465357E+03  0.25500000920E-02 0.  1.
    10030    2    1    2    0    0  0.00000000000E+00  0.00000000000E+00  0.16776961469E+04  0.24000254540E+04  0.17162336142E+04 0.  0.
        5    1    3    3  502    0 -0.79100569215E+03  0.27628716426E+03  0.10979072175E+04  0.13811035263E+04  0.46999998093E+01 0.  1.
       -5    1    3    3    0  502  0.79100569215E+03 -0.27628716426E+03  0.57978892941E+03  0.10189219277E+04  0.46999998093E+01 0. -1.
</event>
<event>
 5   0  0.2234723E-04  0.1693005E+04  0.7818609E-02  0.8765364E-01
       -2   -1    0    0    0  501  0.00000000000E+00  0.00000000000E+00  0.52810924929E+03  0.52810924929E+03  0.25500000920E-02 0. -1.
        2   -1    0    0  501    0  0.00000000000E+00  0.00000000000E+00 -0.13568528616E+04  0.13568528616E+04  0.25500000920E-02 0.  1.
    10030    2    1    2    0    0  0.00000000000E+00  0.00000000000E+00 -0.82874361233E+03  0.18849621109E+04  0.16930050752E+04 0.  0.
        1    1    3    3  502    0  0.48311280873E+03 -0.33063026063E+03 -0.10951322771E+04  0.12417846269E+04  0.50400001928E-02 0.  1.
       -1    1    3    3    0  502 -0.48311280873E+03  0.33063026063E+03  0.26638866478E+03  0.64317748402E+03  0.50400001928E-02 0. -1.
</event>
<event>
 5   0  0.8372750E-05  0.1696737E+04  0.7818609E-02  0.8763228E-01
        3   -1    0    0  501    0  0.00000000000E+00  0.00000000000E+00  0.10219033419E+04  0.10219033469E+04  0.10100000352E+00 0. -1.
       -3   -1    0    0    0  501  0.00000000000E+00  0.00000000000E+00 -0.70430223122E+03  0.70430223846E+03  0.10100000352E+00 0.  1.
    10030    2    1    2    0    0  0.00000000000E+00  0.00000000000E+00  0.31760111073E+03  0.17262055854E+04  0.16967366494E+04 0.  0.
        2    1    3    3  502    0 -0.82695565799E+02  0.62309199856E+02  0.10154508920E+04  0.10207161736E+04  0.25500000920E-02 0. -1.
       -2    1    3    3    0  502  0.82695565799E+02 -0.62309199856E+02 -0.69784978125E+03  0.70548941182E+03  0.25500000920E-02 0.  1.
</event>
<event>
 5   0  0.1126958E-04  0.1698163E+04  0.7818609E-02  0.8762413E-01
       -1   -1    0    0    0  501  0.00000000000E+00  0.00000000000E+00  0.90486170787E+03  0.90486170788E+03  0.50400001928E-02 0.  1.
        1   -1    0    0  501    0  0.00000000000E+00  0.00000000000E+00 -0.79673990311E+03  0.79673990312E+03  0.50400001928E-02 0. -1.
    10030    2    1    2    0    0  0.00000000000E+00  0.00000000000E+00  0.10812180476E+03  0.17016016110E+04  0.16981630422E+04 0.  0.
        4    1    3    3  502    0  0.34612589493E+03  0.43000082118E+03 -0.59240744628E+03  0.80972343221E+03  0.12699999809E+01 0. -1.
       -4    1    3    3    0  502 -0.34612589493E+03 -0.43000082118E+03  0.70052925104E+03  0.89187817880E+03  0.12699999809E+01 0.  1.
</event>
<event>
 5   0  0.2242967E-04  0.1702006E+04  0.7818609E-02  0.8760221E-01
        2   -1    0    0  501    0  0.00000000000E+00  0.00000000000E+00  0.22544863150E+04  0.22544863150E+04  0.25500000920E-02 0. -1.
       -2   -1    0    0    0  501  0.00000000000E+00  0.00000000000E+00 -0.32122882464E+03  0.32122882465E+03  0.25500000920E-02 0.  1.
    10030    2    1    2    0    0  0.00000000000E+00  0.00000000000E+00  0.19332574903E+04  0.25757151396E+04  0.17020058627E+04 0.  0.
        4    1    3    3  502    0  0.23939033351E+03 -0.77966698169E+03  0.13342679510E+04  0.15637969536E+04  0.12699999809E+01 0. -1.
       -4    1    3    3    0  502 -0.23939033351E+03  0.77966698169E+03  0.59898953938E+03  0.10119181861E+04  0.12699999809E+01 0.  1.
</event>
<event>
 5   0  0.2234723E-04  0.1681361E+04  0.7818609E-02  0.8772067E-01
        2   -1    0    0  501    0  0.00000000000E+00  0.00000000000E+00  0.72270295496E+03  0.72270295496E+03  0.25500000920E-02 0.  1.
       -2   -1    0    0    0  501  0.00000000000E+00  0.00000000000E+00 -0.97791715272E+03  0.97791715273E+03  0.25500000920E-02 0. -1.
    10030    2    1    2    0    0  0.00000000000E+00  0.00000000000E+00 -0.25521419777E+03  0.17006201077E+04  0.16813608964E+04 0.  0.
        1    1    3    3  502    0 -0.74078112640E+03  0.31059675792E+03  0.12325930441E+03  0.81266221728E+03  0.50400001928E-02 0.  1.
       -1    1    3    3    0  502  0.74078112640E+03 -0.31059675792E+03 -0.37847350218E+03  0.88795789040E+03  0.50400001928E-02 0. -1.
</event>
<event>
 5   0  0.2356829E-04  0.1698479E+04  0.7818609E-02  0.8762232E-01
        2   -1    0    0  501    0  0.00000000000E+00  0.00000000000E+00  0.18834021888E+04  0.18834021888E+04  0.25500000920E-02 0.  1.
       -2   -1    0    0    0  501  0.00000000000E+00  0.00000000000E+00 -0.38292831748E+03  0.38292831749E+03  0.25500000920E-02 0. -1.
    10030    2    1    2    0    0  0.00000000000E+00  0.00000000000E+00  0.15004738714E+04  0.22663305063E+04  0.16984793567E+04 0.  0.
        5    1    3    3  502    0 -0.15607352038E+03 -0.31863613402E+02  0.18632719783E+04  0.18700745410E+04  0.46999998093E+01 0.  1.
       -5    1    3    3    0  502  0.15607352038E+03  0.31863613402E+02 -0.36279810698E+03  0.39625596532E+03  0.46999998093E+01 0. -1.
</event>
<event>
 5   0  0.2356829E-04  0.1702446E+04  0.7818609E-02  0.8759970E-01
        2   -1    0    0  501    0  0.00000000000E+00  0.00000000000E+00  0.13145369326E+04  0.13145369326E+04  0.25500000920E-02 0. -1.
       -2   -1    0    0    0  501  0.00000000000E+00  0.00000000000E+00 -0.55120609082E+03  0.55120609082E+03  0.25500000920E-02 0.  1.
    10030    2    1    2    0    0  0.00000000000E+00  0.00000000000E+00  0.76333084180E+03  0.18657430234E+04  0.17024461975E+04 0.  0.
        5    1    3    3  502    0 -0.18826670159E+03  0.73295415051E+03  0.80878221434E+03  0.11076176677E+04  0.46999998093E+01 0. -1.
       -5    1    3    3    0  502  0.18826670159E+03 -0.73295415051E+03 -0.45451372542E+02  0.75812535569E+03  0.46999998093E+01 0.  1.
</event>
<event>
 5   0  0.2356829E-04  0.1719450E+04  0.7818609E-02  0.8750348E-01
       -2   -1    0    0    0  501  0.00000000000E+00  0.00000000000E+00  0.73430567349E+03  0.73430567349E+03  0.25500000920E-02 0.  1.
        2   -1    0    0  501    0  0.00000000000E+00  0.00000000000E+00 -0.10065661058E+04  0.10065661058E+04  0.25500000920E-02 0. -1.
    10030    2    1    2    0    0  0.00000000000E+00  0.00000000000E+00 -0.27226043226E+03  0.17408717793E+04  0.17194501472E+04 0.  0.
        5    1    3    3  502    0  0.15319625169E+03 -0.27711218718E+03  0.67310523040E+03  0.74387700396E+03  0.46999998093E+01 0.  1.
       -5    1    3    3    0  502 -0.15319625169E+03  0.27711218718E+03 -0.94536566267E+03  0.99699477529E+03  0.46999998093E+01 0. -1.
</event>
<event>
 5   0  0.1234158E-04  0.1665831E+04  0.7818609E-02  0.8781096E-01
        1   -1    0    0  501    0  0.00000000000E+00  0.00000000000E+00  0.65598383674E+03  0.65598383676E+03  0.50400001928E-02 0.  1.
       -1   -1    0    0    0  501  0.00000000000E+00  0.00000000000E+00 -0.10575690372E+04  0.10575690372E+04  0.50400001928E-02 0. -1.
    10030    2    1    2    0    0  0.00000000000E+00  0.00000000000E+00 -0.40158520046E+03  0.17135528740E+04  0.16658309574E+04 0.  0.
        5    1    3    3  502    0  0.19778324444E+03 -0.77180261696E+03  0.48913810356E+02  0.79825568722E+03  0.46999998093E+01 0.  1.
       -5    1    3    3    0  502 -0.19778324444E+03  0.77180261696E+03 -0.45049901082E+03  0.91529718675E+03  0.46999998093E+01 0. -1.
</event>
<event>
 5   0  0.2234723E-04  0.1693212E+04  0.7818609E-02  0.8765245E-01
        2   -1    0    0  501    0  0.00000000000E+00  0.00000000000E+00  0.14853066551E+04  0.14853066551E+04  0.25500000920E-02 0.  1.
       -2   -1    0    0    0  501  0.00000000000E+00  0.00000000000E+00 -0.48255491141E+03  0.48255491141E+03  0.25500000920E-02 0. -1.
    10030    2    1    2    0    0  0.00000000000E+00  0.00000000000E+00  0.10027517437E+04  0.19678615665E+04  0.16932123569E+04 0.  0.
        1    1    3    3  502    0  0.19128207364E+03  0.15773342462E+03  0.14421695045E+04  0.14633255088E+04  0.50400001928E-02 0.  1.
       -1    1    3    3    0  502 -0.19128207364E+03 -0.15773342462E+03 -0.43941776084E+03  0.50453605769E+03  0.50400001928E-02 0. -1.
</event>
<event>
 5   0  0.1215233E-04  0.1685522E+04  0.7818609E-02  0.8769665E-01
       -1   -1    0    0    0  501  0.00000000000E+00  0.00000000000E+00  0.67890623204E+03  0.67890623206E+03  0.50400001928E-02 0.  1.
        1   -1    0    0  501    0  0.00000000000E+00  0.00000000000E+00 -0.10461624957E+04  0.10461624957E+04  0.50400001928E-02 0. -1.
    10030    2    1    2    0    0  0.00000000000E+00  0.00000000000E+00 -0.36725626362E+03  0.17250687277E+04  0.16855221601E+04 0.  0.
        2    1    3    3  502    0  0.19371513295E+03 -0.23216269910E+03  0.62148056076E+03  0.69113179568E+03  0.25500000920E-02 0.  1.
       -2    1    3    3    0  502 -0.19371513295E+03  0.23216269910E+03 -0.98873682438E+03  0.10339369321E+04  0.25500000920E-02 0. -1.
</event>
<event>
 5   0  0.1215233E-04  0.1660682E+04  0.7818609E-02  0.8784112E-01
        1   -1    0    0  501    0  0.00000000000E+00  0.00000000000E+00  0.16557972024E+04  0.16557972024E+04  0.50400001928E-02 0.  1.
       -1   -1    0    0    0  501  0.00000000000E+00  0.00000000000E+00 -0.41639524489E+03  0.41639524492E+03  0.50400001928E-02 0. -1.
    10030    2    1    2    0    0  0.00000000000E+00  0.00000000000E+00  0.12394019575E+04  0.20721924473E+04  0.16606818860E+04 0.  0.
        2    1    3    3  502    0 -0.12343944598E+03 -0.37887799100E+03 -0.28929110598E+03  0.49241768134E+03  0.25500000920E-02 0. -1.
       -2    1    3    3    0  502  0.12343944598E+03  0.37887799100E+03  0.15286930634E+04  0.15797747659E+04  0.25500000920E-02 0.  1.
</event>
<event>
 5   0  0.1186302E-04  0.1698499E+04  0.7818609E-02  0.8762221E-01
       -1   -1    0    0    0  501  0.00000000000E+00  0.00000000000E+00  0.85316811294E+03  0.85316811295E+03  0.50400001928E-02 0.  1.
        1   -1    0    0  501    0  0.00000000000E+00  0.00000000000E+00 -0.84534850347E+03  0.84534850349E+03  0.50400001928E-02 0. -1.
    10030    2    1    2    0    0  0.00000000000E+00  0.00000000000E+00  0.78196094653E+01  0.16985166164E+04  0.16984986164E+04 0.  0.
        3    1    3    3  502    0 -0.93921240833E+02 -0.16578294481E+03  0.83151702444E+03  0.85306843594E+03  0.10100000352E+00 0.  1.
       -3    1    3    3    0  502  0.93921240833E+02  0.16578294481E+03 -0.82369741497E+03  0.84544818050E+03  0.10100000352E+00 0. -1.
</event>
<event>
 5   0  0.2234723E-04  0.1707409E+04  0.7818609E-02  0.8757150E-01
       -2   -1    0    0    0  501  0.00000000000E+00  0.00000000000E+00  0.63307043958E+03  0.63307043958E+03  0.25500000920E-02 0. -1.
        2   -1    0    0  501    0  0.00000000000E+00  0.00000000000E+00 -0.11512331479E+04  0.11512331479E+04  0.25500000920E-02 0.  1.
    10030    2    1    2    0    0  0.00000000000E+00  0.00000000000E+00 -0.51816270830E+03  0.17843035875E+04  0.17074093534E+04 0.  0.
        1    1    3    3  502    0 -0.73529096621E+03  0.40127219640E+03 -0.43124124098E+03  0.94214711619E+03  0.50400001928E-02 0.  1.
       -1    1    3    3    0  502  0.73529096621E+03 -0.40127219640E+03 -0.86921467325E+02  0.84215647127E+03  0.50400001928E-02 0. -1.
</event>
<event>
 5   0  0.1126958E-04  0.1696271E+04  0.7818609E-02  0.8763494E-01
        1   -1    0    0  501    0  0.00000000000E+00  0.00000000000E+00  0.11142621427E+04  0.11142621427E+04  0.50400001928E-02 0.  1.
       -1   -1    0    0    0  501  0.00000000000E+00  0.00000000000E+00 -0.64556995745E+03  0.64556995747E+03  0.50400001928E-02 0. -1.
    10030    2    1    2    0    0  0.00000000000E+00  0.00000000000E+00  0.46869218527E+03  0.17598321002E+04  0.16962713982E+04 0.  0.
        4    1    3    3  502    0 -0.75040198775E+03  0.27251014297E+03  0.53137388329E+03  0.95902280368E+03  0.12699999809E+01 0.  1.
       -4    1    3    3    0  502  0.75040198775E+03 -0.27251014297E+03 -0.62681698022E+02  0.80080929652E+03  0.12699999809E+01 0. -1.
</event>
<event>
 5   0  0.1126958E-04  0.1702291E+04  0.7818609E-02  0.8760059E-01
        1   -1    0    0  501    0  0.00000000000E+00  0.00000000000E+00  0.69533532687E+03  0.69533532689E+03  0.50400001928E-02 0. -1.
       -1   -1    0    0    0  501  0.00000000000E+00  0.00000000000E+00 -0.10418691560E+04  0.10418691561E+04  0.50400001928E-02 0.  1.
    10030    2    1    2    0    0  0.00000000000E+00  0.00000000000E+00 -0.34653382918E+03  0.17372044829E+04  0.17022907275E+04 0.  0.
        4    1    3    3  502    0  0.24634475295E+03  0.63528657873E+03  0.34726519121E+03  0.76476761199E+03  0.12699999809E+01 0. -1.
       -4    1    3    3    0  502 -0.24634475295E+03 -0.63528657873E+03 -0.69379902039E+03  0.97243687096E+03  0.12699999809E+01 0.  1.
</event>
<event>
 5   0  0.1234158E-04  0.1690631E+04  0.7818609E-02  0.8766726E-01
        1   -1    0    0  501    0  0.00000000000E+00  0.00000000000E+00  0.16892368697E+04  0.16892368697E+04  0.50400001928E-02 0. -1.
       -1   -1    0    0    0  501  0.00000000000E+00  0.00000000000E+00 -0.42300665499E+03  0.42300665502E+03  0.50400001928E-02 0.  1.
    10030    2    1    2    0    0  0.00000000000E+00  0.00000000000E+00  0.12662302147E+04  0.21122435248E+04  0.16906311695E+04 0.  0.
        5    1    3    3  502    0  0.59072199325E+03 -0.29959866837E+02 -0.12137722187E+03  0.60382496380E+03  0.46999998093E+01 0.  1.
       -5    1    3    3    0  502 -0.59072199325E+03  0.29959866837E+02  0.13876074366E+04  0.15084185610E+04  0.46999998093E+01 0. -1.
</event>
<event>
 5   0  0.2224454E-04  0.1720331E+04  0.7818609E-02  0.8749853E-01
       -2   -1    0    0    0  501  0.00000000000E+00  0.00000000000E+00  0.35554955294E+03  0.35554955295E+03  0.25500000920E-02 0.  1.
        2   -1    0    0  501    0  0.00000000000E+00  0.00000000000E+00 -0.20809602022E+04  0.20809602022E+04  0.25500000920E-02 0. -1.
    10030    2    1    2    0    0  0.00000000000E+00  0.00000000000E+00 -0.17254106493E+04  0.24365097552E+04  0.17203307468E+04 0.  0.
        2    1    3    3  502    0 -0.55118370956E+03 -0.79362803185E+02  0.65791844358E+02  0.56074103025E+03  0.25500000920E-02 0.  1.
       -2    1    3    3    0  502  0.55118370956E+03  0.79362803185E+02 -0.17912024937E+04  0.18757687249E+04  0.25500000920E-02 0. -1.
</event>
<event>
 5   0  0.2242967E-04  0.1590758E+04  0.7818609E-02  0.8826246E-01
       -2   -1    0    0    0  501  0.00000000000E+00  0.00000000000E+00  0.23249820103E+03  0.23249820104E+03  0.25500000920E-02 0. -1.
        2   -1    0    0  501    0  0.00000000000E+00  0.00000000000E+00 -0.27209989430E+04  0.27209989430E+04  0.25500000920E-02 0.  1.
    10030    2    1    2    0    0  0.00000000000E+00  0.00000000000E+00 -0.24885007420E+04  0.29534971441E+04  0.15907575042E+04 0.  0.
        4    1    3    3  502    0 -0.19327734984E+03 -0.64126623993E+03 -0.20407713298E+04  0.21478658613E+04  0.12699999809E+01 0.  1.
       -4    1    3    3    0  502  0.19327734984E+03  0.64126623993E+03 -0.44772941218E+03  0.80563128282E+03  0.12699999809E+01 0. -1.
</event>
<event>
 5   0  0.2356829E-04  0.1693349E+04  0.7818609E-02  0.8765167E-01
        2   -1    0    0  501    0  0.00000000000E+00  0.00000000000E+00  0.18777736366E+04  0.18777736366E+04  0.25500000920E-02 0.  1.
       -2   -1    0    0    0  501  0.00000000000E+00  0.00000000000E+00 -0.38175925047E+03  0.38175925048E+03  0.25500000920E-02 0. -1.
    10030    2    1    2    0    0  0.00000000000E+00  0.00000000000E+00  0.14960143861E+04  0.22595328871E+04  0.16933487013E+04 0.  0.
        5    1    3    3  502    0 -0.33729307942E+03  0.77432649076E+03  0.66920966625E+03  0.10775953801E+04  0.46999998093E+01 0.  1.
       -5    1    3    3    0  502  0.33729307942E+03 -0.77432649076E+03  0.82680471988E+03  0.11819375070E+04  0.46999998093E+01 0. -1.
</event>
<event>
 5   0  0.2288806E-04  0.1706745E+04  0.7818609E-02  0.8757527E-01
        2   -1    0    0  501    0  0.00000000000E+00  0.00000000000E+00  0.16103848754E+04  0.16103848755E+04  0.25500000920E-02 0.  1.
       -2   -1    0    0    0  501  0.00000000000E+00  0.00000000000E+00 -0.45221786688E+03  0.45221786688E+03  0.25500000920E-02 0. -1.
    10030    2    1    2    0    0  0.00000000000E+00  0.00000000000E+00  0.11581670086E+04  0.20626027423E+04  0.17067452220E+04 0.  0.
        3    1    3    3  502    0  0.43994081069E+03  0.30963384321E+03 -0.22147295657E+03  0.58178287571E+03  0.10100000352E+00 0. -1.
       -3    1    3    3    0  502 -0.43994081069E+03 -0.30963384321E+03  0.13796399651E+04  0.14808198666E+04  0.10100000352E+00 0.  1.
</event>
<event>
 5   0  0.2356829E-04  0.1691360E+04  0.7818609E-02  0.8766307E-01
        2   -1    0    0  501    0  0.00000000000E+00  0.00000000000E+00  0.81253949341E+03  0.81253949341E+03  0.25500000920E-02 0.  1.
       -2   -1    0    0    0  501  0.00000000000E+00  0.00000000000E+00 -0.88017226058E+03  0.88017226058E+03  0.25500000920E-02 0. -1.
    10030    2    1    2    0    0  0.00000000000E+00  0.00000000000E+00 -0.67632767171E+02  0.16927117540E+04  0.16913600713E+04 0.  0.
        5    1    3    3  502    0 -0.23505030678E+02 -0.13200487396E+03  0.80182087381E+03  0.81296775883E+03  0.46999998093E+01 0.  1.
       -5    1    3    3    0  502  0.23505030678E+02  0.13200487396E+03 -0.86945364098E+03  0.87974399517E+03  0.46999998093E+01 0. -1.
</event>
<event>
 5   0  0.2224454E-04  0.1696842E+04  0.7818609E-02  0.8763167E-01
        2   -1    0    0  501    0  0.00000000000E+00  0.00000000000E+00  0.88099077298E+03  0.88099077298E+03  0.25500000920E-02 0. -1.
       -2   -1    0    0    0  501  0.00000000000E+00  0.00000000000E+00 -0.81705575701E+03  0.81705575701E+03  0.25500000920E-02 0.  1.
    10030    2    1    2    0    0  0.00000000000E+00  0.00000000000E+00  0.63935015971E+02  0.16980465300E+04  0.16968424593E+04 0.  0.
        2    1    3    3  502    0  0.21961309450E+03 -0.48467597622E+03  0.69325248312E+03  0.87392203231E+03  0.25500000920E-02 0. -1.
       -2    1    3    3    0  502 -0.21961309450E+03  0.48467597622E+03 -0.62931746715E+03  0.82412449768E+03  0.25500000920E-02 0.  1.
</event>
<event>
 5   0  0.1204741E-04  0.1870374E+04  0.7818609E-02  0.8669745E-01
        1   -1    0    0  501    0  0.00000000000E+00  0.00000000000E+00  0.37424137395E+03  0.37424137398E+03  0.50400001928E-02 0. -1.
       -1   -1    0    0    0  501  0.00000000000E+00  0.00000000000E+00 -0.23369262309E+04  0.23369262309E+04  0.50400001928E-02 0.  1.
    10030    2    1    2    0    0  0.00000000000E+00  0.00000000000E+00 -0.19626848570E+04  0.27111676049E+04  0.18703737418E+04 0.  0.
        1    1    3    3  502    0 -0.47340110539E+02  0.47777474954E+03 -0.21446450682E+04  0.21977288882E+04  0.50400001928E-02 0.  1.
       -1    1    3    3    0  502  0.47340110539E+02 -0.47777474954E+03  0.18196021121E+03  0.51343871674E+03  0.50400001928E-02 0. -1.
</event>
<event>
 5   0  0.1126958E-04  0.1690389E+04  0.7818609E-02  0.8766865E-01
        1   -1    0    0  501    0  0.00000000000E+00  0.00000000000E+00  0.79240209892E+03  0.79240209893E+03  0.50400001928E-02 0.  1.
       -1   -1    0    0    0  501  0.00000000000E+00  0.00000000000E+00 -0.90150451829E+03  0.90150451830E+03  0.50400001928E-02 0. -1.
    10030    2    1    2    0    0  0.00000000000E+00  0.00000000000E+00 -0.10910241937E+03  0.16939066172E+04  0.16903893901E+04 0.  0.
        4    1    3    3  502    0 -0.28676531241E+03 -0.14627349661E+03 -0.83766442454E+03  0.89739265723E+03  0.12699999809E+01 0. -1.
       -4    1    3    3    0  502  0.28676531241E+03  0.14627349661E+03  0.72856200517E+03  0.79651396001E+03  0.12699999809E+01 0.  1.
</event>
<event>
 5   0  0.2242967E-04  0.1700901E+04  0.7818609E-02  0.8760851E-01
        2   -1    0    0  501    0  0.00000000000E+00  0.00000000000E+00  0.13445924542E+04  0.13445924542E+04  0.25500000920E-02 0. -1.
       -2   -1    0    0    0  501  0.00000000000E+00  0.00000000000E+00 -0.53790725360E+03  0.53790725361E+03  0.25500000920E-02 0.  1.
    10030    2    1    2    0    0  0.00000000000E+00  0.00000000000E+00  0.80668520058E+03  0.18824997078E+04  0.17009009780E+04 0.  0.
        4    1    3    3  502    0  0.74589871101E+03 -0.30166108967E+03  0.70825642909E+03  0.10719109489E+04  0.12699999809E+01 0. -1.
       -4    1    3    3    0  502 -0.74589871101E+03  0.30166108967E+03  0.98428771492E+02  0.81058875891E+03  0.12699999809E+01 0.  1.
</event>
<event>
 5   0  0.2242967E-04  0.1694737E+04  0.7818609E-02  0.8764372E-01
        2   -1    0    0  501    0  0.00000000000E+00  0.00000000000E+00  0.23127652887E+04  0.23127652887E+04  0.25500000920E-02 0. -1.
       -2   -1    0    0    0  501  0.00000000000E+00  0.00000000000E+00 -0.31046527005E+03  0.31046527006E+03  0.25500000920E-02 0.  1.
    10030    2    1    2    0    0  0.00000000000E+00  0.00000000000E+00  0.20023000186E+04  0.26232305587E+04  0.16947369116E+04 0.  0.
        4    1    3    3  502    0 -0.63988473710E+02 -0.59291886720E+02  0.23057947372E+04  0.23074446982E+04  0.12699999809E+01 0. -1.
       -4    1    3    3    0  502  0.63988473710E+02  0.59291886720E+02 -0.30349471854E+03  0.31578586049E+03  0.12699999809E+01 0.  1.
</event>
<event>
 5   0  0.1215233E-04  0.1719205E+04  0.7818609E-02  0.8750486E-01
        1   -1    0    0  501    0  0.00000000000E+00  0.00000000000E+00  0.68175629376E+03  0.68175629378E+03  0.50400001928E-02 0.  1.
       -1   -1    0    0    0  501  0.00000000000E+00  0.00000000000E+00 -0.10838425706E+04  0.10838425706E+04  0.50400001928E-02 0. -1.
    10030    2    1    2    0    0  0.00000000000E+00  0.00000000000E+00 -0.40208627682E+03  0.17655988644E+04  0.17192050418E+04 0.  0.
        2    1    3    3  502    0  0.66312613120E+03  0.51992010882E+03 -0.37551983120E+03  0.92253364658E+03  0.25500000920E-02 0.  1.
       -2    1    3    3    0  502 -0.66312613120E+03 -0.51992010882E+03 -0.26566445623E+02  0.84306521781E+03  0.25500000920E-02 0. -1.
</event>
<event>
 5   0  0.1215233E-04  0.1700799E+04  0.7818609E-02  0.8760909E-01
        1   -1    0    0  501    0  0.00000000000E+00  0.00000000000E+00  0.98950448521E+03  0.98950448522E+03  0.50400001928E-02 0. -1.
       -1   -1    0    0    0  501  0.00000000000E+00  0.00000000000E+00 -0.73085017972E+03  0.73085017973E+03  0.50400001928E-02 0.  1.
    10030    2    1    2    0    0  0.00000000000E+00  0.00000000000E+00  0.25865430549E+03  0.17203546650E+04  0.17007992602E+04 0.  0.
        2    1    3    3  502    0  0.19281264320E+03 -0.10075721144E+03 -0.70222663710E+03  0.73515371242E+03  0.25500000920E-02 0.  1.
       -2    1    3    3    0  502 -0.19281264320E+03  0.10075721144E+03  0.96088094259E+03  0.98520095253E+03  0.25500000920E-02 0. -1.
</event>
<event>
 5   0  0.2224454E-04  0.1691786E+04  0.7818609E-02  0.8766063E-01
       -2   -1    0    0    0  501  0.00000000000E+00  0.00000000000E+00  0.13288963144E+04  0.13288963144E+04  0.25500000920E-02 0.  1.
        2   -1    0    0  501    0  0.00000000000E+00  0.00000000000E+00 -0.53844285255E+03  0.53844285256E+03  0.25500000920E-02 0. -1.
    10030    2    1    2    0    0  0.00000000000E+00  0.00000000000E+00  0.79045346181E+03  0.18673391669E+04  0.16917857101E+04 0.  0.
        2    1    3    3  502    0  0.70928925283E+03 -0.41004177656E+03  0.62756722280E+03  0.10320204077E+04  0.25500000920E-02 0.  1.
       -2    1    3    3    0  502 -0.70928925283E+03  0.41004177656E+03  0.16288623902E+03  0.83531875926E+03  0.25500000920E-02 0. -1.
</event>
<event>
 5   0  0.2288806E-04  0.1702106E+04  0.7818609E-02  0.8760164E-01
        2   -1    0    0  501    0  0.00000000000E+00  0.00000000000E+00  0.12316245385E+04  0.12316245385E+04  0.25500000920E-02 0.  1.
       -2   -1    0    0    0  501  0.00000000000E+00  0.00000000000E+00 -0.58807766759E+03  0.58807766759E+03  0.25500000920E-02 0. -1.
    10030    2    1    2    0    0  0.00000000000E+00  0.00000000000E+00  0.64354687095E+03  0.18197022061E+04  0.17021056207E+04 0.  0.
        3    1    3    3  502    0  0.72729276072E+03  0.12813792759E+03 -0.13043573118E+03  0.74992504855E+03  0.10100000352E+00 0. -1.
       -3    1    3    3    0  502 -0.72729276072E+03 -0.12813792759E+03  0.77398260212E+03  0.10697771576E+04  0.10100000352E+00 0.  1.
</event>
<event>
 5   0  0.2224454E-04  0.1690992E+04  0.7818609E-02  0.8766519E-01
       -2   -1    0    0    0  501  0.00000000000E+00  0.00000000000E+00  0.60716711223E+03  0.60716711224E+03  0.25500000920E-02 0.  1.
        2   -1    0    0  501    0  0.00000000000E+00  0.00000000000E+00 -0.11773748483E+04  0.11773748483E+04  0.25500000920E-02 0. -1.
    10030    2    1    2    0    0  0.00000000000E+00  0.00000000000E+00 -0.57020773606E+03  0.17845419605E+04  0.16909917642E+04 0.  0.
        2    1    3    3  502    0  0.33303689997E+03  0.71442129122E+03  0.37679868109E+02  0.78913315135E+03  0.25500000920E-02 0.  1.
       -2    1    3    3    0  502 -0.33303689997E+03 -0.71442129122E+03 -0.60788760416E+03  0.99540880918E+03  0.25500000920E-02 0. -1.
</event>
<event>
 5   0  0.2234723E-04  0.1718440E+04  0.7818609E-02  0.8750917E-01
        2   -1    0    0  501    0  0.00000000000E+00  0.00000000000E+00  0.18173282749E+04  0.18173282749E+04  0.25500000920E-02 0. -1.
       -2   -1    0    0    0  501  0.00000000000E+00  0.00000000000E+00 -0.40623299946E+03  0.40623299947E+03  0.25500000920E-02 0.  1.
    10030    2    1    2    0    0  0.00000000000E+00  0.00000000000E+00  0.14110952754E+04  0.22235612744E+04  0.17184396598E+04 0.  0.
        1    1    3    3  502    0  0.58356411080E+03  0.69254068448E+02 -0.10553369408E+03  0.59705992834E+03  0.50400001928E-02 0.  1.
       -1    1    3    3    0  502 -0.58356411080E+03 -0.69254068448E+02  0.15166289695E+04  0.16265013460E+04  0.50400001928E-02 0. -1.
</event>
<event>
 5   0  0.1234158E-04  0.1668062E+04  0.7818609E-02  0.8779793E-01
       -1   -1    0    0    0  501  0.00000000000E+00  0.00000000000E+00  0.41884053013E+03  0.41884053016E+03  0.50400001928E-02 0.  1.
        1   -1    0    0  501    0  0.00000000000E+00  0.00000000000E+00 -0.16607927147E+04  0.16607927147E+04  0.50400001928E-02 0. -1.
    10030    2    1    2    0    0  0.00000000000E+00  0.00000000000E+00 -0.12419521846E+04  0.20796332449E+04  0.16680615110E+04 0.  0.
        5    1    3    3  502    0  0.44121596638E+03 -0.12195530453E+03 -0.14901585603E+04  0.15588903906E+04  0.46999998093E+01 0. -1.
       -5    1    3    3    0  502 -0.44121596638E+03  0.12195530453E+03  0.24820637569E+03  0.52074285423E+03  0.46999998093E+01 0.  1.
</event>
<event>
 5   0  0.2356829E-04  0.1699600E+04  0.7818609E-02  0.8761592E-01
        2   -1    0    0  501    0  0.00000000000E+00  0.00000000000E+00  0.18874633421E+04  0.18874633421E+04  0.25500000920E-02 0.  1.
       -2   -1    0    0    0  501  0.00000000000E+00  0.00000000000E+00 -0.38260894937E+03  0.38260894938E+03  0.25500000920E-02 0. -1.
    10030    2    1    2    0    0  0.00000000000E+00  0.00000000000E+00  0.15048543927E+04  0.22700722914E+04  0.16996003840E+04 0.  0.
        5    1    3    3  502    0  0.69970726244E+03 -0.46088633774E+03  0.94193811849E+03  0.12606648954E+04  0.46999998093E+01 0.  1.
       -5    1    3    3    0  502 -0.69970726244E+03  0.46088633774E+03  0.56291627419E+03  0.10094073960E+04  0.46999998093E+01 0. -1.
</event>
<event>
 5   0  0.2242967E-04  0.1691257E+04  0.7818609E-02  0.8766367E-01
       -2   -1    0    0    0  501  0.00000000000E+00  0.00000000000E+00  0.37913549720E+03  0.37913549721E+03  0.25500000920E-02 0.  1.
        2   -1    0    0  501    0  0.00000000000E+00  0.00000000000E+00 -0.18860991666E+04  0.18860991666E+04  0.25500000920E-02 0. -1.
    10030    2    1    2    0    0  0.00000000000E+00  0.00000000000E+00 -0.15069636694E+04  0.22652346638E+04  0.16912565096E+04 0.  0.
        4    1    3    3  502    0  0.25239781635E+03  0.54526952676E+03  0.43490760072E+02  0.60242557517E+03  0.12699999809E+01 0.  1.
       -4    1    3    3    0  502 -0.25239781635E+03 -0.54526952676E+03 -0.15504544294E+04  0.16628090886E+04  0.12699999809E+01 0. -1.
</event>
<event>
 5   0  0.2224454E-04  0.1694096E+04  0.7818609E-02  0.8764739E-01
        2   -1    0    0  501    0  0.00000000000E+00  0.00000000000E+00  0.10066702481E+04  0.10066702481E+04  0.25500000920E-02 0.  1.
       -2   -1    0    0    0  501  0.00000000000E+00  0.00000000000E+00 -0.71273642363E+03  0.71273642364E+03  0.25500000920E-02 0. -1.
    10030    2    1    2    0    0  0.00000000000E+00  0.00000000000E+00  0.29393382448E+03  0.17194066717E+04  0.16940962811E+04 0.  0.
        2    1    3    3  502    0  0.56115963657E+03 -0.46250969103E+02  0.78923353335E+03  0.96949928315E+03  0.25500000920E-02 0.  1.
       -2    1    3    3    0  502 -0.56115963657E+03  0.46250969103E+02 -0.49529970887E+03  0.74990738860E+03  0.25500000920E-02 0. -1.
</event>
<event>
 5   0  0.1186302E-04  0.1667637E+04  0.7818609E-02  0.8780041E-01
        1   -1    0    0  501    0  0.00000000000E+00  0.00000000000E+00  0.15598567782E+04  0.15598567782E+04  0.50400001928E-02 0. -1.
       -1   -1    0    0    0  501  0.00000000000E+00  0.00000000000E+00 -0.44571597151E+03  0.44571597154E+03  0.50400001928E-02 0.  1.
    10030    2    1    2    0    0  0.00000000000E+00  0.00000000000E+00  0.11141408067E+04  0.20055727497E+04  0.16676367462E+04 0.  0.
        3    1    3    3  502    0  0.41682188391E+03 -0.32825331819E+03  0.13306632521E+04  0.14325346154E+04  0.10100000352E+00 0. -1.
       -3    1    3    3    0  502 -0.41682188391E+03  0.32825331819E+03 -0.21652244539E+03  0.57303813431E+03  0.10100000352E+00 0.  1.
</event>
<event>
 5   0  0.1234158E-04  0.1659695E+04  0.7818609E-02  0.8784692E-01
        1   -1    0    0  501    0  0.00000000000E+00  0.00000000000E+00  0.12620684230E+04  0.12620684230E+04  0.50400001928E-02 0. -1.
       -1   -1    0    0    0  501  0.00000000000E+00  0.00000000000E+00 -0.54564922290E+03  0.54564922292E+03  0.50400001928E-02 0.  1.
    10030    2    1    2    0    0  0.00000000000E+00  0.00000000000E+00  0.71641920007E+03  0.18077176459E+04  0.16596947361E+04 0.  0.
        5    1    3    3  502    0 -0.28556662718E+03 -0.75424237842E+03  0.14534475930E+03  0.81949804943E+03  0.46999998093E+01 0. -1.
       -5    1    3    3    0  502  0.28556662718E+03  0.75424237842E+03  0.57107444077E+03  0.98821959648E+03  0.46999998093E+01 0.  1.
</event>
<event>
 5   0  0.2234723E-04  0.1684410E+04  0.7818609E-02  0.8770306E-01
        2   -1    0    0  501    0  0.00000000000E+00  0.00000000000E+00  0.72047763752E+03  0.72047763752E+03  0.25500000920E-02 0.  1.
       -2   -1    0    0    0  501  0.00000000000E+00  0.00000000000E+00 -0.98449812740E+03  0.98449812741E+03  0.25500000920E-02 0. -1.
    10030    2    1    2    0    0  0.00000000000E+00  0.00000000000E+00 -0.26402048988E+03  0.17049757649E+04  0.16844095523E+04 0.  0.
        1    1    3    3  502    0  0.67269470786E+03  0.25136197257E+03 -0.57739158969E+03  0.92145648791E+03  0.50400001928E-02 0. -1.
       -1    1    3    3    0  502 -0.67269470786E+03 -0.25136197257E+03  0.31337109981E+03  0.78351927702E+03  0.50400001928E-02 0.  1.
</event>
<event>
 5   0  0.2356829E-04  0.1686085E+04  0.7818609E-02  0.8769341E-01
        2   -1    0    0  501    0  0.00000000000E+00  0.00000000000E+00  0.10665590524E+04  0.10665590525E+04  0.25500000920E-02 0. -1.
       -2   -1    0    0    0  501  0.00000000000E+00  0.00000000000E+00 -0.66636798591E+03  0.66636798591E+03  0.25500000920E-02 0.  1.
    10030    2    1    2    0    0  0.00000000000E+00  0.00000000000E+00  0.40019106654E+03  0.17329270384E+04  0.16860851789E+04 0.  0.
        5    1    3    3  502    0  0.26028213067E+03  0.59784137394E+03 -0.34910687887E+03  0.73963423313E+03  0.46999998093E+01 0.  1.
       -5    1    3    3    0  502 -0.26028213067E+03 -0.59784137394E+03  0.74929794541E+03  0.99329280524E+03  0.46999998093E+01 0. -1.
</event>
<event>
 5   0  0.2356829E-04  0.1704445E+04  0.7818609E-02  0.8758834E-01
        2   -1    0    0  501    0  0.00000000000E+00  0.00000000000E+00  0.66303259695E+03  0.66303259695E+03  0.25500000920E-02 0. -1.
       -2   -1    0    0    0  501  0.00000000000E+00  0.00000000000E+00 -0.10953953500E+04  0.10953953500E+04  0.25500000920E-02 0.  1.
    10030    2    1    2    0    0  0.00000000000E+00  0.00000000000E+00 -0.43236275307E+03  0.17584279470E+04  0.17044445707E+04 0.  0.
        5    1    3    3  502    0  0.31883771131E+03  0.43207716804E+03 -0.89889001803E+03  0.10470785643E+04  0.46999998093E+01 0.  1.
       -5    1    3    3    0  502 -0.31883771131E+03 -0.43207716804E+03  0.46652726496E+03  0.71134938268E+03  0.46999998093E+01 0. -1.
</event>
<event>
 5   0  0.1126958E-04  0.1578003E+04  0.7818609E-02  0.8834177E-01
        1   -1    0    0  501    0  0.00000000000E+00  0.00000000000E+00  0.73273613399E+03  0.73273613400E+03  0.50400001928E-02 0. -1.
       -1   -1    0    0    0  501  0.00000000000E+00  0.00000000000E+00 -0.84958760516E+03  0.84958760518E+03  0.50400001928E-02 0.  1.
    10030    2    1    2    0    0  0.00000000000E+00  0.00000000000E+00 -0.11685147118E+03  0.15823237392E+04  0.15780032159E+04 0.  0.
        4    1    3    3  502    0  0.43405791946E+03 -0.34174401493E+03  0.50643417185E+03  0.74944808526E+03  0.12699999809E+01 0. -1.
       -4    1    3    3    0  502 -0.43405791946E+03  0.34174401493E+03 -0.62328564303E+03  0.83287565392E+03  0.12699999809E+01 0.  1.
</event>
<event>
 5   0  0.1126958E-04  0.1701384E+04  0.7818609E-02  0.8760575E-01
       -1   -1    0    0    0  501  0.00000000000E+00  0.00000000000E+00  0.78639205879E+03  0.78639205880E+03  0.50400001928E-02 0.  1.
        1   -1    0    0  501    0  0.00000000000E+00  0.00000000000E+00 -0.92024989265E+03  0.92024989267E+03  0.50400001928E-02 0. -1.
    10030    2    1    2    0    0  0.00000000000E+00  0.00000000000E+00 -0.13385783386E+03  0.17066419515E+04  0.17013843866E+04 0.  0.
        4    1    3    3  502    0  0.28810930347E+03 -0.41656443256E+03  0.61866152784E+03  0.79954774476E+03  0.12699999809E+01 0.  1.
       -4    1    3    3    0  502 -0.28810930347E+03  0.41656443256E+03 -0.75251936170E+03  0.90709420671E+03  0.12699999809E+01 0. -1.
</event>
<event>
 5   0  0.1215233E-04  0.1724982E+04  0.7818609E-02  0.8747243E-01
        1   -1    0    0  501    0  0.00000000000E+00  0.00000000000E+00  0.11911668864E+04  0.11911668864E+04  0.50400001928E-02 0. -1.
       -1   -1    0    0    0  501  0.00000000000E+00  0.00000000000E+00 -0.62450621827E+03  0.62450621829E+03  0.50400001928E-02 0.  1.
    10030    2    1    2    0    0  0.00000000000E+00  0.00000000000E+00  0.56666066812E+03  0.18156731047E+04  0.17249824667E+04 0.  0.
        2    1    3    3  502    0  0.44220973893E+02  0.94350348233E+02 -0.61785668948E+03  0.62658149628E+03  0.25500000920E-02 0.  1.
       -2    1    3    3    0  502 -0.44220973893E+02 -0.94350348233E+02  0.11845173576E+04  0.11890916084E+04  0.25500000920E-02 0. -1.
</event>
<event>
 5   0  0.2234723E-04  0.1696207E+04  0.7818609E-02  0.8763531E-01
       -2   -1    0    0    0  501  0.00000000000E+00  0.00000000000E+00  0.31490461859E+03  0.31490461860E+03  0.25500000920E-02 0. -1.
        2   -1    0    0  501    0  0.00000000000E+00  0.00000000000E+00 -0.22841175721E+04  0.22841175721E+04  0.25500000920E-02 0.  1.
    10030    2    1    2    0    0  0.00000000000E+00  0.00000000000E+00 -0.19692129535E+04  0.25990221907E+04  0.16962065592E+04 0.  0.
        1    1    3    3  502    0 -0.27274876789E+03 -0.60191175888E+03 -0.17991405811E+04  0.19166628516E+04  0.50400001928E-02 0.  1.
       -1    1    3    3    0  502  0.27274876789E+03  0.60191175888E+03 -0.17007237241E+03  0.68235933917E+03  0.50400001928E-02 0. -1.
</event>
<event>
 5   0  0.2356829E-04  0.1657553E+04  0.7818609E-02  0.8785950E-01
        2   -1    0    0  501    0  0.00000000000E+00  0.00000000000E+00  0.77230049201E+03  0.77230049201E+03  0.25500000920E-02 0. -1.
       -2   -1    0    0    0  501  0.00000000000E+00  0.00000000000E+00 -0.88938285081E+03  0.88938285081E+03  0.25500000920E-02 0.  1.
    10030    2    1    2    0    0  0.00000000000E+00  0.00000000000E+00 -0.11708235880E+03  0.16616833428E+04  0.16575533937E+04 0.  0.
        5    1    3    3  502    0 -0.19076790118E+03 -0.34139859588E+03  0.67396628431E+03  0.77922912919E+03  0.46999998093E+01 0. -1.
       -5    1    3    3    0  502  0.19076790118E+03  0.34139859588E+03 -0.79104864311E+03  0.88245421363E+03  0.46999998093E+01 0.  1.
</event>
<event>
 5   0  0.2288806E-04  0.1704232E+04  0.7818609E-02  0.8758954E-01
        2   -1    0    0  501    0  0.00000000000E+00  0.00000000000E+00  0.79550356054E+03  0.79550356055E+03  0.25500000920E-02 0. -1.
       -2   -1    0    0    0  501  0.00000000000E+00  0.00000000000E+00 -0.91275758334E+03  0.91275758335E+03  0.25500000920E-02 0.  1.
    10030    2    1    2    0    0  0.00000000000E+00  0.00000000000E+00 -0.11725402280E+03  0.17082611439E+04  0.17042322699E+04 0.  0.
        3    1    3    3  502    0 -0.23253883772E+03  0.76237639431E+03  0.24343206111E+03  0.83339741794E+03  0.10100000352E+00 0.  1.
       -3    1    3    3    0  502  0.23253883772E+03 -0.76237639431E+03 -0.36068608391E+03  0.87486372595E+03  0.10100000352E+00 0. -1.
</event>
<event>
 5   0  0.1126958E-04  0.1707835E+04  0.7818609E-02  0.8756909E-01
       -1   -1    0    0    0  501  0.00000000000E+00  0.00000000000E+00  0.36676617060E+03  0.36676617064E+03  0.50400001928E-02 0. -1.
        1   -1    0    0  501    0  0.00000000000E+00  0.00000000000E+00 -0.19881187060E+04  0.19881187060E+04  0.50400001928E-02 0.  1.
    10030    2    1    2    0    0  0.00000000000E+00  0.00000000000E+00 -0.16213525354E+04  0.23548848766E+04  0.17078345172E+04 0.  0.
        4    1    3    3  502    0 -0.30701488669E+02  0.41791880167E+03 -0.18365924475E+04  0.18837919570E+04  0.12699999809E+01 0.  1.
       -4    1    3    3    0  502  0.30701488669E+02 -0.41791880167E+03  0.21523991215E+03  0.47109291958E+03  0.12699999809E+01 0. -1.
</event>
<event>
 5   0  0.2234723E-04  0.1696433E+04  0.7818609E-02  0.8763401E-01
        2   -1    0    0  501    0  0.00000000000E+00  0.00000000000E+00  0.13227058908E+04  0.13227058908E+04  0.25500000920E-02 0. -1.
       -2   -1    0    0    0  501  0.00000000000E+00  0.00000000000E+00 -0.54393885473E+03  0.54393885473E+03  0.25500000920E-02 0.  1.
    10030    2    1    2    0    0  0.00000000000E+00  0.00000000000E+00  0.77876703602E+03  0.18666447455E+04  0.16964328780E+04 0.  0.
        1    1    3    3  502    0 -0.36987615454E+03  0.42287490939E+03 -0.30986157283E+03  0.64159625391E+03  0.50400001928E-02 0.  1.
       -1    1    3    3    0  502  0.36987615454E+03 -0.42287490939E+03  0.10886286089E+04  0.12250484916E+04  0.50400001928E-02 0. -1.
</event>
<event>
 5   0  0.1126958E-04  0.1659427E+04  0.7818609E-02  0.8784849E-01
       -1   -1    0    0    0  501  0.00000000000E+00  0.00000000000E+00  0.13538759752E+04  0.13538759752E+04  0.50400001928E-02 0.  1.
        1   -1    0    0  501    0  0.00000000000E+00  0.00000000000E+00 -0.50848430394E+03  0.50848430396E+03  0.50400001928E-02 0. -1.
    10030    2    1    2    0    0  0.00000000000E+00  0.00000000000E+00  0.84539167124E+03  0.18623602791E+04  0.16594272300E+04 0.  0.
        4    1    3    3  502    0  0.28310612999E+03  0.17957859368E+03  0.12744736999E+04  0.13178324540E+04  0.12699999809E+01 0.  1.
       -4    1    3    3    0  502 -0.28310612999E+03 -0.17957859368E+03 -0.42908202867E+03  0.54452782516E+03  0.12699999809E+01 0. -1.
</event>
<event>
 5   0  0.2288806E-04  0.1701812E+04  0.7818609E-02  0.8760332E-01
       -2   -1    0    0    0  501  0.00000000000E+00  0.00000000000E+00  0.64781492842E+03  0.64781492843E+03  0.25500000920E-02 0.  1.
        2   -1    0    0  501    0  0.00000000000E+00  0.00000000000E+00 -0.11176661783E+04  0.11176661783E+04  0.25500000920E-02 0. -1.
    10030    2    1    2    0    0  0.00000000000E+00  0.00000000000E+00 -0.46985124987E+03  0.17654811067E+04  0.17018117820E+04 0.  0.
        3    1    3    3  502    0  0.37773390592E+03 -0.97526189367E+02  0.54957140949E+03  0.67396068552E+03  0.10100000352E+00 0.  1.
       -3    1    3    3    0  502 -0.37773390592E+03  0.97526189367E+02 -0.10194226594E+04  0.10915204212E+04  0.10100000352E+00 0. -1.
</event>
<event>
 5   0  0.2242967E-04  0.1594187E+04  0.7818609E-02  0.8824127E-01
        2   -1    0    0  501    0  0.00000000000E+00  0.00000000000E+00  0.92431609026E+03  0.92431609027E+03  0.25500000920E-02 0. -1.
       -2   -1    0    0    0  501  0.00000000000E+00  0.00000000000E+00 -0.68738150582E+03  0.68738150582E+03  0.25500000920E-02 0.  1.
    10030    2    1    2    0    0  0.00000000000E+00  0.00000000000E+00  0.23693458444E+03  0.16116975961E+04  0.15941866716E+04 0.  0.
        4    1    3    3  502    0  0.51980219320E+03 -0.28644603469E+01 -0.49244970172E+03  0.71603829982E+03  0.12699999809E+01 0.  1.
       -4    1    3    3    0  502 -0.51980219320E+03  0.28644603469E+01  0.72938428617E+03  0.89565929627E+03  0.12699999809E+01 0. -1.
</event>
<event>
 5   0  0.1204741E-04  0.1704973E+04  0.7818609E-02  0.8758533E-01
       -1   -1    0    0    0  501  0.00000000000E+00  0.00000000000E+00  0.60343660536E+03  0.60343660538E+03  0.50400001928E-02 0. -1.
        1   -1    0    0  501    0  0.00000000000E+00  0.00000000000E+00 -0.12043237182E+04  0.12043237182E+04  0.50400001928E-02 0.  1.
    10030    2    1    2    0    0  0.00000000000E+00  0.00000000000E+00 -0.60088711288E+03  0.18077603236E+04  0.17049727462E+04 0.  0.
        1    1    3    3  502    0  0.65880868583E+03 -0.17590790725E+03 -0.84291327222E+03  0.10841933688E+04  0.50400001928E-02 0.  1.
       -1    1    3    3    0  502 -0.65880868583E+03  0.17590790725E+03  0.24202615934E+03  0.72356695487E+03  0.50400001928E-02 0. -1.
</event>
<event>
 5   0  0.2234723E-04  0.1691453E+04  0.7818609E-02  0.8766254E-01
        2   -1    0    0  501    0  0.00000000000E+00  0.00000000000E+00  0.14017748934E+04  0.14017748934E+04  0.25500000920E-02 0. -1.
       -2   -1    0    0    0  501  0.00000000000E+00  0.00000000000E+00 -0.51024845743E+03  0.51024845743E+03  0.25500000920E-02 0.  1.
    10030    2    1    2    0    0  0.00000000000E+00  0.00000000000E+00  0.89152643597E+03  0.19120233508E+04  0.16914531942E+04 0.  0.
        1    1    3    3  502    0 -0.29108939363E+03 -0.43653975267E+03  0.11955479440E+04  0.13056166654E+04  0.50400001928E-02 0. -1.
       -1    1    3    3    0  502  0.29108939363E+03  0.43653975267E+03 -0.30402150799E+03  0.60640668539E+03  0.50400001928E-02 0.  1.
</event>
<event>
 5   0  0.1234158E-04  0.1705695E+04  0.7818609E-02  0.8758123E-01
        1   -1    0    0  501    0  0.00000000000E+00  0.00000000000E+00  0.12323834490E+04  0.12323834490E+04  0.50400001928E-02 0.  1.
       -1   -1    0    0    0  501  0.00000000000E+00  0.00000000000E+00 -0.59019659973E+03  0.59019659975E+03  0.50400001928E-02 0. -1.
    10030    2    1    2    0    0  0.00000000000E+00  0.00000000000E+00  0.64218684925E+03  0.18225800487E+04  0.17056946048E+04 0.  0.
        5    1    3    3  502    0 -0.35079793848E+03  0.18845011022E+03 -0.48474410447E+03  0.62735283095E+03  0.46999998093E+01 0. -1.
       -5    1    3    3    0  502  0.35079793848E+03 -0.18845011022E+03  0.11269309537E+04  0.11952272178E+04  0.46999998093E+01 0.  1.
</event>
<event>
 5   0  0.1234158E-04  0.1702531E+04  0.7818609E-02  0.8759922E-01
       -1   -1    0    0    0  501  0.00000000000E+00  0.00000000000E+00  0.47431364223E+03  0.47431364225E+03  0.50400001928E-02 0.  1.
        1   -1    0    0  501    0  0.00000000000E+00  0.00000000000E+00 -0.15277923877E+04  0.15277923877E+04  0.50400001928E-02 0. -1.
    10030    2    1    2    0    0  0.00000000000E+00  0.00000000000E+00 -0.10534787455E+04  0.20021060300E+04  0.17025307892E+04 0.  0.
        5    1    3    3  502    0 -0.63284424868E+03  0.38393225776E+03 -0.32368119253E+02  0.74092213274E+03  0.46999998093E+01 0.  1.
       -5    1    3    3    0  502  0.63284424868E+03 -0.38393225776E+03 -0.10211106262E+04  0.12611838972E+04  0.46999998093E+01 0. -1.
</event>
<event>
 5   0  0.1126958E-04  0.1699100E+04  0.7818609E-02  0.8761878E-01
        1   -1    0    0  501    0  0.00000000000E+00  0.00000000000E+00  0.85682863885E+03  0.85682863886E+03  0.50400001928E-02 0. -1.
       -1   -1    0    0    0  501  0.00000000000E+00  0.00000000000E+00 -0.84233339028E+03  0.84233339030E+03  0.50400001928E-02 0.  1.
    10030    2    1    2    0    0  0.00000000000E+00  0.00000000000E+00  0.14495248566E+02  0.16991620292E+04  0.16991001998E+04 0.  0.
        4    1    3    3  502    0 -0.25860651024E+03 -0.67788369160E+03  0.44922539416E+03  0.85335144820E+03  0.12699999809E+01 0. -1.
       -4    1    3    3    0  502  0.25860651024E+03  0.67788369160E+03 -0.43473014560E+03  0.84581058096E+03  0.12699999809E+01 0.  1.
</event>
<event>
 5   0  0.1186302E-04  0.1547622E+04  0.7818609E-02  0.8853388E-01
        1   -1    0    0  501    0  0.00000000000E+00  0.00000000000E+00  0.19094194404E+04  0.19094194404E+04  0.50400001928E-02 0. -1.
       -1   -1    0    0    0  501  0.00000000000E+00  0.00000000000E+00 -0.31359466414E+03  0.31359466418E+03  0.50400001928E-02 0.  1.
    10030    2    1    2    0    0  0.00000000000E+00  0.00000000000E+00  0.15958247763E+04  0.22230141046E+04  0.15476223676E+04 0.  0.
        3    1    3    3  502    0 -0.17456941661E+03  0.75890611810E+02  0.18752646688E+04  0.18849009137E+04  0.10100000352E+00 0. -1.
       -3    1    3    3    0  502  0.17456941661E+03 -0.75890611810E+02 -0.27943989250E+03  0.33811319095E+03  0.10100000352E+00 0.  1.
</event>
<event>
 5   0  0.1186302E-04  0.1683406E+04  0.7818609E-02  0.8770885E-01
        1   -1    0    0  501    0  0.00000000000E+00  0.00000000000E+00  0.12063408149E+04  0.12063408149E+04  0.50400001928E-02 0.  1.
       -1   -1    0    0    0  501  0.00000000000E+00  0.00000000000E+00 -0.58728350052E+03  0.58728350054E+03  0.50400001928E-02 0. -1.
    10030    2    1    2    0    0  0.00000000000E+00  0.00000000000E+00  0.61905731440E+03  0.17936243155E+04  0.16834061383E+04 0.  0.
        3    1    3    3  502    0 -0.62157416114E+03  0.34684192638E+03  0.78817442823E+03  0.10620135118E+04  0.10100000352E+00 0.  1.
       -3    1    3    3    0  502  0.62157416114E+03 -0.34684192638E+03 -0.16911711383E+03  0.73161080369E+03  0.10100000352E+00 0. -1.
</event>
<event>
 5   0  0.1126958E-04  0.1686572E+04  0.7818609E-02  0.8769060E-01
        1   -1    0    0  501    0  0.00000000000E+00  0.00000000000E+00  0.97692603407E+03  0.97692603408E+03  0.50400001928E-02 0. -1.
       -1   -1    0    0    0  501  0.00000000000E+00  0.00000000000E+00 -0.72792747215E+03  0.72792747216E+03  0.50400001928E-02 0.  1.
    10030    2    1    2    0    0  0.00000000000E+00  0.00000000000E+00  0.24899856192E+03  0.17048535062E+04  0.16865720245E+04 0.  0.
        4    1    3    3  502    0 -0.54751449308E+03  0.56091467322E+03  0.43888869928E+03  0.89834419574E+03  0.12699999809E+01 0. -1.
       -4    1    3    3    0  502  0.54751449308E+03 -0.56091467322E+03 -0.18989013736E+03  0.80650931050E+03  0.12699999809E+01 0.  1.
</event>
<event>
 5   0  0.1186302E-04  0.1695820E+04  0.7818609E-02  0.8763752E-01
       -1   -1    0    0    0  501  0.00000000000E+00  0.00000000000E+00  0.54386297170E+03  0.54386297172E+03  0.50400001928E-02 0. -1.
        1   -1    0    0  501    0  0.00000000000E+00  0.00000000000E+00 -0.13219348663E+04  0.13219348663E+04  0.50400001928E-02 0.  1.
    10030    2    1    2    0    0  0.00000000000E+00  0.00000000000E+00 -0.77807189462E+03  0.18657978380E+04  0.16958200669E+04 0.  0.
        3    1    3    3  502    0  0.25346878735E+03  0.26580573073E+02  0.50072466959E+03  0.56185243433E+03  0.10100000352E+00 0. -1.
       -3    1    3    3    0  502 -0.25346878735E+03 -0.26580573073E+02 -0.12787965642E+04  0.13039454037E+04  0.10100000352E+00 0.  1.
</event>
<event>
 5   0  0.1204741E-04  0.1679485E+04  0.7818609E-02  0.8773152E-01
       -1   -1    0    0    0  501  0.00000000000E+00  0.00000000000E+00  0.57083297017E+03  0.57083297019E+03  0.50400001928E-02 0.  1.
        1   -1    0    0  501    0  0.00000000000E+00  0.00000000000E+00 -0.12353305739E+04  0.12353305739E+04  0.50400001928E-02 0. -1.
    10030    2    1    2    0    0  0.00000000000E+00  0.00000000000E+00 -0.66449760371E+03  0.18061635441E+04  0.16794849456E+04 0.  0.
        1    1    3    3  502    0 -0.10082939879E+03 -0.37960121910E+03  0.46596425590E+03  0.60941475287E+03  0.50400001928E-02 0.  1.
       -1    1    3    3    0  502  0.10082939879E+03  0.37960121910E+03 -0.11304618596E+04  0.11967487912E+04  0.50400001928E-02 0. -1.
</event>
<event>
 5   0  0.1234158E-04  0.1694405E+04  0.7818609E-02  0.8764562E-01
       -1   -1    0    0    0  501  0.00000000000E+00  0.00000000000E+00  0.48812765662E+03  0.48812765664E+03  0.50400001928E-02 0.  1.
        1   -1    0    0  501    0  0.00000000000E+00  0.00000000000E+00 -0.14704183205E+04  0.14704183205E+04  0.50400001928E-02 0. -1.
    10030    2    1    2    0    0  0.00000000000E+00  0.00000000000E+00 -0.98229066388E+03  0.19585459771E+04  0.16944047321E+04 0.  0.
        5    1    3    3  502    0  0.76492347682E+03 -0.24039095596E+03 -0.80734845787E+03  0.11378617489E+04  0.46999998093E+01 0. -1.
       -5    1    3    3    0  502 -0.76492347682E+03  0.24039095596E+03 -0.17494220601E+03  0.82068422828E+03  0.46999998093E+01 0.  1.
</event>
<event>
 5   0  0.2288806E-04  0.1716364E+04  0.7818609E-02  0.8752086E-01
        2   -1    0    0  501    0  0.00000000000E+00  0.00000000000E+00  0.26132091699E+04  0.26132091699E+04  0.25500000920E-02 0. -1.
       -2   -1    0    0    0  501  0.00000000000E+00  0.00000000000E+00 -0.28182823173E+03  0.28182823175E+03  0.25500000920E-02 0.  1.
    10030    2    1    2    0    0  0.00000000000E+00  0.00000000000E+00  0.23313809381E+04  0.28950374016E+04  0.17163637371E+04 0.  0.
        3    1    3    3  502    0  0.57074844635E+03  0.15254266755E+03  0.11577485793E+03  0.60201900499E+03  0.10100000352E+00 0.  1.
       -3    1    3    3    0  502 -0.57074844635E+03 -0.15254266755E+03  0.22156060802E+04  0.22930183966E+04  0.10100000352E+00 0. -1.
</event>
<event>
 5   0  0.2224454E-04  0.1703280E+04  0.7818609E-02  0.8759496E-01
        2   -1    0    0  501    0  0.00000000000E+00  0.00000000000E+00  0.25866814663E+04  0.25866814663E+04  0.25500000920E-02 0. -1.
       -2   -1    0    0    0  501  0.00000000000E+00  0.00000000000E+00 -0.28039420413E+03  0.28039420414E+03  0.25500000920E-02 0.  1.
    10030    2    1    2    0    0  0.00000000000E+00  0.00000000000E+00  0.23062872622E+04  0.28670756705E+04  0.17032797669E+04 0.  0.
        2    1    3    3  502    0 -0.11695780193E+03  0.84083867425E+03  0.10389579277E+04  0.13416863937E+04  0.25500000920E-02 0.  1.
       -2    1    3    3    0  502  0.11695780193E+03 -0.84083867425E+03  0.12673293345E+04  0.15253892768E+04  0.25500000920E-02 0. -1.
</event>
<event>
 5   0  0.1234158E-04  0.1644549E+04  0.7818609E-02  0.8793638E-01
       -1   -1    0    0    0  501  0.00000000000E+00  0.00000000000E+00  0.48358965063E+03  0.48358965066E+03  0.50400001928E-02 0. -1.
        1   -1    0    0  501    0  0.00000000000E+00  0.00000000000E+00 -0.13981597260E+04  0.13981597260E+04  0.50400001928E-02 0.  1.
    10030    2    1    2    0    0  0.00000000000E+00  0.00000000000E+00 -0.91457007536E+03  0.18817493767E+04  0.16445492677E+04 0.  0.
        5    1    3    3  502    0 -0.18304661353E+03 -0.56528065123E+03 -0.11076542675E+04  0.12569679167E+04  0.46999998093E+01 0.  1.
       -5    1    3    3    0  502  0.18304661353E+03  0.56528065123E+03  0.19308419216E+03  0.62478145991E+03  0.46999998093E+01 0. -1.
</event>
<event>
 5   0  0.2288806E-04  0.1706575E+04  0.7818609E-02  0.8757623E-01
       -2   -1    0    0    0  501  0.00000000000E+00  0.00000000000E+00  0.39870862371E+03  0.39870862372E+03  0.25500000920E-02 0. -1.
        2   -1    0    0  501    0  0.00000000000E+00  0.00000000000E+00 -0.18261438774E+04  0.18261438774E+04  0.25500000920E-02 0.  1.
    10030    2    1    2    0    0  0.00000000000E+00  0.00000000000E+00 -0.14274352536E+04  0.22248525011E+04  0.17065747122E+04 0.  0.
        3    1    3    3  502    0  0.35498217102E+03 -0.49250732728E+03 -0.14954166249E+04  0.16139537482E+04  0.10100000352E+00 0.  1.
       -3    1    3    3    0  502 -0.35498217102E+03  0.49250732728E+03  0.67981371289E+02  0.61089875283E+03  0.10100000352E+00 0. -1.
</event>
<event>
 5   0  0.2234723E-04  0.1697199E+04  0.7818609E-02  0.8762963E-01
        2   -1    0    0  501    0  0.00000000000E+00  0.00000000000E+00  0.21641730458E+04  0.21641730458E+04  0.25500000920E-02 0.  1.
       -2   -1    0    0    0  501  0.00000000000E+00  0.00000000000E+00 -0.33274655758E+03  0.33274655759E+03  0.25500000920E-02 0. -1.
    10030    2    1    2    0    0  0.00000000000E+00  0.00000000000E+00  0.18314264883E+04  0.24969196034E+04  0.16971990231E+04 0.  0.
        1    1    3    3  502    0 -0.60437599784E+03 -0.23340645258E+03  0.17220225319E+04  0.18398669841E+04  0.50400001928E-02 0.  1.
       -1    1    3    3    0  502  0.60437599784E+03  0.23340645258E+03  0.10940395639E+03  0.65705261934E+03  0.50400001928E-02 0. -1.
</event>
<event>
 5   0  0.2242967E-04  0.1711211E+04  0.7818609E-02  0.8754996E-01
       -2   -1    0    0    0  501  0.00000000000E+00  0.00000000000E+00  0.31597285093E+03  0.31597285094E+03  0.25500000920E-02 0. -1.
        2   -1    0    0  501    0  0.00000000000E+00  0.00000000000E+00 -0.23168460926E+04  0.23168460926E+04  0.25500000920E-02 0.  1.
    10030    2    1    2    0    0  0.00000000000E+00  0.00000000000E+00 -0.20008732416E+04  0.26328189435E+04  0.17112106417E+04 0.  0.
        4    1    3    3  502    0  0.12892647973E+03 -0.81438632086E+03 -0.64887489651E+03  0.10492317956E+04  0.12699999809E+01 0. -1.
       -4    1    3    3    0  502 -0.12892647973E+03  0.81438632086E+03 -0.13519983451E+04  0.15835871479E+04  0.12699999809E+01 0.  1.
</event>
<event>
 5   0  0.2224454E-04  0.1703843E+04  0.7818609E-02  0.8759176E-01
        2   -1    0    0  501    0  0.00000000000E+00  0.00000000000E+00  0.14282977708E+04  0.14282977708E+04  0.25500000920E-02 0.  1.
       -2   -1    0    0    0  501  0.00000000000E+00  0.00000000000E+00 -0.50813654117E+03  0.50813654118E+03  0.25500000920E-02 0. -1.
    10030    2    1    2    0    0  0.00000000000E+00  0.00000000000E+00  0.92016122959E+03  0.19364343119E+04  0.17038430550E+04 0.  0.
        2    1    3    3  502    0 -0.53765788506E+03  0.59452581331E+03  0.13219538381E+03  0.81241157277E+03  0.25500000920E-02 0. -1.
       -2    1    3    3    0  502  0.53765788506E+03 -0.59452581331E+03  0.78796584579E+03  0.11240227392E+04  0.25500000920E-02 0.  1.
</event>
<event>
 5   0  0.1234158E-04  0.1698480E+04  0.7818609E-02  0.8762232E-01
       -1   -1    0    0    0  501  0.00000000000E+00  0.00000000000E+00  0.45253285766E+03  0.45253285769E+03  0.50400001928E-02 0.  1.
        1   -1    0    0  501    0  0.00000000000E+00  0.00000000000E+00 -0.15937160129E+04  0.15937160129E+04  0.50400001928E-02 0. -1.
    10030    2    1    2    0    0  0.00000000000E+00  0.00000000000E+00 -0.11411831552E+04  0.20462488706E+04  0.16984803345E+04 0.  0.
        5    1    3    3  502    0  0.72474119454E+03  0.24003737912E+03 -0.10186543853E+04  0.12730069085E+04  0.46999998093E+01 0. -1.
       -5    1    3    3    0  502 -0.72474119454E+03 -0.24003737912E+03 -0.12252876994E+03  0.77324196207E+03  0.46999998093E+01 0.  1.
</event>
<event>
 5   0  0.2224454E-04  0.1699682E+04  0.7818609E-02  0.8761546E-01
       -2   -1    0    0    0  501  0.00000000000E+00  0.00000000000E+00  0.47818735336E+03  0.47818735337E+03  0.25500000920E-02 0.  1.
        2   -1    0    0  501    0  0.00000000000E+00  0.00000000000E+00 -0.15103479927E+04  0.15103479927E+04  0.25500000920E-02 0. -1.
    10030    2    1    2    0    0  0.00000000000E+00  0.00000000000E+00 -0.10321606393E+04  0.19885353461E+04  0.16996815105E+04 0.  0.
        2    1    3    3  502    0 -0.72353179848E+03  0.12131543782E+03 -0.14210894934E+02  0.73376947907E+03  0.25500000920E-02 0.  1.
       -2    1    3    3    0  502  0.72353179848E+03 -0.12131543782E+03 -0.10179497444E+04  0.12547658670E+04  0.25500000920E-02 0. -1.
</event>
<event>
 5   0  0.1234158E-04  0.1694879E+04  0.7818609E-02  0.8764290E-01
       -1   -1    0    0    0  501  0.00000000000E+00  0.00000000000E+00  0.10028479494E+04  0.10028479494E+04  0.50400001928E-02 0.  1.
        1   -1    0    0  501    0  0.00000000000E+00  0.00000000000E+00 -0.71611439129E+03  0.71611439131E+03  0.50400001928E-02 0. -1.
    10030    2    1    2    0    0  0.00000000000E+00  0.00000000000E+00  0.28673355811E+03  0.17189623407E+04  0.16948791684E+04 0.  0.
        5    1    3    3  502    0  0.51033987885E+03  0.56194712501E+03 -0.23868253433E+03  0.79575298016E+03  0.46999998093E+01 0. -1.
       -5    1    3    3    0  502 -0.51033987885E+03 -0.56194712501E+03  0.52541609244E+03  0.92320936057E+03  0.46999998093E+01 0.  1.
</event>
<event>
 5   0  0.1126958E-04  0.1703368E+04  0.7818609E-02  0.8759446E-01
       -1   -1    0    0    0  501  0.00000000000E+00  0.00000000000E+00  0.52792694142E+03  0.52792694144E+03  0.50400001928E-02 0.  1.
        1   -1    0    0  501    0  0.00000000000E+00  0.00000000000E+00 -0.13739892385E+04  0.13739892385E+04  0.50400001928E-02 0. -1.
    10030    2    1    2    0    0  0.00000000000E+00  0.00000000000E+00 -0.84606229707E+03  0.19019161799E+04  0.17033683527E+04 0.  0.
        4    1    3    3  502    0 -0.82578523361E+03 -0.11564702128E+03 -0.61664709338E+03  0.10370876223E+04  0.12699999809E+01 0.  1.
       -4    1    3    3    0  502  0.82578523361E+03  0.11564702128E+03 -0.22941520369E+03  0.86482855767E+03  0.12699999809E+01 0. -1.
</event>
<event>
 5   0  0.1215233E-04  0.1698259E+04  0.7818609E-02  0.8762358E-01
        1   -1    0    0  501    0  0.00000000000E+00  0.00000000000E+00  0.12388732153E+04  0.12388732153E+04  0.50400001928E-02 0.  1.
       -1   -1    0    0    0  501  0.00000000000E+00  0.00000000000E+00 -0.58199759667E+03  0.58199759670E+03  0.50400001928E-02 0. -1.
    10030    2    1    2    0    0  0.00000000000E+00  0.00000000000E+00  0.65687561862E+03  0.18208708120E+04  0.16982593841E+04 0.  0.
        2    1    3    3  502    0  0.42022759122E+03  0.11108433162E+03  0.11105476903E+04  0.11925800307E+04  0.25500000920E-02 0.  1.
       -2    1    3    3    0  502 -0.42022759122E+03 -0.11108433162E+03 -0.45367207173E+03  0.62829078127E+03  0.25500000920E-02 0. -1.
</event>
<event>
 5   0  0.1126958E-04  0.1665875E+04  0.7818609E-02  0.8781070E-01
        1   -1    0    0  501    0  0.00000000000E+00  0.00000000000E+00  0.73857898224E+03  0.73857898226E+03  0.50400001928E-02 0. -1.
       -1   -1    0    0    0  501  0.00000000000E+00  0.00000000000E+00 -0.93935121608E+03  0.93935121610E+03  0.50400001928E-02 0.  1.
    10030    2    1    2    0    0  0.00000000000E+00  0.00000000000E+00 -0.20077223384E+03  0.16779301984E+04  0.16658752236E+04 0.  0.
        4    1    3    3  502    0  0.25643730296E+03 -0.38226005005E+03  0.59882795817E+03  0.75530084906E+03  0.12699999809E+01 0. -1.
       -4    1    3    3    0  502 -0.25643730296E+03  0.38226005005E+03 -0.79960019201E+03  0.92262934929E+03  0.12699999809E+01 0.  1.
</event>
<event>
 5   0  0.2234723E-04  0.1695287E+04  0.7818609E-02  0.8764057E-01
        2   -1    0    0  501    0  0.00000000000E+00  0.00000000000E+00  0.11821697617E+04  0.11821697617E+04  0.25500000920E-02 0.  1.
       -2   -1    0    0    0  501  0.00000000000E+00  0.00000000000E+00 -0.60778045824E+03  0.60778045825E+03  0.25500000920E-02 0. -1.
    10030    2    1    2    0    0  0.00000000000E+00  0.00000000000E+00  0.57438930345E+03  0.17899502199E+04  0.16952872081E+04 0.  0.
        1    1    3    3  502    0  0.74577428356E+03  0.10483160726E+03  0.69792919945E+03  0.10267785133E+04  0.50400001928E-02 0.  1.
       -1    1    3    3    0  502 -0.74577428356E+03 -0.10483160726E+03 -0.12353989599E+03  0.76317170665E+03  0.50400001928E-02 0. -1.
</event>
<event>
 5   0  0.2242967E-04  0.1687380E+04  0.7818609E-02  0.8768595E-01
        2   -1    0    0  501    0  0.00000000000E+00  0.00000000000E+00  0.89613171092E+03  0.89613171092E+03  0.25500000920E-02 0.  1.
       -2   -1    0    0    0  501  0.00000000000E+00  0.00000000000E+00 -0.79431698959E+03  0.79431698960E+03  0.25500000920E-02 0. -1.
    10030    2    1    2    0    0  0.00000000000E+00  0.00000000000E+00  0.10181472133E+03  0.16904487005E+04  0.16873797947E+04 0.  0.
        4    1    3    3  502    0  0.26021245509E+03  0.20108653743E+03  0.82927907668E+03  0.89210521646E+03  0.12699999809E+01 0.  1.
       -4    1    3    3    0  502 -0.26021245509E+03 -0.20108653743E+03 -0.72746435536E+03  0.79834348406E+03  0.12699999809E+01 0. -1.
</event>
<event>
 5   0  0.1186302E-04  0.1687483E+04  0.7818609E-02  0.8768536E-01
       -1   -1    0    0    0  501  0.00000000000E+00  0.00000000000E+00  0.68698066967E+03  0.68698066969E+03  0.50400001928E-02 0. -1.
        1   -1    0    0  501    0  0.00000000000E+00  0.00000000000E+00 -0.10362728571E+04  0.10362728571E+04  0.50400001928E-02 0.  1.
    10030    2    1    2    0    0  0.00000000000E+00  0.00000000000E+00 -0.34929218738E+03  0.17232535268E+04  0.16874826474E+04 0.  0.
        3    1    3    3  502    0 -0.16639218933E+03  0.74383078690E+02 -0.10159297512E+04  0.10321494429E+04  0.10100000352E+00 0.  1.
       -3    1    3    3    0  502  0.16639218933E+03 -0.74383078690E+02  0.66663756377E+03  0.69110408383E+03  0.10100000352E+00 0. -1.
</event>
<event>
 5   0  0.2288806E-04  0.1706414E+04  0.7818609E-02  0.8757715E-01
       -2   -1    0    0    0  501  0.00000000000E+00  0.00000000000E+00  0.11075607684E+04  0.11075607684E+04  0.25500000920E-02 0.  1.
        2   -1    0    0  501    0  0.00000000000E+00  0.00000000000E+00 -0.65726610967E+03  0.65726610968E+03  0.25500000920E-02 0. -1.
    10030    2    1    2    0    0  0.00000000000E+00  0.00000000000E+00  0.45029465872E+03  0.17648268781E+04  0.17064139679E+04 0.  0.
        3    1    3    3  502    0  0.16623148834E+03 -0.60472200649E+03  0.82343077279E+03  0.10350651480E+04  0.10100000352E+00 0.  1.
       -3    1    3    3    0  502 -0.16623148834E+03  0.60472200649E+03 -0.37313611406E+03  0.72976173006E+03  0.10100000352E+00 0. -1.
</event>
<event>
 5   0  0.1186302E-04  0.1702944E+04  0.7818609E-02  0.8759687E-01
        1   -1    0    0  501    0  0.00000000000E+00  0.00000000000E+00  0.13655452562E+04  0.13655452562E+04  0.50400001928E-02 0. -1.
       -1   -1    0    0    0  501  0.00000000000E+00  0.00000000000E+00 -0.53092680221E+03  0.53092680223E+03  0.50400001928E-02 0.  1.
    10030    2    1    2    0    0  0.00000000000E+00  0.00000000000E+00  0.83461845397E+03  0.18964720584E+04  0.17029440110E+04 0.  0.
        3    1    3    3  502    0 -0.82479001882E+03  0.21135380858E+03  0.42561004696E+03  0.95188913736E+03  0.10100000352E+00 0. -1.
       -3    1    3    3    0  502  0.82479001882E+03 -0.21135380858E+03  0.40900840701E+03  0.94458292106E+03  0.10100000352E+00 0.  1.
</event>
<event>
 5   0  0.1215233E-04  0.1703042E+04  0.7818609E-02  0.8759631E-01
        1   -1    0    0  501    0  0.00000000000E+00  0.00000000000E+00  0.90278450928E+03  0.90278450929E+03  0.50400001928E-02 0. -1.
       -1   -1    0    0    0  501  0.00000000000E+00  0.00000000000E+00 -0.80316864256E+03  0.80316864258E+03  0.50400001928E-02 0.  1.
    10030    2    1    2    0    0  0.00000000000E+00  0.00000000000E+00  0.99615866715E+02  0.17059531519E+04  0.17030422295E+04 0.  0.
        2    1    3    3  502    0 -0.18781791097E+03  0.76648187097E+03  0.37022680917E+03  0.87168682245E+03  0.25500000920E-02 0. -1.
       -2    1    3    3    0  502  0.18781791097E+03 -0.76648187097E+03 -0.27061094245E+03  0.83426632941E+03  0.25500000920E-02 0.  1.
</event>
<event>
 5   0  0.2224454E-04  0.1732017E+04  0.7818609E-02  0.8743311E-01
        2   -1    0    0  501    0  0.00000000000E+00  0.00000000000E+00  0.16456694507E+04  0.16456694507E+04  0.25500000920E-02 0.  1.
       -2   -1    0    0    0  501  0.00000000000E+00  0.00000000000E+00 -0.45572400202E+03  0.45572400203E+03  0.25500000920E-02 0. -1.
    10030    2    1    2    0    0  0.00000000000E+00  0.00000000000E+00  0.11899454487E+04  0.21013934527E+04  0.17320173996E+04 0.  0.
        2    1    3    3  502    0  0.34385994675E+03  0.41499525551E+02 -0.36803233346E+03  0.50538071993E+03  0.25500000920E-02 0. -1.
       -2    1    3    3    0  502 -0.34385994675E+03 -0.41499525551E+02  0.15579777822E+04  0.15960127328E+04  0.25500000920E-02 0.  1.
</event>
<event>
 5   0  0.1234158E-04  0.1731682E+04  0.7818609E-02  0.8743499E-01
       -1   -1    0    0    0  501  0.00000000000E+00  0.00000000000E+00  0.82999477555E+03  0.82999477556E+03  0.50400001928E-02 0. -1.
        1   -1    0    0  501    0  0.00000000000E+00  0.00000000000E+00 -0.90323504056E+03  0.90323504057E+03  0.50400001928E-02 0.  1.
    10030    2    1    2    0    0  0.00000000000E+00  0.00000000000E+00 -0.73240265013E+02  0.17332298161E+04  0.17316816853E+04 0.  0.
        5    1    3    3  502    0  0.49812657988E+03  0.57994663552E+03 -0.44341931942E+03  0.88380482713E+03  0.46999998093E+01 0.  1.
       -5    1    3    3    0  502 -0.49812657988E+03 -0.57994663552E+03  0.37017905441E+03  0.84942498900E+03  0.46999998093E+01 0. -1.
</event>
<event>
 5   0  0.1204741E-04  0.1703481E+04  0.7818609E-02  0.8759381E-01
       -1   -1    0    0    0  501  0.00000000000E+00  0.00000000000E+00  0.97124748790E+03  0.97124748791E+03  0.50400001928E-02 0. -1.
        1   -1    0    0  501    0  0.00000000000E+00  0.00000000000E+00 -0.74693828919E+03  0.74693828921E+03  0.50400001928E-02 0.  1.
    10030    2    1    2    0    0  0.00000000000E+00  0.00000000000E+00  0.22430919870E+03  0.17181857771E+04  0.17034810677E+04 0.  0.
        1    1    3    3  502    0 -0.38324535144E+03  0.17386483166E+03 -0.63474820779E+03  0.76158470731E+03  0.50400001928E-02 0.  1.
       -1    1    3    3    0  502  0.38324535144E+03 -0.17386483166E+03  0.85905740649E+03  0.95660106981E+03  0.50400001928E-02 0. -1.
</event>
<event>
 5   0  0.2242967E-04  0.1707597E+04  0.7818609E-02  0.8757043E-01
        2   -1    0    0  501    0  0.00000000000E+00  0.00000000000E+00  0.88867965384E+03  0.88867965384E+03  0.25500000920E-02 0.  1.
       -2   -1    0    0    0  501  0.00000000000E+00  0.00000000000E+00 -0.82028657056E+03  0.82028657056E+03  0.25500000920E-02 0. -1.
    10030    2    1    2    0    0  0.00000000000E+00  0.00000000000E+00  0.68393083284E+02  0.17089662244E+04  0.17075971253E+04 0.  0.
        4    1    3    3  502    0 -0.27657187376E+03 -0.60532615181E+02  0.84033237982E+03  0.88674478872E+03  0.12699999809E+01 0.  1.
       -4    1    3    3    0  502  0.27657187376E+03  0.60532615181E+02 -0.77193929653E+03  0.82222143568E+03  0.12699999809E+01 0. -1.
</event>
<event>
 5   0  0.1204741E-04  0.1764463E+04  0.7818609E-02  0.8725429E-01
       -1   -1    0    0    0  501  0.00000000000E+00  0.00000000000E+00  0.39348104156E+03  0.39348104159E+03  0.50400001928E-02 0.  1.
        1   -1    0    0  501    0  0.00000000000E+00  0.00000000000E+00 -0.19780690334E+04  0.19780690335E+04  0.50400001928E-02 0. -1.
    10030    2    1    2    0    0  0.00000000000E+00  0.00000000000E+00 -0.15845879919E+04  0.23715500750E+04  0.17644632766E+04 0.  0.
        1    1    3    3  502    0 -0.98063778443E+02  0.33592504562E+03  0.29620675127E+03  0.45847636847E+03  0.50400001928E-02 0.  1.
       -1    1    3    3    0  502  0.98063778443E+02 -0.33592504562E+03 -0.18807947432E+04  0.19130737066E+04  0.50400001928E-02 0. -1.
</event>
<event>
 5   0  0.2242967E-04  0.1699566E+04  0.7818609E-02  0.8761612E-01
       -2   -1    0    0    0  501  0.00000000000E+00  0.00000000000E+00  0.35650012985E+03  0.35650012986E+03  0.25500000920E-02 0.  1.
        2   -1    0    0  501    0  0.00000000000E+00  0.00000000000E+00 -0.20256137697E+04  0.20256137697E+04  0.25500000920E-02 0. -1.
    10030    2    1    2    0    0  0.00000000000E+00  0.00000000000E+00 -0.16691136399E+04  0.23821138996E+04  0.16995664999E+04 0.  0.
        4    1    3    3  502    0 -0.43981112431E+03  0.37350896924E+03  0.39830047431E+02  0.57838639398E+03  0.12699999809E+01 0.  1.
       -4    1    3    3    0  502  0.43981112431E+03 -0.37350896924E+03 -0.17089436873E+04  0.18037275056E+04  0.12699999809E+01 0. -1.
</event>
<event>
 5   0  0.2356829E-04  0.1689865E+04  0.7818609E-02  0.8767166E-01
       -2   -1    0    0    0  501  0.00000000000E+00  0.00000000000E+00  0.65219138884E+03  0.65219138885E+03  0.25500000920E-02 0.  1.
        2   -1    0    0  501    0  0.00000000000E+00  0.00000000000E+00 -0.10946338189E+04  0.10946338189E+04  0.25500000920E-02 0. -1.
    10030    2    1    2    0    0  0.00000000000E+00  0.00000000000E+00 -0.44244243002E+03  0.17468252077E+04  0.16898647882E+04 0.  0.
        5    1    3    3  502    0  0.63042986385E+03  0.40674940526E+03  0.18046646411E+03  0.77167164427E+03  0.46999998093E+01 0.  1.
       -5    1    3    3    0  502 -0.63042986385E+03 -0.40674940526E+03 -0.62290889413E+03  0.97515356344E+03  0.46999998093E+01 0. -1.
</event>
<event>
 5   0  0.1126958E-04  0.1694396E+04  0.7818609E-02  0.8764567E-01
       -1   -1    0    0    0  501  0.00000000000E+00  0.00000000000E+00  0.97430163372E+03  0.97430163373E+03  0.50400001928E-02 0.  1.
        1   -1    0    0  501    0  0.00000000000E+00  0.00000000000E+00 -0.73667546136E+03  0.73667546137E+03  0.50400001928E-02 0. -1.
    10030    2    1    2    0    0  0.00000000000E+00  0.00000000000E+00  0.23762617236E+03  0.17109770951E+04  0.16943955920E+04 0.  0.
        4    1    3    3  502    0  0.79762527841E+03  0.26666143739E+03  0.15695751664E+02  0.84116727021E+03  0.12699999809E+01 0.  1.
       -4    1    3    3    0  502 -0.79762527841E+03 -0.26666143739E+03  0.22193042070E+03  0.86980982490E+03  0.12699999809E+01 0. -1.
</event>
<event>
 5   0  0.2356829E-04  0.1705352E+04  0.7818609E-02  0.8758318E-01
        2   -1    0    0  501    0  0.00000000000E+00  0.00000000000E+00  0.64111383055E+03  0.64111383056E+03  0.25500000920E-02 0. -1.
       -2   -1    0    0    0  501  0.00000000000E+00  0.00000000000E+00 -0.11340519664E+04  0.11340519664E+04  0.25500000920E-02 0.  1.
    10030    2    1    2    0    0  0.00000000000E+00  0.00000000000E+00 -0.49293813586E+03  0.17751657970E+04  0.17053520460E+04 0.  0.
        5    1    3    3  502    0  0.28932381700E+03 -0.70335532622E+03 -0.64776022889E+03  0.99901571066E+03  0.46999998093E+01 0. -1.
       -5    1    3    3    0  502 -0.28932381700E+03  0.70335532622E+03  0.15482209303E+03  0.77615008632E+03  0.46999998093E+01 0.  1.
</event>
<event>
 5   0  0.1215233E-04  0.1693968E+04  0.7818609E-02  0.8764812E-01
       -1   -1    0    0    0  501  0.00000000000E+00  0.00000000000E+00  0.47828284857E+03  0.47828284860E+03  0.50400001928E-02 0.  1.
        1   -1    0    0  501    0  0.00000000000E+00  0.00000000000E+00 -0.14999119051E+04  0.14999119051E+04  0.50400001928E-02 0. -1.
    10030    2    1    2    0    0  0.00000000000E+00  0.00000000000E+00 -0.10216290565E+04  0.19781947537E+04  0.16939682861E+04 0.  0.
        2    1    3    3  502    0 -0.71687802191E+03  0.34692023205E+02  0.14384129032E+02  0.71786108541E+03  0.25500000920E-02 0.  1.
       -2    1    3    3    0  502  0.71687802191E+03 -0.34692023205E+02 -0.10360131856E+04  0.12603336683E+04  0.25500000920E-02 0. -1.
</event>
<event>
 5   0  0.2224454E-04  0.1708686E+04  0.7818609E-02  0.8756426E-01
        2   -1    0    0  501    0  0.00000000000E+00  0.00000000000E+00  0.22928851484E+04  0.22928851484E+04  0.25500000920E-02 0.  1.
       -2   -1    0    0    0  501  0.00000000000E+00  0.00000000000E+00 -0.31833342890E+03  0.31833342891E+03  0.25500000920E-02 0. -1.
    10030    2    1    2    0    0  0.00000000000E+00  0.00000000000E+00  0.19745517195E+04  0.26112185773E+04  0.17086860348E+04 0.  0.
        2    1    3    3  502    0 -0.13049439086E+03  0.25844228548E+03  0.22156321982E+04  0.22344679991E+04  0.25500000920E-02 0.  1.
       -2    1    3    3    0  502  0.13049439086E+03 -0.25844228548E+03 -0.24108047875E+03  0.37675057825E+03  0.25500000920E-02 0. -1.
</event>
<event>
 5   0  0.1234158E-04  0.1680327E+04  0.7818609E-02  0.8772665E-01
        1   -1    0    0  501    0  0.00000000000E+00  0.00000000000E+00  0.11084408724E+04  0.11084408724E+04  0.50400001928E-02 0. -1.
       -1   -1    0    0    0  501  0.00000000000E+00  0.00000000000E+00 -0.63681793957E+03  0.63681793959E+03  0.50400001928E-02 0.  1.
    10030    2    1    2    0    0  0.00000000000E+00  0.00000000000E+00  0.47162293285E+03  0.17452588120E+04  0.16803273878E+04 0.  0.
        5    1    3    3  502    0 -0.57228093383E+03 -0.13857184385E+03 -0.38663361410E+03  0.70442548554E+03  0.46999998093E+01 0.  1.
       -5    1    3    3    0  502  0.57228093383E+03  0.13857184385E+03  0.85825654695E+03  0.10408333265E+04  0.46999998093E+01 0. -1.
</event>
</LesHouchesEvents>
